<?xml version="1.0" encoding="UTF-8"?>

<!-- generated on Tue Nov 10 12:02:30 2020 by Eclipse SUMO sumo Version 1.7.0
<configuration xmlns:xsi="http://www.w3.org/2001/XMLSchema-instance" xsi:noNamespaceSchemaLocation="http://sumo.dlr.de/xsd/sumoConfiguration.xsd">

    <input>
        <net-file value="../dataSets/Porto/8AM9AM_Routing_SaoBento/Porto.net.xml"/>
        <route-files value="../results/Porto/8AM9AM_Routing_SaoBento/inputdata/cost_PMx-length/solution10/Porto.rou.xml"/>
        <additional-files value="moreOutputInfo.xml"/>
    </input>

    <output>
        <emission-output.precision value="6"/>
        <tripinfo-output value="../results/Porto/8AM9AM_Routing_SaoBento/inputdata/cost_PMx-length/solution10/Porto-tripinfo"/>
    </output>

    <processing>
        <collision.action value="warn"/>
        <time-to-teleport value="-1"/>
    </processing>

    <emissions>
        <device.emissions.probability value="1"/>
    </emissions>

    <gui_only>
        <quit-on-end value="true"/>
        <start value="true"/>
    </gui_only>

</configuration>
-->

<meandata xmlns:xsi="http://www.w3.org/2001/XMLSchema-instance" xsi:noNamespaceSchemaLocation="http://sumo.dlr.de/xsd/meandata_file.xsd">
    <interval begin="0.00" end="8561.00" id="emissions-detector">
        <edge id=":1092997347_0" sampledSeconds="613.89" CO_abs="74942.798457" CO2_abs="3251864.813458" HC_abs="418.244204" PMx_abs="65.915936" NOx_abs="1407.412803" fuel_abs="1397.843572" electricity_abs="0"
            CO_normed="71623.449481" CO2_normed="3107833.974485" HC_normed="399.719429" PMx_normed="62.996403" NOx_normed="1345.076003" fuel_normed="1335.930610" electricity_normed="0"
            traveltime="0.07" CO_perVeh="8.144999" CO2_perVeh="353.422015" HC_perVeh="0.045456" PMx_perVeh="0.007164" NOx_perVeh="0.152962" fuel_perVeh="0.151922" electricity_perVeh="0"/>
        <edge id=":1103427051_0" sampledSeconds="19.52" CO_abs="1539.965270" CO2_abs="85231.510958" HC_abs="9.035163" PMx_abs="1.675423" NOx_abs="36.414435" fuel_abs="36.637269" electricity_abs="0"
            CO_normed="2233.011360" CO2_normed="123589.106755" HC_normed="13.101348" PMx_normed="2.429431" NOx_normed="52.802391" fuel_normed="53.125508" electricity_normed="0"
            traveltime="0.03" CO_perVeh="2.394841" CO2_perVeh="132.545786" HC_perVeh="0.014051" PMx_perVeh="0.002605" NOx_perVeh="0.056629" fuel_perVeh="0.056976" electricity_perVeh="0"/>
        <edge id=":1105984386_0" sampledSeconds="10.47" CO_abs="193.590524" CO2_abs="15847.765125" HC_abs="1.239669" PMx_abs="0.195848" NOx_abs="5.924375" fuel_abs="6.812363" electricity_abs="0"
            CO_normed="8.383838" CO2_normed="686.320229" HC_normed="0.053686" PMx_normed="0.008482" NOx_normed="0.256567" fuel_normed="0.295023" electricity_normed="0"
            traveltime="1.00" CO_perVeh="18.571073" CO2_perVeh="1520.270691" HC_perVeh="0.118921" PMx_perVeh="0.018788" NOx_perVeh="0.568323" fuel_perVeh="0.653508" electricity_perVeh="0"/>
        <edge id=":1105984390_0" sampledSeconds="10.45" CO_abs="0" CO2_abs="0" HC_abs="0" PMx_abs="0" NOx_abs="0" fuel_abs="0" electricity_abs="0"
            CO_normed="0" CO2_normed="0" HC_normed="0" PMx_normed="0" NOx_normed="0" fuel_normed="0" electricity_normed="0"
            traveltime="1.08" CO_perVeh="0" CO2_perVeh="0" HC_perVeh="0" PMx_perVeh="0" NOx_perVeh="0" fuel_perVeh="0" electricity_perVeh="0"/>
        <edge id=":1105984390_1" sampledSeconds="2397.08" CO_abs="62182.031089" CO2_abs="7438045.894608" HC_abs="460.360819" PMx_abs="133.955322" NOx_abs="2826.410768" fuel_abs="3197.272672" electricity_abs="0"
            CO_normed="1991.490235" CO2_normed="238216.660105" HC_normed="14.743875" PMx_normed="4.290158" NOx_normed="90.520836" fuel_normed="102.398349" electricity_normed="0"
            traveltime="0.65" CO_perVeh="16.788415" CO2_perVeh="2008.184716" HC_perVeh="0.124292" PMx_perVeh="0.036166" NOx_perVeh="0.763098" fuel_perVeh="0.863226" electricity_perVeh="0"/>
        <edge id=":1105984395_0" sampledSeconds="4.19" CO_abs="61.077157" CO2_abs="4179.526483" HC_abs="0.373961" PMx_abs="0.061372" NOx_abs="1.637090" fuel_abs="1.796615" electricity_abs="0"
            CO_normed="27.917016" CO2_normed="1910.368981" HC_normed="0.170929" PMx_normed="0.028052" NOx_normed="0.748277" fuel_normed="0.821193" electricity_normed="0"
            traveltime="0.10" CO_perVeh="1.415747" CO2_perVeh="96.879929" HC_perVeh="0.008668" PMx_perVeh="0.001423" NOx_perVeh="0.037947" fuel_perVeh="0.041645" electricity_perVeh="0"/>
        <edge id=":1105984398_0" sampledSeconds="10.14" CO_abs="653.918711" CO2_abs="44215.023635" HC_abs="4.008507" PMx_abs="0.736934" NOx_abs="17.868129" fuel_abs="19.006185" electricity_abs="0"
            CO_normed="22.744451" CO2_normed="1537.876867" HC_normed="0.139423" PMx_normed="0.025632" NOx_normed="0.621485" fuel_normed="0.661069" electricity_normed="0"
            traveltime="1.17" CO_perVeh="75.469222" CO2_perVeh="5102.887200" HC_perVeh="0.462625" PMx_perVeh="0.085050" NOx_perVeh="2.062173" fuel_perVeh="2.193517" electricity_perVeh="0"/>
        <edge id=":1105984398_1" sampledSeconds="647.19" CO_abs="12156.194980" CO2_abs="1392042.827181" HC_abs="87.379680" PMx_abs="20.272020" NOx_abs="528.877135" fuel_abs="598.379574" electricity_abs="0"
            CO_normed="409.273120" CO2_normed="46867.108712" HC_normed="2.941887" PMx_normed="0.682516" NOx_normed="17.806163" fuel_normed="20.146162" electricity_normed="0"
            traveltime="0.95" CO_perVeh="17.865805" CO2_perVeh="2045.867607" HC_perVeh="0.128421" PMx_perVeh="0.029794" NOx_perVeh="0.777284" fuel_perVeh="0.879431" electricity_perVeh="0"/>
        <edge id=":1106006327_0" sampledSeconds="68.37" CO_abs="9186.816805" CO2_abs="294963.980248" HC_abs="48.770016" PMx_abs="6.145815" NOx_abs="129.064077" fuel_abs="126.794697" electricity_abs="0"
            CO_normed="436.022939" CO2_normed="13999.523917" HC_normed="2.314713" PMx_normed="0.291691" NOx_normed="6.125614" fuel_normed="6.017906" electricity_normed="0"
            traveltime="2.12" CO_perVeh="284.787785" CO2_perVeh="9143.769865" HC_perVeh="1.511852" PMx_perVeh="0.190518" NOx_perVeh="4.000937" fuel_perVeh="3.930587" electricity_perVeh="0"/>
        <edge id=":1106006327_1" sampledSeconds="682.36" CO_abs="91932.290432" CO2_abs="3069123.672785" HC_abs="490.910154" PMx_abs="63.914436" NOx_abs="1342.564247" fuel_abs="1319.305838" electricity_abs="0"
            CO_normed="3804.979981" CO2_normed="127027.773151" HC_normed="20.318251" PMx_normed="2.645351" NOx_normed="55.567310" fuel_normed="54.604669" electricity_normed="0"
            traveltime="2.29" CO_perVeh="308.594447" CO2_perVeh="10302.305298" HC_perVeh="1.647867" PMx_perVeh="0.214545" NOx_perVeh="4.506663" fuel_perVeh="4.428590" electricity_perVeh="0"/>
        <edge id=":1106006327_2" sampledSeconds="0.00" CO_abs="0" CO2_abs="0" HC_abs="0" PMx_abs="0" NOx_abs="0" fuel_abs="0" electricity_abs="0"
            CO_normed="0" CO2_normed="0" HC_normed="0" PMx_normed="0" NOx_normed="0" fuel_normed="0" electricity_normed="0"/>
        <edge id=":1106006327_3" sampledSeconds="0.00" CO_abs="0" CO2_abs="0" HC_abs="0" PMx_abs="0" NOx_abs="0" fuel_abs="0" electricity_abs="0"
            CO_normed="0" CO2_normed="0" HC_normed="0" PMx_normed="0" NOx_normed="0" fuel_normed="0" electricity_normed="0"/>
        <edge id=":1107381198_0" sampledSeconds="0.00" CO_abs="0" CO2_abs="0" HC_abs="0" PMx_abs="0" NOx_abs="0" fuel_abs="0" electricity_abs="0"
            CO_normed="0" CO2_normed="0" HC_normed="0" PMx_normed="0" NOx_normed="0" fuel_normed="0" electricity_normed="0"/>
        <edge id=":1107381198_1" sampledSeconds="105.12" CO_abs="4564.707457" CO2_abs="180125.037374" HC_abs="24.937224" PMx_abs="3.145807" NOx_abs="74.872670" fuel_abs="77.429488" electricity_abs="0"
            CO_normed="209.325250" CO2_normed="8260.051441" HC_normed="1.143554" PMx_normed="0.144258" NOx_normed="3.433460" fuel_normed="3.550709" electricity_normed="0"
            traveltime="1.57" CO_perVeh="68.342423" CO2_perVeh="2696.817190" HC_perVeh="0.373358" PMx_perVeh="0.047099" NOx_perVeh="1.120987" fuel_perVeh="1.159268" electricity_perVeh="0"/>
        <edge id=":1110338277_0" sampledSeconds="160.50" CO_abs="2447.454766" CO2_abs="300076.472711" HC_abs="17.974845" PMx_abs="4.102810" NOx_abs="112.142278" fuel_abs="128.990289" electricity_abs="0"
            CO_normed="3675.654195" CO2_normed="450663.015735" HC_normed="26.995112" PMx_normed="6.161711" NOx_normed="168.418325" fuel_normed="193.721128" electricity_normed="0"
            traveltime="0.02" CO_perVeh="0.331485" CO2_perVeh="40.642564" HC_perVeh="0.002435" PMx_perVeh="0.000556" NOx_perVeh="0.015189" fuel_perVeh="0.017471" electricity_perVeh="0"/>
        <edge id=":1110338293_0" sampledSeconds="6615.14" CO_abs="613097.994825" CO2_abs="10743151.034234" HC_abs="3042.969600" PMx_abs="256.184953" NOx_abs="4855.556788" fuel_abs="4618.299346" electricity_abs="0"
            CO_normed="859382.775132" CO2_normed="15058732.906296" HC_normed="4265.346946" PMx_normed="359.095835" NOx_normed="6806.060209" fuel_normed="6473.495170" electricity_normed="0"
            traveltime="0.44" CO_perVeh="40.971038" CO2_perVeh="717.924459" HC_perVeh="0.203350" PMx_perVeh="0.017120" NOx_perVeh="0.324479" fuel_perVeh="0.308624" electricity_perVeh="0"/>
        <edge id=":1110338295_0" sampledSeconds="0.00" CO_abs="0" CO2_abs="0" HC_abs="0" PMx_abs="0" NOx_abs="0" fuel_abs="0" electricity_abs="0"
            CO_normed="0" CO2_normed="0" HC_normed="0" PMx_normed="0" NOx_normed="0" fuel_normed="0" electricity_normed="0"/>
        <edge id=":1110673403_0" sampledSeconds="200.47" CO_abs="3265.604253" CO2_abs="389842.436448" HC_abs="23.794305" PMx_abs="5.399335" NOx_abs="146.252037" fuel_abs="167.576875" electricity_abs="0"
            CO_normed="4577.415142" CO2_normed="546444.251534" HC_normed="33.352607" PMx_normed="7.568277" NOx_normed="205.002271" fuel_normed="234.893412" electricity_normed="0"
            traveltime="0.02" CO_perVeh="0.377425" CO2_perVeh="45.056336" HC_perVeh="0.002750" PMx_perVeh="0.000624" NOx_perVeh="0.016903" fuel_perVeh="0.019368" electricity_perVeh="0"/>
        <edge id=":1110673412_0" sampledSeconds="940.60" CO_abs="166789.528401" CO2_abs="11387423.263697" HC_abs="1038.149980" PMx_abs="250.224598" NOx_abs="4893.113794" fuel_abs="4894.892390" electricity_abs="0"
            CO_normed="241851.500689" CO2_normed="16512220.111778" HC_normed="1505.359077" PMx_normed="362.835695" NOx_normed="7095.211105" fuel_normed="7097.790141" electricity_normed="0"
            traveltime="0.02" CO_perVeh="2.752262" CO2_perVeh="187.908517" HC_perVeh="0.017131" PMx_perVeh="0.004129" NOx_perVeh="0.080743" fuel_perVeh="0.080773" electricity_perVeh="0"/>
        <edge id=":1110673414_0" sampledSeconds="0.00" CO_abs="0" CO2_abs="0" HC_abs="0" PMx_abs="0" NOx_abs="0" fuel_abs="0" electricity_abs="0"
            CO_normed="0" CO2_normed="0" HC_normed="0" PMx_normed="0" NOx_normed="0" fuel_normed="0" electricity_normed="0"/>
        <edge id=":1110673414_1" sampledSeconds="395.06" CO_abs="26891.420896" CO2_abs="1042084.141006" HC_abs="146.666770" PMx_abs="19.300725" NOx_abs="440.326568" fuel_abs="447.954448" electricity_abs="0"
            CO_normed="1252.287379" CO2_normed="48528.072302" HC_normed="6.830020" PMx_normed="0.898802" NOx_normed="20.505254" fuel_normed="20.860471" electricity_normed="0"
            traveltime="1.57" CO_perVeh="106.799283" CO2_perVeh="4138.637372" HC_perVeh="0.582487" PMx_perVeh="0.076653" NOx_perVeh="1.748757" fuel_perVeh="1.779051" electricity_perVeh="0"/>
        <edge id=":1110673417_0" sampledSeconds="29.12" CO_abs="532.888440" CO2_abs="57228.959757" HC_abs="3.748300" PMx_abs="0.827239" NOx_abs="21.782801" fuel_abs="24.600309" electricity_abs="0"
            CO_normed="800.306366" CO2_normed="85948.009713" HC_normed="5.629299" PMx_normed="1.242370" NOx_normed="32.714003" fuel_normed="36.945414" electricity_normed="0"
            traveltime="0.02" CO_perVeh="0.406353" CO2_perVeh="43.639829" HC_perVeh="0.002858" PMx_perVeh="0.000631" NOx_perVeh="0.016610" fuel_perVeh="0.018759" electricity_perVeh="0"/>
        <edge id=":1110673446_0" sampledSeconds="1311.86" CO_abs="14375.317876" CO2_abs="1159318.747228" HC_abs="92.945498" PMx_abs="21.343287" NOx_abs="474.740556" fuel_abs="498.337748" electricity_abs="0"
            CO_normed="20149.960813" CO2_normed="1625023.357871" HC_normed="130.282207" PMx_normed="29.917000" NOx_normed="665.446404" fuel_normed="698.522717" electricity_normed="0"
            traveltime="0.02" CO_perVeh="0.249706" CO2_perVeh="20.137927" HC_perVeh="0.001615" PMx_perVeh="0.000371" NOx_perVeh="0.008246" fuel_perVeh="0.008656" electricity_perVeh="0"/>
        <edge id=":1110673451_0" sampledSeconds="36.87" CO_abs="251.108385" CO2_abs="16705.603587" HC_abs="1.531657" PMx_abs="0.273351" NOx_abs="6.728666" fuel_abs="7.181049" electricity_abs="0"
            CO_normed="391.088867" CO2_normed="26018.149884" HC_normed="2.385479" PMx_normed="0.425730" NOx_normed="10.479563" fuel_normed="11.184127" electricity_normed="0"
            traveltime="0.03" CO_perVeh="0.185011" CO2_perVeh="12.308336" HC_perVeh="0.001128" PMx_perVeh="0.000201" NOx_perVeh="0.004958" fuel_perVeh="0.005291" electricity_perVeh="0"/>
        <edge id=":1110673464_0" sampledSeconds="1032.92" CO_abs="4073.740038" CO2_abs="284335.513073" HC_abs="25.047657" PMx_abs="4.185962" NOx_abs="111.121373" fuel_abs="122.224663" electricity_abs="0"
            CO_normed="121.321178" CO2_normed="8467.874499" HC_normed="0.745951" PMx_normed="0.124663" NOx_normed="3.309336" fuel_normed="3.640006" electricity_normed="0"
            traveltime="1.22" CO_perVeh="4.830886" CO2_perVeh="337.182125" HC_perVeh="0.029703" PMx_perVeh="0.004964" NOx_perVeh="0.131774" fuel_perVeh="0.144941" electricity_perVeh="0"/>
        <edge id=":1110673464_1" sampledSeconds="2601.92" CO_abs="66332.396653" CO2_abs="7924617.889841" HC_abs="491.207027" PMx_abs="142.526083" NOx_abs="3014.569355" fuel_abs="3406.427500" electricity_abs="0"
            CO_normed="1935.707407" CO2_normed="231255.650683" HC_normed="14.334369" PMx_normed="4.159186" NOx_normed="87.970954" fuel_normed="99.406132" electricity_normed="0"
            traveltime="0.72" CO_perVeh="18.285469" CO2_perVeh="2184.533713" HC_perVeh="0.135408" PMx_perVeh="0.039289" NOx_perVeh="0.831009" fuel_perVeh="0.939030" electricity_perVeh="0"/>
        <edge id=":1110673479_0" sampledSeconds="134.83" CO_abs="6375.540699" CO2_abs="435774.138235" HC_abs="39.262277" PMx_abs="7.608326" NOx_abs="178.183331" fuel_abs="187.320459" electricity_abs="0"
            CO_normed="8936.629878" CO2_normed="610826.966339" HC_normed="55.034147" PMx_normed="10.664632" NOx_normed="249.760538" fuel_normed="262.568100" electricity_normed="0"
            traveltime="0.03" CO_perVeh="1.347847" CO2_perVeh="92.126593" HC_perVeh="0.008300" PMx_perVeh="0.001608" NOx_perVeh="0.037670" fuel_perVeh="0.039601" electricity_perVeh="0"/>
        <edge id=":1110673511_0" sampledSeconds="62.98" CO_abs="1275.605885" CO2_abs="131106.575339" HC_abs="8.817770" PMx_abs="1.896781" NOx_abs="50.062839" fuel_abs="56.357197" electricity_abs="0"
            CO_normed="1788.023668" CO2_normed="183772.795710" HC_normed="12.359916" PMx_normed="2.658729" NOx_normed="70.173352" fuel_normed="78.996188" electricity_normed="0"
            traveltime="0.02" CO_perVeh="0.488900" CO2_perVeh="50.249027" HC_perVeh="0.003380" PMx_perVeh="0.000727" NOx_perVeh="0.019188" fuel_perVeh="0.021600" electricity_perVeh="0"/>
        <edge id=":1110673517_0" sampledSeconds="182.30" CO_abs="8217.720610" CO2_abs="588741.772520" HC_abs="51.218894" PMx_abs="10.056995" NOx_abs="238.795242" fuel_abs="253.074683" electricity_abs="0"
            CO_normed="11518.823423" CO2_normed="825242.526602" HC_normed="71.793801" PMx_normed="14.096944" NOx_normed="334.720582" fuel_normed="354.736152" electricity_normed="0"
            traveltime="0.03" CO_perVeh="1.258200" CO2_perVeh="90.141131" HC_perVeh="0.007842" PMx_perVeh="0.001540" NOx_perVeh="0.036561" fuel_perVeh="0.038748" electricity_perVeh="0"/>
        <edge id=":1110673534_0" sampledSeconds="661.29" CO_abs="4031.141692" CO2_abs="339742.829791" HC_abs="26.117545" PMx_abs="4.581772" NOx_abs="129.079302" fuel_abs="146.042127" electricity_abs="0"
            CO_normed="109.505293" CO2_normed="9229.057402" HC_normed="0.709479" PMx_normed="0.124463" NOx_normed="3.506418" fuel_normed="3.967210" electricity_normed="0"
            traveltime="1.45" CO_perVeh="8.863881" CO2_perVeh="747.043910" HC_perVeh="0.057429" PMx_perVeh="0.010075" NOx_perVeh="0.283826" fuel_perVeh="0.321125" electricity_perVeh="0"/>
        <edge id=":1110673534_1" sampledSeconds="263.84" CO_abs="4165.146670" CO2_abs="540738.132766" HC_abs="31.275559" PMx_abs="7.224568" NOx_abs="200.470075" fuel_abs="232.440748" electricity_abs="0"
            CO_normed="110.018378" CO2_normed="14283.082258" HC_normed="0.826114" PMx_normed="0.190830" NOx_normed="5.295226" fuel_normed="6.139701" electricity_normed="0"
            traveltime="1.22" CO_perVeh="19.325236" CO2_perVeh="2508.889280" HC_perVeh="0.145111" PMx_perVeh="0.033520" NOx_perVeh="0.930131" fuel_perVeh="1.078467" electricity_perVeh="0"/>
        <edge id=":1110673549_0" sampledSeconds="651.31" CO_abs="1013.583636" CO2_abs="101906.604488" HC_abs="6.939339" PMx_abs="1.391500" NOx_abs="38.207374" fuel_abs="43.805522" electricity_abs="0"
            CO_normed="26.672322" CO2_normed="2681.659048" HC_normed="0.182608" PMx_normed="0.036617" NOx_normed="1.005422" fuel_normed="1.152737" electricity_normed="0"
            traveltime="1.29" CO_perVeh="2.013749" CO2_perVeh="202.464124" HC_perVeh="0.013787" PMx_perVeh="0.002765" NOx_perVeh="0.075909" fuel_perVeh="0.087031" electricity_perVeh="0"/>
        <edge id=":1110673549_1" sampledSeconds="3198.20" CO_abs="68693.647291" CO2_abs="9117253.955109" HC_abs="529.785576" PMx_abs="159.611170" NOx_abs="3403.227564" fuel_abs="3919.090576" electricity_abs="0"
            CO_normed="1748.576094" CO2_normed="232076.952371" HC_normed="13.485532" PMx_normed="4.062854" NOx_normed="86.628132" fuel_normed="99.759270" electricity_normed="0"
            traveltime="0.81" CO_perVeh="17.327075" CO2_perVeh="2299.708218" HC_perVeh="0.133631" PMx_perVeh="0.040260" NOx_perVeh="0.858420" fuel_perVeh="0.988539" electricity_perVeh="0"/>
        <edge id=":1110673556_0" sampledSeconds="471.01" CO_abs="57655.166452" CO2_abs="2751370.326744" HC_abs="327.853468" PMx_abs="55.553374" NOx_abs="1186.460739" fuel_abs="1182.697194" electricity_abs="0"
            CO_normed="1125.042580" CO2_normed="53688.315551" HC_normed="6.397503" PMx_normed="1.084030" NOx_normed="23.151765" fuel_normed="23.078326" electricity_normed="0"
            traveltime="2.78" CO_perVeh="339.872866" CO2_perVeh="16219.120934" HC_perVeh="1.932672" PMx_perVeh="0.327483" NOx_perVeh="6.994097" fuel_perVeh="6.971911" electricity_perVeh="0"/>
        <edge id=":1110673556_2" sampledSeconds="178.76" CO_abs="17635.462444" CO2_abs="738692.116856" HC_abs="97.672042" PMx_abs="14.455656" NOx_abs="316.489726" fuel_abs="317.534805" electricity_abs="0"
            CO_normed="359.821297" CO2_normed="15071.742871" HC_normed="1.992830" PMx_normed="0.294943" NOx_normed="6.457429" fuel_normed="6.478752" electricity_normed="0"
            traveltime="3.09" CO_perVeh="304.945031" CO2_perVeh="12773.154726" HC_perVeh="1.688904" PMx_perVeh="0.249961" NOx_perVeh="5.472608" fuel_perVeh="5.490679" electricity_perVeh="0"/>
        <edge id=":1110673556_3" sampledSeconds="185.88" CO_abs="20133.114204" CO2_abs="683099.111197" HC_abs="107.668607" PMx_abs="13.675839" NOx_abs="295.439709" fuel_abs="293.640270" electricity_abs="0"
            CO_normed="934.460101" CO2_normed="31705.421143" HC_normed="4.997340" PMx_normed="0.634752" NOx_normed="13.712564" fuel_normed="13.629045" electricity_normed="0"
            traveltime="1.91" CO_perVeh="206.378999" CO2_perVeh="7002.260531" HC_perVeh="1.103681" PMx_perVeh="0.140187" NOx_perVeh="3.028471" fuel_perVeh="3.010025" electricity_perVeh="0"/>
        <edge id=":1110673556_4" sampledSeconds="36.08" CO_abs="3772.785912" CO2_abs="145020.739175" HC_abs="20.583283" PMx_abs="2.861117" NOx_abs="62.346627" fuel_abs="62.338959" electricity_abs="0"
            CO_normed="106.979118" CO2_normed="4112.131242" HC_normed="0.583649" PMx_normed="0.081128" NOx_normed="1.767868" fuel_normed="1.767650" electricity_normed="0"
            traveltime="2.48" CO_perVeh="259.775351" CO2_perVeh="9985.409796" HC_perVeh="1.417263" PMx_perVeh="0.197002" NOx_perVeh="4.292880" fuel_perVeh="4.292352" electricity_perVeh="0"/>
        <edge id=":1110673556_5" sampledSeconds="22.04" CO_abs="1306.558019" CO2_abs="58820.642498" HC_abs="7.309532" PMx_abs="1.016216" NOx_abs="24.323945" fuel_abs="25.284813" electricity_abs="0"
            CO_normed="51.637484" CO2_normed="2324.695847" HC_normed="0.288886" PMx_normed="0.040163" NOx_normed="0.961325" fuel_normed="0.999301" electricity_normed="0"
            traveltime="1.52" CO_perVeh="90.329937" CO2_perVeh="4066.612321" HC_perVeh="0.505350" PMx_perVeh="0.070257" NOx_perVeh="1.681655" fuel_perVeh="1.748086" electricity_perVeh="0"/>
        <edge id=":1110673556_6" sampledSeconds="216.38" CO_abs="27091.700158" CO2_abs="1351188.584983" HC_abs="155.533953" PMx_abs="27.518158" NOx_abs="583.518024" fuel_abs="580.817222" electricity_abs="0"
            CO_normed="541.977868" CO2_normed="27030.946914" HC_normed="3.111505" PMx_normed="0.550509" NOx_normed="11.673459" fuel_normed="11.619429" electricity_normed="0"
            traveltime="2.52" CO_perVeh="315.686866" CO2_perVeh="15744.766371" HC_perVeh="1.812364" PMx_perVeh="0.320656" NOx_perVeh="6.799462" fuel_perVeh="6.767990" electricity_perVeh="0"/>
        <edge id=":1110673561_0" sampledSeconds="103.62" CO_abs="10030.242867" CO2_abs="712226.306113" HC_abs="62.800918" PMx_abs="14.418995" NOx_abs="301.562806" fuel_abs="306.152180" electricity_abs="0"
            CO_normed="252.111997" CO2_normed="17901.939005" HC_normed="1.578513" PMx_normed="0.362424" NOx_normed="7.579837" fuel_normed="7.695191" electricity_normed="0"
            traveltime="1.22" CO_perVeh="118.366601" CO2_perVeh="8404.961699" HC_perVeh="0.741112" PMx_perVeh="0.170158" NOx_perVeh="3.558734" fuel_perVeh="3.612893" electricity_perVeh="0"/>
        <edge id=":1110673561_1" sampledSeconds="5187.93" CO_abs="482854.465866" CO2_abs="33470771.869256" HC_abs="3008.317049" PMx_abs="699.269436" NOx_abs="14307.336791" fuel_abs="14387.468642" electricity_abs="0"
            CO_normed="11832.512521" CO2_normed="820212.621457" HC_normed="73.719830" PMx_normed="17.135835" NOx_normed="350.606143" fuel_normed="352.569801" electricity_normed="0"
            traveltime="1.19" CO_perVeh="110.989975" CO2_perVeh="7693.664258" HC_perVeh="0.691498" PMx_perVeh="0.160736" NOx_perVeh="3.288715" fuel_perVeh="3.307135" electricity_perVeh="0"/>
        <edge id=":1110673562_0" sampledSeconds="301.97" CO_abs="6365.220695" CO2_abs="491908.975973" HC_abs="40.205870" PMx_abs="6.699997" NOx_abs="188.170871" fuel_abs="211.452651" electricity_abs="0"
            CO_normed="9913.515859" CO2_normed="766123.857763" HC_normed="62.618651" PMx_normed="10.434913" NOx_normed="293.066809" fuel_normed="329.327028" electricity_normed="0"
            traveltime="0.03" CO_perVeh="0.570588" CO2_perVeh="44.095426" HC_perVeh="0.003604" PMx_perVeh="0.000601" NOx_perVeh="0.016868" fuel_perVeh="0.018955" electricity_perVeh="0"/>
        <edge id=":1110673564_0" sampledSeconds="28.20" CO_abs="356.372263" CO2_abs="42184.554025" HC_abs="2.589712" PMx_abs="0.599229" NOx_abs="15.902655" fuel_abs="18.133348" electricity_abs="0"
            CO_normed="1498.586784" CO2_normed="177390.952563" HC_normed="10.890040" PMx_normed="2.519826" NOx_normed="66.872513" fuel_normed="76.252835" electricity_normed="0"
            traveltime="7.966336e-03" CO_perVeh="0.100656" CO2_perVeh="11.914858" HC_perVeh="0.000731" PMx_perVeh="0.000169" NOx_perVeh="0.004492" fuel_perVeh="0.005122" electricity_perVeh="0"/>
        <edge id=":1110673588_0" sampledSeconds="62.65" CO_abs="1126.961395" CO2_abs="123683.344677" HC_abs="7.983657" PMx_abs="1.730121" NOx_abs="46.748144" fuel_abs="53.166302" electricity_abs="0"
            CO_normed="1895.601458" CO2_normed="208041.135773" HC_normed="13.428883" PMx_normed="2.910143" NOx_normed="78.632552" fuel_normed="89.428192" electricity_normed="0"
            traveltime="0.02" CO_perVeh="0.363536" CO2_perVeh="39.897853" HC_perVeh="0.002575" PMx_perVeh="0.000558" NOx_perVeh="0.015080" fuel_perVeh="0.017150" electricity_perVeh="0"/>
        <edge id=":1110673601_0" sampledSeconds="29.17" CO_abs="534.531402" CO2_abs="61479.840203" HC_abs="3.830703" PMx_abs="0.852917" NOx_abs="23.098272" fuel_abs="26.427609" electricity_abs="0"
            CO_normed="802.773810" CO2_normed="92332.097690" HC_normed="5.753054" PMx_normed="1.280934" NOx_normed="34.689614" fuel_normed="39.689703" electricity_normed="0"
            traveltime="0.02" CO_perVeh="0.407606" CO2_perVeh="46.881329" HC_perVeh="0.002921" PMx_perVeh="0.000650" NOx_perVeh="0.017614" fuel_perVeh="0.020152" electricity_perVeh="0"/>
        <edge id=":1110673617_0" sampledSeconds="850.87" CO_abs="32020.999216" CO2_abs="3236010.701958" HC_abs="223.442557" PMx_abs="61.146897" NOx_abs="1269.384160" fuel_abs="1391.009409" electricity_abs="0"
            CO_normed="44884.007778" CO2_normed="4535933.702079" HC_normed="313.200641" PMx_normed="85.709937" NOx_normed="1779.302643" fuel_normed="1949.785412" electricity_normed="0"
            traveltime="0.02" CO_perVeh="0.568076" CO2_perVeh="57.409192" HC_perVeh="0.003964" PMx_perVeh="0.001085" NOx_perVeh="0.022520" fuel_perVeh="0.024678" electricity_perVeh="0"/>
        <edge id=":1110673621_0" sampledSeconds="26.30" CO_abs="589.667963" CO2_abs="59359.744529" HC_abs="4.066508" PMx_abs="0.893410" NOx_abs="22.894855" fuel_abs="25.516214" electricity_abs="0"
            CO_normed="991.848927" CO2_normed="99845.849927" HC_normed="6.840056" PMx_normed="1.502758" NOx_normed="38.510211" fuel_normed="42.919459" electricity_normed="0"
            traveltime="0.02" CO_perVeh="0.446718" CO2_perVeh="44.969503" HC_perVeh="0.003081" PMx_perVeh="0.000677" NOx_perVeh="0.017345" fuel_perVeh="0.019330" electricity_perVeh="0"/>
        <edge id=":1110673630_0" sampledSeconds="286.08" CO_abs="1412.007900" CO2_abs="121653.424768" HC_abs="9.214072" PMx_abs="1.663084" NOx_abs="46.371094" fuel_abs="52.293977" electricity_abs="0"
            CO_normed="42.351336" CO2_normed="3648.835879" HC_normed="0.276364" PMx_normed="0.049882" NOx_normed="1.390841" fuel_normed="1.568490" electricity_normed="0"
            traveltime="1.29" CO_perVeh="6.353496" CO2_perVeh="547.393949" HC_perVeh="0.041460" PMx_perVeh="0.007483" NOx_perVeh="0.208652" fuel_perVeh="0.235303" electricity_perVeh="0"/>
        <edge id=":1110673630_1" sampledSeconds="337.48" CO_abs="1178.258667" CO2_abs="87843.995290" HC_abs="7.377426" PMx_abs="1.249123" NOx_abs="33.985175" fuel_abs="37.760688" electricity_abs="0"
            CO_normed="43.084475" CO2_normed="3212.123564" HC_normed="0.269765" PMx_normed="0.045676" NOx_normed="1.242710" fuel_normed="1.380766" electricity_normed="0"
            traveltime="1.08" CO_perVeh="3.756057" CO2_perVeh="280.029368" HC_perVeh="0.023518" PMx_perVeh="0.003982" NOx_perVeh="0.108338" fuel_perVeh="0.120374" electricity_perVeh="0"/>
        <edge id=":1110673650_0" sampledSeconds="199.53" CO_abs="3022.517153" CO2_abs="385696.426021" HC_abs="22.556593" PMx_abs="5.212832" NOx_abs="143.474838" fuel_abs="165.794735" electricity_abs="0"
            CO_normed="4236.678639" CO2_normed="540632.766295" HC_normed="31.617698" PMx_normed="7.306855" NOx_normed="201.109456" fuel_normed="232.395376" electricity_normed="0"
            traveltime="0.02" CO_perVeh="0.349330" CO2_perVeh="44.577235" HC_perVeh="0.002607" PMx_perVeh="0.000602" NOx_perVeh="0.016582" fuel_perVeh="0.019162" electricity_perVeh="0"/>
        <edge id=":1110673655_0" sampledSeconds="20.78" CO_abs="268.825371" CO2_abs="37031.289424" HC_abs="2.071061" PMx_abs="0.468940" NOx_abs="13.559537" fuel_abs="15.918233" electricity_abs="0"
            CO_normed="376.813976" CO2_normed="51906.958660" HC_normed="2.903018" PMx_normed="0.657315" NOx_normed="19.006477" fuel_normed="22.312673" electricity_normed="0"
            traveltime="0.02" CO_perVeh="0.307112" CO2_perVeh="42.305357" HC_perVeh="0.002366" PMx_perVeh="0.000536" NOx_perVeh="0.015491" fuel_perVeh="0.018185" electricity_perVeh="0"/>
        <edge id=":1110673663_0" sampledSeconds="110.51" CO_abs="1720.603074" CO2_abs="198586.827774" HC_abs="12.390580" PMx_abs="2.749141" NOx_abs="74.626161" fuel_abs="85.364169" electricity_abs="0"
            CO_normed="44.171770" CO2_normed="5098.172720" HC_normed="0.318094" PMx_normed="0.070577" NOx_normed="1.915822" fuel_normed="2.191491" electricity_normed="0"
            traveltime="1.30" CO_perVeh="20.209295" CO2_perVeh="2332.495977" HC_perVeh="0.145533" PMx_perVeh="0.032290" NOx_perVeh="0.876519" fuel_perVeh="1.002642" electricity_perVeh="0"/>
        <edge id=":1110673663_1" sampledSeconds="170.02" CO_abs="2307.504735" CO2_abs="302536.638746" HC_abs="17.372843" PMx_abs="3.961964" NOx_abs="111.662669" fuel_abs="130.047970" electricity_abs="0"
            CO_normed="59.311281" CO2_normed="7776.294182" HC_normed="0.446545" PMx_normed="0.101837" NOx_normed="2.870138" fuel_normed="3.342707" electricity_normed="0"
            traveltime="1.27" CO_perVeh="17.265056" CO2_perVeh="2263.619179" HC_perVeh="0.129986" PMx_perVeh="0.029644" NOx_perVeh="0.835475" fuel_perVeh="0.973036" electricity_perVeh="0"/>
        <edge id=":1110673666_0" sampledSeconds="275.61" CO_abs="5607.576113" CO2_abs="448163.734188" HC_abs="35.740366" PMx_abs="5.962838" NOx_abs="170.272894" fuel_abs="192.648341" electricity_abs="0"