<?xml version="1.0" encoding="UTF-8"?>

<!-- generated on Tue Nov 10 05:43:38 2020 by Eclipse SUMO sumo Version 1.7.0
<configuration xmlns:xsi="http://www.w3.org/2001/XMLSchema-instance" xsi:noNamespaceSchemaLocation="http://sumo.dlr.de/xsd/sumoConfiguration.xsd">

    <input>
        <net-file value="../dataSets/Porto/8AM9AM_Routing_SaoBento/Porto.net.xml"/>
        <route-files value="../results/Porto/8AM9AM_Routing_SaoBento/cost_hc-ttime/solution8/Porto.rou.xml"/>
        <additional-files value="moreOutputInfo.xml"/>
    </input>

    <output>
        <emission-output.precision value="6"/>
        <tripinfo-output value="../results/Porto/8AM9AM_Routing_SaoBento/cost_hc-ttime/solution8/Porto-tripinfo"/>
    </output>

    <processing>
        <collision.action value="warn"/>
        <time-to-teleport value="-1"/>
    </processing>

    <emissions>
        <device.emissions.probability value="1"/>
    </emissions>

    <gui_only>
        <quit-on-end value="true"/>
        <start value="true"/>
    </gui_only>

</configuration>
-->

<meandata xmlns:xsi="http://www.w3.org/2001/XMLSchema-instance" xsi:noNamespaceSchemaLocation="http://sumo.dlr.de/xsd/meandata_file.xsd">
    <interval begin="0.00" end="8561.00" id="emissions-detector">
        <edge id=":1092997347_0" sampledSeconds="595.79" CO_abs="70773.545220" CO2_abs="3034077.437427" HC_abs="394.021659" PMx_abs="61.239956" NOx_abs="1311.797030" fuel_abs="1304.226786" electricity_abs="0"
            CO_normed="67638.859838" CO2_normed="2899692.786191" HC_normed="376.569744" PMx_normed="58.527530" NOx_normed="1253.695221" fuel_normed="1246.460277" electricity_normed="0"
            traveltime="0.07" CO_perVeh="8.123389" CO2_perVeh="348.251492" HC_perVeh="0.045226" PMx_perVeh="0.007029" NOx_perVeh="0.150568" fuel_perVeh="0.149699" electricity_perVeh="0"/>
        <edge id=":1103427051_0" sampledSeconds="19.48" CO_abs="1660.019398" CO2_abs="93482.850105" HC_abs="9.774140" PMx_abs="1.812076" NOx_abs="39.740924" fuel_abs="40.184173" electricity_abs="0"
            CO_normed="2407.094657" CO2_normed="135553.879211" HC_normed="14.172895" PMx_normed="2.627583" NOx_normed="57.625933" fuel_normed="58.268662" electricity_normed="0"
            traveltime="0.03" CO_perVeh="2.581540" CO2_perVeh="145.377663" HC_perVeh="0.015200" PMx_perVeh="0.002818" NOx_perVeh="0.061802" fuel_perVeh="0.062491" electricity_perVeh="0"/>
        <edge id=":1105984386_0" sampledSeconds="10.61" CO_abs="212.145346" CO2_abs="15471.227871" HC_abs="1.320936" PMx_abs="0.224045" NOx_abs="6.018553" fuel_abs="6.650471" electricity_abs="0"
            CO_normed="9.187393" CO2_normed="670.013505" HC_normed="0.057206" PMx_normed="0.009703" NOx_normed="0.260646" fuel_normed="0.288012" electricity_normed="0"
            traveltime="1.02" CO_perVeh="20.351031" CO2_perVeh="1484.149601" HC_perVeh="0.126717" PMx_perVeh="0.021493" NOx_perVeh="0.577358" fuel_perVeh="0.637977" electricity_perVeh="0"/>
        <edge id=":1105984390_0" sampledSeconds="10.56" CO_abs="21.079899" CO2_abs="1526.458024" HC_abs="0.131113" PMx_abs="0.022740" NOx_abs="0.598693" fuel_abs="0.656163" electricity_abs="0"
            CO_normed="0.705760" CO2_normed="51.106158" HC_normed="0.004390" PMx_normed="0.000761" NOx_normed="0.020044" fuel_normed="0.021968" electricity_normed="0"
            traveltime="1.09" CO_perVeh="2.185058" CO2_perVeh="158.226564" HC_perVeh="0.013591" PMx_perVeh="0.002357" NOx_perVeh="0.062058" fuel_perVeh="0.068015" electricity_perVeh="0"/>
        <edge id=":1105984390_1" sampledSeconds="2395.98" CO_abs="62748.796464" CO2_abs="7471437.063708" HC_abs="464.279193" PMx_abs="134.886182" NOx_abs="2841.803078" fuel_abs="3211.625771" electricity_abs="0"
            CO_normed="2009.641905" CO2_normed="239286.071734" HC_normed="14.869368" PMx_normed="4.319970" NOx_normed="91.013802" fuel_normed="102.858032" electricity_normed="0"
            traveltime="0.65" CO_perVeh="16.957692" CO2_perVeh="2019.135590" HC_perVeh="0.125470" PMx_perVeh="0.036453" NOx_perVeh="0.767990" fuel_perVeh="0.867933" electricity_perVeh="0"/>
        <edge id=":1105984395_0" sampledSeconds="4.09" CO_abs="81.744705" CO2_abs="5776.570366" HC_abs="0.504315" PMx_abs="0.082147" NOx_abs="2.241686" fuel_abs="2.483124" electricity_abs="0"
            CO_normed="37.363694" CO2_normed="2640.342366" HC_normed="0.230511" PMx_normed="0.037548" NOx_normed="1.024625" fuel_normed="1.134981" electricity_normed="0"
            traveltime="0.09" CO_perVeh="1.894813" CO2_perVeh="133.898834" HC_perVeh="0.011690" PMx_perVeh="0.001904" NOx_perVeh="0.051961" fuel_perVeh="0.057558" electricity_perVeh="0"/>
        <edge id=":1105984398_0" sampledSeconds="10.94" CO_abs="652.285363" CO2_abs="44982.504962" HC_abs="4.021320" PMx_abs="0.758763" NOx_abs="18.222369" fuel_abs="19.336069" electricity_abs="0"
            CO_normed="22.687641" CO2_normed="1564.571228" HC_normed="0.139869" PMx_normed="0.026391" NOx_normed="0.633806" fuel_normed="0.672543" electricity_normed="0"
            traveltime="1.16" CO_perVeh="69.297234" CO2_perVeh="4778.833574" HC_perVeh="0.427215" PMx_perVeh="0.080609" NOx_perVeh="1.935901" fuel_perVeh="2.054218" electricity_perVeh="0"/>
        <edge id=":1105984398_1" sampledSeconds="643.80" CO_abs="12100.045250" CO2_abs="1417352.352895" HC_abs="87.693676" PMx_abs="20.459768" NOx_abs="536.774033" fuel_abs="609.259153" electricity_abs="0"
            CO_normed="407.382679" CO2_normed="47719.226384" HC_normed="2.952459" PMx_normed="0.688837" NOx_normed="18.072035" fuel_normed="20.512454" electricity_normed="0"
            traveltime="0.95" CO_perVeh="17.860207" CO2_perVeh="2092.075317" HC_perVeh="0.129440" PMx_perVeh="0.030200" NOx_perVeh="0.792302" fuel_perVeh="0.899294" electricity_perVeh="0"/>
        <edge id=":1106006327_0" sampledSeconds="67.95" CO_abs="9160.207702" CO2_abs="295720.117384" HC_abs="48.669459" PMx_abs="6.168140" NOx_abs="129.436021" fuel_abs="127.119681" electricity_abs="0"
            CO_normed="434.760023" CO2_normed="14035.411553" HC_normed="2.309941" PMx_normed="0.292751" NOx_normed="6.143268" fuel_normed="6.033330" electricity_normed="0"
            traveltime="2.11" CO_perVeh="283.962913" CO2_perVeh="9167.209825" HC_perVeh="1.508735" PMx_perVeh="0.191210" NOx_perVeh="4.012467" fuel_perVeh="3.940661" electricity_perVeh="0"/>
        <edge id=":1106006327_1" sampledSeconds="681.20" CO_abs="92358.981126" CO2_abs="3093633.812020" HC_abs="493.470503" PMx_abs="64.576898" NOx_abs="1354.181705" fuel_abs="1329.841379" electricity_abs="0"
            CO_normed="3822.640256" CO2_normed="128042.221814" HC_normed="20.424221" PMx_normed="2.672769" NOx_normed="56.048144" fuel_normed="55.040724" electricity_normed="0"
            traveltime="2.29" CO_perVeh="310.026744" CO2_perVeh="10384.579903" HC_perVeh="1.656461" PMx_perVeh="0.216769" NOx_perVeh="4.545660" fuel_perVeh="4.463956" electricity_perVeh="0"/>
        <edge id=":1106006327_2" sampledSeconds="0.00" CO_abs="0" CO2_abs="0" HC_abs="0" PMx_abs="0" NOx_abs="0" fuel_abs="0" electricity_abs="0"
            CO_normed="0" CO2_normed="0" HC_normed="0" PMx_normed="0" NOx_normed="0" fuel_normed="0" electricity_normed="0"/>
        <edge id=":1106006327_3" sampledSeconds="0.00" CO_abs="0" CO2_abs="0" HC_abs="0" PMx_abs="0" NOx_abs="0" fuel_abs="0" electricity_abs="0"
            CO_normed="0" CO2_normed="0" HC_normed="0" PMx_normed="0" NOx_normed="0" fuel_normed="0" electricity_normed="0"/>
        <edge id=":1107381198_0" sampledSeconds="0.00" CO_abs="0" CO2_abs="0" HC_abs="0" PMx_abs="0" NOx_abs="0" fuel_abs="0" electricity_abs="0"
            CO_normed="0" CO2_normed="0" HC_normed="0" PMx_normed="0" NOx_normed="0" fuel_normed="0" electricity_normed="0"/>
        <edge id=":1107381198_1" sampledSeconds="103.68" CO_abs="4457.698094" CO2_abs="176616.652807" HC_abs="24.369691" PMx_abs="3.084560" NOx_abs="73.411624" fuel_abs="75.921340" electricity_abs="0"
            CO_normed="204.418087" CO2_normed="8099.166328" HC_normed="1.117529" PMx_normed="0.141450" NOx_normed="3.366460" fuel_normed="3.481549" electricity_normed="0"
            traveltime="1.55" CO_perVeh="66.740288" CO2_perVeh="2644.289946" HC_perVeh="0.364861" PMx_perVeh="0.046182" NOx_perVeh="1.099113" fuel_perVeh="1.136688" electricity_perVeh="0"/>
        <edge id=":1110338277_0" sampledSeconds="160.47" CO_abs="2623.880484" CO2_abs="312936.172041" HC_abs="19.094319" PMx_abs="4.318408" NOx_abs="117.326217" fuel_abs="134.518126" electricity_abs="0"
            CO_normed="3940.615141" CO2_normed="469976.062271" HC_normed="28.676368" PMx_normed="6.485502" NOx_normed="176.203707" fuel_normed="202.022984" electricity_normed="0"
            traveltime="0.02" CO_perVeh="0.355379" CO2_perVeh="42.384200" HC_perVeh="0.002586" PMx_perVeh="0.000585" NOx_perVeh="0.015891" fuel_perVeh="0.018219" electricity_perVeh="0"/>
        <edge id=":1110338293_0" sampledSeconds="6276.05" CO_abs="570209.982886" CO2_abs="10041428.949383" HC_abs="2831.141390" PMx_abs="238.419618" NOx_abs="4532.778696" fuel_abs="4316.639899" electricity_abs="0"
            CO_normed="799266.416847" CO2_normed="14075125.264876" HC_normed="3968.426198" PMx_normed="334.194068" NOx_normed="6353.620413" fuel_normed="6050.657492" electricity_normed="0"
            traveltime="0.42" CO_perVeh="38.104354" CO2_perVeh="671.019761" HC_perVeh="0.189191" PMx_perVeh="0.015932" NOx_perVeh="0.302904" fuel_perVeh="0.288460" electricity_perVeh="0"/>
        <edge id=":1110338295_0" sampledSeconds="0.00" CO_abs="0" CO2_abs="0" HC_abs="0" PMx_abs="0" NOx_abs="0" fuel_abs="0" electricity_abs="0"
            CO_normed="0" CO2_normed="0" HC_normed="0" PMx_normed="0" NOx_normed="0" fuel_normed="0" electricity_normed="0"/>
        <edge id=":1110673403_0" sampledSeconds="201.15" CO_abs="3287.549323" CO2_abs="394573.847198" HC_abs="24.023223" PMx_abs="5.459919" NOx_abs="147.996132" fuel_abs="169.610706" electricity_abs="0"
            CO_normed="4608.175666" CO2_normed="553076.295570" HC_normed="33.673482" PMx_normed="7.653198" NOx_normed="207.446979" fuel_normed="237.744244" electricity_normed="0"
            traveltime="0.02" CO_perVeh="0.379961" CO2_perVeh="45.603194" HC_perVeh="0.002777" PMx_perVeh="0.000631" NOx_perVeh="0.017105" fuel_perVeh="0.019603" electricity_perVeh="0"/>
        <edge id=":1110673412_0" sampledSeconds="964.79" CO_abs="171805.325791" CO2_abs="11708889.985933" HC_abs="1068.854837" PMx_abs="257.347564" NOx_abs="5033.321918" fuel_abs="5033.075101" electricity_abs="0"
            CO_normed="249124.607924" CO2_normed="16978359.742601" HC_normed="1549.882351" PMx_normed="373.164282" NOx_normed="7298.518504" fuel_normed="7298.160609" electricity_normed="0"
            traveltime="0.02" CO_perVeh="2.773057" CO2_perVeh="188.989610" HC_perVeh="0.017252" PMx_perVeh="0.004154" NOx_perVeh="0.081241" fuel_perVeh="0.081237" electricity_perVeh="0"/>
        <edge id=":1110673414_0" sampledSeconds="0.00" CO_abs="0" CO2_abs="0" HC_abs="0" PMx_abs="0" NOx_abs="0" fuel_abs="0" electricity_abs="0"
            CO_normed="0" CO2_normed="0" HC_normed="0" PMx_normed="0" NOx_normed="0" fuel_normed="0" electricity_normed="0"/>
        <edge id=":1110673414_1" sampledSeconds="7.16" CO_abs="443.910796" CO2_abs="16363.027544" HC_abs="2.396384" PMx_abs="0.279940" NOx_abs="6.771007" fuel_abs="7.033930" electricity_abs="0"
            CO_normed="20.672165" CO2_normed="761.998146" HC_normed="0.111595" PMx_normed="0.013036" NOx_normed="0.315314" fuel_normed="0.327558" electricity_normed="0"
            traveltime="1.56" CO_perVeh="96.964550" CO2_perVeh="3574.217192" HC_perVeh="0.523448" PMx_perVeh="0.061148" NOx_perVeh="1.479008" fuel_perVeh="1.536439" electricity_perVeh="0"/>
        <edge id=":1110673417_0" sampledSeconds="29.41" CO_abs="445.812012" CO2_abs="51848.582689" HC_abs="3.205136" PMx_abs="0.681459" NOx_abs="19.279776" fuel_abs="22.287584" electricity_abs="0"
            CO_normed="669.532616" CO2_normed="77867.612962" HC_normed="4.813561" PMx_normed="1.023434" NOx_normed="28.954892" fuel_normed="33.472101" electricity_normed="0"
            traveltime="0.02" CO_perVeh="0.339953" CO2_perVeh="39.537033" HC_perVeh="0.002444" PMx_perVeh="0.000520" NOx_perVeh="0.014702" fuel_perVeh="0.016995" electricity_perVeh="0"/>
        <edge id=":1110673446_0" sampledSeconds="1330.45" CO_abs="14089.599205" CO2_abs="1131710.056482" HC_abs="91.049325" PMx_abs="20.810588" NOx_abs="463.552954" fuel_abs="486.470113" electricity_abs="0"
            CO_normed="19749.467406" CO2_normed="1586324.106738" HC_normed="127.624332" PMx_normed="29.170314" NOx_normed="649.764683" fuel_normed="681.887789" electricity_normed="0"
            traveltime="0.02" CO_perVeh="0.241608" CO2_perVeh="19.406534" HC_perVeh="0.001561" PMx_perVeh="0.000357" NOx_perVeh="0.007949" fuel_perVeh="0.008342" electricity_perVeh="0"/>
        <edge id=":1110673451_0" sampledSeconds="36.65" CO_abs="385.437519" CO2_abs="25875.722895" HC_abs="2.350727" PMx_abs="0.392076" NOx_abs="10.204746" fuel_abs="11.122950" electricity_abs="0"
            CO_normed="600.299839" CO2_normed="40300.156361" HC_normed="3.661141" PMx_normed="0.610640" NOx_normed="15.893386" fuel_normed="17.323444" electricity_normed="0"
            traveltime="0.03" CO_perVeh="0.283982" CO2_perVeh="19.064687" HC_perVeh="0.001732" PMx_perVeh="0.000289" NOx_perVeh="0.007519" fuel_perVeh="0.008195" electricity_perVeh="0"/>
        <edge id=":1110673464_0" sampledSeconds="1034.71" CO_abs="4283.252986" CO2_abs="309966.388493" HC_abs="26.567450" PMx_abs="4.415894" NOx_abs="119.933650" fuel_abs="133.242486" electricity_abs="0"
            CO_normed="127.560741" CO2_normed="9231.194684" HC_normed="0.791213" PMx_normed="0.131511" NOx_normed="3.571777" fuel_normed="3.968131" electricity_normed="0"
            traveltime="1.23" CO_perVeh="5.079339" CO2_perVeh="367.576756" HC_perVeh="0.031505" PMx_perVeh="0.005237" NOx_perVeh="0.142225" fuel_perVeh="0.158007" electricity_perVeh="0"/>
        <edge id=":1110673464_1" sampledSeconds="2600.97" CO_abs="64836.805901" CO2_abs="7828384.932847" HC_abs="481.585237" PMx_abs="140.271817" NOx_abs="2972.675487" fuel_abs="3365.061714" electricity_abs="0"
            CO_normed="1892.063182" CO2_normed="228447.387194" HC_normed="14.053587" PMx_normed="4.093402" NOx_normed="86.748410" fuel_normed="98.198998" electricity_normed="0"
            traveltime="0.72" CO_perVeh="17.874557" CO2_perVeh="2158.171031" HC_perVeh="0.132766" PMx_perVeh="0.038671" NOx_perVeh="0.819523" fuel_perVeh="0.927698" electricity_perVeh="0"/>
        <edge id=":1110673479_0" sampledSeconds="134.88" CO_abs="6195.379552" CO2_abs="426927.625900" HC_abs="38.244965" PMx_abs="7.495509" NOx_abs="174.757884" fuel_abs="183.517627" electricity_abs="0"
            CO_normed="8684.097024" CO2_normed="598426.762154" HC_normed="53.608174" PMx_normed="10.506496" NOx_normed="244.959071" fuel_normed="257.237650" electricity_normed="0"
            traveltime="0.03" CO_perVeh="1.309759" CO2_perVeh="90.256360" HC_perVeh="0.008085" PMx_perVeh="0.001585" NOx_perVeh="0.036945" fuel_perVeh="0.038797" electricity_perVeh="0"/>
        <edge id=":1110673511_0" sampledSeconds="63.45" CO_abs="929.926740" CO2_abs="107367.352785" HC_abs="6.696102" PMx_abs="1.461450" NOx_abs="40.238971" fuel_abs="46.152766" electricity_abs="0"
            CO_normed="1303.483341" CO2_normed="150497.399068" HC_normed="9.385962" PMx_normed="2.048522" NOx_normed="56.403183" fuel_normed="64.692582" electricity_normed="0"
            traveltime="0.02" CO_perVeh="0.356408" CO2_perVeh="41.150055" HC_perVeh="0.002566" PMx_perVeh="0.000560" NOx_perVeh="0.015422" fuel_perVeh="0.017689" electricity_perVeh="0"/>
        <edge id=":1110673517_0" sampledSeconds="182.75" CO_abs="8012.149031" CO2_abs="564077.230867" HC_abs="49.742869" PMx_abs="9.874307" NOx_abs="230.490599" fuel_abs="242.472198" electricity_abs="0"
            CO_normed="11230.672629" CO2_normed="790670.105174" HC_normed="69.724848" PMx_normed="13.840870" NOx_normed="323.079919" fuel_normed="339.874592" electricity_normed="0"
            traveltime="0.03" CO_perVeh="1.226725" CO2_perVeh="86.364790" HC_perVeh="0.007616" PMx_perVeh="0.001512" NOx_perVeh="0.035290" fuel_perVeh="0.037124" electricity_perVeh="0"/>
        <edge id=":1110673534_0" sampledSeconds="738.79" CO_abs="5189.325470" CO2_abs="435454.847371" HC_abs="33.581926" PMx_abs="5.907018" NOx_abs="165.770552" fuel_abs="187.184927" electricity_abs="0"
            CO_normed="140.967162" CO2_normed="11829.058423" HC_normed="0.912247" PMx_normed="0.160463" NOx_normed="4.503129" fuel_normed="5.084847" electricity_normed="0"
            traveltime="1.46" CO_perVeh="10.234208" CO2_perVeh="858.789009" HC_perVeh="0.066229" PMx_perVeh="0.011650" NOx_perVeh="0.326927" fuel_perVeh="0.369160" electricity_perVeh="0"/>
        <edge id=":1110673534_1" sampledSeconds="200.51" CO_abs="3068.640752" CO2_abs="396626.589104" HC_abs="22.888602" PMx_abs="5.274506" NOx_abs="146.877477" fuel_abs="170.493241" electricity_abs="0"
            CO_normed="81.055220" CO2_normed="10476.513222" HC_normed="0.604581" PMx_normed="0.139321" NOx_normed="3.879629" fuel_normed="4.503416" electricity_normed="0"
            traveltime="1.23" CO_perVeh="18.757635" CO2_perVeh="2424.453544" HC_perVeh="0.139911" PMx_perVeh="0.032241" NOx_perVeh="0.897816" fuel_perVeh="1.042172" electricity_perVeh="0"/>
        <edge id=":1110673549_0" sampledSeconds="646.43" CO_abs="1434.706295" CO2_abs="150781.001774" HC_abs="9.933631" PMx_abs="1.998434" NOx_abs="56.094677" fuel_abs="64.814682" electricity_abs="0"
            CO_normed="37.754110" CO2_normed="3967.782459" HC_normed="0.261402" PMx_normed="0.052589" NOx_normed="1.476124" fuel_normed="1.705590" electricity_normed="0"
            traveltime="1.28" CO_perVeh="2.850419" CO2_perVeh="299.565897" HC_perVeh="0.019736" PMx_perVeh="0.003970" NOx_perVeh="0.111447" fuel_perVeh="0.128771" electricity_perVeh="0"/>
        <edge id=":1110673549_1" sampledSeconds="3197.82" CO_abs="70540.044021" CO2_abs="9221301.158824" HC_abs="540.999589" PMx_abs="162.249838" NOx_abs="3449.857632" fuel_abs="3963.815157" electricity_abs="0"
            CO_normed="1795.575567" CO2_normed="234725.442592" HC_normed="13.770982" PMx_normed="4.130021" NOx_normed="87.815087" fuel_normed="100.897720" electricity_normed="0"
            traveltime="0.81" CO_perVeh="17.791782" CO2_perVeh="2325.819022" HC_perVeh="0.136452" PMx_perVeh="0.040923" NOx_perVeh="0.870131" fuel_perVeh="0.999763" electricity_perVeh="0"/>
        <edge id=":1110673556_0" sampledSeconds="464.71" CO_abs="57748.085236" CO2_abs="2780313.245132" HC_abs="329.027278" PMx_abs="56.362506" NOx_abs="1200.096406" fuel_abs="1195.137773" electricity_abs="0"
            CO_normed="1126.855732" CO2_normed="54253.087411" HC_normed="6.420408" PMx_normed="1.099818" NOx_normed="23.417842" fuel_normed="23.321082" electricity_normed="0"
            traveltime="2.74" CO_perVeh="340.419410" CO2_perVeh="16389.679250" HC_perVeh="1.939584" PMx_perVeh="0.332252" NOx_perVeh="7.074453" fuel_perVeh="7.045222" electricity_perVeh="0"/>
        <edge id=":1110673556_2" sampledSeconds="177.55" CO_abs="18496.765994" CO2_abs="786796.887348" HC_abs="102.725705" PMx_abs="15.348146" NOx_abs="336.700130" fuel_abs="338.212999" electricity_abs="0"
            CO_normed="377.394715" CO2_normed="16053.238023" HC_normed="2.095941" PMx_normed="0.313153" NOx_normed="6.869787" fuel_normed="6.900655" electricity_normed="0"
            traveltime="3.07" CO_perVeh="319.835515" CO2_perVeh="13604.842480" HC_perVeh="1.776274" PMx_perVeh="0.265391" NOx_perVeh="5.822026" fuel_perVeh="5.848186" electricity_perVeh="0"/>
        <edge id=":1110673556_3" sampledSeconds="350.74" CO_abs="34904.179528" CO2_abs="1213691.608647" HC_abs="187.330466" PMx_abs="24.053558" NOx_abs="523.305704" fuel_abs="521.722949" electricity_abs="0"
            CO_normed="1620.045603" CO2_normed="56332.387145" HC_normed="8.694772" PMx_normed="1.116424" NOx_normed="24.288756" fuel_normed="24.215294" electricity_normed="0"
            traveltime="1.83" CO_perVeh="181.736185" CO2_perVeh="6319.348743" HC_perVeh="0.975377" PMx_perVeh="0.125240" NOx_perVeh="2.724705" fuel_perVeh="2.716464" electricity_perVeh="0"/>
        <edge id=":1110673556_4" sampledSeconds="79.32" CO_abs="9233.659987" CO2_abs="352946.986058" HC_abs="50.353361" PMx_abs="7.099947" NOx_abs="152.700305" fuel_abs="151.718455" electricity_abs="0"
            CO_normed="261.824770" CO2_normed="10007.977731" HC_normed="1.427793" PMx_normed="0.201322" NOx_normed="4.329889" fuel_normed="4.302048" electricity_normed="0"
            traveltime="2.61" CO_perVeh="304.070652" CO2_perVeh="11622.782349" HC_perVeh="1.658170" PMx_perVeh="0.233806" NOx_perVeh="5.028524" fuel_perVeh="4.996191" electricity_perVeh="0"/>
        <edge id=":1110673556_5" sampledSeconds="25.24" CO_abs="1682.961853" CO2_abs="65384.784571" HC_abs="9.182542" PMx_abs="1.206441" NOx_abs="27.567547" fuel_abs="28.106571" electricity_abs="0"
            CO_normed="66.513630" CO2_normed="2584.122354" HC_normed="0.362910" PMx_normed="0.047681" NOx_normed="1.089518" fuel_normed="1.110821" electricity_normed="0"
            traveltime="1.74" CO_perVeh="116.352918" CO2_perVeh="4520.429551" HC_perVeh="0.634842" PMx_perVeh="0.083408" NOx_perVeh="1.905905" fuel_perVeh="1.943170" electricity_perVeh="0"/>
        <edge id=":1110673556_6" sampledSeconds="534.07" CO_abs="61938.191968" CO2_abs="3045295.173647" HC_abs="354.359832" PMx_abs="61.276187" NOx_abs="1311.245596" fuel_abs="1309.041777" electricity_abs="0"
            CO_normed="1239.092750" CO2_normed="60922.074899" HC_normed="7.089078" PMx_normed="1.225849" NOx_normed="26.231875" fuel_normed="26.187787" electricity_normed="0"
            traveltime="2.59" CO_perVeh="300.723616" CO2_perVeh="14785.581368" HC_perVeh="1.720495" PMx_perVeh="0.297509" NOx_perVeh="6.366387" fuel_perVeh="6.355687" electricity_perVeh="0"/>
        <edge id=":1110673561_0" sampledSeconds="165.55" CO_abs="14694.295964" CO2_abs="1053451.555467" HC_abs="92.223899" PMx_abs="21.179754" NOx_abs="445.054991" fuel_abs="452.828777" electricity_abs="0"
            CO_normed="369.343828" CO2_normed="26478.698314" HC_normed="2.318065" PMx_normed="0.532357" NOx_normed="11.186539" fuel_normed="11.381934" electricity_normed="0"
            traveltime="1.22" CO_perVeh="108.696437" CO2_perVeh="7792.576844" HC_perVeh="0.682197" PMx_perVeh="0.156671" NOx_perVeh="3.292154" fuel_perVeh="3.349659" electricity_perVeh="0"/>
        <edge id=":1110673561_1" sampledSeconds="5257.02" CO_abs="487413.761399" CO2_abs="33772150.404484" HC_abs="3036.578150" PMx_abs="705.533046" NOx_abs="14437.238302" fuel_abs="14517.016865" electricity_abs="0"
            CO_normed="11944.239605" CO2_normed="827598.004722" HC_normed="74.412378" PMx_normed="17.289327" NOx_normed="353.789423" fuel_normed="355.744424" electricity_normed="0"
            traveltime="1.19" CO_perVeh="110.731187" CO2_perVeh="7672.393727" HC_perVeh="0.689853" PMx_perVeh="0.160284" NOx_perVeh="3.279867" fuel_perVeh="3.297992" electricity_perVeh="0"/>
        <edge id=":1110673562_0" sampledSeconds="300.14" CO_abs="7243.043261" CO2_abs="553666.155442" HC_abs="45.627775" PMx_abs="7.644679" NOx_abs="212.566519" fuel_abs="237.999574" electricity_abs="0"
            CO_normed="11280.681012" CO2_normed="862307.604940" HC_normed="71.062999" PMx_normed="11.906208" NOx_normed="331.061821" fuel_normed="370.672544" electricity_normed="0"
            traveltime="0.03" CO_perVeh="0.649277" CO2_perVeh="49.631428" HC_perVeh="0.004090" PMx_perVeh="0.000685" NOx_perVeh="0.019055" fuel_perVeh="0.021335" electricity_perVeh="0"/>
        <edge id=":1110673564_0" sampledSeconds="27.86" CO_abs="538.987564" CO2_abs="58374.240471" HC_abs="3.795853" PMx_abs="0.853650" NOx_abs="22.270246" fuel_abs="25.092597" electricity_abs="0"
            CO_normed="2266.505351" CO2_normed="245470.465710" HC_normed="15.962005" PMx_normed="3.589696" NOx_normed="93.648972" fuel_normed="105.517289" electricity_normed="0"
            traveltime="7.867700e-03" CO_perVeh="0.152235" CO2_perVeh="16.487570" HC_perVeh="0.001072" PMx_perVeh="0.000241" NOx_perVeh="0.006290" fuel_perVeh="0.007087" electricity_perVeh="0"/>
        <edge id=":1110673588_0" sampledSeconds="62.72" CO_abs="1167.200178" CO2_abs="124284.620978" HC_abs="8.175777" PMx_abs="1.764350" NOx_abs="47.193102" fuel_abs="53.424749" electricity_abs="0"
            CO_normed="1963.284963" CO2_normed="209052.510465" HC_normed="13.752037" PMx_normed="2.967718" NOx_normed="79.380992" fuel_normed="89.862911" electricity_normed="0"
            traveltime="0.02" CO_perVeh="0.376518" CO2_perVeh="40.092008" HC_perVeh="0.002637" PMx_perVeh="0.000569" NOx_perVeh="0.015224" fuel_perVeh="0.017234" electricity_perVeh="0"/>
        <edge id=":1110673601_0" sampledSeconds="28.90" CO_abs="745.119666" CO2_abs="74808.242778" HC_abs="5.120656" PMx_abs="1.151745" NOx_abs="28.981805" fuel_abs="32.156826" electricity_abs="0"
            CO_normed="1119.040999" CO2_normed="112349.055518" HC_normed="7.690340" PMx_normed="1.729721" NOx_normed="43.525663" fuel_normed="48.293996" electricity_normed="0"
            traveltime="0.02" CO_perVeh="0.568190" CO2_perVeh="57.044876" HC_perVeh="0.003905" PMx_perVeh="0.000878" NOx_perVeh="0.022100" fuel_perVeh="0.024521" electricity_perVeh="0"/>
        <edge id=":1110673617_0" sampledSeconds="850.48" CO_abs="29807.408114" CO2_abs="3117965.200380" HC_abs="210.375657" PMx_abs="58.186680" NOx_abs="1215.460179" fuel_abs="1340.267684" electricity_abs="0"
            CO_normed="41781.205159" CO2_normed="4370468.684097" HC_normed="294.884697" PMx_normed="81.560584" NOx_normed="1703.717106" fuel_normed="1878.660461" electricity_normed="0"
            traveltime="0.02" CO_perVeh="0.528533" CO2_perVeh="55.286526" HC_perVeh="0.003730" PMx_perVeh="0.001032" NOx_perVeh="0.021552" fuel_perVeh="0.023765" electricity_perVeh="0"/>
        <edge id=":1110673621_0" sampledSeconds="42.17" CO_abs="1028.032930" CO2_abs="97312.360702" HC_abs="6.949604" PMx_abs="1.525581" NOx_abs="38.017173" fuel_abs="41.830369" electricity_abs="0"
            CO_normed="1729.199181" CO2_normed="163683.914743" HC_normed="11.689556" PMx_normed="2.566098" NOx_normed="63.946652" fuel_normed="70.360626" electricity_normed="0"
            traveltime="0.02" CO_perVeh="0.484931" CO2_perVeh="45.903011" HC_perVeh="0.003278" PMx_perVeh="0.000720" NOx_perVeh="0.017933" fuel_perVeh="0.019732" electricity_perVeh="0"/>
        <edge id=":1110673630_0" sampledSeconds="285.54" CO_abs="1505.894635" CO2_abs="139279.925425" HC_abs="10.048152" PMx_abs="1.910645" NOx_abs="52.914720" fuel_abs="59.870827" electricity_abs="0"
            CO_normed="45.167346" CO2_normed="4177.519787" HC_normed="0.301381" PMx_normed="0.057307" NOx_normed="1.587108" fuel_normed="1.795747" electricity_normed="0"
            traveltime="1.28" CO_perVeh="6.775951" CO2_perVeh="626.706470" HC_perVeh="0.045213" PMx_perVeh="0.008597" NOx_perVeh="0.238096" fuel_perVeh="0.269396" electricity_perVeh="0"/>
        <edge id=":1110673630_1" sampledSeconds="337.98" CO_abs="1161.134258" CO2_abs="92364.945964" HC_abs="7.382118" PMx_abs="1.185812" NOx_abs="34.820661" fuel_abs="39.704205" electricity_abs="0"
            CO_normed="42.458300" CO2_normed="3377.437677" HC_normed="0.269936" PMx_normed="0.043361" NOx_normed="1.273260" fuel_normed="1.451833" electricity_normed="0"
            traveltime="1.08" CO_perVeh="3.701467" CO2_perVeh="294.441269" HC_perVeh="0.023533" PMx_perVeh="0.003780" NOx_perVeh="0.111001" fuel_perVeh="0.126569" electricity_perVeh="0"/>
        <edge id=":1110673650_0" sampledSeconds="200.12" CO_abs="3202.856850" CO2_abs="377597.205780" HC_abs="23.207149" PMx_abs="5.283481" NOx_abs="142.064034" fuel_abs="162.313106" electricity_abs="0"
            CO_normed="4489.461768" CO2_normed="529280.045480" HC_normed="32.529587" PMx_normed="7.405884" NOx_normed="199.131925" fuel_normed="227.515158" electricity_normed="0"
            traveltime="0.02" CO_perVeh="0.370174" CO2_perVeh="43.641272" HC_perVeh="0.002682" PMx_perVeh="0.000611" NOx_perVeh="0.016419" fuel_perVeh="0.018760" electricity_perVeh="0"/>
        <edge id=":1110673655_0" sampledSeconds="20.79" CO_abs="366.632093" CO2_abs="42888.334551" HC_abs="2.657578" PMx_abs="0.601063" NOx_abs="16.145894" fuel_abs="18.435888" electricity_abs="0"
            CO_normed="513.910187" CO2_normed="60116.810491" HC_normed="3.725141" PMx_normed="0.842513" NOx_normed="22.631787" fuel_normed="25.841683" electricity_normed="0"
            traveltime="0.02" CO_perVeh="0.418849" CO2_perVeh="48.996574" HC_perVeh="0.003036" PMx_perVeh="0.000687" NOx_perVeh="0.018445" fuel_perVeh="0.021062" electricity_perVeh="0"/>
        <edge id=":1110673663_0" sampledSeconds="178.91" CO_abs="3034.880201" CO2_abs="351160.933563" HC_abs="21.878904" PMx_abs="4.801954" NOx_abs="131.656866" fuel_abs="150.949472" electricity_abs="0"
            CO_normed="77.912234" CO2_normed="9015.094867" HC_normed="0.561681" PMx_normed="0.123277" NOx_normed="3.379929" fuel_normed="3.875214" electricity_normed="0"
            traveltime="1.31" CO_perVeh="22.194741" CO2_perVeh="2568.116552" HC_perVeh="0.160005" PMx_perVeh="0.035118" NOx_perVeh="0.962835" fuel_perVeh="1.103926" electricity_perVeh="0"/>
        <edge id=":1110673663_1" sampledSeconds="170.23" CO_abs="2500.195433" CO2_abs="329112.469915" HC_abs="18.869799" PMx_abs="4.286098" NOx_abs="121.355872" fuel_abs="141.471847" electricity_abs="0"
            CO_normed="64.264134" CO2_normed="8459.389896" HC_normed="0.485023" PMx_normed="0.110168" NOx_normed="3.119288" fuel_normed="3.636342" electricity_normed="0"
            traveltime="1.28" CO_perVeh="18.736095" CO2_perVeh="2466.320226" HC_perVeh="0.141407" PMx_perVeh="0.032119" NOx_perVeh="0.909423" fuel_perVeh="1.060169" electricity_perVeh="0"/>