<?xml version="1.0" encoding="UTF-8"?>

<!-- generated on Tue Nov 10 05:13:05 2020 by Eclipse SUMO sumo Version 1.7.0
<configuration xmlns:xsi="http://www.w3.org/2001/XMLSchema-instance" xsi:noNamespaceSchemaLocation="http://sumo.dlr.de/xsd/sumoConfiguration.xsd">

    <input>
        <net-file value="../dataSets/Porto/8AM9AM_Routing_SaoBento/Porto.net.xml"/>
        <route-files value="../results/Porto/8AM9AM_Routing_SaoBento/cost_PMx-ttime/solution13/Porto.rou.xml"/>
        <additional-files value="moreOutputInfo.xml"/>
    </input>

    <output>
        <emission-output.precision value="6"/>
        <tripinfo-output value="../results/Porto/8AM9AM_Routing_SaoBento/cost_PMx-ttime/solution13/Porto-tripinfo"/>
    </output>

    <processing>
        <collision.action value="warn"/>
        <time-to-teleport value="-1"/>
    </processing>

    <emissions>
        <device.emissions.probability value="1"/>
    </emissions>

    <gui_only>
        <quit-on-end value="true"/>
        <start value="true"/>
    </gui_only>

</configuration>
-->

<meandata xmlns:xsi="http://www.w3.org/2001/XMLSchema-instance" xsi:noNamespaceSchemaLocation="http://sumo.dlr.de/xsd/meandata_file.xsd">
    <interval begin="0.00" end="8562.00" id="emissions-detector">
        <edge id=":1092997347_0" sampledSeconds="637.08" CO_abs="76286.682941" CO2_abs="3236314.071175" HC_abs="423.887098" PMx_abs="65.345264" NOx_abs="1399.490694" fuel_abs="1391.160744" electricity_abs="0"
            CO_normed="72899.295669" CO2_normed="3092610.757956" HC_normed="405.065074" PMx_normed="62.443713" NOx_normed="1337.348564" fuel_normed="1329.388492" electricity_normed="0"
            traveltime="0.07" CO_perVeh="8.282592" CO2_perVeh="351.372841" HC_perVeh="0.046022" PMx_perVeh="0.007095" NOx_perVeh="0.151945" fuel_perVeh="0.151041" electricity_perVeh="0"/>
        <edge id=":1103427051_0" sampledSeconds="19.18" CO_abs="1614.872736" CO2_abs="91526.178689" HC_abs="9.526714" PMx_abs="1.795688" NOx_abs="39.045537" fuel_abs="39.343045" electricity_abs="0"
            CO_normed="2341.356697" CO2_normed="132701.126582" HC_normed="13.812504" PMx_normed="2.603516" NOx_normed="56.610981" fuel_normed="57.042328" electricity_normed="0"
            traveltime="0.03" CO_perVeh="2.511370" CO2_perVeh="142.336989" HC_perVeh="0.014815" PMx_perVeh="0.002793" NOx_perVeh="0.060722" fuel_perVeh="0.061184" electricity_perVeh="0"/>
        <edge id=":1105984386_0" sampledSeconds="10.44" CO_abs="253.637055" CO2_abs="18963.874108" HC_abs="1.588768" PMx_abs="0.266714" NOx_abs="7.319267" fuel_abs="8.151829" electricity_abs="0"
            CO_normed="10.982994" CO2_normed="821.173850" HC_normed="0.068797" PMx_normed="0.011549" NOx_normed="0.316939" fuel_normed="0.352991" electricity_normed="0"
            traveltime="1.00" CO_perVeh="24.331316" CO2_perVeh="1819.197961" HC_perVeh="0.152410" PMx_perVeh="0.025586" NOx_perVeh="0.702135" fuel_perVeh="0.782002" electricity_perVeh="0"/>
        <edge id=":1105984390_0" sampledSeconds="10.69" CO_abs="1.480876" CO2_abs="146.900663" HC_abs="0.009947" PMx_abs="0.001140" NOx_abs="0.050267" fuel_abs="0.063148" electricity_abs="0"
            CO_normed="0.049574" CO2_normed="4.917693" HC_normed="0.000333" PMx_normed="0.000038" NOx_normed="0.001683" fuel_normed="0.002114" electricity_normed="0"
            traveltime="1.11" CO_perVeh="0.153502" CO2_perVeh="15.227138" HC_perVeh="0.001031" PMx_perVeh="0.000118" NOx_perVeh="0.005210" fuel_perVeh="0.006546" electricity_perVeh="0"/>
        <edge id=":1105984390_1" sampledSeconds="2394.96" CO_abs="60656.700799" CO2_abs="7343486.970465" HC_abs="451.303874" PMx_abs="131.861575" NOx_abs="2785.123868" fuel_abs="3156.626446" electricity_abs="0"
            CO_normed="1942.411926" CO2_normed="235160.773393" HC_normed="14.452122" PMx_normed="4.222608" NOx_normed="89.188132" fuel_normed="101.084773" electricity_normed="0"
            traveltime="0.65" CO_perVeh="16.380219" CO2_perVeh="1983.093765" HC_perVeh="0.121874" PMx_perVeh="0.035609" NOx_perVeh="0.752117" fuel_perVeh="0.852441" electricity_perVeh="0"/>
        <edge id=":1105984395_0" sampledSeconds="4.19" CO_abs="55.969048" CO2_abs="4628.978442" HC_abs="0.359722" PMx_abs="0.058377" NOx_abs="1.737354" fuel_abs="1.989823" electricity_abs="0"
            CO_normed="25.579224" CO2_normed="2115.556401" HC_normed="0.164402" PMx_normed="0.026680" NOx_normed="0.794013" fuel_normed="0.909398" electricity_normed="0"
            traveltime="0.10" CO_perVeh="1.297343" CO2_perVeh="107.298064" HC_perVeh="0.008338" PMx_perVeh="0.001353" NOx_perVeh="0.040271" fuel_perVeh="0.046123" electricity_perVeh="0"/>
        <edge id=":1105984398_0" sampledSeconds="11.16" CO_abs="622.332815" CO2_abs="43413.919721" HC_abs="3.845157" PMx_abs="0.714746" NOx_abs="17.470426" fuel_abs="18.661822" electricity_abs="0"
            CO_normed="21.643310" CO2_normed="1509.836692" HC_normed="0.133726" PMx_normed="0.024857" NOx_normed="0.607581" fuel_normed="0.649015" electricity_normed="0"
            traveltime="1.18" CO_perVeh="65.570016" CO2_perVeh="4574.162471" HC_perVeh="0.405132" PMx_perVeh="0.075307" NOx_perVeh="1.840713" fuel_perVeh="1.966240" electricity_perVeh="0"/>
        <edge id=":1105984398_1" sampledSeconds="642.83" CO_abs="13122.689023" CO2_abs="1507660.513476" HC_abs="94.322523" PMx_abs="21.979419" NOx_abs="572.686774" fuel_abs="648.078595" electricity_abs="0"
            CO_normed="441.761309" CO2_normed="50753.780773" HC_normed="3.175267" PMx_normed="0.739914" NOx_normed="19.278889" fuel_normed="21.816874" electricity_normed="0"
            traveltime="0.95" CO_perVeh="19.412511" CO2_perVeh="2230.295682" HC_perVeh="0.139532" PMx_perVeh="0.032514" NOx_perVeh="0.847181" fuel_perVeh="0.958708" electricity_perVeh="0"/>
        <edge id=":1106006327_0" sampledSeconds="67.90" CO_abs="9118.239614" CO2_abs="294053.120826" HC_abs="48.436952" PMx_abs="6.123987" NOx_abs="128.650686" fuel_abs="126.403120" electricity_abs="0"
            CO_normed="432.717596" CO2_normed="13954.662855" HC_normed="2.298637" PMx_normed="0.290622" NOx_normed="6.105281" fuel_normed="5.998620" electricity_normed="0"
            traveltime="2.10" CO_perVeh="282.661919" CO2_perVeh="9115.533573" HC_perVeh="1.501527" PMx_perVeh="0.189841" NOx_perVeh="3.988122" fuel_perVeh="3.918448" electricity_perVeh="0"/>
        <edge id=":1106006327_1" sampledSeconds="683.81" CO_abs="92361.581765" CO2_abs="3081575.483108" HC_abs="493.170126" PMx_abs="64.240419" NOx_abs="1348.393204" fuel_abs="1324.658375" electricity_abs="0"
            CO_normed="3822.301416" CO2_normed="127528.243953" HC_normed="20.409404" PMx_normed="2.658532" NOx_normed="55.802046" fuel_normed="54.819802" electricity_normed="0"
            traveltime="2.30" CO_perVeh="310.035474" CO2_perVeh="10344.103012" HC_perVeh="1.655453" PMx_perVeh="0.215640" NOx_perVeh="4.526230" fuel_perVeh="4.446558" electricity_perVeh="0"/>
        <edge id=":1106006327_2" sampledSeconds="0.00" CO_abs="0" CO2_abs="0" HC_abs="0" PMx_abs="0" NOx_abs="0" fuel_abs="0" electricity_abs="0"
            CO_normed="0" CO2_normed="0" HC_normed="0" PMx_normed="0" NOx_normed="0" fuel_normed="0" electricity_normed="0"/>
        <edge id=":1106006327_3" sampledSeconds="0.00" CO_abs="0" CO2_abs="0" HC_abs="0" PMx_abs="0" NOx_abs="0" fuel_abs="0" electricity_abs="0"
            CO_normed="0" CO2_normed="0" HC_normed="0" PMx_normed="0" NOx_normed="0" fuel_normed="0" electricity_normed="0"/>
        <edge id=":1107381198_0" sampledSeconds="0.00" CO_abs="0" CO2_abs="0" HC_abs="0" PMx_abs="0" NOx_abs="0" fuel_abs="0" electricity_abs="0"
            CO_normed="0" CO2_normed="0" HC_normed="0" PMx_normed="0" NOx_normed="0" fuel_normed="0" electricity_normed="0"/>
        <edge id=":1107381198_1" sampledSeconds="103.77" CO_abs="4810.394684" CO2_abs="194640.300490" HC_abs="26.401388" PMx_abs="3.434516" NOx_abs="81.112180" fuel_abs="83.668938" electricity_abs="0"
            CO_normed="220.566043" CO2_normed="8924.640027" HC_normed="1.210555" PMx_normed="0.157479" NOx_normed="3.719153" fuel_normed="3.836385" electricity_normed="0"
            traveltime="1.55" CO_perVeh="72.020832" CO2_perVeh="2914.138511" HC_perVeh="0.395279" PMx_perVeh="0.051421" NOx_perVeh="1.214405" fuel_perVeh="1.252684" electricity_perVeh="0"/>
        <edge id=":1110338277_0" sampledSeconds="161.51" CO_abs="2621.704630" CO2_abs="311548.182403" HC_abs="19.072555" PMx_abs="4.321220" NOx_abs="117.012148" fuel_abs="133.921458" electricity_abs="0"
            CO_normed="3936.887521" CO2_normed="467836.894187" HC_normed="28.640337" PMx_normed="6.488968" NOx_normed="175.711505" fuel_normed="201.103401" electricity_normed="0"
            traveltime="0.02" CO_perVeh="0.355087" CO2_perVeh="42.196454" HC_perVeh="0.002583" PMx_perVeh="0.000585" NOx_perVeh="0.015848" fuel_perVeh="0.018138" electricity_perVeh="0"/>
        <edge id=":1110338293_0" sampledSeconds="6791.39" CO_abs="649772.406587" CO2_abs="11329196.770096" HC_abs="3223.796524" PMx_abs="271.205639" NOx_abs="5125.703364" fuel_abs="4870.231839" electricity_abs="0"
            CO_normed="910683.120655" CO2_normed="15878341.653954" HC_normed="4518.285247" PMx_normed="380.106011" NOx_normed="7183.886985" fuel_normed="6825.832991" electricity_normed="0"
            traveltime="0.45" CO_perVeh="43.449278" CO2_perVeh="757.565907" HC_perVeh="0.215570" PMx_perVeh="0.018135" NOx_perVeh="0.342748" fuel_perVeh="0.325665" electricity_perVeh="0"/>
        <edge id=":1110338295_0" sampledSeconds="0.00" CO_abs="0" CO2_abs="0" HC_abs="0" PMx_abs="0" NOx_abs="0" fuel_abs="0" electricity_abs="0"
            CO_normed="0" CO2_normed="0" HC_normed="0" PMx_normed="0" NOx_normed="0" fuel_normed="0" electricity_normed="0"/>
        <edge id=":1110673403_0" sampledSeconds="200.91" CO_abs="3167.850650" CO2_abs="394710.062002" HC_abs="23.391821" PMx_abs="5.370165" NOx_abs="147.195227" fuel_abs="169.669308" electricity_abs="0"
            CO_normed="4439.874773" CO2_normed="553202.609674" HC_normed="32.784612" PMx_normed="7.526510" NOx_normed="206.300249" fuel_normed="237.798610" electricity_normed="0"
            traveltime="0.02" CO_perVeh="0.366128" CO2_perVeh="45.619118" HC_perVeh="0.002704" PMx_perVeh="0.000621" NOx_perVeh="0.017012" fuel_perVeh="0.019610" electricity_perVeh="0"/>
        <edge id=":1110673412_0" sampledSeconds="951.33" CO_abs="169635.589555" CO2_abs="11559422.676413" HC_abs="1055.363127" PMx_abs="254.236902" NOx_abs="4969.486815" fuel_abs="4968.826294" electricity_abs="0"
            CO_normed="245949.674342" CO2_normed="16759668.477026" HC_normed="1530.140097" PMx_normed="368.610640" NOx_normed="7205.113425" fuel_normed="7204.155756" electricity_normed="0"
            traveltime="0.02" CO_perVeh="2.768679" CO2_perVeh="188.665198" HC_perVeh="0.017225" PMx_perVeh="0.004149" NOx_perVeh="0.081109" fuel_perVeh="0.081098" electricity_perVeh="0"/>
        <edge id=":1110673414_0" sampledSeconds="0.00" CO_abs="0" CO2_abs="0" HC_abs="0" PMx_abs="0" NOx_abs="0" fuel_abs="0" electricity_abs="0"
            CO_normed="0" CO2_normed="0" HC_normed="0" PMx_normed="0" NOx_normed="0" fuel_normed="0" electricity_normed="0"/>
        <edge id=":1110673414_1" sampledSeconds="338.30" CO_abs="23459.541691" CO2_abs="911362.439404" HC_abs="128.046946" PMx_abs="17.101995" NOx_abs="386.505399" fuel_abs="391.761508" electricity_abs="0"
            CO_normed="1092.343051" CO2_normed="42435.629863" HC_normed="5.962230" PMx_normed="0.796318" NOx_normed="17.996792" fuel_normed="18.241531" electricity_normed="0"
            traveltime="1.57" CO_perVeh="109.028225" CO2_perVeh="4235.557148" HC_perVeh="0.595098" PMx_perVeh="0.079482" NOx_perVeh="1.796284" fuel_perVeh="1.820712" electricity_perVeh="0"/>
        <edge id=":1110673417_0" sampledSeconds="29.13" CO_abs="556.500177" CO2_abs="61409.612770" HC_abs="3.916176" PMx_abs="0.878566" NOx_abs="23.268378" fuel_abs="26.397394" electricity_abs="0"
            CO_normed="835.669502" CO2_normed="92215.856597" HC_normed="5.880733" PMx_normed="1.319301" NOx_normed="34.941002" fuel_normed="39.639695" electricity_normed="0"
            traveltime="0.02" CO_perVeh="0.424358" CO2_perVeh="46.827777" HC_perVeh="0.002986" PMx_perVeh="0.000670" NOx_perVeh="0.017743" fuel_perVeh="0.020129" electricity_perVeh="0"/>
        <edge id=":1110673446_0" sampledSeconds="1328.23" CO_abs="14386.328431" CO2_abs="1153047.760818" HC_abs="92.793416" PMx_abs="21.312796" NOx_abs="472.871816" fuel_abs="495.642058" electricity_abs="0"
            CO_normed="20163.039147" CO2_normed="1616044.514111" HC_normed="130.053841" PMx_normed="29.870772" NOx_normed="662.749567" fuel_normed="694.663010" electricity_normed="0"
            traveltime="0.02" CO_perVeh="0.246938" CO2_perVeh="19.791791" HC_perVeh="0.001593" PMx_perVeh="0.000366" NOx_perVeh="0.008117" fuel_perVeh="0.008508" electricity_perVeh="0"/>
        <edge id=":1110673451_0" sampledSeconds="37.11" CO_abs="266.306641" CO2_abs="17874.746372" HC_abs="1.620299" PMx_abs="0.250940" NOx_abs="6.917356" fuel_abs="7.683678" electricity_abs="0"
            CO_normed="414.710957" CO2_normed="27835.780382" HC_normed="2.523240" PMx_normed="0.390780" NOx_normed="10.772181" fuel_normed="11.965550" electricity_normed="0"
            traveltime="0.03" CO_perVeh="0.196209" CO2_perVeh="13.169736" HC_perVeh="0.001194" PMx_perVeh="0.000185" NOx_perVeh="0.005097" fuel_perVeh="0.005661" electricity_perVeh="0"/>
        <edge id=":1110673464_0" sampledSeconds="1029.85" CO_abs="3449.479261" CO2_abs="245093.156070" HC_abs="21.327277" PMx_abs="3.567153" NOx_abs="95.505978" fuel_abs="105.355932" electricity_abs="0"
            CO_normed="102.717897" CO2_normed="7298.334510" HC_normed="0.635079" PMx_normed="0.106222" NOx_normed="2.843958" fuel_normed="3.137268" electricity_normed="0"
            traveltime="1.22" CO_perVeh="4.090601" CO2_perVeh="290.646298" HC_perVeh="0.025291" PMx_perVeh="0.004230" NOx_perVeh="0.113257" fuel_perVeh="0.124937" electricity_perVeh="0"/>
        <edge id=":1110673464_1" sampledSeconds="2606.98" CO_abs="63528.068545" CO2_abs="7819106.224422" HC_abs="475.752925" PMx_abs="139.229833" NOx_abs="2959.641872" fuel_abs="3361.073990" electricity_abs="0"
            CO_normed="1853.655175" CO2_normed="228149.966647" HC_normed="13.881767" PMx_normed="4.062521" NOx_normed="86.357977" fuel_normed="98.071173" electricity_normed="0"
            traveltime="0.72" CO_perVeh="17.514657" CO2_perVeh="2155.723758" HC_perVeh="0.131165" PMx_perVeh="0.038386" NOx_perVeh="0.815972" fuel_perVeh="0.926646" electricity_perVeh="0"/>
        <edge id=":1110673479_0" sampledSeconds="134.73" CO_abs="6425.300488" CO2_abs="443481.982031" HC_abs="39.661154" PMx_abs="7.681694" NOx_abs="180.859421" fuel_abs="190.633775" electricity_abs="0"
            CO_normed="9005.326542" CO2_normed="621558.489181" HC_normed="55.586762" PMx_normed="10.766214" NOx_normed="253.482020" fuel_normed="267.181185" electricity_normed="0"
            traveltime="0.03" CO_perVeh="1.358368" CO2_perVeh="93.756187" HC_perVeh="0.008385" PMx_perVeh="0.001624" NOx_perVeh="0.038235" fuel_perVeh="0.040302" electricity_perVeh="0"/>
        <edge id=":1110673511_0" sampledSeconds="63.52" CO_abs="1228.360564" CO2_abs="129253.725682" HC_abs="8.570530" PMx_abs="1.822869" NOx_abs="49.012226" fuel_abs="55.560789" electricity_abs="0"
            CO_normed="1721.598548" CO2_normed="181154.485889" HC_normed="12.011955" PMx_normed="2.554826" NOx_normed="68.692678" fuel_normed="77.870763" electricity_normed="0"
            traveltime="0.02" CO_perVeh="0.470787" CO2_perVeh="49.538317" HC_perVeh="0.003285" PMx_perVeh="0.000699" NOx_perVeh="0.018785" fuel_perVeh="0.021294" electricity_perVeh="0"/>
        <edge id=":1110673517_0" sampledSeconds="183.29" CO_abs="7825.559981" CO2_abs="547715.815739" HC_abs="48.492779" PMx_abs="9.510666" NOx_abs="223.357681" fuel_abs="235.439292" electricity_abs="0"
            CO_normed="10967.848607" CO2_normed="767646.553244" HC_normed="67.964652" PMx_normed="13.329595" NOx_normed="313.045103" fuel_normed="329.977984" electricity_normed="0"
            traveltime="0.03" CO_perVeh="1.198159" CO2_perVeh="83.859914" HC_perVeh="0.007425" PMx_perVeh="0.001456" NOx_perVeh="0.034198" fuel_perVeh="0.036048" electricity_perVeh="0"/>
        <edge id=":1110673534_0" sampledSeconds="734.74" CO_abs="5479.040471" CO2_abs="455504.586199" HC_abs="35.403001" PMx_abs="6.412998" NOx_abs="174.942735" fuel_abs="195.803205" electricity_abs="0"
            CO_normed="148.819839" CO2_normed="12372.261051" HC_normed="0.961604" PMx_normed="0.174188" NOx_normed="4.751735" fuel_normed="5.318340" electricity_normed="0"
            traveltime="1.45" CO_perVeh="10.805574" CO2_perVeh="898.330411" HC_perVeh="0.069821" PMx_perVeh="0.012647" NOx_perVeh="0.345016" fuel_perVeh="0.386156" electricity_perVeh="0"/>
        <edge id=":1110673534_1" sampledSeconds="199.55" CO_abs="3148.065567" CO2_abs="397564.031384" HC_abs="23.422547" PMx_abs="5.416928" NOx_abs="148.200957" fuel_abs="170.896082" electricity_abs="0"
            CO_normed="83.143439" CO2_normed="10500.048369" HC_normed="0.618612" PMx_normed="0.143066" NOx_normed="3.914130" fuel_normed="4.513530" electricity_normed="0"
            traveltime="1.22" CO_perVeh="19.243134" CO2_perVeh="2430.183833" HC_perVeh="0.143175" PMx_perVeh="0.033112" NOx_perVeh="0.905906" fuel_perVeh="1.044634" electricity_perVeh="0"/>
        <edge id=":1110673549_0" sampledSeconds="648.15" CO_abs="1363.671811" CO2_abs="127391.248064" HC_abs="9.122322" PMx_abs="1.903563" NOx_abs="48.995121" fuel_abs="54.760149" electricity_abs="0"
            CO_normed="35.880655" CO2_normed="3351.892600" HC_normed="0.240025" PMx_normed="0.050086" NOx_normed="1.289150" fuel_normed="1.440838" electricity_normed="0"
            traveltime="1.29" CO_perVeh="2.709291" CO2_perVeh="253.096034" HC_perVeh="0.018124" PMx_perVeh="0.003782" NOx_perVeh="0.097342" fuel_perVeh="0.108795" electricity_perVeh="0"/>
        <edge id=":1110673549_1" sampledSeconds="3195.49" CO_abs="72771.653609" CO2_abs="9403058.965688" HC_abs="555.920881" PMx_abs="166.090801" NOx_abs="3524.522979" fuel_abs="4041.944061" electricity_abs="0"
            CO_normed="1852.164167" CO2_normed="239324.077647" HC_normed="14.149146" PMx_normed="4.227298" NOx_normed="89.705192" fuel_normed="102.874452" electricity_normed="0"
            traveltime="0.81" CO_perVeh="18.356483" CO2_perVeh="2371.900141" HC_perVeh="0.140230" PMx_perVeh="0.041896" NOx_perVeh="0.889053" fuel_perVeh="1.019571" electricity_perVeh="0"/>
        <edge id=":1110673556_0" sampledSeconds="462.50" CO_abs="56418.387281" CO2_abs="2727517.919888" HC_abs="321.670189" PMx_abs="55.009771" NOx_abs="1175.503434" fuel_abs="1172.443551" electricity_abs="0"
            CO_normed="1100.780355" CO2_normed="53216.660199" HC_normed="6.276114" PMx_normed="1.073297" NOx_normed="22.935273" fuel_normed="22.875571" electricity_normed="0"
            traveltime="2.73" CO_perVeh="332.580968" CO2_perVeh="16078.455884" HC_perVeh="1.896215" PMx_perVeh="0.324277" NOx_perVeh="6.929480" fuel_perVeh="6.911442" electricity_perVeh="0"/>
        <edge id=":1110673556_2" sampledSeconds="176.80" CO_abs="17913.123161" CO2_abs="761939.113754" HC_abs="99.478663" PMx_abs="14.837347" NOx_abs="325.888703" fuel_abs="327.527662" electricity_abs="0"
            CO_normed="365.443799" CO2_normed="15544.242178" HC_normed="2.029454" PMx_normed="0.302695" NOx_normed="6.648422" fuel_normed="6.681858" electricity_normed="0"
            traveltime="3.06" CO_perVeh="309.743496" CO2_perVeh="13175.016053" HC_perVeh="1.720128" PMx_perVeh="0.256559" NOx_perVeh="5.635081" fuel_perVeh="5.663421" electricity_perVeh="0"/>
        <edge id=":1110673556_3" sampledSeconds="348.98" CO_abs="35476.074869" CO2_abs="1237594.219455" HC_abs="190.490784" PMx_abs="24.493571" NOx_abs="533.396629" fuel_abs="531.997786" electricity_abs="0"
            CO_normed="1646.397289" CO2_normed="57435.096064" HC_normed="8.840423" PMx_normed="1.136714" NOx_normed="24.754226" fuel_normed="24.689307" electricity_normed="0"
            traveltime="1.82" CO_perVeh="184.713882" CO2_perVeh="6443.802874" HC_perVeh="0.991832" PMx_perVeh="0.127531" NOx_perVeh="2.777245" fuel_perVeh="2.769962" electricity_perVeh="0"/>
        <edge id=":1110673556_4" sampledSeconds="78.49" CO_abs="9345.961932" CO2_abs="360102.822584" HC_abs="51.025934" PMx_abs="7.193730" NOx_abs="155.461919" fuel_abs="154.794490" electricity_abs="0"
            CO_normed="264.978193" CO2_normed="10209.692259" HC_normed="1.446695" PMx_normed="0.203958" NOx_normed="4.407681" fuel_normed="4.388758" electricity_normed="0"
            traveltime="2.58" CO_perVeh="307.768831" CO2_perVeh="11858.428874" HC_perVeh="1.680318" PMx_perVeh="0.236894" NOx_perVeh="5.119466" fuel_perVeh="5.097487" electricity_perVeh="0"/>
        <edge id=":1110673556_5" sampledSeconds="22.22" CO_abs="1282.505100" CO2_abs="57913.743866" HC_abs="7.178920" PMx_abs="0.999560" NOx_abs="23.945541" fuel_abs="24.894969" electricity_abs="0"
            CO_normed="50.680950" CO2_normed="2288.586282" HC_normed="0.283690" PMx_normed="0.039500" NOx_normed="0.946260" fuel_normed="0.983778" electricity_normed="0"
            traveltime="1.54" CO_perVeh="88.667019" CO2_perVeh="4003.913156" HC_perVeh="0.496320" PMx_perVeh="0.069105" NOx_perVeh="1.655494" fuel_perVeh="1.721134" electricity_perVeh="0"/>
        <edge id=":1110673556_6" sampledSeconds="211.74" CO_abs="25806.368206" CO2_abs="1309173.320887" HC_abs="148.658316" PMx_abs="26.455327" NOx_abs="563.775165" fuel_abs="562.756652" electricity_abs="0"
            CO_normed="516.204106" CO2_normed="26187.359605" HC_normed="2.973608" PMx_normed="0.529185" NOx_normed="11.277180" fuel_normed="11.256807" electricity_normed="0"
            traveltime="2.47" CO_perVeh="300.709496" CO2_perVeh="15255.182219" HC_perVeh="1.732246" PMx_perVeh="0.308272" NOx_perVeh="6.569407" fuel_perVeh="6.557539" electricity_perVeh="0"/>
        <edge id=":1110673561_0" sampledSeconds="102.44" CO_abs="9713.327783" CO2_abs="694818.417381" HC_abs="60.932786" PMx_abs="14.019669" NOx_abs="293.877829" fuel_abs="298.669369" electricity_abs="0"
            CO_normed="244.117763" CO2_normed="17462.348769" HC_normed="1.531378" PMx_normed="0.352346" NOx_normed="7.385810" fuel_normed="7.506233" electricity_normed="0"
            traveltime="1.21" CO_perVeh="114.626696" CO2_perVeh="8199.531716" HC_perVeh="0.719066" PMx_perVeh="0.165446" NOx_perVeh="3.468044" fuel_perVeh="3.524588" electricity_perVeh="0"/>
        <edge id=":1110673561_1" sampledSeconds="5248.78" CO_abs="488863.647756" CO2_abs="33897529.140069" HC_abs="3045.808640" PMx_abs="708.019982" NOx_abs="14488.930348" fuel_abs="14570.911057" electricity_abs="0"
            CO_normed="11978.370383" CO2_normed="830573.434906" HC_normed="74.629857" PMx_normed="17.348243" NOx_normed="355.014686" fuel_normed="357.023416" electricity_normed="0"
            traveltime="1.19" CO_perVeh="111.084443" CO2_perVeh="7702.532505" HC_perVeh="0.692099" PMx_perVeh="0.160883" NOx_perVeh="3.292318" fuel_perVeh="3.310947" electricity_perVeh="0"/>
        <edge id=":1110673562_0" sampledSeconds="302.86" CO_abs="6582.888805" CO2_abs="509084.771303" HC_abs="41.581212" PMx_abs="6.891530" NOx_abs="194.440473" fuel_abs="218.835925" electricity_abs="0"
            CO_normed="10251.325711" CO2_normed="792781.704124" HC_normed="64.753113" PMx_normed="10.731964" NOx_normed="302.796033" fuel_normed="340.786305" electricity_normed="0"
            traveltime="0.03" CO_perVeh="0.590101" CO2_perVeh="45.635162" HC_perVeh="0.003727" PMx_perVeh="0.000618" NOx_perVeh="0.017430" fuel_perVeh="0.019617" electricity_perVeh="0"/>
        <edge id=":1110673564_0" sampledSeconds="27.90" CO_abs="516.360521" CO2_abs="60573.357896" HC_abs="3.740169" PMx_abs="0.825664" NOx_abs="22.675637" fuel_abs="26.037965" electricity_abs="0"
            CO_normed="2171.102402" CO2_normed="254688.260251" HC_normed="15.726009" PMx_normed="3.471607" NOx_normed="95.342551" fuel_normed="109.479882" electricity_normed="0"
            traveltime="7.880568e-03" CO_perVeh="0.145844" CO2_perVeh="17.108702" HC_perVeh="0.001056" PMx_perVeh="0.000233" NOx_perVeh="0.006405" fuel_perVeh="0.007354" electricity_perVeh="0"/>
        <edge id=":1110673588_0" sampledSeconds="62.89" CO_abs="1037.668340" CO2_abs="115422.492451" HC_abs="7.374691" PMx_abs="1.554257" NOx_abs="43.259063" fuel_abs="49.615384" electricity_abs="0"
            CO_normed="1745.202534" CO2_normed="194123.322973" HC_normed="12.403125" PMx_normed="2.614027" NOx_normed="72.755257" fuel_normed="83.445636" electricity_normed="0"
            traveltime="0.02" CO_perVeh="0.334732" CO2_perVeh="37.233062" HC_perVeh="0.002379" PMx_perVeh="0.000501" NOx_perVeh="0.013955" fuel_perVeh="0.016005" electricity_perVeh="0"/>
        <edge id=":1110673601_0" sampledSeconds="29.08" CO_abs="538.148992" CO2_abs="59403.040608" HC_abs="3.819063" PMx_abs="0.856462" NOx_abs="22.560300" fuel_abs="25.534848" electricity_abs="0"
            CO_normed="808.112412" CO2_normed="89202.683864" HC_normed="5.734903" PMx_normed="1.286108" NOx_normed="33.877715" fuel_normed="38.344451" electricity_normed="0"
            traveltime="0.02" CO_perVeh="0.410364" CO2_perVeh="45.297670" HC_perVeh="0.002912" PMx_perVeh="0.000653" NOx_perVeh="0.017203" fuel_perVeh="0.019472" electricity_perVeh="0"/>
        <edge id=":1110673617_0" sampledSeconds="853.21" CO_abs="33688.819452" CO2_abs="3364620.221085" HC_abs="234.095413" PMx_abs="63.750641" NOx_abs="1322.993857" fuel_abs="1446.292474" electricity_abs="0"
            CO_normed="47216.285146" CO2_normed="4715655.530603" HC_normed="328.094482" PMx_normed="89.349181" NOx_normed="1854.231054" fuel_normed="2027.039207" electricity_normed="0"
            traveltime="0.02" CO_perVeh="0.596965" CO2_perVeh="59.620992" HC_perVeh="0.004148" PMx_perVeh="0.001130" NOx_perVeh="0.023443" fuel_perVeh="0.025628" electricity_perVeh="0"/>
        <edge id=":1110673621_0" sampledSeconds="26.37" CO_abs="636.211233" CO2_abs="63996.610719" HC_abs="4.369821" PMx_abs="0.946443" NOx_abs="24.588713" fuel_abs="27.509427" electricity_abs="0"
            CO_normed="1070.011885" CO2_normed="107632.701979" HC_normed="7.349383" PMx_normed="1.591775" NOx_normed="41.354528" fuel_normed="46.266731" electricity_normed="0"
            traveltime="0.02" CO_perVeh="0.481978" CO2_perVeh="48.482281" HC_perVeh="0.003310" PMx_perVeh="0.000717" NOx_perVeh="0.018628" fuel_perVeh="0.020840" electricity_perVeh="0"/>
        <edge id=":1110673630_0" sampledSeconds="286.55" CO_abs="1283.171935" CO2_abs="109562.246989" HC_abs="8.339203" PMx_abs="1.441952" NOx_abs="41.423784" fuel_abs="47.096553" electricity_abs="0"
            CO_normed="38.482574" CO2_normed="3285.792955" HC_normed="0.250094" PMx_normed="0.043244" NOx_normed="1.242307" fuel_normed="1.412435" electricity_normed="0"
            traveltime="1.29" CO_perVeh="5.773784" CO2_perVeh="492.988267" HC_perVeh="0.037523" PMx_perVeh="0.006488" NOx_perVeh="0.186391" fuel_perVeh="0.211917" electricity_perVeh="0"/>
        <edge id=":1110673630_1" sampledSeconds="336.36" CO_abs="1319.022368" CO2_abs="108843.508150" HC_abs="8.482667" PMx_abs="1.425216" NOx_abs="41.147858" fuel_abs="46.787640" electricity_abs="0"
            CO_normed="48.226039" CO2_normed="3979.531696" HC_normed="0.310143" PMx_normed="0.052109" NOx_normed="1.504446" fuel_normed="1.710648" electricity_normed="0"
            traveltime="1.07" CO_perVeh="4.204784" CO2_perVeh="346.971682" HC_perVeh="0.027041" PMx_perVeh="0.004543" NOx_perVeh="0.131171" fuel_perVeh="0.149150" electricity_perVeh="0"/>
        <edge id=":1110673650_0" sampledSeconds="200.18" CO_abs="2998.986479" CO2_abs="385356.670306" HC_abs="22.423086" PMx_abs="5.159201" NOx_abs="143.089126" fuel_abs="165.648737" electricity_abs="0"
            CO_normed="4203.204595" CO2_normed="540093.441214" HC_normed="31.426889" PMx_normed="7.230835" NOx_normed="200.545377" fuel_normed="232.163612" electricity_normed="0"
            traveltime="0.02" CO_perVeh="0.346610" CO2_perVeh="44.537890" HC_perVeh="0.002592" PMx_perVeh="0.000596" NOx_perVeh="0.016538" fuel_perVeh="0.019145" electricity_perVeh="0"/>
        <edge id=":1110673655_0" sampledSeconds="20.65" CO_abs="369.816007" CO2_abs="45365.361558" HC_abs="2.724526" PMx_abs="0.620686" NOx_abs="16.948761" fuel_abs="19.500668" electricity_abs="0"
            CO_normed="518.312553" CO2_normed="63581.445771" HC_normed="3.818537" PMx_normed="0.869917" NOx_normed="23.754395" fuel_normed="27.330999" electricity_normed="0"
            traveltime="0.02" CO_perVeh="0.422486" CO2_perVeh="51.826384" HC_perVeh="0.003113" PMx_perVeh="0.000709" NOx_perVeh="0.019363" fuel_perVeh="0.022278" electricity_perVeh="0"/>
        <edge id=":1110673663_0" sampledSeconds="112.85" CO_abs="2305.261883" CO2_abs="232476.486615" HC_abs="15.865510" PMx_abs="3.418885" NOx_abs="89.192064" fuel_abs="99.931805" electricity_abs="0"
            CO_normed="59.174371" CO2_normed="5967.499804" HC_normed="0.407256" PMx_normed="0.087760" NOx_normed="2.289494" fuel_normed="2.565176" electricity_normed="0"
            traveltime="1.33" CO_perVeh="27.076388" CO2_perVeh="2730.546007" HC_perVeh="0.186348" PMx_perVeh="0.040156" NOx_perVeh="1.047603" fuel_perVeh="1.173746" electricity_perVeh="0"/>
        <edge id=":1110673663_1" sampledSeconds="170.18" CO_abs="2698.191275" CO2_abs="323867.983257" HC_abs="19.743473" PMx_abs="4.437824" NOx_abs="121.236866" fuel_abs="139.217297" electricity_abs="0"
            CO_normed="69.345249" CO2_normed="8323.615205" HC_normed="0.507420" PMx_normed="0.114055" NOx_normed="3.115865" fuel_normed="3.577974" electricity_normed="0"
            traveltime="1.27" CO_perVeh="20.176410" CO2_perVeh="2421.804996" HC_perVeh="0.147637" PMx_perVeh="0.033185" NOx_perVeh="0.906579" fuel_perVeh="1.041033" electricity_perVeh="0"/>