<?xml version="1.0" encoding="UTF-8"?>

<!-- generated on Tue Nov 10 11:59:13 2020 by Eclipse SUMO sumo Version 1.7.0
<configuration xmlns:xsi="http://www.w3.org/2001/XMLSchema-instance" xsi:noNamespaceSchemaLocation="http://sumo.dlr.de/xsd/sumoConfiguration.xsd">

    <input>
        <net-file value="../dataSets/Porto/8AM9AM_Routing_SaoBento/Porto.net.xml"/>
        <route-files value="../results/Porto/8AM9AM_Routing_SaoBento/inputdata/cost_PMx-length/solution9/Porto.rou.xml"/>
        <additional-files value="moreOutputInfo.xml"/>
    </input>

    <output>
        <emission-output.precision value="6"/>
        <tripinfo-output value="../results/Porto/8AM9AM_Routing_SaoBento/inputdata/cost_PMx-length/solution9/Porto-tripinfo"/>
    </output>

    <processing>
        <collision.action value="warn"/>
        <time-to-teleport value="-1"/>
    </processing>

    <emissions>
        <device.emissions.probability value="1"/>
    </emissions>

    <gui_only>
        <quit-on-end value="true"/>
        <start value="true"/>
    </gui_only>

</configuration>
-->

<meandata xmlns:xsi="http://www.w3.org/2001/XMLSchema-instance" xsi:noNamespaceSchemaLocation="http://sumo.dlr.de/xsd/meandata_file.xsd">
    <interval begin="0.00" end="8561.00" id="emissions-detector">
        <edge id=":1092997347_0" sampledSeconds="594.30" CO_abs="72048.690845" CO2_abs="3082136.764413" HC_abs="400.979574" PMx_abs="62.308404" NOx_abs="1333.166075" fuel_abs="1324.885527" electricity_abs="0"
            CO_normed="68857.527010" CO2_normed="2945623.480659" HC_normed="383.219480" PMx_normed="59.548655" NOx_normed="1274.117794" fuel_normed="1266.204006" electricity_normed="0"
            traveltime="0.07" CO_perVeh="8.236173" CO2_perVeh="352.331343" HC_perVeh="0.045838" PMx_perVeh="0.007123" NOx_perVeh="0.152400" fuel_perVeh="0.151453" electricity_perVeh="0"/>
        <edge id=":1103427051_0" sampledSeconds="19.32" CO_abs="1599.901383" CO2_abs="89955.972140" HC_abs="9.418072" PMx_abs="1.751255" NOx_abs="38.298585" fuel_abs="38.668113" electricity_abs="0"
            CO_normed="2319.921125" CO2_normed="130439.764813" HC_normed="13.656581" PMx_normed="2.539390" NOx_normed="55.534483" fuel_normed="56.070314" electricity_normed="0"
            traveltime="0.03" CO_perVeh="2.488049" CO2_perVeh="139.892921" HC_perVeh="0.014646" PMx_perVeh="0.002723" NOx_perVeh="0.059559" fuel_perVeh="0.060134" electricity_perVeh="0"/>
        <edge id=":1105984386_0" sampledSeconds="10.38" CO_abs="217.477126" CO2_abs="16330.439299" HC_abs="1.365960" PMx_abs="0.240421" NOx_abs="6.373022" fuel_abs="7.019801" electricity_abs="0"
            CO_normed="9.418297" CO2_normed="707.223432" HC_normed="0.059156" PMx_normed="0.010412" NOx_normed="0.275997" fuel_normed="0.304007" electricity_normed="0"
            traveltime="1.00" CO_perVeh="20.862506" CO2_perVeh="1566.573460" HC_perVeh="0.131036" PMx_perVeh="0.023064" NOx_perVeh="0.611362" fuel_perVeh="0.673407" electricity_perVeh="0"/>
        <edge id=":1105984390_0" sampledSeconds="11.12" CO_abs="48.250481" CO2_abs="3286.229596" HC_abs="0.295584" PMx_abs="0.050985" NOx_abs="1.305136" fuel_abs="1.412618" electricity_abs="0"
            CO_normed="1.615437" CO2_normed="110.023705" HC_normed="0.009896" PMx_normed="0.001707" NOx_normed="0.043696" fuel_normed="0.047295" electricity_normed="0"
            traveltime="1.15" CO_perVeh="5.001453" CO2_perVeh="340.637482" HC_perVeh="0.030639" PMx_perVeh="0.005285" NOx_perVeh="0.135285" fuel_perVeh="0.146426" electricity_perVeh="0"/>
        <edge id=":1105984390_1" sampledSeconds="2402.83" CO_abs="65516.939208" CO2_abs="7684966.522906" HC_abs="482.445758" PMx_abs="139.477529" NOx_abs="2930.419980" fuel_abs="3303.411732" electricity_abs="0"
            CO_normed="2098.296604" CO2_normed="246124.732765" HC_normed="15.451184" PMx_normed="4.467016" NOx_normed="93.851916" fuel_normed="105.797641" electricity_normed="0"
            traveltime="0.65" CO_perVeh="17.686854" CO2_perVeh="2074.621998" HC_perVeh="0.130240" PMx_perVeh="0.037653" NOx_perVeh="0.791092" fuel_perVeh="0.891784" electricity_perVeh="0"/>
        <edge id=":1105984395_0" sampledSeconds="4.20" CO_abs="93.396552" CO2_abs="7182.094063" HC_abs="0.586335" PMx_abs="0.083658" NOx_abs="2.658685" fuel_abs="3.087326" electricity_abs="0"
            CO_normed="42.689495" CO2_normed="3282.776117" HC_normed="0.268001" PMx_normed="0.038238" NOx_normed="1.215226" fuel_normed="1.411148" electricity_normed="0"
            traveltime="0.10" CO_perVeh="2.164899" CO2_perVeh="166.478371" HC_perVeh="0.013591" PMx_perVeh="0.001939" NOx_perVeh="0.061627" fuel_perVeh="0.071563" electricity_perVeh="0"/>
        <edge id=":1105984398_0" sampledSeconds="10.92" CO_abs="745.300968" CO2_abs="49753.336907" HC_abs="4.565907" PMx_abs="0.894556" NOx_abs="20.538135" fuel_abs="21.386781" electricity_abs="0"
            CO_normed="25.922888" CO2_normed="1730.509216" HC_normed="0.158810" PMx_normed="0.031114" NOx_normed="0.714353" fuel_normed="0.743870" electricity_normed="0"
            traveltime="1.13" CO_perVeh="77.383757" CO2_perVeh="5165.832732" HC_perVeh="0.474073" PMx_perVeh="0.092881" NOx_perVeh="2.132451" fuel_perVeh="2.220565" electricity_perVeh="0"/>
        <edge id=":1105984398_1" sampledSeconds="646.62" CO_abs="12020.260050" CO2_abs="1397760.756197" HC_abs="86.780174" PMx_abs="20.273076" NOx_abs="530.044885" fuel_abs="600.837462" electricity_abs="0"
            CO_normed="404.696482" CO2_normed="47059.619169" HC_normed="2.921703" PMx_normed="0.682551" NOx_normed="17.845479" fuel_normed="20.228914" electricity_normed="0"
            traveltime="0.95" CO_perVeh="17.666080" CO2_perVeh="2054.277848" HC_perVeh="0.127540" PMx_perVeh="0.029795" NOx_perVeh="0.779003" fuel_perVeh="0.883046" electricity_perVeh="0"/>
        <edge id=":1106006327_0" sampledSeconds="130.88" CO_abs="17612.458247" CO2_abs="573757.445579" HC_abs="93.700899" PMx_abs="11.953383" NOx_abs="251.070470" fuel_abs="246.638033" electricity_abs="0"
            CO_normed="835.919119" CO2_normed="27231.565953" HC_normed="4.447214" PMx_normed="0.567329" NOx_normed="11.916259" fuel_normed="11.705887" electricity_normed="0"
            traveltime="2.08" CO_perVeh="279.647999" CO2_perVeh="9110.035605" HC_perVeh="1.487769" PMx_perVeh="0.189794" NOx_perVeh="3.986460" fuel_perVeh="3.916082" electricity_perVeh="0"/>
        <edge id=":1106006327_1" sampledSeconds="678.27" CO_abs="92208.247580" CO2_abs="3100416.863635" HC_abs="492.966032" PMx_abs="64.774764" NOx_abs="1357.490718" fuel_abs="1332.756782" electricity_abs="0"
            CO_normed="3816.401555" CO2_normed="128322.965125" HC_normed="20.403341" PMx_normed="2.680959" NOx_normed="56.185101" fuel_normed="55.161389" electricity_normed="0"
            traveltime="2.28" CO_perVeh="309.520768" CO2_perVeh="10407.348966" HC_perVeh="1.654768" PMx_perVeh="0.217433" NOx_perVeh="4.556768" fuel_perVeh="4.473742" electricity_perVeh="0"/>
        <edge id=":1106006327_2" sampledSeconds="0.00" CO_abs="0" CO2_abs="0" HC_abs="0" PMx_abs="0" NOx_abs="0" fuel_abs="0" electricity_abs="0"
            CO_normed="0" CO2_normed="0" HC_normed="0" PMx_normed="0" NOx_normed="0" fuel_normed="0" electricity_normed="0"/>
        <edge id=":1106006327_3" sampledSeconds="0.00" CO_abs="0" CO2_abs="0" HC_abs="0" PMx_abs="0" NOx_abs="0" fuel_abs="0" electricity_abs="0"
            CO_normed="0" CO2_normed="0" HC_normed="0" PMx_normed="0" NOx_normed="0" fuel_normed="0" electricity_normed="0"/>
        <edge id=":1107381198_0" sampledSeconds="0.00" CO_abs="0" CO2_abs="0" HC_abs="0" PMx_abs="0" NOx_abs="0" fuel_abs="0" electricity_abs="0"
            CO_normed="0" CO2_normed="0" HC_normed="0" PMx_normed="0" NOx_normed="0" fuel_normed="0" electricity_normed="0"/>
        <edge id=":1107381198_1" sampledSeconds="102.18" CO_abs="4195.713577" CO2_abs="170402.258586" HC_abs="23.047956" PMx_abs="3.033436" NOx_abs="71.187642" fuel_abs="73.249812" electricity_abs="0"
            CO_normed="192.404179" CO2_normed="7814.190865" HC_normed="1.056917" PMx_normed="0.139105" NOx_normed="3.264474" fuel_normed="3.359040" electricity_normed="0"
            traveltime="1.53" CO_perVeh="62.817877" CO2_perVeh="2551.248549" HC_perVeh="0.345072" PMx_perVeh="0.045416" NOx_perVeh="1.065815" fuel_perVeh="1.096690" electricity_perVeh="0"/>
        <edge id=":1110338277_0" sampledSeconds="159.92" CO_abs="2292.935590" CO2_abs="292335.334437" HC_abs="17.070752" PMx_abs="3.954026" NOx_abs="108.759455" fuel_abs="125.662704" electricity_abs="0"
            CO_normed="3443.593090" CO2_normed="439037.163538" HC_normed="25.637320" PMx_normed="5.938265" NOx_normed="163.337910" fuel_normed="188.723669" electricity_normed="0"
            traveltime="0.02" CO_perVeh="0.311027" CO2_perVeh="39.654024" HC_perVeh="0.002316" PMx_perVeh="0.000536" NOx_perVeh="0.014753" fuel_perVeh="0.017046" electricity_perVeh="0"/>
        <edge id=":1110338293_0" sampledSeconds="6506.02" CO_abs="597849.600677" CO2_abs="10471389.939501" HC_abs="2967.099326" PMx_abs="249.316028" NOx_abs="4730.132566" fuel_abs="4501.474663" electricity_abs="0"
            CO_normed="838009.018587" CO2_normed="14677803.910058" HC_normed="4158.999172" PMx_normed="349.467625" NOx_normed="6630.252399" fuel_normed="6309.741380" electricity_normed="0"
            traveltime="0.43" CO_perVeh="39.951858" CO2_perVeh="699.760413" HC_perVeh="0.198279" PMx_perVeh="0.016661" NOx_perVeh="0.316096" fuel_perVeh="0.300815" electricity_perVeh="0"/>
        <edge id=":1110338295_0" sampledSeconds="0.00" CO_abs="0" CO2_abs="0" HC_abs="0" PMx_abs="0" NOx_abs="0" fuel_abs="0" electricity_abs="0"
            CO_normed="0" CO2_normed="0" HC_normed="0" PMx_normed="0" NOx_normed="0" fuel_normed="0" electricity_normed="0"/>
        <edge id=":1110673403_0" sampledSeconds="200.25" CO_abs="3470.058510" CO2_abs="429392.885448" HC_abs="25.584289" PMx_abs="5.894614" NOx_abs="160.501501" fuel_abs="184.577940" electricity_abs="0"
            CO_normed="4863.999780" CO2_normed="601882.329794" HC_normed="35.861636" PMx_normed="8.262512" NOx_normed="224.975822" fuel_normed="258.723897" electricity_normed="0"
            traveltime="0.02" CO_perVeh="0.401056" CO2_perVeh="49.627516" HC_perVeh="0.002957" PMx_perVeh="0.000681" NOx_perVeh="0.018550" fuel_perVeh="0.021333" electricity_perVeh="0"/>
        <edge id=":1110673412_0" sampledSeconds="939.38" CO_abs="167562.429736" CO2_abs="11424634.586943" HC_abs="1042.591728" PMx_abs="251.243939" NOx_abs="4910.598343" fuel_abs="4910.887569" electricity_abs="0"
            CO_normed="242972.238600" CO2_normed="16566178.021821" HC_normed="1511.799790" PMx_normed="364.313780" NOx_normed="7120.564401" fuel_normed="7120.983791" electricity_normed="0"
            traveltime="0.02" CO_perVeh="2.765584" CO2_perVeh="188.561251" HC_perVeh="0.017208" PMx_perVeh="0.004147" NOx_perVeh="0.081048" fuel_perVeh="0.081053" electricity_perVeh="0"/>
        <edge id=":1110673414_0" sampledSeconds="0.00" CO_abs="0" CO2_abs="0" HC_abs="0" PMx_abs="0" NOx_abs="0" fuel_abs="0" electricity_abs="0"
            CO_normed="0" CO2_normed="0" HC_normed="0" PMx_normed="0" NOx_normed="0" fuel_normed="0" electricity_normed="0"/>
        <edge id=":1110673414_1" sampledSeconds="7.35" CO_abs="322.916099" CO2_abs="13295.690541" HC_abs="1.781996" PMx_abs="0.256652" NOx_abs="5.685273" fuel_abs="5.715305" electricity_abs="0"
            CO_normed="15.037649" CO2_normed="619.157520" HC_normed="0.082985" PMx_normed="0.011952" NOx_normed="0.264753" fuel_normed="0.266152" electricity_normed="0"
            traveltime="1.61" CO_perVeh="70.535374" CO2_perVeh="2904.211069" HC_perVeh="0.389246" PMx_perVeh="0.056061" NOx_perVeh="1.241848" fuel_perVeh="1.248409" electricity_perVeh="0"/>
        <edge id=":1110673417_0" sampledSeconds="29.25" CO_abs="507.169409" CO2_abs="51810.852955" HC_abs="3.483133" PMx_abs="0.781050" NOx_abs="19.938201" fuel_abs="22.271260" electricity_abs="0"
            CO_normed="761.680825" CO2_normed="77810.949421" HC_normed="5.231064" PMx_normed="1.173002" NOx_normed="29.943734" fuel_normed="33.447584" electricity_normed="0"
            traveltime="0.02" CO_perVeh="0.386741" CO2_perVeh="39.508262" HC_perVeh="0.002656" PMx_perVeh="0.000596" NOx_perVeh="0.015204" fuel_perVeh="0.016983" electricity_perVeh="0"/>
        <edge id=":1110673446_0" sampledSeconds="1312.74" CO_abs="14360.263794" CO2_abs="1166299.530185" HC_abs="92.985398" PMx_abs="21.322593" NOx_abs="476.584379" fuel_abs="501.338605" electricity_abs="0"
            CO_normed="20128.859424" CO2_normed="1634808.359095" HC_normed="130.338135" PMx_normed="29.887993" NOx_normed="668.030902" fuel_normed="702.729035" electricity_normed="0"
            traveltime="0.02" CO_perVeh="0.249046" CO2_perVeh="20.226802" HC_perVeh="0.001613" PMx_perVeh="0.000370" NOx_perVeh="0.008265" fuel_perVeh="0.008695" electricity_perVeh="0"/>
        <edge id=":1110673451_0" sampledSeconds="36.54" CO_abs="337.923443" CO2_abs="26060.895420" HC_abs="2.132474" PMx_abs="0.350172" NOx_abs="9.927500" fuel_abs="11.202580" electricity_abs="0"
            CO_normed="526.299020" CO2_normed="40588.553394" HC_normed="3.321222" PMx_normed="0.545376" NOx_normed="15.461590" fuel_normed="17.447464" electricity_normed="0"
            traveltime="0.03" CO_perVeh="0.248975" CO2_perVeh="19.201118" HC_perVeh="0.001571" PMx_perVeh="0.000258" NOx_perVeh="0.007314" fuel_perVeh="0.008254" electricity_perVeh="0"/>
        <edge id=":1110673464_0" sampledSeconds="1030.81" CO_abs="3723.407791" CO2_abs="262111.138023" HC_abs="22.965848" PMx_abs="3.811200" NOx_abs="102.126088" fuel_abs="112.671329" electricity_abs="0"
            CO_normed="110.887836" CO2_normed="7806.004244" HC_normed="0.683952" PMx_normed="0.113502" NOx_normed="3.041445" fuel_normed="3.355496" electricity_normed="0"
            traveltime="1.22" CO_perVeh="4.415445" CO2_perVeh="310.827428" HC_perVeh="0.027234" PMx_perVeh="0.004520" NOx_perVeh="0.121107" fuel_perVeh="0.133613" electricity_perVeh="0"/>
        <edge id=":1110673464_1" sampledSeconds="2605.81" CO_abs="61905.302388" CO2_abs="7665854.942343" HC_abs="464.363396" PMx_abs="136.294888" NOx_abs="2899.288194" fuel_abs="3295.198349" electricity_abs="0"
            CO_normed="1806.516249" CO2_normed="223704.448262" HC_normed="13.551020" PMx_normed="3.977348" NOx_normed="84.606827" fuel_normed="96.160250" electricity_normed="0"
            traveltime="0.72" CO_perVeh="17.066871" CO2_perVeh="2113.424069" HC_perVeh="0.128022" PMx_perVeh="0.037576" NOx_perVeh="0.799314" fuel_perVeh="0.908464" electricity_perVeh="0"/>
        <edge id=":1110673479_0" sampledSeconds="133.67" CO_abs="6907.622363" CO2_abs="474185.193333" HC_abs="42.590578" PMx_abs="8.291050" NOx_abs="193.941423" fuel_abs="203.831669" electricity_abs="0"
            CO_normed="9682.451624" CO2_normed="664667.950005" HC_normed="59.699443" PMx_normed="11.621609" NOx_normed="271.848742" fuel_normed="285.711953" electricity_normed="0"
            traveltime="0.03" CO_perVeh="1.460334" CO2_perVeh="100.247037" HC_perVeh="0.009004" PMx_perVeh="0.001753" NOx_perVeh="0.041001" fuel_perVeh="0.043092" electricity_perVeh="0"/>
        <edge id=":1110673511_0" sampledSeconds="63.54" CO_abs="954.689730" CO2_abs="106919.629055" HC_abs="6.795941" PMx_abs="1.468225" NOx_abs="40.196343" fuel_abs="45.960308" electricity_abs="0"
            CO_normed="1338.193758" CO2_normed="149869.822294" HC_normed="9.525908" PMx_normed="2.058019" NOx_normed="56.343431" fuel_normed="64.422812" electricity_normed="0"
            traveltime="0.02" CO_perVeh="0.365898" CO2_perVeh="40.978459" HC_perVeh="0.002605" PMx_perVeh="0.000563" NOx_perVeh="0.015406" fuel_perVeh="0.017615" electricity_perVeh="0"/>
        <edge id=":1110673517_0" sampledSeconds="182.49" CO_abs="8232.412206" CO2_abs="586804.418556" HC_abs="51.255575" PMx_abs="10.115926" NOx_abs="238.689186" fuel_abs="252.241784" electricity_abs="0"
            CO_normed="11539.416712" CO2_normed="822526.927073" HC_normed="71.845217" PMx_normed="14.179548" NOx_normed="334.571924" fuel_normed="353.568673" electricity_normed="0"
            traveltime="0.03" CO_perVeh="1.260449" CO2_perVeh="89.844506" HC_perVeh="0.007848" PMx_perVeh="0.001549" NOx_perVeh="0.036545" fuel_perVeh="0.038620" electricity_perVeh="0"/>
        <edge id=":1110673534_0" sampledSeconds="655.65" CO_abs="4301.670069" CO2_abs="365660.336045" HC_abs="27.937570" PMx_abs="4.905950" NOx_abs="138.774164" fuel_abs="157.183053" electricity_abs="0"
            CO_normed="116.854151" CO2_normed="9933.102144" HC_normed="0.758919" PMx_normed="0.133269" NOx_normed="3.769777" fuel_normed="4.269851" electricity_normed="0"
            traveltime="1.44" CO_perVeh="9.458732" CO2_perVeh="804.032648" HC_perVeh="0.061431" PMx_perVeh="0.010787" NOx_perVeh="0.305144" fuel_perVeh="0.345622" electricity_perVeh="0"/>
        <edge id=":1110673534_1" sampledSeconds="264.42" CO_abs="3718.204658" CO2_abs="488037.970311" HC_abs="28.046215" PMx_abs="6.411736" NOx_abs="180.279131" fuel_abs="209.787279" electricity_abs="0"
            CO_normed="98.212831" CO2_normed="12891.057709" HC_normed="0.740814" PMx_normed="0.169360" NOx_normed="4.761901" fuel_normed="5.541331" electricity_normed="0"
            traveltime="1.23" CO_perVeh="17.251537" CO2_perVeh="2264.373747" HC_perVeh="0.130127" PMx_perVeh="0.029749" NOx_perVeh="0.836450" fuel_perVeh="0.973360" electricity_perVeh="0"/>
        <edge id=":1110673549_0" sampledSeconds="651.50" CO_abs="1417.771740" CO2_abs="138241.235396" HC_abs="9.577373" PMx_abs="1.927414" NOx_abs="52.173826" fuel_abs="59.424268" electricity_abs="0"
            CO_normed="37.308479" CO2_normed="3637.800137" HC_normed="0.252027" PMx_normed="0.050720" NOx_normed="1.372947" fuel_normed="1.563742" electricity_normed="0"
            traveltime="1.29" CO_perVeh="2.816774" CO2_perVeh="274.652372" HC_perVeh="0.019028" PMx_perVeh="0.003829" NOx_perVeh="0.103657" fuel_perVeh="0.118062" electricity_perVeh="0"/>
        <edge id=":1110673549_1" sampledSeconds="3197.29" CO_abs="68602.671767" CO2_abs="9122937.305128" HC_abs="529.230714" PMx_abs="159.719564" NOx_abs="3402.891960" fuel_abs="3921.533662" electricity_abs="0"
            CO_normed="1746.260340" CO2_normed="232221.620333" HC_normed="13.471408" PMx_normed="4.065613" NOx_normed="86.619590" fuel_normed="99.821458" electricity_normed="0"
            traveltime="0.81" CO_perVeh="17.302179" CO2_perVeh="2300.882646" HC_perVeh="0.133477" PMx_perVeh="0.040283" NOx_perVeh="0.858238" fuel_perVeh="0.989044" electricity_perVeh="0"/>
        <edge id=":1110673556_0" sampledSeconds="469.89" CO_abs="58063.133576" CO2_abs="2776354.511154" HC_abs="330.324633" PMx_abs="56.142613" NOx_abs="1197.753150" fuel_abs="1193.436608" electricity_abs="0"
            CO_normed="1133.003365" CO2_normed="54175.839445" HC_normed="6.445724" PMx_normed="1.095528" NOx_normed="23.372117" fuel_normed="23.287887" electricity_normed="0"
            traveltime="2.77" CO_perVeh="342.276642" CO2_perVeh="16366.345411" HC_perVeh="1.947232" PMx_perVeh="0.330955" NOx_perVeh="7.060641" fuel_perVeh="7.035195" electricity_perVeh="0"/>
        <edge id=":1110673556_2" sampledSeconds="177.01" CO_abs="18255.279347" CO2_abs="777849.948823" HC_abs="101.405290" PMx_abs="15.111549" NOx_abs="332.431008" fuel_abs="334.367135" electricity_abs="0"
            CO_normed="372.467595" CO2_normed="15870.691122" HC_normed="2.069001" PMx_normed="0.308325" NOx_normed="6.782683" fuel_normed="6.822187" electricity_normed="0"
            traveltime="3.06" CO_perVeh="315.659866" CO2_perVeh="13450.137128" HC_perVeh="1.753442" PMx_perVeh="0.261300" NOx_perVeh="5.748207" fuel_perVeh="5.781686" electricity_perVeh="0"/>
        <edge id=":1110673556_3" sampledSeconds="347.43" CO_abs="34369.907461" CO2_abs="1191787.349782" HC_abs="184.351470" PMx_abs="23.463051" NOx_abs="512.892864" fuel_abs="512.307402" electricity_abs="0"
            CO_normed="1595.247853" CO2_normed="55315.720982" HC_normed="8.556505" PMx_normed="1.089016" NOx_normed="23.805454" fuel_normed="23.778280" electricity_normed="0"
            traveltime="1.82" CO_perVeh="180.386017" CO2_perVeh="6254.941862" HC_perVeh="0.967545" PMx_perVeh="0.123143" NOx_perVeh="2.691852" fuel_perVeh="2.688779" electricity_perVeh="0"/>
        <edge id=":1110673556_4" sampledSeconds="78.00" CO_abs="8545.353849" CO2_abs="336464.349222" HC_abs="46.808129" PMx_abs="6.602719" NOx_abs="144.429587" fuel_abs="144.633238" electricity_abs="0"
            CO_normed="242.307526" CO2_normed="9540.604814" HC_normed="1.327267" PMx_normed="0.187223" NOx_normed="4.095369" fuel_normed="4.101143" electricity_normed="0"
            traveltime="2.46" CO_perVeh="269.679089" CO2_perVeh="10618.331416" HC_perVeh="1.477197" PMx_perVeh="0.208372" NOx_perVeh="4.557990" fuel_perVeh="4.564417" electricity_perVeh="0"/>
        <edge id=":1110673556_5" sampledSeconds="22.77" CO_abs="1337.702804" CO2_abs="59701.550247" HC_abs="7.478142" PMx_abs="1.067289" NOx_abs="24.929190" fuel_abs="25.663437" electricity_abs="0"
            CO_normed="52.868381" CO2_normed="2359.510880" HC_normed="0.295549" PMx_normed="0.042181" NOx_normed="0.985246" fuel_normed="1.014264" electricity_normed="0"
            traveltime="1.57" CO_perVeh="92.483157" CO2_perVeh="4127.514585" HC_perVeh="0.517007" PMx_perVeh="0.073788" NOx_perVeh="1.723500" fuel_perVeh="1.774262" electricity_perVeh="0"/>
        <edge id=":1110673556_6" sampledSeconds="556.37" CO_abs="66309.169464" CO2_abs="3173787.272610" HC_abs="377.291422" PMx_abs="64.069230" NOx_abs="1368.545759" fuel_abs="1364.276140" electricity_abs="0"
            CO_normed="1326.535511" CO2_normed="63492.599210" HC_normed="7.547832" PMx_normed="1.281725" NOx_normed="27.378183" fuel_normed="27.292768" electricity_normed="0"
            traveltime="2.70" CO_perVeh="321.945678" CO2_perVeh="15409.438917" HC_perVeh="1.831833" PMx_perVeh="0.311070" NOx_perVeh="6.644592" fuel_perVeh="6.623862" electricity_perVeh="0"/>
        <edge id=":1110673561_0" sampledSeconds="103.23" CO_abs="9497.317563" CO2_abs="670675.501457" HC_abs="59.411519" PMx_abs="13.670725" NOx_abs="284.671496" fuel_abs="288.291364" electricity_abs="0"
            CO_normed="238.716821" CO2_normed="16857.551899" HC_normed="1.493319" PMx_normed="0.343616" NOx_normed="7.155270" fuel_normed="7.246256" electricity_normed="0"
            traveltime="1.22" CO_perVeh="112.077565" CO2_perVeh="7914.621875" HC_perVeh="0.701114" PMx_perVeh="0.161328" NOx_perVeh="3.359400" fuel_perVeh="3.402118" electricity_perVeh="0"/>
        <edge id=":1110673561_1" sampledSeconds="5180.59" CO_abs="483970.437362" CO2_abs="33577251.323153" HC_abs="3015.998881" PMx_abs="701.253891" NOx_abs="14350.298404" fuel_abs="14433.239138" electricity_abs="0"
            CO_normed="11859.859781" CO2_normed="822821.936604" HC_normed="73.908076" PMx_normed="17.184465" NOx_normed="351.658932" fuel_normed="353.691422" electricity_normed="0"
            traveltime="1.19" CO_perVeh="111.227424" CO2_perVeh="7716.816703" HC_perVeh="0.693145" PMx_perVeh="0.161164" NOx_perVeh="3.298025" fuel_perVeh="3.317087" electricity_perVeh="0"/>
        <edge id=":1110673562_0" sampledSeconds="301.45" CO_abs="7150.519875" CO2_abs="541098.491116" HC_abs="44.917094" PMx_abs="7.473448" NOx_abs="207.801570" fuel_abs="232.597276" electricity_abs="0"
            CO_normed="11136.580423" CO2_normed="842734.090435" HC_normed="69.956148" PMx_normed="11.639524" NOx_normed="323.640650" fuel_normed="362.258734" electricity_normed="0"
            traveltime="0.03" CO_perVeh="0.640984" CO2_perVeh="48.504927" HC_perVeh="0.004026" PMx_perVeh="0.000670" NOx_perVeh="0.018628" fuel_perVeh="0.020850" electricity_perVeh="0"/>
        <edge id=":1110673564_0" sampledSeconds="27.75" CO_abs="396.822199" CO2_abs="51701.103060" HC_abs="2.960939" PMx_abs="0.677063" NOx_abs="19.082979" fuel_abs="22.224161" electricity_abs="0"
            CO_normed="1668.683465" CO2_normed="217409.147313" HC_normed="12.451091" PMx_normed="2.847128" NOx_normed="80.246144" fuel_normed="93.455181" electricity_normed="0"
            traveltime="7.837615e-03" CO_perVeh="0.112081" CO2_perVeh="14.602769" HC_perVeh="0.000836" PMx_perVeh="0.000191" NOx_perVeh="0.005390" fuel_perVeh="0.006277" electricity_perVeh="0"/>
        <edge id=":1110673588_0" sampledSeconds="63.05" CO_abs="1081.647814" CO2_abs="115068.195516" HC_abs="7.570338" PMx_abs="1.617180" NOx_abs="43.604288" fuel_abs="49.463018" electricity_abs="0"
            CO_normed="1819.381908" CO2_normed="193550.054367" HC_normed="12.733661" PMx_normed="2.720171" NOx_normed="73.344440" fuel_normed="83.199096" electricity_normed="0"
            traveltime="0.02" CO_perVeh="0.348920" CO2_perVeh="37.118876" HC_perVeh="0.002442" PMx_perVeh="0.000522" NOx_perVeh="0.014066" fuel_perVeh="0.015956" electricity_perVeh="0"/>
        <edge id=":1110673601_0" sampledSeconds="28.76" CO_abs="540.373834" CO2_abs="59734.158634" HC_abs="3.841200" PMx_abs="0.869206" NOx_abs="22.714567" fuel_abs="25.677172" electricity_abs="0"
            CO_normed="811.548134" CO2_normed="89710.385587" HC_normed="5.768818" PMx_normed="1.305398" NOx_normed="34.113355" fuel_normed="38.562675" electricity_normed="0"
            traveltime="0.02" CO_perVeh="0.412061" CO2_perVeh="45.550163" HC_perVeh="0.002929" PMx_perVeh="0.000663" NOx_perVeh="0.017321" fuel_perVeh="0.019580" electricity_perVeh="0"/>
        <edge id=":1110673617_0" sampledSeconds="854.02" CO_abs="30429.604105" CO2_abs="3173841.170352" HC_abs="214.476565" PMx_abs="59.262843" NOx_abs="1237.670649" fuel_abs="1364.286143" electricity_abs="0"
            CO_normed="42653.340644" CO2_normed="4448790.333398" HC_normed="300.632961" PMx_normed="83.069048" NOx_normed="1734.849643" fuel_normed="1912.327266" electricity_normed="0"
            traveltime="0.02" CO_perVeh="0.539027" CO2_perVeh="56.221069" HC_perVeh="0.003799" PMx_perVeh="0.001050" NOx_perVeh="0.021924" fuel_perVeh="0.024167" electricity_perVeh="0"/>
        <edge id=":1110673621_0" sampledSeconds="26.04" CO_abs="699.147052" CO2_abs="66443.591041" HC_abs="4.730147" PMx_abs="1.043837" NOx_abs="25.960279" fuel_abs="28.561217" electricity_abs="0"
            CO_normed="1175.997845" CO2_normed="111761.209086" HC_normed="7.956327" PMx_normed="1.755783" NOx_normed="43.666396" fuel_normed="48.041295" electricity_normed="0"
            traveltime="0.02" CO_perVeh="0.529657" CO2_perVeh="50.336054" HC_perVeh="0.003583" PMx_perVeh="0.000791" NOx_perVeh="0.019667" fuel_perVeh="0.021637" electricity_perVeh="0"/>
        <edge id=":1110673630_0" sampledSeconds="287.20" CO_abs="1224.949801" CO2_abs="113185.038115" HC_abs="8.157339" PMx_abs="1.468854" NOx_abs="42.493471" fuel_abs="48.653813" electricity_abs="0"
            CO_normed="36.740772" CO2_normed="3394.837662" HC_normed="0.244669" PMx_normed="0.044056" NOx_normed="1.274536" fuel_normed="1.459308" electricity_normed="0"
            traveltime="1.29" CO_perVeh="5.511806" CO2_perVeh="509.289444" HC_perVeh="0.036705" PMx_perVeh="0.006609" NOx_perVeh="0.191204" fuel_perVeh="0.218924" electricity_perVeh="0"/>
        <edge id=":1110673630_1" sampledSeconds="337.95" CO_abs="942.882768" CO2_abs="80045.126969" HC_abs="6.109418" PMx_abs="1.016791" NOx_abs="30.027172" fuel_abs="34.408350" electricity_abs="0"
            CO_normed="34.477666" CO2_normed="2926.948366" HC_normed="0.223398" PMx_normed="0.037180" NOx_normed="1.097980" fuel_normed="1.258184" electricity_normed="0"
            traveltime="1.08" CO_perVeh="3.005725" CO2_perVeh="255.168111" HC_perVeh="0.019476" PMx_perVeh="0.003241" NOx_perVeh="0.095721" fuel_perVeh="0.109687" electricity_perVeh="0"/>
        <edge id=":1110673650_0" sampledSeconds="199.60" CO_abs="2849.350827" CO2_abs="361955.601560" HC_abs="21.227408" PMx_abs="4.924056" NOx_abs="134.858353" fuel_abs="155.589509" electricity_abs="0"
            CO_normed="3993.950464" CO2_normed="507355.124252" HC_normed="29.754572" PMx_normed="6.902076" NOx_normed="189.031683" fuel_normed="218.090656" electricity_normed="0"
            traveltime="0.02" CO_perVeh="0.329316" CO2_perVeh="41.833294" HC_perVeh="0.002453" PMx_perVeh="0.000569" NOx_perVeh="0.015586" fuel_perVeh="0.017982" electricity_perVeh="0"/>
        <edge id=":1110673655_0" sampledSeconds="20.60" CO_abs="367.461767" CO2_abs="42866.466868" HC_abs="2.664043" PMx_abs="0.593464" NOx_abs="16.107789" fuel_abs="18.426499" electricity_abs="0"
            CO_normed="515.073146" CO2_normed="60086.158441" HC_normed="3.734203" PMx_normed="0.831861" NOx_normed="22.578376" fuel_normed="25.828523" electricity_normed="0"
            traveltime="0.02" CO_perVeh="0.419796" CO2_perVeh="48.971592" HC_perVeh="0.003043" PMx_perVeh="0.000678" NOx_perVeh="0.018402" fuel_perVeh="0.021051" electricity_perVeh="0"/>
        <edge id=":1110673663_0" sampledSeconds="111.11" CO_abs="1746.979434" CO2_abs="209004.942902" HC_abs="12.714691" PMx_abs="2.784634" NOx_abs="77.825819" fuel_abs="89.842590" electricity_abs="0"
            CO_normed="44.848911" CO2_normed="5365.629282" HC_normed="0.326415" PMx_normed="0.071488" NOx_normed="1.997965" fuel_normed="2.306462" electricity_normed="0"
            traveltime="1.31" CO_perVeh="20.519098" CO2_perVeh="2454.861653" HC_perVeh="0.149340" PMx_perVeh="0.032707" NOx_perVeh="0.914101" fuel_perVeh="1.055244" electricity_perVeh="0"/>
        <edge id=":1110673663_1" sampledSeconds="169.38" CO_abs="2542.640971" CO2_abs="321585.701314" HC_abs="18.875417" PMx_abs="4.325457" NOx_abs="119.597167" fuel_abs="138.236255" electricity_abs="0"
            CO_normed="65.355139" CO2_normed="8265.924512" HC_normed="0.485167" PMx_normed="0.111180" NOx_normed="3.074083" fuel_normed="3.553176" electricity_normed="0"
            traveltime="1.27" CO_perVeh="19.084126" CO2_perVeh="2413.703710" HC_perVeh="0.141672" PMx_perVeh="0.032465" NOx_perVeh="0.897652" fuel_perVeh="1.037550" electricity_perVeh="0"/>