<?xml version="1.0" encoding="UTF-8"?>

<!-- generated on Tue Nov 10 02:31:22 2020 by Eclipse SUMO sumo Version 1.7.0
<configuration xmlns:xsi="http://www.w3.org/2001/XMLSchema-instance" xsi:noNamespaceSchemaLocation="http://sumo.dlr.de/xsd/sumoConfiguration.xsd">

    <input>
        <net-file value="../dataSets/Porto/6AM7AM_Routing_SaoBento/Porto.net.xml"/>
        <route-files value="../results/Porto/6AM7AM_Routing_SaoBento/cost_PMx-cost_nox/solution7/Porto.rou.xml"/>
        <additional-files value="moreOutputInfo.xml"/>
    </input>

    <output>
        <emission-output.precision value="6"/>
        <tripinfo-output value="../results/Porto/6AM7AM_Routing_SaoBento/cost_PMx-cost_nox/solution7/Porto-tripinfo"/>
    </output>

    <processing>
        <collision.action value="warn"/>
        <time-to-teleport value="-1"/>
    </processing>

    <emissions>
        <device.emissions.probability value="1"/>
    </emissions>

    <gui_only>
        <quit-on-end value="true"/>
        <start value="true"/>
    </gui_only>

</configuration>
-->

<meandata xmlns:xsi="http://www.w3.org/2001/XMLSchema-instance" xsi:noNamespaceSchemaLocation="http://sumo.dlr.de/xsd/meandata_file.xsd">
    <interval begin="0.00" end="4700.00" id="emissions-detector">
        <edge id=":1092997347_0" sampledSeconds="310.22" CO_abs="39624.779199" CO2_abs="1573928.981421" HC_abs="217.624709" PMx_abs="32.119506" NOx_abs="683.295692" fuel_abs="676.570108" electricity_abs="0"
            CO_normed="68979.306149" CO2_normed="2739915.054698" HC_normed="378.843787" PMx_normed="55.914034" NOx_normed="1189.489599" fuel_normed="1177.781619" electricity_normed="0"
            traveltime="0.07" CO_perVeh="9.549570" CO2_perVeh="379.316828" HC_perVeh="0.052448" PMx_perVeh="0.007741" NOx_perVeh="0.164674" fuel_perVeh="0.163053" electricity_perVeh="0"/>
        <edge id=":1103427051_0" sampledSeconds="10.79" CO_abs="860.085907" CO2_abs="48257.904552" HC_abs="5.062809" PMx_abs="0.951234" NOx_abs="20.623951" fuel_abs="20.743932" electricity_abs="0"
            CO_normed="2271.686916" CO2_normed="127460.349514" HC_normed="13.372055" PMx_normed="2.512429" NOx_normed="54.472651" fuel_normed="54.789550" electricity_normed="0"
            traveltime="0.03" CO_perVeh="2.356622" CO2_perVeh="132.225929" HC_perVeh="0.013872" PMx_perVeh="0.002606" NOx_perVeh="0.056509" fuel_perVeh="0.056838" electricity_perVeh="0"/>
        <edge id=":1105984386_0" sampledSeconds="36.61" CO_abs="846.079403" CO2_abs="68067.246425" HC_abs="5.406386" PMx_abs="0.923611" NOx_abs="25.977644" fuel_abs="29.259457" electricity_abs="0"
            CO_normed="66.741588" CO2_normed="5369.373253" HC_normed="0.426474" PMx_normed="0.072858" NOx_normed="2.049204" fuel_normed="2.308084" electricity_normed="0"
            traveltime="0.95" CO_perVeh="21.851875" CO2_perVeh="1757.987453" HC_perVeh="0.139632" PMx_perVeh="0.023854" NOx_perVeh="0.670930" fuel_perVeh="0.755690" electricity_perVeh="0"/>
        <edge id=":1105984390_0" sampledSeconds="37.21" CO_abs="13.295093" CO2_abs="1187.727794" HC_abs="0.088456" PMx_abs="0.019482" NOx_abs="0.467737" fuel_abs="0.510552" electricity_abs="0"
            CO_normed="0.810786" CO2_normed="72.432241" HC_normed="0.005394" PMx_normed="0.001188" NOx_normed="0.028524" fuel_normed="0.031135" electricity_normed="0"
            traveltime="1.04" CO_perVeh="0.371031" CO2_perVeh="33.146383" HC_perVeh="0.002469" PMx_perVeh="0.000544" NOx_perVeh="0.013053" fuel_perVeh="0.014248" electricity_perVeh="0"/>
        <edge id=":1105984390_1" sampledSeconds="647.47" CO_abs="14480.621113" CO2_abs="1868768.545776" HC_abs="110.594188" PMx_abs="33.087445" NOx_abs="700.003868" fuel_abs="803.297939" electricity_abs="0"
            CO_normed="844.747873" CO2_normed="109017.302666" HC_normed="6.451671" PMx_normed="1.930204" NOx_normed="40.835733" fuel_normed="46.861541" electricity_normed="0"
            traveltime="0.64" CO_perVeh="14.240731" CO2_perVeh="1837.809989" HC_perVeh="0.108762" PMx_perVeh="0.032539" NOx_perVeh="0.688407" fuel_perVeh="0.789990" electricity_perVeh="0"/>
        <edge id=":1105984395_0" sampledSeconds="14.46" CO_abs="247.338895" CO2_abs="21024.772250" HC_abs="1.605797" PMx_abs="0.279889" NOx_abs="7.974412" fuel_abs="9.037728" electricity_abs="0"
            CO_normed="205.925075" CO2_normed="17504.435731" HC_normed="1.336927" PMx_normed="0.233025" NOx_normed="6.639196" fuel_normed="7.524473" electricity_normed="0"
            traveltime="0.09" CO_perVeh="1.543561" CO2_perVeh="131.208727" HC_perVeh="0.010021" PMx_perVeh="0.001747" NOx_perVeh="0.049766" fuel_perVeh="0.056402" electricity_perVeh="0"/>
        <edge id=":1105984398_0" sampledSeconds="36.75" CO_abs="2531.277147" CO2_abs="176416.662234" HC_abs="15.700001" PMx_abs="3.231037" NOx_abs="73.029294" fuel_abs="75.833630" electricity_abs="0"
            CO_normed="160.368121" CO2_normed="11176.811925" HC_normed="0.994668" PMx_normed="0.204701" NOx_normed="4.626744" fuel_normed="4.804411" electricity_normed="0"
            traveltime="1.07" CO_perVeh="73.792339" CO2_perVeh="5142.936678" HC_perVeh="0.457690" PMx_perVeh="0.094192" NOx_perVeh="2.128966" fuel_perVeh="2.210718" electricity_perVeh="0"/>
        <edge id=":1105984398_1" sampledSeconds="452.60" CO_abs="8132.150471" CO2_abs="968072.527891" HC_abs="59.121272" PMx_abs="13.734833" NOx_abs="365.014659" fuel_abs="416.133207" electricity_abs="0"
            CO_normed="498.709464" CO2_normed="59367.683090" HC_normed="3.625651" PMx_normed="0.842298" NOx_normed="22.384763" fuel_normed="25.519642" electricity_normed="0"
            traveltime="0.96" CO_perVeh="17.170768" CO2_perVeh="2044.053329" HC_perVeh="0.124833" PMx_perVeh="0.029001" NOx_perVeh="0.770716" fuel_perVeh="0.878652" electricity_perVeh="0"/>
        <edge id=":1106006327_0" sampledSeconds="127.02" CO_abs="17173.456798" CO2_abs="562577.892210" HC_abs="91.445452" PMx_abs="11.739520" NOx_abs="246.299182" fuel_abs="241.832228" electricity_abs="0"
            CO_normed="1484.665589" CO2_normed="48635.522116" HC_normed="7.905567" PMx_normed="1.014895" NOx_normed="21.292855" fuel_normed="20.906681" electricity_normed="0"
            traveltime="2.07" CO_perVeh="279.494539" CO2_perVeh="9155.841523" HC_perVeh="1.488256" PMx_perVeh="0.191058" NOx_perVeh="4.008469" fuel_perVeh="3.935771" electricity_perVeh="0"/>
        <edge id=":1106006327_1" sampledSeconds="160.28" CO_abs="21483.148063" CO2_abs="719137.721345" HC_abs="114.758766" PMx_abs="14.943525" NOx_abs="314.391112" fuel_abs="309.131430" electricity_abs="0"
            CO_normed="1619.604059" CO2_normed="54215.442219" HC_normed="8.651607" PMx_normed="1.126585" NOx_normed="23.701793" fuel_normed="23.305268" electricity_normed="0"
            traveltime="2.28" CO_perVeh="304.980975" CO2_perVeh="10209.086811" HC_perVeh="1.629149" PMx_perVeh="0.212143" NOx_perVeh="4.463187" fuel_perVeh="4.388519" electricity_perVeh="0"/>
        <edge id=":1106006327_2" sampledSeconds="0.00" CO_abs="0" CO2_abs="0" HC_abs="0" PMx_abs="0" NOx_abs="0" fuel_abs="0" electricity_abs="0"
            CO_normed="0" CO2_normed="0" HC_normed="0" PMx_normed="0" NOx_normed="0" fuel_normed="0" electricity_normed="0"/>
        <edge id=":1106006327_3" sampledSeconds="0.00" CO_abs="0" CO2_abs="0" HC_abs="0" PMx_abs="0" NOx_abs="0" fuel_abs="0" electricity_abs="0"
            CO_normed="0" CO2_normed="0" HC_normed="0" PMx_normed="0" NOx_normed="0" fuel_normed="0" electricity_normed="0"/>
        <edge id=":1107381198_0" sampledSeconds="0.00" CO_abs="0" CO2_abs="0" HC_abs="0" PMx_abs="0" NOx_abs="0" fuel_abs="0" electricity_abs="0"
            CO_normed="0" CO2_normed="0" HC_normed="0" PMx_normed="0" NOx_normed="0" fuel_normed="0" electricity_normed="0"/>
        <edge id=":1107381198_1" sampledSeconds="35.98" CO_abs="1493.764930" CO2_abs="59952.833868" HC_abs="8.175943" PMx_abs="1.001793" NOx_abs="24.618973" fuel_abs="25.771686" electricity_abs="0"
            CO_normed="124.772123" CO2_normed="5007.777487" HC_normed="0.682925" PMx_normed="0.083678" NOx_normed="2.056389" fuel_normed="2.152673" electricity_normed="0"
            traveltime="1.48" CO_perVeh="61.502444" CO2_perVeh="2468.424419" HC_perVeh="0.336626" PMx_perVeh="0.041247" NOx_perVeh="1.013631" fuel_perVeh="1.061092" electricity_perVeh="0"/>
        <edge id=":1110338277_0" sampledSeconds="96.39" CO_abs="1598.485843" CO2_abs="193243.920264" HC_abs="11.663808" PMx_abs="2.603332" NOx_abs="72.050331" fuel_abs="83.067525" electricity_abs="0"
            CO_normed="4372.757626" CO2_normed="528630.784916" HC_normed="31.907073" PMx_normed="7.121577" NOx_normed="197.098169" fuel_normed="227.236390" electricity_normed="0"
            traveltime="0.02" CO_perVeh="0.360248" CO2_perVeh="43.551080" HC_perVeh="0.002629" PMx_perVeh="0.000587" NOx_perVeh="0.016238" fuel_perVeh="0.018721" electricity_perVeh="0"/>
        <edge id=":1110338293_0" sampledSeconds="123.66" CO_abs="6466.346032" CO2_abs="440292.135693" HC_abs="39.794074" PMx_abs="7.760305" NOx_abs="180.576322" fuel_abs="189.262452" electricity_abs="0"
            CO_normed="16509.819655" CO2_normed="1124150.133685" HC_normed="101.601892" PMx_normed="19.813545" NOx_normed="461.045929" fuel_normed="483.223282" electricity_normed="0"
            traveltime="0.03" CO_perVeh="1.483164" CO2_perVeh="100.988295" HC_perVeh="0.009127" PMx_perVeh="0.001780" NOx_perVeh="0.041418" fuel_perVeh="0.043410" electricity_perVeh="0"/>
        <edge id=":1110338295_0" sampledSeconds="0.00" CO_abs="0" CO2_abs="0" HC_abs="0" PMx_abs="0" NOx_abs="0" fuel_abs="0" electricity_abs="0"
            CO_normed="0" CO2_normed="0" HC_normed="0" PMx_normed="0" NOx_normed="0" fuel_normed="0" electricity_normed="0"/>
        <edge id=":1110673403_0" sampledSeconds="147.56" CO_abs="2085.410193" CO2_abs="271212.056030" HC_abs="15.651230" PMx_abs="3.608416" NOx_abs="100.529669" fuel_abs="116.582749" electricity_abs="0"
            CO_normed="5324.451556" CO2_normed="692456.313269" HC_normed="39.960588" PMx_normed="9.212976" NOx_normed="256.671495" fuel_normed="297.658082" electricity_normed="0"
            traveltime="0.02" CO_perVeh="0.326016" CO2_perVeh="42.399051" HC_perVeh="0.002447" PMx_perVeh="0.000564" NOx_perVeh="0.015716" fuel_perVeh="0.018226" electricity_perVeh="0"/>
        <edge id=":1110673412_0" sampledSeconds="252.64" CO_abs="45322.969330" CO2_abs="3083171.135549" HC_abs="281.849184" PMx_abs="67.872342" NOx_abs="1326.027849" fuel_abs="1325.303325" electricity_abs="0"
            CO_normed="119708.502999" CO2_normed="8143372.038134" HC_normed="744.429246" PMx_normed="179.266640" NOx_normed="3502.347950" fuel_normed="3500.434313" electricity_normed="0"
            traveltime="0.02" CO_perVeh="2.786491" CO2_perVeh="189.555739" HC_perVeh="0.017328" PMx_perVeh="0.004173" NOx_perVeh="0.081525" fuel_perVeh="0.081481" electricity_perVeh="0"/>
        <edge id=":1110673414_0" sampledSeconds="0.00" CO_abs="0" CO2_abs="0" HC_abs="0" PMx_abs="0" NOx_abs="0" fuel_abs="0" electricity_abs="0"
            CO_normed="0" CO2_normed="0" HC_normed="0" PMx_normed="0" NOx_normed="0" fuel_normed="0" electricity_normed="0"/>
        <edge id=":1110673414_1" sampledSeconds="253.38" CO_abs="16579.545123" CO2_abs="635320.169451" HC_abs="90.245487" PMx_abs="11.728105" NOx_abs="268.222489" fuel_abs="273.101479" electricity_abs="0"
            CO_normed="1406.337326" CO2_normed="53890.167763" HC_normed="7.654951" PMx_normed="0.994821" NOx_normed="22.751607" fuel_normed="23.165461" electricity_normed="0"
            traveltime="1.58" CO_perVeh="103.471762" CO2_perVeh="3964.987995" HC_perVeh="0.563216" PMx_perVeh="0.073194" NOx_perVeh="1.673957" fuel_perVeh="1.704407" electricity_perVeh="0"/>
        <edge id=":1110673417_0" sampledSeconds="29.78" CO_abs="624.347499" CO2_abs="68365.237742" HC_abs="4.424933" PMx_abs="0.996024" NOx_abs="26.058521" fuel_abs="29.387303" electricity_abs="0"
            CO_normed="1707.941487" CO2_normed="187017.367684" HC_normed="12.104680" PMx_normed="2.724685" NOx_normed="71.284708" fuel_normed="80.390799" electricity_normed="0"
            traveltime="0.02" CO_perVeh="0.463399" CO2_perVeh="50.741595" HC_perVeh="0.003284" PMx_perVeh="0.000739" NOx_perVeh="0.019341" fuel_perVeh="0.021812" electricity_perVeh="0"/>
        <edge id=":1110673446_0" sampledSeconds="333.92" CO_abs="3435.688103" CO2_abs="277912.940505" HC_abs="22.222342" PMx_abs="5.148298" NOx_abs="113.916742" fuel_abs="119.461925" electricity_abs="0"
            CO_normed="8771.969625" CO2_normed="709564.954481" HC_normed="56.737895" PMx_normed="13.144590" NOx_normed="290.851257" fuel_normed="305.009170" electricity_normed="0"
            traveltime="0.02" CO_perVeh="0.234329" CO2_perVeh="18.954856" HC_perVeh="0.001516" PMx_perVeh="0.000351" NOx_perVeh="0.007770" fuel_perVeh="0.008148" electricity_perVeh="0"/>
        <edge id=":1110673451_0" sampledSeconds="37.95" CO_abs="242.447133" CO2_abs="16885.627735" HC_abs="1.491667" PMx_abs="0.248979" NOx_abs="6.612162" fuel_abs="7.258467" electricity_abs="0"
            CO_normed="687.793285" CO2_normed="47902.490027" HC_normed="4.231680" PMx_normed="0.706322" NOx_normed="18.757905" fuel_normed="20.591395" electricity_normed="0"
            traveltime="0.03" CO_perVeh="0.173866" CO2_perVeh="12.109215" HC_perVeh="0.001070" PMx_perVeh="0.000179" NOx_perVeh="0.004742" fuel_perVeh="0.005205" electricity_perVeh="0"/>
        <edge id=":1110673464_0" sampledSeconds="326.91" CO_abs="521.885443" CO2_abs="40102.349724" HC_abs="3.294819" PMx_abs="0.564721" NOx_abs="15.454411" fuel_abs="17.238425" electricity_abs="0"
            CO_normed="28.310343" CO2_normed="2175.403216" HC_normed="0.178732" PMx_normed="0.030634" NOx_normed="0.838344" fuel_normed="0.935120" electricity_normed="0"
            traveltime="1.18" CO_perVeh="1.886547" CO2_perVeh="144.964703" HC_perVeh="0.011910" PMx_perVeh="0.002041" NOx_perVeh="0.055866" fuel_perVeh="0.062315" electricity_perVeh="0"/>
        <edge id=":1110673464_1" sampledSeconds="717.14" CO_abs="16389.349821" CO2_abs="2061825.845261" HC_abs="124.135271" PMx_abs="36.816582" NOx_abs="775.711112" fuel_abs="886.284197" electricity_abs="0"
            CO_normed="871.168948" CO2_normed="109595.479542" HC_normed="6.598358" PMx_normed="1.956970" NOx_normed="41.232596" fuel_normed="47.110061" electricity_normed="0"
            traveltime="0.70" CO_perVeh="15.985825" CO2_perVeh="2011.061347" HC_perVeh="0.121079" PMx_perVeh="0.035910" NOx_perVeh="0.756612" fuel_perVeh="0.864463" electricity_perVeh="0"/>
        <edge id=":1110673479_0" sampledSeconds="133.88" CO_abs="6499.945938" CO2_abs="456578.833965" HC_abs="40.290006" PMx_abs="7.787527" NOx_abs="185.316286" fuel_abs="196.263644" electricity_abs="0"
            CO_normed="16595.606650" CO2_normed="1165733.193102" HC_normed="102.868100" PMx_normed="19.883048" NOx_normed="473.147963" fuel_normed="501.098666" electricity_normed="0"
            traveltime="0.03" CO_perVeh="1.369283" CO2_perVeh="96.183174" HC_perVeh="0.008488" PMx_perVeh="0.001641" NOx_perVeh="0.039039" fuel_perVeh="0.041345" electricity_perVeh="0"/>
        <edge id=":1110673511_0" sampledSeconds="11.72" CO_abs="178.132665" CO2_abs="20868.236974" HC_abs="1.289602" PMx_abs="0.291230" NOx_abs="7.853743" fuel_abs="8.970376" electricity_abs="0"
            CO_normed="454.806804" CO2_normed="53280.605041" HC_normed="3.292600" PMx_normed="0.743565" NOx_normed="20.052111" fuel_normed="22.903088" electricity_normed="0"
            traveltime="0.02" CO_perVeh="0.352738" CO2_perVeh="41.323242" HC_perVeh="0.002554" PMx_perVeh="0.000577" NOx_perVeh="0.015552" fuel_perVeh="0.017763" electricity_perVeh="0"/>
        <edge id=":1110673517_0" sampledSeconds="16.86" CO_abs="915.361543" CO2_abs="63654.211415" HC_abs="5.674016" PMx_abs="1.165398" NOx_abs="26.342986" fuel_abs="27.362100" electricity_abs="0"
            CO_normed="2337.093301" CO2_normed="162521.390846" HC_normed="14.486849" PMx_normed="2.975484" NOx_normed="67.258688" fuel_normed="69.860682" electricity_normed="0"
            traveltime="0.03" CO_perVeh="1.469673" CO2_perVeh="102.201035" HC_perVeh="0.009110" PMx_perVeh="0.001871" NOx_perVeh="0.042295" fuel_perVeh="0.043932" electricity_perVeh="0"/>
        <edge id=":1110673534_0" sampledSeconds="475.56" CO_abs="2810.908409" CO2_abs="251531.762110" HC_abs="18.541219" PMx_abs="3.361251" NOx_abs="95.185696" fuel_abs="108.123562" electricity_abs="0"
            CO_normed="139.085028" CO2_normed="12445.906092" HC_normed="0.917428" PMx_normed="0.166316" NOx_normed="4.709832" fuel_normed="5.350003" electricity_normed="0"
            traveltime="1.43" CO_perVeh="8.468140" CO2_perVeh="757.764386" HC_perVeh="0.055857" PMx_perVeh="0.010126" NOx_perVeh="0.286756" fuel_perVeh="0.325733" electricity_perVeh="0"/>
        <edge id=":1110673534_1" sampledSeconds="199.84" CO_abs="3172.155463" CO2_abs="415410.882321" HC_abs="23.942321" PMx_abs="5.535472" NOx_abs="153.935755" fuel_abs="178.567800" electricity_abs="0"
            CO_normed="152.621614" CO2_normed="19986.624296" HC_normed="1.151935" PMx_normed="0.266328" NOx_normed="7.406296" fuel_normed="8.591416" electricity_normed="0"
            traveltime="1.22" CO_perVeh="19.390388" CO2_perVeh="2539.276018" HC_perVeh="0.146352" PMx_perVeh="0.033837" NOx_perVeh="0.940961" fuel_perVeh="1.091529" electricity_perVeh="0"/>
        <edge id=":1110673549_0" sampledSeconds="59.80" CO_abs="77.379875" CO2_abs="11235.365808" HC_abs="0.609685" PMx_abs="0.136987" NOx_abs="4.059192" fuel_abs="4.829630" electricity_abs="0"
            CO_normed="3.708992" CO2_normed="538.536427" HC_normed="0.029224" PMx_normed="0.006566" NOx_normed="0.194566" fuel_normed="0.231495" electricity_normed="0"
            traveltime="1.25" CO_perVeh="1.612144" CO2_perVeh="234.079276" HC_perVeh="0.012702" PMx_perVeh="0.002854" NOx_perVeh="0.084570" fuel_perVeh="0.100621" electricity_perVeh="0"/>
        <edge id=":1110673549_1" sampledSeconds="637.96" CO_abs="14792.294573" CO2_abs="1926238.386324" HC_abs="113.514984" PMx_abs="34.035431" NOx_abs="720.669229" fuel_abs="828.001649" electricity_abs="0"
            CO_normed="685.851585" CO2_normed="89310.934403" HC_normed="5.263175" PMx_normed="1.578069" NOx_normed="33.414162" fuel_normed="38.390680" electricity_normed="0"
            traveltime="0.80" CO_perVeh="18.620629" CO2_perVeh="2424.760468" HC_perVeh="0.142893" PMx_perVeh="0.042844" NOx_perVeh="0.907183" fuel_perVeh="1.042293" electricity_perVeh="0"/>
        <edge id=":1110673556_0" sampledSeconds="418.47" CO_abs="51768.982920" CO2_abs="2591489.212286" HC_abs="297.380369" PMx_abs="52.500906" NOx_abs="1117.730462" fuel_abs="1113.968754" electricity_abs="0"
            CO_normed="1840.038885" CO2_normed="92109.998166" HC_normed="10.569870" PMx_normed="1.866054" NOx_normed="39.727794" fuel_normed="39.594091" electricity_normed="0"
            traveltime="2.60" CO_perVeh="321.356603" CO2_perVeh="16086.701384" HC_perVeh="1.845992" PMx_perVeh="0.325900" NOx_perVeh="6.938326" fuel_perVeh="6.914975" electricity_perVeh="0"/>
        <edge id=":1110673556_2" sampledSeconds="247.54" CO_abs="24352.494759" CO2_abs="1052824.759654" HC_abs="135.635920" PMx_abs="20.421145" NOx_abs="449.719972" fuel_abs="452.567750" electricity_abs="0"
            CO_normed="905.044867" CO2_normed="39127.557731" HC_normed="5.040822" PMx_normed="0.758939" NOx_normed="16.713555" fuel_normed="16.819390" electricity_normed="0"
            traveltime="3.00" CO_perVeh="295.391095" CO2_perVeh="12770.562583" HC_perVeh="1.645238" PMx_perVeh="0.247705" NOx_perVeh="5.455017" fuel_perVeh="5.489560" electricity_perVeh="0"/>
        <edge id=":1110673556_3" sampledSeconds="361.05" CO_abs="31449.037545" CO2_abs="1120207.008451" HC_abs="169.313812" PMx_abs="21.582598" NOx_abs="479.054306" fuel_abs="481.537521" electricity_abs="0"
            CO_normed="2658.788576" CO2_normed="94705.397361" HC_normed="14.314258" PMx_normed="1.824652" NOx_normed="40.500575" fuel_normed="40.710513" electricity_normed="0"
            traveltime="1.75" CO_perVeh="152.829823" CO2_perVeh="5443.760826" HC_perVeh="0.822798" PMx_perVeh="0.104883" NOx_perVeh="2.328014" fuel_perVeh="2.340081" electricity_perVeh="0"/>
        <edge id=":1110673556_4" sampledSeconds="185.33" CO_abs="18557.060008" CO2_abs="746749.512847" HC_abs="101.998476" PMx_abs="14.445852" NOx_abs="319.183493" fuel_abs="320.999210" electricity_abs="0"
            CO_normed="958.457067" CO2_normed="38569.005412" HC_normed="5.268138" PMx_normed="0.746117" NOx_normed="16.485568" fuel_normed="16.579348" electricity_normed="0"
            traveltime="2.38" CO_perVeh="238.224931" CO2_perVeh="9586.343468" HC_perVeh="1.309398" PMx_perVeh="0.185448" NOx_perVeh="4.097495" fuel_perVeh="4.120804" electricity_perVeh="0"/>
        <edge id=":1110673556_5" sampledSeconds="23.30" CO_abs="1970.756597" CO2_abs="84003.921915" HC_abs="10.929233" PMx_abs="1.537947" NOx_abs="35.334666" fuel_abs="36.110125" electricity_abs="0"
            CO_normed="141.871775" CO2_normed="6047.314807" HC_normed="0.786779" PMx_normed="0.110714" NOx_normed="2.543689" fuel_normed="2.599513" electricity_normed="0"
            traveltime="1.61" CO_perVeh="136.249839" CO2_perVeh="5807.678552" HC_perVeh="0.755601" PMx_perVeh="0.106327" NOx_perVeh="2.442890" fuel_perVeh="2.496502" electricity_perVeh="0"/>
        <edge id=":1110673556_6" sampledSeconds="305.44" CO_abs="36039.120405" CO2_abs="1858312.239083" HC_abs="208.302757" PMx_abs="37.342809" NOx_abs="798.484951" fuel_abs="798.807438" electricity_abs="0"
            CO_normed="1313.246082" CO2_normed="67715.894292" HC_normed="7.590440" PMx_normed="1.360752" NOx_normed="29.096360" fuel_normed="29.108112" electricity_normed="0"
            traveltime="2.42" CO_perVeh="285.400843" CO2_perVeh="14716.338056" HC_perVeh="1.649590" PMx_perVeh="0.295725" NOx_perVeh="6.323358" fuel_perVeh="6.325912" electricity_perVeh="0"/>
        <edge id=":1110673561_0" sampledSeconds="99.25" CO_abs="10217.784156" CO2_abs="730543.798207" HC_abs="64.145600" PMx_abs="14.875258" NOx_abs="309.478925" fuel_abs="314.025853" electricity_abs="0"
            CO_normed="467.805611" CO2_normed="33446.829794" HC_normed="2.936808" PMx_normed="0.681041" NOx_normed="14.169019" fuel_normed="14.377193" electricity_normed="0"
            traveltime="1.17" CO_perVeh="120.579770" CO2_perVeh="8621.125885" HC_perVeh="0.756980" PMx_perVeh="0.175542" NOx_perVeh="3.652152" fuel_perVeh="3.705810" electricity_perVeh="0"/>
        <edge id=":1110673561_1" sampledSeconds="1313.78" CO_abs="121680.711690" CO2_abs="8433074.279806" HC_abs="758.055262" PMx_abs="176.366875" NOx_abs="3605.894611" fuel_abs="3624.971169" electricity_abs="0"
            CO_normed="5431.366390" CO2_normed="376420.515391" HC_normed="33.836718" PMx_normed="7.872350" NOx_normed="160.953487" fuel_normed="161.804992" electricity_normed="0"
            traveltime="1.19" CO_perVeh="110.458891" CO2_perVeh="7655.346669" HC_perVeh="0.688145" PMx_perVeh="0.160102" NOx_perVeh="3.273346" fuel_perVeh="3.290664" electricity_perVeh="0"/>
        <edge id=":1110673562_0" sampledSeconds="104.29" CO_abs="2196.263468" CO2_abs="170625.073418" HC_abs="13.889418" PMx_abs="2.298870" NOx_abs="65.055578" fuel_abs="73.345156" electricity_abs="0"
            CO_normed="6230.534660" CO2_normed="484042.761471" HC_normed="39.402604" PMx_normed="6.521616" NOx_normed="184.554833" fuel_normed="208.071366" electricity_normed="0"
            traveltime="0.03" CO_perVeh="0.559838" CO2_perVeh="43.493108" HC_perVeh="0.003540" PMx_perVeh="0.000586" NOx_perVeh="0.016583" fuel_perVeh="0.018696" electricity_perVeh="0"/>
        <edge id=":1110673564_0" sampledSeconds="28.80" CO_abs="383.268985" CO2_abs="45147.825844" HC_abs="2.789195" PMx_abs="0.624658" NOx_abs="16.935831" fuel_abs="19.407160" electricity_abs="0"
            CO_normed="2935.677330" CO2_normed="345813.134121" HC_normed="21.364044" PMx_normed="4.784614" NOx_normed="129.721257" fuel_normed="148.650584" electricity_normed="0"
            traveltime="7.916772e-03" CO_perVeh="0.105367" CO2_perVeh="12.411919" HC_perVeh="0.000767" PMx_perVeh="0.000172" NOx_perVeh="0.004656" fuel_perVeh="0.005335" electricity_perVeh="0"/>
        <edge id=":1110673588_0" sampledSeconds="11.63" CO_abs="228.396885" CO2_abs="25905.814872" HC_abs="1.639696" PMx_abs="0.365269" NOx_abs="9.788779" fuel_abs="11.135819" electricity_abs="0"
            CO_normed="699.769178" CO2_normed="79371.007267" HC_normed="5.023749" PMx_normed="1.119123" NOx_normed="29.991153" fuel_normed="34.118254" electricity_normed="0"
            traveltime="0.02" CO_perVeh="0.380661" CO2_perVeh="43.176358" HC_perVeh="0.002733" PMx_perVeh="0.000609" NOx_perVeh="0.016315" fuel_perVeh="0.018560" electricity_perVeh="0"/>
        <edge id=":1110673601_0" sampledSeconds="29.72" CO_abs="512.103395" CO2_abs="54088.085308" HC_abs="3.571199" PMx_abs="0.792088" NOx_abs="20.684079" fuel_abs="23.250166" electricity_abs="0"
            CO_normed="1400.890748" CO2_normed="147961.327589" HC_normed="9.769238" PMx_normed="2.166807" NOx_normed="56.582587" fuel_normed="63.602279" electricity_normed="0"
            traveltime="0.02" CO_perVeh="0.380090" CO2_perVeh="40.144901" HC_perVeh="0.002651" PMx_perVeh="0.000588" NOx_perVeh="0.015352" fuel_perVeh="0.017257" electricity_perVeh="0"/>
        <edge id=":1110673617_0" sampledSeconds="241.16" CO_abs="6026.917629" CO2_abs="749278.360036" HC_abs="45.419492" PMx_abs="13.394565" NOx_abs="282.669435" fuel_abs="322.080306" electricity_abs="0"
            CO_normed="15387.874798" CO2_normed="1913051.132007" HC_normed="115.964659" PMx_normed="34.198889" NOx_normed="721.709195" fuel_normed="822.332697" electricity_normed="0"
            traveltime="0.01" CO_perVeh="0.365428" CO2_perVeh="45.430676" HC_perVeh="0.002754" PMx_perVeh="0.000812" NOx_perVeh="0.017139" fuel_perVeh="0.019529" electricity_perVeh="0"/>
        <edge id=":1110673621_0" sampledSeconds="25.76" CO_abs="611.702792" CO2_abs="58696.890381" HC_abs="4.139266" PMx_abs="0.944787" NOx_abs="23.029737" fuel_abs="25.231209" electricity_abs="0"
            CO_normed="1874.153234" CO2_normed="179837.281169" HC_normed="12.682008" PMx_normed="2.894668" NOx_normed="70.559193" fuel_normed="77.304129" electricity_normed="0"
            traveltime="0.02" CO_perVeh="0.463411" CO2_perVeh="44.467341" HC_perVeh="0.003136" PMx_perVeh="0.000716" NOx_perVeh="0.017447" fuel_perVeh="0.019115" electricity_perVeh="0"/>
        <edge id=":1110673630_0" sampledSeconds="53.94" CO_abs="213.933916" CO2_abs="20378.599864" HC_abs="1.440257" PMx_abs="0.270824" NOx_abs="7.686124" fuel_abs="8.759947" electricity_abs="0"
            CO_normed="11.687894" CO2_normed="1113.348097" HC_normed="0.078686" PMx_normed="0.014796" NOx_normed="0.419918" fuel_normed="0.478584" electricity_normed="0"
            traveltime="1.26" CO_perVeh="4.993596" CO2_perVeh="475.672566" HC_perVeh="0.033618" PMx_perVeh="0.006322" NOx_perVeh="0.179408" fuel_perVeh="0.204473" electricity_perVeh="0"/>
        <edge id=":1110673630_1" sampledSeconds="7.31" CO_abs="5.814942" CO2_abs="370.903837" HC_abs="0.034930" PMx_abs="0.005256" NOx_abs="0.144427" fuel_abs="0.159438" electricity_abs="0"
            CO_normed="0.387304" CO2_normed="24.704048" HC_normed="0.002326" PMx_normed="0.000350" NOx_normed="0.009620" fuel_normed="0.010619" electricity_normed="0"
            traveltime="1.03" CO_perVeh="0.823038" CO2_perVeh="52.497159" HC_perVeh="0.004944" PMx_perVeh="0.000744" NOx_perVeh="0.020442" fuel_perVeh="0.022567" electricity_perVeh="0"/>
        <edge id=":1110673650_0" sampledSeconds="146.74" CO_abs="2343.207089" CO2_abs="293675.589914" HC_abs="17.337603" PMx_abs="4.021110" NOx_abs="109.639021" fuel_abs="126.238776" electricity_abs="0"
            CO_normed="5982.656398" CO2_normed="749810.016801" HC_normed="44.266220" PMx_normed="10.266663" NOx_normed="279.929414" fuel_normed="322.311768" electricity_normed="0"
            traveltime="0.02" CO_perVeh="0.368013" CO2_perVeh="46.123244" HC_perVeh="0.002723" PMx_perVeh="0.000632" NOx_perVeh="0.017219" fuel_perVeh="0.019826" electricity_perVeh="0"/>
        <edge id=":1110673655_0" sampledSeconds="45.15" CO_abs="642.653312" CO2_abs="74146.784778" HC_abs="4.607540" PMx_abs="0.989305" NOx_abs="27.655374" fuel_abs="31.872652" electricity_abs="0"
            CO_normed="1640.816966" CO2_normed="189310.939859" HC_normed="11.763933" PMx_normed="2.525885" NOx_normed="70.609464" fuel_normed="81.376984" electricity_normed="0"
            traveltime="0.02" CO_perVeh="0.343941" CO2_perVeh="39.682518" HC_perVeh="0.002466" PMx_perVeh="0.000529" NOx_perVeh="0.014801" fuel_perVeh="0.017058" electricity_perVeh="0"/>
        <edge id=":1110673663_0" sampledSeconds="109.03" CO_abs="1527.765066" CO2_abs="190029.308544" HC_abs="11.283687" PMx_abs="2.468460" NOx_abs="70.259710" fuel_abs="81.685805" electricity_abs="0"
            CO_normed="71.440966" CO2_normed="8886.102808" HC_normed="0.527645" PMx_normed="0.115429" NOx_normed="3.285467" fuel_normed="3.819771" electricity_normed="0"
            traveltime="1.28" CO_perVeh="17.944321" CO2_perVeh="2231.983876" HC_perVeh="0.132532" PMx_perVeh="0.028993" NOx_perVeh="0.825233" fuel_perVeh="0.959438" electricity_perVeh="0"/>
        <edge id=":1110673663_1" sampledSeconds="153.82" CO_abs="2472.543035" CO2_abs="315412.326467" HC_abs="18.468211" PMx_abs="4.374972" NOx_abs="117.922281" fuel_abs="135.582387" electricity_abs="0"
            CO_normed="115.761782" CO2_normed="14767.262853" HC_normed="0.864662" PMx_normed="0.204831" NOx_normed="5.520993" fuel_normed="6.347820" electricity_normed="0"
            traveltime="1.24" CO_perVeh="19.984675" CO2_perVeh="2549.364247" HC_perVeh="0.149272" PMx_perVeh="0.035361" NOx_perVeh="0.953123" fuel_perVeh="1.095864" electricity_perVeh="0"/>
        <edge id=":1110673666_0" sampledSeconds="208.04" CO_abs="4418.623215" CO2_abs="351617.370419" HC_abs="28.139252" PMx_abs="4.740336" NOx_abs="133.986186" fuel_abs="151.146697" electricity_abs="0"