<?xml version="1.0" encoding="UTF-8"?>

<!-- generated on Wed Nov 11 13:24:09 2020 by Eclipse SUMO sumo Version 1.7.0
<configuration xmlns:xsi="http://www.w3.org/2001/XMLSchema-instance" xsi:noNamespaceSchemaLocation="http://sumo.dlr.de/xsd/sumoConfiguration.xsd">

    <input>
        <net-file value="../dataSets/Porto/8AM9AM_Routing_Boavista/Porto.net.xml"/>
        <route-files value="../results/Porto/8AM9AM_Routing_Boavista/inputdata/Porto-base.rou.xml"/>
        <additional-files value="moreOutputInfo.xml"/>
    </input>

    <output>
        <emission-output.precision value="6"/>
        <tripinfo-output value="../results/Porto/8AM9AM_Routing_Boavista/inputdata/Porto-tripinfo"/>
    </output>

    <processing>
        <collision.action value="warn"/>
        <time-to-teleport value="-1"/>
    </processing>

    <emissions>
        <device.emissions.probability value="1"/>
    </emissions>

    <gui_only>
        <quit-on-end value="true"/>
        <start value="true"/>
    </gui_only>

</configuration>
-->

<meandata xmlns:xsi="http://www.w3.org/2001/XMLSchema-instance" xsi:noNamespaceSchemaLocation="http://sumo.dlr.de/xsd/meandata_file.xsd">
    <interval begin="0.00" end="8742.00" id="emissions-detector">
        <edge id=":1092997347_0" sampledSeconds="586.35" CO_abs="72104.416964" CO2_abs="3110067.302268" HC_abs="401.913478" PMx_abs="62.893623" NOx_abs="1345.563161" fuel_abs="1336.891170" electricity_abs="0"
            CO_normed="67484.011634" CO2_normed="2910776.161104" HC_normed="376.159117" PMx_normed="58.863440" NOx_normed="1259.340326" fuel_normed="1251.224032" electricity_normed="0"
            traveltime="0.07" CO_perVeh="8.261199" CO2_perVeh="356.328850" HC_perVeh="0.046048" PMx_perVeh="0.007206" NOx_perVeh="0.154165" fuel_perVeh="0.153171" electricity_perVeh="0"/>
        <edge id=":1103427051_0" sampledSeconds="19.34" CO_abs="1341.162445" CO2_abs="75001.060413" HC_abs="7.884427" PMx_abs="1.456613" NOx_abs="31.908132" fuel_abs="32.239666" electricity_abs="0"
            CO_normed="1904.474161" CO2_normed="106502.819322" HC_normed="11.196025" PMx_normed="2.068416" NOx_normed="45.310106" fuel_normed="45.780891" electricity_normed="0"
            traveltime="0.03" CO_perVeh="2.085677" CO2_perVeh="116.636141" HC_perVeh="0.012261" PMx_perVeh="0.002265" NOx_perVeh="0.049621" fuel_perVeh="0.050137" electricity_perVeh="0"/>
        <edge id=":1105984386_0" sampledSeconds="157.76" CO_abs="3203.906634" CO2_abs="271376.110364" HC_abs="20.773667" PMx_abs="3.585164" NOx_abs="102.705625" fuel_abs="116.654045" electricity_abs="0"
            CO_normed="135.878993" CO2_normed="11509.172044" HC_normed="0.881020" PMx_normed="0.152048" NOx_normed="4.355788" fuel_normed="4.947346" electricity_normed="0"
            traveltime="0.93" CO_perVeh="18.872348" CO2_perVeh="1598.518619" HC_perVeh="0.122366" PMx_perVeh="0.021118" NOx_perVeh="0.604979" fuel_perVeh="0.687141" electricity_perVeh="0"/>
        <edge id=":1105984390_0" sampledSeconds="163.22" CO_abs="213.813094" CO2_abs="18846.687128" HC_abs="1.400244" PMx_abs="0.281848" NOx_abs="7.269694" fuel_abs="8.101407" electricity_abs="0"
            CO_normed="7.010296" CO2_normed="617.926869" HC_normed="0.045910" PMx_normed="0.009241" NOx_normed="0.238352" fuel_normed="0.265621" electricity_normed="0"
            traveltime="1.04" CO_perVeh="1.360887" CO2_perVeh="119.956211" HC_perVeh="0.008912" PMx_perVeh="0.001794" NOx_perVeh="0.046270" fuel_perVeh="0.051564" electricity_perVeh="0"/>
        <edge id=":1105984390_1" sampledSeconds="2395.60" CO_abs="64044.536274" CO2_abs="7615167.162313" HC_abs="473.610514" PMx_abs="137.542593" NOx_abs="2897.760118" fuel_abs="3273.408593" electricity_abs="0"
            CO_normed="2008.672149" CO2_normed="238839.643133" HC_normed="14.854167" PMx_normed="4.313841" NOx_normed="90.884412" fuel_normed="102.666130" electricity_normed="0"
            traveltime="0.65" CO_perVeh="17.301121" CO2_perVeh="2057.176720" HC_perVeh="0.127942" PMx_perVeh="0.037156" NOx_perVeh="0.782807" fuel_perVeh="0.884285" electricity_perVeh="0"/>
        <edge id=":1105984395_0" sampledSeconds="62.17" CO_abs="1267.288051" CO2_abs="106263.506246" HC_abs="8.190075" PMx_abs="1.395319" NOx_abs="40.177296" fuel_abs="45.678575" electricity_abs="0"
            CO_normed="567.256148" CO2_normed="47565.056062" HC_normed="3.665994" PMx_normed="0.624565" NOx_normed="17.983929" fuel_normed="20.446379" electricity_normed="0"
            traveltime="0.09" CO_perVeh="1.803768" CO2_perVeh="151.247907" HC_perVeh="0.011657" PMx_perVeh="0.001986" NOx_perVeh="0.057186" fuel_perVeh="0.065016" electricity_perVeh="0"/>
        <edge id=":1105984398_0" sampledSeconds="161.05" CO_abs="10269.070716" CO2_abs="723446.236264" HC_abs="63.861164" PMx_abs="13.141631" NOx_abs="298.616380" fuel_abs="310.977256" electricity_abs="0"
            CO_normed="349.781264" CO2_normed="24641.756363" HC_normed="2.175215" PMx_normed="0.447625" NOx_normed="10.171360" fuel_normed="10.592392" electricity_normed="0"
            traveltime="1.08" CO_perVeh="68.837758" CO2_perVeh="4849.554392" HC_perVeh="0.428087" PMx_perVeh="0.088094" NOx_perVeh="2.001747" fuel_perVeh="2.084607" electricity_perVeh="0"/>
        <edge id=":1105984398_1" sampledSeconds="684.99" CO_abs="15711.994923" CO2_abs="1640126.098646" HC_abs="109.464814" PMx_abs="24.926096" NOx_abs="632.166344" fuel_abs="705.019314" electricity_abs="0"
            CO_normed="518.036774" CO2_normed="54076.241594" HC_normed="3.609141" PMx_normed="0.821833" NOx_normed="20.843019" fuel_normed="23.245039" electricity_normed="0"
            traveltime="0.97" CO_perVeh="22.235932" CO2_perVeh="2321.139566" HC_perVeh="0.154917" PMx_perVeh="0.035276" NOx_perVeh="0.894655" fuel_perVeh="0.997758" electricity_perVeh="0"/>
        <edge id=":1106006327_0" sampledSeconds="66.31" CO_abs="8911.979333" CO2_abs="292352.489523" HC_abs="47.461586" PMx_abs="6.085474" NOx_abs="127.903518" fuel_abs="125.671949" electricity_abs="0"
            CO_normed="414.221033" CO2_normed="13588.288942" HC_normed="2.205973" PMx_normed="0.282848" NOx_normed="5.944844" fuel_normed="5.841123" electricity_normed="0"
            traveltime="2.06" CO_perVeh="276.267929" CO2_perVeh="9062.814657" HC_perVeh="1.471291" PMx_perVeh="0.188647" NOx_perVeh="3.964960" fuel_perVeh="3.895782" electricity_perVeh="0"/>
        <edge id=":1106006327_1" sampledSeconds="678.25" CO_abs="92011.920148" CO2_abs="3091372.648655" HC_abs="491.846646" PMx_abs="64.535458" NOx_abs="1353.221571" fuel_abs="1328.869139" electricity_abs="0"
            CO_normed="3729.426775" CO2_normed="125299.503699" HC_normed="19.935526" PMx_normed="2.615751" NOx_normed="54.848771" fuel_normed="53.861719" electricity_normed="0"
            traveltime="2.28" CO_perVeh="308.861745" CO2_perVeh="10376.989725" HC_perVeh="1.651010" PMx_perVeh="0.216630" NOx_perVeh="4.542437" fuel_perVeh="4.460692" electricity_perVeh="0"/>
        <edge id=":1106006327_2" sampledSeconds="0.00" CO_abs="0" CO2_abs="0" HC_abs="0" PMx_abs="0" NOx_abs="0" fuel_abs="0" electricity_abs="0"
            CO_normed="0" CO2_normed="0" HC_normed="0" PMx_normed="0" NOx_normed="0" fuel_normed="0" electricity_normed="0"/>
        <edge id=":1106006327_3" sampledSeconds="0.00" CO_abs="0" CO2_abs="0" HC_abs="0" PMx_abs="0" NOx_abs="0" fuel_abs="0" electricity_abs="0"
            CO_normed="0" CO2_normed="0" HC_normed="0" PMx_normed="0" NOx_normed="0" fuel_normed="0" electricity_normed="0"/>
        <edge id=":1107381198_0" sampledSeconds="0.00" CO_abs="0" CO2_abs="0" HC_abs="0" PMx_abs="0" NOx_abs="0" fuel_abs="0" electricity_abs="0"
            CO_normed="0" CO2_normed="0" HC_normed="0" PMx_normed="0" NOx_normed="0" fuel_normed="0" electricity_normed="0"/>
        <edge id=":1107381198_1" sampledSeconds="99.76" CO_abs="4585.298297" CO2_abs="186209.320970" HC_abs="25.174550" PMx_abs="3.245580" NOx_abs="77.327442" fuel_abs="80.044808" electricity_abs="0"
            CO_normed="205.915935" CO2_normed="8362.262172" HC_normed="1.130535" PMx_normed="0.145752" NOx_normed="3.472610" fuel_normed="3.594641" electricity_normed="0"
            traveltime="1.49" CO_perVeh="68.651466" CO2_perVeh="2787.941394" HC_perVeh="0.376915" PMx_perVeh="0.048593" NOx_perVeh="1.157753" fuel_perVeh="1.198438" electricity_perVeh="0"/>
        <edge id=":1110338277_0" sampledSeconds="159.95" CO_abs="2350.984403" CO2_abs="301265.382627" HC_abs="17.583257" PMx_abs="4.040709" NOx_abs="111.948951" fuel_abs="129.501400" electricity_abs="0"
            CO_normed="3457.668992" CO2_normed="443080.766684" HC_normed="25.860266" PMx_normed="5.942802" NOx_normed="164.646951" fuel_normed="190.461908" electricity_normed="0"
            traveltime="0.02" CO_perVeh="0.318524" CO2_perVeh="40.817096" HC_perVeh="0.002382" PMx_perVeh="0.000547" NOx_perVeh="0.015167" fuel_perVeh="0.017546" electricity_perVeh="0"/>
        <edge id=":1110338293_0" sampledSeconds="6454.58" CO_abs="592366.007102" CO2_abs="10405756.857882" HC_abs="2940.693088" PMx_abs="248.006325" NOx_abs="4702.404757" fuel_abs="4473.258201" electricity_abs="0"
            CO_normed="813131.101032" CO2_normed="14283811.747265" HC_normed="4036.641164" PMx_normed="340.434215" NOx_normed="6454.913873" fuel_normed="6140.368155" electricity_normed="0"
            traveltime="0.43" CO_perVeh="39.583887" CO2_perVeh="695.347630" HC_perVeh="0.196507" PMx_perVeh="0.016573" NOx_perVeh="0.314230" fuel_perVeh="0.298918" electricity_perVeh="0"/>
        <edge id=":1110338295_0" sampledSeconds="0.00" CO_abs="0" CO2_abs="0" HC_abs="0" PMx_abs="0" NOx_abs="0" fuel_abs="0" electricity_abs="0"
            CO_normed="0" CO2_normed="0" HC_normed="0" PMx_normed="0" NOx_normed="0" fuel_normed="0" electricity_normed="0"/>
        <edge id=":1110673403_0" sampledSeconds="250.35" CO_abs="3949.558782" CO2_abs="487819.181655" HC_abs="29.142392" PMx_abs="6.626461" NOx_abs="182.034888" fuel_abs="209.693057" electricity_abs="0"
            CO_normed="5421.494553" CO2_normed="669621.388682" HC_normed="40.003283" PMx_normed="9.096035" NOx_normed="249.876305" fuel_normed="287.842219" electricity_normed="0"
            traveltime="0.02" CO_perVeh="0.367074" CO2_perVeh="45.338192" HC_perVeh="0.002709" PMx_perVeh="0.000616" NOx_perVeh="0.016918" fuel_perVeh="0.019489" electricity_perVeh="0"/>
        <edge id=":1110673412_0" sampledSeconds="940.68" CO_abs="166871.730529" CO2_abs="11396577.361409" HC_abs="1038.741491" PMx_abs="250.367055" NOx_abs="4897.117557" fuel_abs="4898.827286" electricity_abs="0"
            CO_normed="236960.779867" CO2_normed="16183339.447721" HC_normed="1475.031109" PMx_normed="355.525603" NOx_normed="6953.992697" fuel_normed="6956.420542" electricity_normed="0"
            traveltime="0.02" CO_perVeh="2.755312" CO2_perVeh="188.175208" HC_perVeh="0.017151" PMx_perVeh="0.004134" NOx_perVeh="0.080859" fuel_perVeh="0.080887" electricity_perVeh="0"/>
        <edge id=":1110673414_0" sampledSeconds="0.00" CO_abs="0" CO2_abs="0" HC_abs="0" PMx_abs="0" NOx_abs="0" fuel_abs="0" electricity_abs="0"
            CO_normed="0" CO2_normed="0" HC_normed="0" PMx_normed="0" NOx_normed="0" fuel_normed="0" electricity_normed="0"/>
        <edge id=":1110673414_1" sampledSeconds="6.99" CO_abs="351.027253" CO2_abs="12896.521107" HC_abs="1.891649" PMx_abs="0.208417" NOx_abs="5.254008" fuel_abs="5.543812" electricity_abs="0"
            CO_normed="16.008284" CO2_normed="588.134318" HC_normed="0.086267" PMx_normed="0.009505" NOx_normed="0.239604" fuel_normed="0.252821" electricity_normed="0"
            traveltime="1.53" CO_perVeh="76.675764" CO2_perVeh="2817.019487" HC_perVeh="0.413198" PMx_perVeh="0.045525" NOx_perVeh="1.147646" fuel_perVeh="1.210949" electricity_perVeh="0"/>
        <edge id=":1110673417_0" sampledSeconds="28.22" CO_abs="372.331250" CO2_abs="46450.501722" HC_abs="2.763616" PMx_abs="0.643126" NOx_abs="17.400648" fuel_abs="19.967107" electricity_abs="0"
            CO_normed="547.599642" CO2_normed="68316.259028" HC_normed="4.064540" PMx_normed="0.945866" NOx_normed="25.591697" fuel_normed="29.366272" electricity_normed="0"
            traveltime="0.02" CO_perVeh="0.283920" CO2_perVeh="35.420737" HC_perVeh="0.002107" PMx_perVeh="0.000490" NOx_perVeh="0.013269" fuel_perVeh="0.015226" electricity_perVeh="0"/>
        <edge id=":1110673446_0" sampledSeconds="1314.72" CO_abs="14269.359008" CO2_abs="1160584.700674" HC_abs="92.428989" PMx_abs="21.199515" NOx_abs="474.131974" fuel_abs="498.882072" electricity_abs="0"
            CO_normed="19587.315042" CO2_normed="1593115.580884" HC_normed="126.875757" PMx_normed="29.100226" NOx_normed="650.833183" fuel_normed="684.807237" electricity_normed="0"
            traveltime="0.02" CO_perVeh="0.247607" CO2_perVeh="20.138844" HC_perVeh="0.001604" PMx_perVeh="0.000368" NOx_perVeh="0.008227" fuel_perVeh="0.008657" electricity_perVeh="0"/>
        <edge id=":1110673451_0" sampledSeconds="35.73" CO_abs="321.895636" CO2_abs="25442.084472" HC_abs="2.042920" PMx_abs="0.328153" NOx_abs="9.608123" fuel_abs="10.936591" electricity_abs="0"
            CO_normed="490.956510" CO2_normed="38804.368905" HC_normed="3.115869" PMx_normed="0.500501" NOx_normed="14.654348" fuel_normed="16.680532" electricity_normed="0"
            traveltime="0.03" CO_perVeh="0.237166" CO2_perVeh="18.745191" HC_perVeh="0.001505" PMx_perVeh="0.000242" NOx_perVeh="0.007079" fuel_perVeh="0.008058" electricity_perVeh="0"/>
        <edge id=":1110673464_0" sampledSeconds="1010.41" CO_abs="2556.383245" CO2_abs="199427.056531" HC_abs="16.191911" PMx_abs="2.731438" NOx_abs="76.354773" fuel_abs="85.725941" electricity_abs="0"
            CO_normed="74.556063" CO2_normed="5816.223425" HC_normed="0.472232" PMx_normed="0.079661" NOx_normed="2.226861" fuel_normed="2.500168" electricity_normed="0"
            traveltime="1.20" CO_perVeh="3.031513" CO2_perVeh="236.492579" HC_perVeh="0.019201" PMx_perVeh="0.003239" NOx_perVeh="0.090546" fuel_perVeh="0.101659" electricity_perVeh="0"/>
        <edge id=":1110673464_1" sampledSeconds="2709.90" CO_abs="74873.834532" CO2_abs="8632175.003998" HC_abs="547.225723" PMx_abs="156.798327" NOx_abs="3305.507804" fuel_abs="3710.572336" electricity_abs="0"
            CO_normed="2139.724173" CO2_normed="246687.960365" HC_normed="15.638469" PMx_normed="4.480940" NOx_normed="94.463907" fuel_normed="106.039732" electricity_normed="0"
            traveltime="0.72" CO_perVeh="19.872978" CO2_perVeh="2291.147862" HC_perVeh="0.145244" PMx_perVeh="0.041617" NOx_perVeh="0.877346" fuel_perVeh="0.984858" electricity_perVeh="0"/>
        <edge id=":1110673479_0" sampledSeconds="140.33" CO_abs="6466.228690" CO2_abs="451096.458344" HC_abs="40.059950" PMx_abs="7.976045" NOx_abs="184.927481" fuel_abs="193.906612" electricity_abs="0"
            CO_normed="8876.086053" CO2_normed="619212.708777" HC_normed="54.989636" PMx_normed="10.948586" NOx_normed="253.846919" fuel_normed="266.172425" electricity_normed="0"
            traveltime="0.03" CO_perVeh="1.297745" CO2_perVeh="90.533140" HC_perVeh="0.008040" PMx_perVeh="0.001601" NOx_perVeh="0.037114" fuel_perVeh="0.038916" electricity_perVeh="0"/>
        <edge id=":1110673511_0" sampledSeconds="62.37" CO_abs="1170.006225" CO2_abs="128964.617565" HC_abs="8.287500" PMx_abs="1.812566" NOx_abs="48.804636" fuel_abs="55.436480" electricity_abs="0"
            CO_normed="1606.048353" CO2_normed="177027.615051" HC_normed="11.376116" PMx_normed="2.488080" NOx_normed="66.993323" fuel_normed="76.096746" electricity_normed="0"
            traveltime="0.02" CO_perVeh="0.448421" CO2_perVeh="49.427512" HC_perVeh="0.003176" PMx_perVeh="0.000695" NOx_perVeh="0.018705" fuel_perVeh="0.021247" electricity_perVeh="0"/>
        <edge id=":1110673517_0" sampledSeconds="182.67" CO_abs="8834.052015" CO2_abs="617468.047283" HC_abs="54.768938" PMx_abs="10.965250" NOx_abs="253.390048" fuel_abs="265.422390" electricity_abs="0"
            CO_normed="12126.358291" CO2_normed="847588.259825" HC_normed="75.180423" PMx_normed="15.051819" NOx_normed="347.824362" fuel_normed="364.340960" electricity_normed="0"
            traveltime="0.03" CO_perVeh="1.352565" CO2_perVeh="94.539356" HC_perVeh="0.008386" PMx_perVeh="0.001679" NOx_perVeh="0.038796" fuel_perVeh="0.040638" electricity_perVeh="0"/>
        <edge id=":1110673534_0" sampledSeconds="666.82" CO_abs="4643.978072" CO2_abs="399954.053175" HC_abs="30.240802" PMx_abs="5.162834" NOx_abs="150.417504" fuel_abs="171.924842" electricity_abs="0"
            CO_normed="123.540940" CO2_normed="10639.735816" HC_normed="0.804478" PMx_normed="0.137344" NOx_normed="4.001466" fuel_normed="4.573613" electricity_normed="0"
            traveltime="1.46" CO_perVeh="10.153066" CO2_perVeh="874.414059" HC_perVeh="0.066115" PMx_perVeh="0.011287" NOx_perVeh="0.328856" fuel_perVeh="0.375877" electricity_perVeh="0"/>
        <edge id=":1110673534_1" sampledSeconds="462.61" CO_abs="7091.087141" CO2_abs="888659.329096" HC_abs="52.538606" PMx_abs="12.060739" NOx_abs="331.343261" fuel_abs="381.997398" electricity_abs="0"
            CO_normed="183.426237" CO2_normed="22987.087008" HC_normed="1.359024" PMx_normed="0.311977" NOx_normed="8.570907" fuel_normed="9.881185" electricity_normed="0"
            traveltime="1.23" CO_perVeh="18.832909" CO2_perVeh="2360.151564" HC_perVeh="0.139535" PMx_perVeh="0.032032" NOx_perVeh="0.880000" fuel_perVeh="1.014530" electricity_perVeh="0"/>
        <edge id=":1110673549_0" sampledSeconds="654.85" CO_abs="1447.173135" CO2_abs="142833.762688" HC_abs="9.796253" PMx_abs="1.951105" NOx_abs="53.570104" fuel_abs="61.398460" electricity_abs="0"
            CO_normed="37.293695" CO2_normed="3680.830345" HC_normed="0.252450" PMx_normed="0.050280" NOx_normed="1.380503" fuel_normed="1.582240" electricity_normed="0"
            traveltime="1.30" CO_perVeh="2.875188" CO2_perVeh="283.776628" HC_perVeh="0.019463" PMx_perVeh="0.003876" NOx_perVeh="0.106431" fuel_perVeh="0.121984" electricity_perVeh="0"/>
        <edge id=":1110673549_1" sampledSeconds="3198.32" CO_abs="70598.079495" CO2_abs="9330365.946541" HC_abs="544.076532" PMx_abs="163.742693" NOx_abs="3485.370186" fuel_abs="4010.697410" electricity_abs="0"
            CO_normed="1759.845502" CO2_normed="232584.266650" HC_normed="13.562559" PMx_normed="4.081724" NOx_normed="86.882152" fuel_normed="99.977334" electricity_normed="0"
            traveltime="0.81" CO_perVeh="17.805143" CO2_perVeh="2353.158931" HC_perVeh="0.137218" PMx_perVeh="0.041297" NOx_perVeh="0.879026" fuel_perVeh="1.011515" electricity_perVeh="0"/>
        <edge id=":1110673556_0" sampledSeconds="887.77" CO_abs="111097.682923" CO2_abs="5613241.971584" HC_abs="639.441551" PMx_abs="113.623376" NOx_abs="2419.856436" fuel_abs="2412.888455" electricity_abs="0"
            CO_normed="2122.997220" CO2_normed="107265.037269" HC_normed="12.219270" PMx_normed="2.171261" NOx_normed="46.241725" fuel_normed="46.108572" electricity_normed="0"
            traveltime="2.57" CO_perVeh="321.669654" CO2_perVeh="16252.450589" HC_perVeh="1.851424" PMx_perVeh="0.328982" NOx_perVeh="7.006396" fuel_perVeh="6.986221" electricity_perVeh="0"/>
        <edge id=":1110673556_2" sampledSeconds="179.07" CO_abs="19138.271991" CO2_abs="813137.666645" HC_abs="106.282685" PMx_abs="15.952937" NOx_abs="348.583965" fuel_abs="349.535740" electricity_abs="0"
            CO_normed="382.398719" CO2_normed="16247.172295" HC_normed="2.123617" PMx_normed="0.318753" NOx_normed="6.965000" fuel_normed="6.984017" electricity_normed="0"
            traveltime="3.10" CO_perVeh="330.928070" CO2_perVeh="14060.312193" HC_perVeh="1.837779" PMx_perVeh="0.275849" NOx_perVeh="6.027515" fuel_perVeh="6.043972" electricity_perVeh="0"/>
        <edge id=":1110673556_3" sampledSeconds="205.23" CO_abs="22597.297921" CO2_abs="769452.372061" HC_abs="120.916945" PMx_abs="15.421960" NOx_abs="332.886556" fuel_abs="330.760404" electricity_abs="0"
            CO_normed="1027.117225" CO2_normed="34973.995012" HC_normed="5.496050" PMx_normed="0.700976" NOx_normed="15.130726" fuel_normed="15.034085" electricity_normed="0"
            traveltime="1.90" CO_perVeh="208.801052" CO2_perVeh="7109.808662" HC_perVeh="1.117283" PMx_perVeh="0.142500" NOx_perVeh="3.075902" fuel_perVeh="3.056256" electricity_perVeh="0"/>
        <edge id=":1110673556_4" sampledSeconds="28.43" CO_abs="3330.557371" CO2_abs="125146.569688" HC_abs="18.111622" PMx_abs="2.528136" NOx_abs="54.224592" fuel_abs="53.795771" electricity_abs="0"
            CO_normed="92.484183" CO2_normed="3475.117533" HC_normed="0.502930" PMx_normed="0.070202" NOx_normed="1.505729" fuel_normed="1.493821" electricity_normed="0"
            traveltime="2.69" CO_perVeh="315.322815" CO2_perVeh="11848.337771" HC_perVeh="1.714730" PMx_perVeh="0.239353" NOx_perVeh="5.133751" fuel_perVeh="5.093152" electricity_perVeh="0"/>
        <edge id=":1110673556_5" sampledSeconds="23.81" CO_abs="975.560080" CO2_abs="41593.257185" HC_abs="5.401026" PMx_abs="0.712646" NOx_abs="17.176647" fuel_abs="17.879451" electricity_abs="0"
            CO_normed="37.757575" CO2_normed="1609.804000" HC_normed="0.209039" PMx_normed="0.027582" NOx_normed="0.664796" fuel_normed="0.691997" electricity_normed="0"
            traveltime="1.65" CO_perVeh="67.446129" CO2_perVeh="2875.583213" HC_perVeh="0.373404" PMx_perVeh="0.049269" NOx_perVeh="1.187521" fuel_perVeh="1.236110" electricity_perVeh="0"/>
        <edge id=":1110673556_6" sampledSeconds="241.71" CO_abs="30017.038869" CO2_abs="1471450.190533" HC_abs="171.675971" PMx_abs="29.848960" NOx_abs="634.911554" fuel_abs="632.513055" electricity_abs="0"
            CO_normed="588.067034" CO2_normed="28827.338813" HC_normed="3.363322" PMx_normed="0.584774" NOx_normed="12.438620" fuel_normed="12.391631" electricity_normed="0"
            traveltime="2.59" CO_perVeh="322.160691" CO2_perVeh="15792.477486" HC_perVeh="1.842529" PMx_perVeh="0.320357" NOx_perVeh="6.814248" fuel_perVeh="6.788506" electricity_perVeh="0"/>
        <edge id=":1110673561_0" sampledSeconds="99.90" CO_abs="8690.783893" CO2_abs="637195.320958" HC_abs="54.908567" PMx_abs="12.818195" NOx_abs="268.547637" fuel_abs="273.899891" electricity_abs="0"
            CO_normed="213.921635" CO2_normed="15684.415388" HC_normed="1.351562" PMx_normed="0.315517" NOx_normed="6.610238" fuel_normed="6.741982" electricity_normed="0"
            traveltime="1.18" CO_perVeh="102.559685" CO2_perVeh="7519.523249" HC_perVeh="0.647974" PMx_perVeh="0.151267" NOx_perVeh="3.169123" fuel_perVeh="3.232285" electricity_perVeh="0"/>
        <edge id=":1110673561_1" sampledSeconds="5195.67" CO_abs="485811.466524" CO2_abs="33705466.260489" HC_abs="3027.331928" PMx_abs="703.621226" NOx_abs="14404.222127" fuel_abs="14488.352885" electricity_abs="0"
            CO_normed="11658.486557" CO2_normed="808862.598703" HC_normed="72.649806" PMx_normed="16.885478" NOx_normed="345.672018" fuel_normed="347.690985" electricity_normed="0"
            traveltime="1.19" CO_perVeh="111.540792" CO2_perVeh="7738.669578" HC_perVeh="0.695066" PMx_perVeh="0.161549" NOx_perVeh="3.307164" fuel_perVeh="3.326480" electricity_perVeh="0"/>
        <edge id=":1110673562_0" sampledSeconds="304.04" CO_abs="7472.165147" CO2_abs="554629.411587" HC_abs="46.706155" PMx_abs="7.777517" NOx_abs="213.940422" fuel_abs="238.413619" electricity_abs="0"
            CO_normed="11396.576142" CO2_normed="845922.994871" HC_normed="71.236414" PMx_normed="11.862300" NOx_normed="326.302787" fuel_normed="363.629404" electricity_normed="0"
            traveltime="0.03" CO_perVeh="0.669818" CO2_perVeh="49.717939" HC_perVeh="0.004187" PMx_perVeh="0.000697" NOx_perVeh="0.019178" fuel_perVeh="0.021372" electricity_perVeh="0"/>
        <edge id=":1110673564_0" sampledSeconds="27.19" CO_abs="500.477001" CO2_abs="59321.016475" HC_abs="3.650793" PMx_abs="0.847443" NOx_abs="22.430901" fuel_abs="25.499576" electricity_abs="0"
            CO_normed="2060.989707" CO2_normed="244286.958716" HC_normed="15.034153" PMx_normed="3.489813" NOx_normed="92.371588" fuel_normed="105.008547" electricity_normed="0"
            traveltime="7.681083e-03" CO_perVeh="0.141358" CO2_perVeh="16.754983" HC_perVeh="0.001031" PMx_perVeh="0.000239" NOx_perVeh="0.006336" fuel_perVeh="0.007202" electricity_perVeh="0"/>
        <edge id=":1110673588_0" sampledSeconds="61.76" CO_abs="1005.260663" CO2_abs="113862.175246" HC_abs="7.196839" PMx_abs="1.606829" NOx_abs="43.058720" fuel_abs="48.944548" electricity_abs="0"
            CO_normed="1655.885786" CO2_normed="187556.088258" HC_normed="11.854779" PMx_normed="2.646801" NOx_normed="70.927198" fuel_normed="80.622453" electricity_normed="0"
            traveltime="0.02" CO_perVeh="0.324278" CO2_perVeh="36.729734" HC_perVeh="0.002322" PMx_perVeh="0.000518" NOx_perVeh="0.013890" fuel_perVeh="0.015789" electricity_perVeh="0"/>
        <edge id=":1110673601_0" sampledSeconds="28.05" CO_abs="572.031492" CO2_abs="64181.239468" HC_abs="4.089542" PMx_abs="0.927096" NOx_abs="24.399728" fuel_abs="27.588782" electricity_abs="0"
            CO_normed="841.305264" CO2_normed="94393.429946" HC_normed="6.014623" PMx_normed="1.363510" NOx_normed="35.885471" fuel_normed="40.575716" electricity_normed="0"
            traveltime="0.02" CO_perVeh="0.436201" CO2_perVeh="48.941276" HC_perVeh="0.003118" PMx_perVeh="0.000707" NOx_perVeh="0.018606" fuel_perVeh="0.021038" electricity_perVeh="0"/>
        <edge id=":1110673617_0" sampledSeconds="883.12" CO_abs="34667.711832" CO2_abs="3433450.298979" HC_abs="240.071888" PMx_abs="65.151135" NOx_abs="1352.111911" fuel_abs="1475.879226" electricity_abs="0"
            CO_normed="47587.799358" CO2_normed="4713040.904570" HC_normed="329.542743" PMx_normed="89.431894" NOx_normed="1856.021841" fuel_normed="2025.915204" electricity_normed="0"
            traveltime="0.02" CO_perVeh="0.595506" CO2_perVeh="58.978185" HC_perVeh="0.004124" PMx_perVeh="0.001119" NOx_perVeh="0.023226" fuel_perVeh="0.025352" electricity_perVeh="0"/>
        <edge id=":1110673621_0" sampledSeconds="25.01" CO_abs="391.392223" CO2_abs="49959.494341" HC_abs="2.931472" PMx_abs="0.690461" NOx_abs="18.669792" fuel_abs="21.475473" electricity_abs="0"
            CO_normed="644.709221" CO2_normed="82294.294042" HC_normed="4.828780" PMx_normed="1.137341" NOx_normed="30.753261" fuel_normed="35.374835" electricity_normed="0"
            traveltime="0.02" CO_perVeh="0.296509" CO2_perVeh="37.848102" HC_perVeh="0.002221" PMx_perVeh="0.000523" NOx_perVeh="0.014144" fuel_perVeh="0.016269" electricity_perVeh="0"/>
        <edge id=":1110673630_0" sampledSeconds="290.72" CO_abs="1576.754271" CO2_abs="131730.256016" HC_abs="10.172312" PMx_abs="1.695291" NOx_abs="49.579859" fuel_abs="56.625804" electricity_abs="0"
            CO_normed="46.313510" CO2_normed="3869.271646" HC_normed="0.298788" PMx_normed="0.049795" NOx_normed="1.456294" fuel_normed="1.663252" electricity_normed="0"
            traveltime="1.31" CO_perVeh="7.094792" CO2_perVeh="592.735841" HC_perVeh="0.045772" PMx_perVeh="0.007628" NOx_perVeh="0.223090" fuel_perVeh="0.254794" electricity_perVeh="0"/>
        <edge id=":1110673630_1" sampledSeconds="342.50" CO_abs="1490.125698" CO2_abs="116383.599859" HC_abs="9.434930" PMx_abs="1.553608" NOx_abs="44.302397" fuel_abs="50.028846" electricity_abs="0"
            CO_normed="53.360116" CO2_normed="4167.596307" HC_normed="0.337857" PMx_normed="0.055633" NOx_normed="1.586431" fuel_normed="1.791490" electricity_normed="0"
            traveltime="1.09" CO_perVeh="4.750227" CO2_perVeh="371.008011" HC_perVeh="0.030077" PMx_perVeh="0.004953" NOx_perVeh="0.141227" fuel_perVeh="0.159482" electricity_perVeh="0"/>
        <edge id=":1110673650_0" sampledSeconds="250.33" CO_abs="4830.016043" CO2_abs="529431.003054" HC_abs="34.143797" PMx_abs="7.704194" NOx_abs="201.661326" fuel_abs="227.579832" electricity_abs="0"
            CO_normed="6630.083792" CO2_normed="726741.253334" HC_normed="46.868630" PMx_normed="10.575421" NOx_normed="276.817194" fuel_normed="312.395102" electricity_normed="0"
            traveltime="0.02" CO_perVeh="0.449189" CO2_perVeh="49.236757" HC_perVeh="0.003175" PMx_perVeh="0.000716" NOx_perVeh="0.018754" fuel_perVeh="0.021165" electricity_perVeh="0"/>
        <edge id=":1110673655_0" sampledSeconds="20.45" CO_abs="339.487926" CO2_abs="40267.085804" HC_abs="2.470759" PMx_abs="0.554786" NOx_abs="15.119848" fuel_abs="17.309131" electricity_abs="0"
            CO_normed="466.009507" CO2_normed="55273.968159" HC_normed="3.391570" PMx_normed="0.761545" NOx_normed="20.754767" fuel_normed="23.759960" electricity_normed="0"
            traveltime="0.02" CO_perVeh="0.387838" CO2_perVeh="46.002002" HC_perVeh="0.002823" PMx_perVeh="0.000634" NOx_perVeh="0.017273" fuel_perVeh="0.019774" electricity_perVeh="0"/>
        <edge id=":1110673663_0" sampledSeconds="106.14" CO_abs="1555.879854" CO2_abs="209519.079833" HC_abs="11.876947" PMx_abs="2.836340" NOx_abs="77.806844" fuel_abs="90.063413" electricity_abs="0"
            CO_normed="39.115948" CO2_normed="5267.461612" HC_normed="0.298595" PMx_normed="0.071308" NOx_normed="1.956120" fuel_normed="2.264260" electricity_normed="0"
            traveltime="1.25" CO_perVeh="18.274543" CO2_perVeh="2460.900434" HC_perVeh="0.139500" PMx_perVeh="0.033314" NOx_perVeh="0.913878" fuel_perVeh="1.057837" electricity_perVeh="0"/>
        <edge id=":1110673663_1" sampledSeconds="168.80" CO_abs="2839.093865" CO2_abs="358979.302032" HC_abs="21.054405" PMx_abs="4.875621" NOx_abs="133.727851" fuel_abs="154.310133" electricity_abs="0"
            CO_normed="71.464137" CO2_normed="9036.032996" HC_normed="0.529970" PMx_normed="0.122726" NOx_normed="3.366125" fuel_normed="3.884211" electricity_normed="0"
            traveltime="1.26" CO_perVeh="21.180268" CO2_perVeh="2678.064973" HC_perVeh="0.157071" PMx_perVeh="0.036373" NOx_perVeh="0.997639" fuel_perVeh="1.151188" electricity_perVeh="0"/>