<?xml version="1.0" encoding="UTF-8"?>

<!-- generated on Tue Nov 10 16:34:56 2020 by Eclipse SUMO sumo Version 1.7.0
<configuration xmlns:xsi="http://www.w3.org/2001/XMLSchema-instance" xsi:noNamespaceSchemaLocation="http://sumo.dlr.de/xsd/sumoConfiguration.xsd">

    <input>
        <net-file value="../dataSets/Porto/8AM9AM_Routing_SaoBento/Porto.net.xml"/>
        <route-files value="../results/Porto/8AM9AM_Routing_SaoBento/cost_PMx-cost_co/solution1/Porto.rou.xml"/>
        <additional-files value="moreOutputInfo.xml"/>
    </input>

    <output>
        <emission-output.precision value="6"/>
        <tripinfo-output value="../results/Porto/8AM9AM_Routing_SaoBento/cost_PMx-cost_co/solution1/Porto-tripinfo"/>
    </output>

    <processing>
        <collision.action value="warn"/>
        <time-to-teleport value="-1"/>
    </processing>

    <emissions>
        <device.emissions.probability value="1"/>
    </emissions>

    <gui_only>
        <quit-on-end value="true"/>
        <start value="true"/>
    </gui_only>

</configuration>
-->

<meandata xmlns:xsi="http://www.w3.org/2001/XMLSchema-instance" xsi:noNamespaceSchemaLocation="http://sumo.dlr.de/xsd/meandata_file.xsd">
    <interval begin="0.00" end="10069.00" id="emissions-detector">
        <edge id=":1092997347_0" sampledSeconds="585.54" CO_abs="71274.866590" CO2_abs="3089283.782349" HC_abs="397.679874" PMx_abs="62.579009" NOx_abs="1336.957768" fuel_abs="1327.956754" electricity_abs="0"
            CO_normed="57916.178307" CO2_normed="2510274.924940" HC_normed="323.144744" PMx_normed="50.850141" NOx_normed="1086.378526" fuel_normed="1079.064526" electricity_normed="0"
            traveltime="0.07" CO_perVeh="8.152585" CO2_perVeh="353.359447" HC_perVeh="0.045488" PMx_perVeh="0.007158" NOx_perVeh="0.152924" fuel_perVeh="0.151895" electricity_perVeh="0"/>
        <edge id=":1103427051_0" sampledSeconds="19.37" CO_abs="1476.759634" CO2_abs="82478.162542" HC_abs="8.679111" PMx_abs="1.603281" NOx_abs="35.110456" fuel_abs="35.453743" electricity_abs="0"
            CO_normed="1820.656327" CO2_normed="101685.057637" HC_normed="10.700237" PMx_normed="1.976640" NOx_normed="43.286716" fuel_normed="43.709944" electricity_normed="0"
            traveltime="0.03" CO_perVeh="2.296548" CO2_perVeh="128.263981" HC_perVeh="0.013497" PMx_perVeh="0.002493" NOx_perVeh="0.054601" fuel_perVeh="0.055135" electricity_perVeh="0"/>
        <edge id=":1105984386_0" sampledSeconds="39.51" CO_abs="813.697603" CO2_abs="62305.968869" HC_abs="5.118418" PMx_abs="0.808863" NOx_abs="23.592185" fuel_abs="26.782993" electricity_abs="0"
            CO_normed="29.961253" CO2_normed="2294.175216" HC_normed="0.188466" PMx_normed="0.029783" NOx_normed="0.868691" fuel_normed="0.986180" electricity_normed="0"
            traveltime="0.98" CO_perVeh="20.237190" CO2_perVeh="1549.590077" HC_perVeh="0.127298" PMx_perVeh="0.020117" NOx_perVeh="0.586753" fuel_perVeh="0.666110" electricity_perVeh="0"/>
        <edge id=":1105984390_0" sampledSeconds="39.01" CO_abs="10.611365" CO2_abs="1130.786887" HC_abs="0.073016" PMx_abs="0.008742" NOx_abs="0.385356" fuel_abs="0.486089" electricity_abs="0"
            CO_normed="0.302063" CO2_normed="32.188985" HC_normed="0.002078" PMx_normed="0.000249" NOx_normed="0.010970" fuel_normed="0.013837" electricity_normed="0"
            traveltime="1.05" CO_perVeh="0.285168" CO2_perVeh="30.388522" HC_perVeh="0.001962" PMx_perVeh="0.000235" NOx_perVeh="0.010356" fuel_perVeh="0.013063" electricity_perVeh="0"/>
        <edge id=":1105984390_1" sampledSeconds="2399.55" CO_abs="61605.507222" CO2_abs="7462724.268554" HC_abs="459.000844" PMx_abs="134.067029" NOx_abs="2831.049812" fuel_abs="3207.881003" electricity_abs="0"
            CO_normed="1677.532611" CO2_normed="203211.756374" HC_normed="12.498702" PMx_normed="3.650677" NOx_normed="77.090160" fuel_normed="87.351363" electricity_normed="0"
            traveltime="0.65" CO_perVeh="16.640711" CO2_perVeh="2015.810711" HC_perVeh="0.123984" PMx_perVeh="0.036214" NOx_perVeh="0.764715" fuel_perVeh="0.866504" electricity_perVeh="0"/>
        <edge id=":1105984395_0" sampledSeconds="15.42" CO_abs="352.674181" CO2_abs="29392.358790" HC_abs="2.268509" PMx_abs="0.352627" NOx_abs="10.905942" fuel_abs="12.634691" electricity_abs="0"
            CO_normed="137.057245" CO2_normed="11422.542246" HC_normed="0.881594" PMx_normed="0.137039" NOx_normed="4.238298" fuel_normed="4.910130" electricity_normed="0"
            traveltime="0.09" CO_perVeh="2.119408" CO2_perVeh="176.634464" HC_perVeh="0.013633" PMx_perVeh="0.002119" NOx_perVeh="0.065540" fuel_perVeh="0.075929" electricity_perVeh="0"/>
        <edge id=":1105984398_0" sampledSeconds="39.60" CO_abs="2305.407416" CO2_abs="160723.316308" HC_abs="14.283795" PMx_abs="2.860241" NOx_abs="66.017694" fuel_abs="69.087887" electricity_abs="0"
            CO_normed="68.176946" CO2_normed="4753.010174" HC_normed="0.422409" PMx_normed="0.084585" NOx_normed="1.952316" fuel_normed="2.043110" electricity_normed="0"
            traveltime="1.13" CO_perVeh="65.723283" CO2_perVeh="4581.951102" HC_perVeh="0.407207" PMx_perVeh="0.081541" NOx_perVeh="1.882053" fuel_perVeh="1.969579" electricity_perVeh="0"/>
        <edge id=":1105984398_1" sampledSeconds="648.30" CO_abs="11734.711325" CO2_abs="1369016.779409" HC_abs="84.844923" PMx_abs="19.639584" NOx_abs="518.001247" fuel_abs="588.481943" electricity_abs="0"
            CO_normed="335.912474" CO2_normed="39188.847599" HC_normed="2.428732" PMx_normed="0.562194" NOx_normed="14.828067" fuel_normed="16.845615" electricity_normed="0"
            traveltime="0.95" CO_perVeh="17.256825" CO2_perVeh="2013.247906" HC_perVeh="0.124771" PMx_perVeh="0.028882" NOx_perVeh="0.761762" fuel_perVeh="0.865409" electricity_perVeh="0"/>
        <edge id=":1106006327_0" sampledSeconds="68.07" CO_abs="9118.883846" CO2_abs="293432.247199" HC_abs="48.423396" PMx_abs="6.105183" NOx_abs="128.350508" fuel_abs="126.136253" electricity_abs="0"
            CO_normed="367.979921" CO2_normed="11841.051708" HC_normed="1.954059" PMx_normed="0.246366" NOx_normed="5.179407" fuel_normed="5.090054" electricity_normed="0"
            traveltime="2.11" CO_perVeh="282.681890" CO2_perVeh="9096.286730" HC_perVeh="1.501107" PMx_perVeh="0.189258" NOx_perVeh="3.978816" fuel_perVeh="3.910175" electricity_perVeh="0"/>
        <edge id=":1106006327_1" sampledSeconds="685.72" CO_abs="92718.341143" CO2_abs="3088339.653084" HC_abs="494.956344" PMx_abs="64.414499" NOx_abs="1351.521431" fuel_abs="1327.566134" electricity_abs="0"
            CO_normed="3262.782354" CO2_normed="108679.469447" HC_normed="17.417642" PMx_normed="2.266763" NOx_normed="47.560388" fuel_normed="46.717395" electricity_normed="0"
            traveltime="2.30" CO_perVeh="311.233029" CO2_perVeh="10366.808693" HC_perVeh="1.661449" PMx_perVeh="0.216224" NOx_perVeh="4.536730" fuel_perVeh="4.456318" electricity_perVeh="0"/>
        <edge id=":1106006327_2" sampledSeconds="0.00" CO_abs="0" CO2_abs="0" HC_abs="0" PMx_abs="0" NOx_abs="0" fuel_abs="0" electricity_abs="0"
            CO_normed="0" CO2_normed="0" HC_normed="0" PMx_normed="0" NOx_normed="0" fuel_normed="0" electricity_normed="0"/>
        <edge id=":1106006327_3" sampledSeconds="0.00" CO_abs="0" CO2_abs="0" HC_abs="0" PMx_abs="0" NOx_abs="0" fuel_abs="0" electricity_abs="0"
            CO_normed="0" CO2_normed="0" HC_normed="0" PMx_normed="0" NOx_normed="0" fuel_normed="0" electricity_normed="0"/>
        <edge id=":1107381198_0" sampledSeconds="0.00" CO_abs="0" CO2_abs="0" HC_abs="0" PMx_abs="0" NOx_abs="0" fuel_abs="0" electricity_abs="0"
            CO_normed="0" CO2_normed="0" HC_normed="0" PMx_normed="0" NOx_normed="0" fuel_normed="0" electricity_normed="0"/>
        <edge id=":1107381198_1" sampledSeconds="103.66" CO_abs="4840.581324" CO2_abs="196562.075825" HC_abs="26.581864" PMx_abs="3.458426" NOx_abs="81.847252" fuel_abs="84.495042" electricity_abs="0"
            CO_normed="188.731480" CO2_normed="7663.842204" HC_normed="1.036412" PMx_normed="0.134842" NOx_normed="3.191177" fuel_normed="3.294413" electricity_normed="0"
            traveltime="1.55" CO_perVeh="72.472784" CO2_perVeh="2942.911173" HC_perVeh="0.397981" PMx_perVeh="0.051779" NOx_perVeh="1.225410" fuel_perVeh="1.265053" electricity_perVeh="0"/>
        <edge id=":1110338277_0" sampledSeconds="160.74" CO_abs="2589.519297" CO2_abs="326599.335536" HC_abs="19.206783" PMx_abs="4.386190" NOx_abs="121.493480" fuel_abs="140.391417" electricity_abs="0"
            CO_normed="3306.566643" CO2_normed="417035.883805" HC_normed="24.525211" PMx_normed="5.600742" NOx_normed="155.135468" fuel_normed="179.266312" electricity_normed="0"
            traveltime="0.02" CO_perVeh="0.350726" CO2_perVeh="44.234744" HC_perVeh="0.002601" PMx_perVeh="0.000594" NOx_perVeh="0.016455" fuel_perVeh="0.019015" electricity_perVeh="0"/>
        <edge id=":1110338293_0" sampledSeconds="6412.22" CO_abs="613049.284920" CO2_abs="10753385.691102" HC_abs="3043.007540" PMx_abs="256.420359" NOx_abs="4859.946973" fuel_abs="4622.698543" electricity_abs="0"
            CO_normed="730617.878542" CO2_normed="12815634.948180" HC_normed="3626.585608" PMx_normed="305.595820" NOx_normed="5791.971763" fuel_normed="5509.224601" electricity_normed="0"
            traveltime="0.43" CO_perVeh="40.974810" CO2_perVeh="718.731662" HC_perVeh="0.203388" PMx_perVeh="0.017139" NOx_perVeh="0.324828" fuel_perVeh="0.308971" electricity_perVeh="0"/>
        <edge id=":1110338295_0" sampledSeconds="0.00" CO_abs="0" CO2_abs="0" HC_abs="0" PMx_abs="0" NOx_abs="0" fuel_abs="0" electricity_abs="0"
            CO_normed="0" CO2_normed="0" HC_normed="0" PMx_normed="0" NOx_normed="0" fuel_normed="0" electricity_normed="0"/>
        <edge id=":1110673403_0" sampledSeconds="208.57" CO_abs="3373.085103" CO2_abs="412932.241008" HC_abs="24.780690" PMx_abs="5.655169" NOx_abs="154.392502" fuel_abs="177.502243" electricity_abs="0"
            CO_normed="4019.964370" CO2_normed="492123.040232" HC_normed="29.533050" PMx_normed="6.739699" NOx_normed="184.001392" fuel_normed="211.543044" electricity_normed="0"
            traveltime="0.02" CO_perVeh="0.375246" CO2_perVeh="45.937506" HC_perVeh="0.002757" PMx_perVeh="0.000629" NOx_perVeh="0.017176" fuel_perVeh="0.019747" electricity_perVeh="0"/>
        <edge id=":1110673412_0" sampledSeconds="940.32" CO_abs="166167.610902" CO2_abs="11351024.830858" HC_abs="1034.414387" PMx_abs="249.347960" NOx_abs="4876.942678" fuel_abs="4879.246541" electricity_abs="0"
            CO_normed="204863.476238" CO2_normed="13994366.249118" HC_normed="1275.301041" PMx_normed="307.414240" NOx_normed="6012.648464" fuel_normed="6015.488833" electricity_normed="0"
            traveltime="0.02" CO_perVeh="2.743696" CO2_perVeh="187.423747" HC_perVeh="0.017080" PMx_perVeh="0.004117" NOx_perVeh="0.080526" fuel_perVeh="0.080564" electricity_perVeh="0"/>
        <edge id=":1110673414_0" sampledSeconds="0.00" CO_abs="0" CO2_abs="0" HC_abs="0" PMx_abs="0" NOx_abs="0" fuel_abs="0" electricity_abs="0"
            CO_normed="0" CO2_normed="0" HC_normed="0" PMx_normed="0" NOx_normed="0" fuel_normed="0" electricity_normed="0"/>
        <edge id=":1110673414_1" sampledSeconds="297.65" CO_abs="20348.002835" CO2_abs="784244.562447" HC_abs="110.859078" PMx_abs="14.436262" NOx_abs="330.793096" fuel_abs="337.118729" electricity_abs="0"
            CO_normed="805.657026" CO2_normed="31051.309913" HC_normed="4.389345" PMx_normed="0.571588" NOx_normed="13.097393" fuel_normed="13.347849" electricity_normed="0"
            traveltime="1.56" CO_perVeh="106.671968" CO2_perVeh="4111.308214" HC_perVeh="0.581165" PMx_perVeh="0.075680" NOx_perVeh="1.734143" fuel_perVeh="1.767305" electricity_perVeh="0"/>
        <edge id=":1110673417_0" sampledSeconds="28.91" CO_abs="537.336167" CO2_abs="61306.130232" HC_abs="3.864827" PMx_abs="0.857868" NOx_abs="23.115453" fuel_abs="26.352932" electricity_abs="0"
            CO_normed="686.126514" CO2_normed="78282.021493" HC_normed="4.935012" PMx_normed="1.095415" NOx_normed="29.516207" fuel_normed="33.650155" electricity_normed="0"
            traveltime="0.02" CO_perVeh="0.409745" CO2_perVeh="46.748867" HC_perVeh="0.002947" PMx_perVeh="0.000654" NOx_perVeh="0.017627" fuel_perVeh="0.020095" electricity_perVeh="0"/>
        <edge id=":1110673446_0" sampledSeconds="1315.15" CO_abs="13912.391788" CO2_abs="1116421.628349" HC_abs="89.771759" PMx_abs="20.522565" NOx_abs="457.282424" fuel_abs="479.898319" electricity_abs="0"
            CO_normed="16580.464937" CO2_normed="1330525.329248" HC_normed="106.987894" PMx_normed="24.458316" NOx_normed="544.978557" fuel_normed="571.931655" electricity_normed="0"
            traveltime="0.02" CO_perVeh="0.241271" CO2_perVeh="19.361153" HC_perVeh="0.001557" PMx_perVeh="0.000356" NOx_perVeh="0.007930" fuel_perVeh="0.008322" electricity_perVeh="0"/>
        <edge id=":1110673451_0" sampledSeconds="36.52" CO_abs="360.668696" CO2_abs="26154.784847" HC_abs="2.240554" PMx_abs="0.369823" NOx_abs="10.116429" fuel_abs="11.242927" electricity_abs="0"
            CO_normed="477.596181" CO2_normed="34634.071370" HC_normed="2.966933" PMx_normed="0.489718" NOx_normed="13.396138" fuel_normed="14.887843" electricity_normed="0"
            traveltime="0.03" CO_perVeh="0.265733" CO2_perVeh="19.270294" HC_perVeh="0.001651" PMx_perVeh="0.000272" NOx_perVeh="0.007454" fuel_perVeh="0.008284" electricity_perVeh="0"/>
        <edge id=":1110673464_0" sampledSeconds="1034.59" CO_abs="4521.043145" CO2_abs="325988.066168" HC_abs="28.060220" PMx_abs="4.696754" NOx_abs="126.516424" fuel_abs="140.129517" electricity_abs="0"
            CO_normed="114.477494" CO2_normed="8254.355416" HC_normed="0.710514" PMx_normed="0.118927" NOx_normed="3.203527" fuel_normed="3.548224" electricity_normed="0"
            traveltime="1.23" CO_perVeh="5.361324" CO2_perVeh="386.576223" HC_perVeh="0.033275" PMx_perVeh="0.005570" NOx_perVeh="0.150031" fuel_perVeh="0.166174" electricity_perVeh="0"/>
        <edge id=":1110673464_1" sampledSeconds="2624.51" CO_abs="63857.784681" CO2_abs="7781396.621716" HC_abs="476.225944" PMx_abs="138.924046" NOx_abs="2949.758841" fuel_abs="3344.864113" electricity_abs="0"
            CO_normed="1584.404354" CO2_normed="193067.748139" HC_normed="11.815857" PMx_normed="3.446907" NOx_normed="73.187800" fuel_normed="82.990935" electricity_normed="0"
            traveltime="0.72" CO_perVeh="17.479048" CO2_perVeh="2129.911072" HC_perVeh="0.130352" PMx_perVeh="0.038026" NOx_perVeh="0.807403" fuel_perVeh="0.915551" electricity_perVeh="0"/>
        <edge id=":1110673479_0" sampledSeconds="135.36" CO_abs="5960.703322" CO2_abs="405283.024639" HC_abs="36.679456" PMx_abs="7.198292" NOx_abs="166.547422" fuel_abs="174.213483" electricity_abs="0"
            CO_normed="7103.827577" CO2_normed="483006.882081" HC_normed="43.713722" PMx_normed="8.578756" NOx_normed="198.487344" fuel_normed="207.623577" electricity_normed="0"
            traveltime="0.03" CO_perVeh="1.260147" CO2_perVeh="85.680496" HC_perVeh="0.007754" PMx_perVeh="0.001522" NOx_perVeh="0.035210" fuel_perVeh="0.036830" electricity_perVeh="0"/>
        <edge id=":1110673511_0" sampledSeconds="63.20" CO_abs="1081.065108" CO2_abs="120451.453404" HC_abs="7.662903" PMx_abs="1.659577" NOx_abs="45.320994" fuel_abs="51.777070" electricity_abs="0"
            CO_normed="1288.388251" CO2_normed="143551.240526" HC_normed="9.132469" PMx_normed="1.977845" NOx_normed="54.012507" fuel_normed="61.706707" electricity_normed="0"
            traveltime="0.02" CO_perVeh="0.414333" CO2_perVeh="46.164722" HC_perVeh="0.002937" PMx_perVeh="0.000636" NOx_perVeh="0.017370" fuel_perVeh="0.019844" electricity_perVeh="0"/>
        <edge id=":1110673517_0" sampledSeconds="182.32" CO_abs="8303.541435" CO2_abs="594508.417559" HC_abs="51.777670" PMx_abs="10.326102" NOx_abs="242.231592" fuel_abs="255.553259" electricity_abs="0"
            CO_normed="9895.967546" CO2_normed="708521.304073" HC_normed="61.707423" PMx_normed="12.306408" NOx_normed="288.685978" fuel_normed="304.562430" electricity_normed="0"
            traveltime="0.03" CO_perVeh="1.271347" CO2_perVeh="91.024580" HC_perVeh="0.007928" PMx_perVeh="0.001581" NOx_perVeh="0.037088" fuel_perVeh="0.039128" electricity_perVeh="0"/>
        <edge id=":1110673534_0" sampledSeconds="658.79" CO_abs="4836.483600" CO2_abs="398690.206961" HC_abs="31.144412" PMx_abs="5.478847" NOx_abs="152.361875" fuel_abs="171.381205" electricity_abs="0"
            CO_normed="111.705594" CO2_normed="9208.327816" HC_normed="0.719325" PMx_normed="0.126542" NOx_normed="3.519018" fuel_normed="3.958297" electricity_normed="0"
            traveltime="1.45" CO_perVeh="10.634712" CO2_perVeh="876.660798" HC_perVeh="0.068482" PMx_perVeh="0.012047" NOx_perVeh="0.335021" fuel_perVeh="0.376842" electricity_perVeh="0"/>
        <edge id=":1110673534_1" sampledSeconds="297.40" CO_abs="4338.857232" CO2_abs="558457.686412" HC_abs="32.379583" PMx_abs="7.476013" NOx_abs="207.179152" fuel_abs="240.057632" electricity_abs="0"
            CO_normed="97.442509" CO2_normed="12541.901028" HC_normed="0.727184" PMx_normed="0.167897" NOx_normed="4.652851" fuel_normed="5.391239" electricity_normed="0"
            traveltime="1.23" CO_perVeh="17.966563" CO2_perVeh="2312.490277" HC_perVeh="0.134079" PMx_perVeh="0.030957" NOx_perVeh="0.857898" fuel_perVeh="0.994043" electricity_perVeh="0"/>
        <edge id=":1110673549_0" sampledSeconds="651.45" CO_abs="997.029748" CO2_abs="105384.884827" HC_abs="6.956854" PMx_abs="1.375730" NOx_abs="39.064269" fuel_abs="45.300755" electricity_abs="0"
            CO_normed="22.307325" CO2_normed="2357.858345" HC_normed="0.155651" PMx_normed="0.030780" NOx_normed="0.874015" fuel_normed="1.013549" electricity_normed="0"
            traveltime="1.29" CO_perVeh="1.980864" CO2_perVeh="209.374995" HC_perVeh="0.013822" PMx_perVeh="0.002733" NOx_perVeh="0.077612" fuel_perVeh="0.090002" electricity_perVeh="0"/>
        <edge id=":1110673549_1" sampledSeconds="3196.73" CO_abs="71152.638618" CO2_abs="9298924.473411" HC_abs="545.723523" PMx_abs="163.685325" NOx_abs="3478.831313" fuel_abs="3997.181841" electricity_abs="0"
            CO_normed="1539.916339" CO2_normed="201251.366204" HC_normed="11.810786" PMx_normed="3.542549" NOx_normed="75.290380" fuel_normed="86.508747" electricity_normed="0"
            traveltime="0.81" CO_perVeh="17.948989" CO2_perVeh="2345.749844" HC_perVeh="0.137664" PMx_perVeh="0.041291" NOx_perVeh="0.877571" fuel_perVeh="1.008330" electricity_perVeh="0"/>
        <edge id=":1110673556_0" sampledSeconds="469.20" CO_abs="58163.041230" CO2_abs="2789403.705643" HC_abs="331.077745" PMx_abs="56.325746" NOx_abs="1202.955690" fuel_abs="1199.045867" electricity_abs="0"
            CO_normed="964.974845" CO2_normed="46278.604959" HC_normed="5.492864" PMx_normed="0.934493" NOx_normed="19.958069" fuel_normed="19.893202" electricity_normed="0"
            traveltime="2.77" CO_perVeh="342.865536" CO2_perVeh="16443.266640" HC_perVeh="1.951671" PMx_perVeh="0.332035" NOx_perVeh="7.091308" fuel_perVeh="7.068260" electricity_perVeh="0"/>
        <edge id=":1110673556_2" sampledSeconds="176.99" CO_abs="17118.985184" CO2_abs="723994.900687" HC_abs="94.959433" PMx_abs="14.056606" NOx_abs="309.394499" fuel_abs="311.217084" electricity_abs="0"
            CO_normed="296.972465" CO2_normed="12559.538324" HC_normed="1.647314" PMx_normed="0.243848" NOx_normed="5.367237" fuel_normed="5.398854" electricity_normed="0"
            traveltime="3.06" CO_perVeh="296.013088" CO2_perVeh="12518.964392" HC_perVeh="1.641992" PMx_perVeh="0.243060" NOx_perVeh="5.349898" fuel_perVeh="5.381413" electricity_perVeh="0"/>
        <edge id=":1110673556_3" sampledSeconds="192.05" CO_abs="21484.145215" CO2_abs="743244.723357" HC_abs="115.260001" PMx_abs="14.974330" NOx_abs="322.045073" fuel_abs="319.494249" electricity_abs="0"
            CO_normed="847.824654" CO2_normed="29330.522311" HC_normed="4.548483" PMx_normed="0.590929" NOx_normed="12.708802" fuel_normed="12.608140" electricity_normed="0"
            traveltime="1.88" CO_perVeh="210.367088" CO2_perVeh="7277.656461" HC_perVeh="1.128596" PMx_perVeh="0.146625" NOx_perVeh="3.153380" fuel_perVeh="3.128403" electricity_perVeh="0"/>
        <edge id=":1110673556_4" sampledSeconds="25.64" CO_abs="2554.803787" CO2_abs="100390.762644" HC_abs="13.993886" PMx_abs="1.994087" NOx_abs="43.253845" fuel_abs="43.154141" electricity_abs="0"
            CO_normed="61.593171" CO2_normed="2420.297557" HC_normed="0.337375" PMx_normed="0.048075" NOx_normed="1.042797" fuel_normed="1.040393" electricity_normed="0"
            traveltime="2.43" CO_perVeh="241.877810" CO2_perVeh="9504.564671" HC_perVeh="1.324881" PMx_perVeh="0.188792" NOx_perVeh="4.095088" fuel_perVeh="4.085648" electricity_perVeh="0"/>
        <edge id=":1110673556_5" sampledSeconds="22.40" CO_abs="1436.865830" CO2_abs="64761.030649" HC_abs="8.046594" PMx_abs="1.152214" NOx_abs="27.005562" fuel_abs="27.838312" electricity_abs="0"
            CO_normed="48.282611" CO2_normed="2176.147275" HC_normed="0.270388" PMx_normed="0.038718" NOx_normed="0.907461" fuel_normed="0.935443" electricity_normed="0"
            traveltime="1.55" CO_perVeh="99.338872" CO2_perVeh="4477.305823" HC_perVeh="0.556308" PMx_perVeh="0.079659" NOx_perVeh="1.867051" fuel_perVeh="1.924624" electricity_perVeh="0"/>
        <edge id=":1110673556_6" sampledSeconds="216.05" CO_abs="26178.529441" CO2_abs="1312042.415532" HC_abs="150.405791" PMx_abs="26.497451" NOx_abs="565.087717" fuel_abs="563.990226" electricity_abs="0"
            CO_normed="445.275392" CO2_normed="22316.769268" HC_normed="2.558280" PMx_normed="0.450700" NOx_normed="9.611680" fuel_normed="9.593013" electricity_normed="0"
            traveltime="2.52" CO_perVeh="305.046116" CO2_perVeh="15288.614432" HC_perVeh="1.752608" PMx_perVeh="0.308762" NOx_perVeh="6.584702" fuel_perVeh="6.571913" electricity_perVeh="0"/>
        <edge id=":1110673561_0" sampledSeconds="101.92" CO_abs="10092.356795" CO2_abs="717015.870576" HC_abs="63.211928" PMx_abs="14.542405" NOx_abs="303.734115" fuel_abs="308.210945" electricity_abs="0"
            CO_normed="215.681460" CO2_normed="15323.182973" HC_normed="1.350888" PMx_normed="0.310782" NOx_normed="6.491033" fuel_normed="6.586706" electricity_normed="0"
            traveltime="1.20" CO_perVeh="119.099606" CO2_perVeh="8461.483208" HC_perVeh="0.745962" PMx_perVeh="0.171614" NOx_perVeh="3.584357" fuel_perVeh="3.637188" electricity_perVeh="0"/>
        <edge id=":1110673561_1" sampledSeconds="5186.47" CO_abs="486979.696223" CO2_abs="33744872.131088" HC_abs="3033.669696" PMx_abs="705.052384" NOx_abs="14425.381643" fuel_abs="14505.291104" electricity_abs="0"
            CO_normed="10146.347466" CO2_normed="703083.106935" HC_normed="63.207290" PMx_normed="14.689948" NOx_normed="300.556544" fuel_normed="302.221478" electricity_normed="0"
            traveltime="1.19" CO_perVeh="111.895375" CO2_perVeh="7753.701323" HC_perVeh="0.697059" PMx_perVeh="0.162003" NOx_perVeh="3.314581" fuel_perVeh="3.332942" electricity_perVeh="0"/>
        <edge id=":1110673562_0" sampledSeconds="302.46" CO_abs="6534.111177" CO2_abs="497718.084063" HC_abs="41.094820" PMx_abs="6.733864" NOx_abs="190.167925" fuel_abs="213.949905" electricity_abs="0"
            CO_normed="8652.446356" CO2_normed="659076.484342" HC_normed="54.417612" PMx_normed="8.916959" NOx_normed="251.819678" fuel_normed="283.311689" electricity_normed="0"
            traveltime="0.03" CO_perVeh="0.585727" CO2_perVeh="44.616163" HC_perVeh="0.003684" PMx_perVeh="0.000604" NOx_perVeh="0.017047" fuel_perVeh="0.019179" electricity_perVeh="0"/>
        <edge id=":1110673564_0" sampledSeconds="27.71" CO_abs="516.511161" CO2_abs="58314.162841" HC_abs="3.695180" PMx_abs="0.841107" NOx_abs="22.114092" fuel_abs="25.066778" electricity_abs="0"
            CO_normed="1846.697964" CO2_normed="208492.388747" HC_normed="13.211489" PMx_normed="3.007237" NOx_normed="79.065181" fuel_normed="89.622011" electricity_normed="0"
            traveltime="7.827162e-03" CO_perVeh="0.145889" CO2_perVeh="16.470832" HC_perVeh="0.001044" PMx_perVeh="0.000238" NOx_perVeh="0.006246" fuel_perVeh="0.007080" electricity_perVeh="0"/>
        <edge id=":1110673588_0" sampledSeconds="62.59" CO_abs="1081.440375" CO2_abs="117086.772707" HC_abs="7.621440" PMx_abs="1.644234" NOx_abs="44.320063" fuel_abs="50.330711" electricity_abs="0"
            CO_normed="1546.602583" CO2_normed="167449.550798" HC_normed="10.899666" PMx_normed="2.351472" NOx_normed="63.383544" fuel_normed="71.979565" electricity_normed="0"
            traveltime="0.02" CO_perVeh="0.348852" CO2_perVeh="37.769927" HC_perVeh="0.002459" PMx_perVeh="0.000530" NOx_perVeh="0.014297" fuel_perVeh="0.016236" electricity_perVeh="0"/>
        <edge id=":1110673601_0" sampledSeconds="28.92" CO_abs="548.639832" CO2_abs="58258.340386" HC_abs="3.837248" PMx_abs="0.839990" NOx_abs="22.187672" fuel_abs="25.042801" electricity_abs="0"
            CO_normed="700.560205" CO2_normed="74390.287512" HC_normed="4.899795" PMx_normed="1.072586" NOx_normed="28.331519" fuel_normed="31.977244" electricity_normed="0"
            traveltime="0.02" CO_perVeh="0.418364" CO2_perVeh="44.424781" HC_perVeh="0.002926" PMx_perVeh="0.000641" NOx_perVeh="0.016919" fuel_perVeh="0.019096" electricity_perVeh="0"/>
        <edge id=":1110673617_0" sampledSeconds="858.83" CO_abs="34116.218549" CO2_abs="3402150.770844" HC_abs="236.976379" PMx_abs="64.539487" NOx_abs="1337.822675" fuel_abs="1462.425071" electricity_abs="0"
            CO_normed="40658.915740" CO2_normed="4054604.156334" HC_normed="282.422936" PMx_normed="76.916659" NOx_normed="1594.385947" fuel_normed="1742.884184" electricity_normed="0"
            traveltime="0.02" CO_perVeh="0.600459" CO2_perVeh="59.879209" HC_perVeh="0.004171" PMx_perVeh="0.001136" NOx_perVeh="0.023546" fuel_perVeh="0.025739" electricity_perVeh="0"/>
        <edge id=":1110673621_0" sampledSeconds="26.22" CO_abs="613.148191" CO2_abs="62507.857818" HC_abs="4.238698" PMx_abs="0.950089" NOx_abs="24.138037" fuel_abs="26.869434" electricity_abs="0"
            CO_normed="876.882904" CO2_normed="89394.493255" HC_normed="6.061898" PMx_normed="1.358753" NOx_normed="34.520582" fuel_normed="38.426840" electricity_normed="0"
            traveltime="0.02" CO_perVeh="0.464506" CO2_perVeh="47.354438" HC_perVeh="0.003211" PMx_perVeh="0.000720" NOx_perVeh="0.018286" fuel_perVeh="0.020356" electricity_perVeh="0"/>
        <edge id=":1110673630_0" sampledSeconds="286.49" CO_abs="1394.186395" CO2_abs="120170.145598" HC_abs="9.096510" PMx_abs="1.626179" NOx_abs="45.650041" fuel_abs="51.656404" electricity_abs="0"
            CO_normed="35.554042" CO2_normed="3064.536043" HC_normed="0.231976" PMx_normed="0.041470" NOx_normed="1.164151" fuel_normed="1.317323" electricity_normed="0"
            traveltime="1.29" CO_perVeh="6.273306" CO2_perVeh="540.719760" HC_perVeh="0.040931" PMx_perVeh="0.007317" NOx_perVeh="0.205408" fuel_perVeh="0.232434" electricity_perVeh="0"/>
        <edge id=":1110673630_1" sampledSeconds="337.26" CO_abs="1332.855578" CO2_abs="109009.932277" HC_abs="8.553949" PMx_abs="1.458482" NOx_abs="41.433871" fuel_abs="46.859139" electricity_abs="0"
            CO_normed="41.438251" CO2_normed="3389.100046" HC_normed="0.265941" PMx_normed="0.045344" NOx_normed="1.288172" fuel_normed="1.456843" electricity_normed="0"
            traveltime="1.08" CO_perVeh="4.248881" CO2_perVeh="347.502210" HC_perVeh="0.027268" PMx_perVeh="0.004649" NOx_perVeh="0.132083" fuel_perVeh="0.149378" electricity_perVeh="0"/>
        <edge id=":1110673650_0" sampledSeconds="208.45" CO_abs="3430.014282" CO2_abs="422637.734752" HC_abs="25.285678" PMx_abs="5.831249" NOx_abs="158.181332" fuel_abs="181.674157" electricity_abs="0"
            CO_normed="4087.811241" CO2_normed="503689.821932" HC_normed="30.134883" PMx_normed="6.949547" NOx_normed="188.516833" fuel_normed="216.515035" electricity_normed="0"
            traveltime="0.02" CO_perVeh="0.381580" CO2_perVeh="47.017322" HC_perVeh="0.002813" PMx_perVeh="0.000649" NOx_perVeh="0.017597" fuel_perVeh="0.020211" electricity_perVeh="0"/>
        <edge id=":1110673655_0" sampledSeconds="20.69" CO_abs="376.449382" CO2_abs="44543.444761" HC_abs="2.741130" PMx_abs="0.604501" NOx_abs="16.656831" fuel_abs="19.147375" electricity_abs="0"
            CO_normed="448.643617" CO2_normed="53085.841408" HC_normed="3.266816" PMx_normed="0.720431" NOx_normed="19.851223" fuel_normed="22.819397" electricity_normed="0"
            traveltime="0.02" CO_perVeh="0.430064" CO2_perVeh="50.887408" HC_perVeh="0.003132" PMx_perVeh="0.000691" NOx_perVeh="0.019029" fuel_perVeh="0.021874" electricity_perVeh="0"/>
        <edge id=":1110673663_0" sampledSeconds="111.82" CO_abs="2084.589438" CO2_abs="233634.488191" HC_abs="14.828398" PMx_abs="3.213027" NOx_abs="87.825657" fuel_abs="100.429755" electricity_abs="0"
            CO_normed="45.501194" CO2_normed="5099.636425" HC_normed="0.323666" PMx_normed="0.070132" NOx_normed="1.917007" fuel_normed="2.192122" electricity_normed="0"
            traveltime="1.31" CO_perVeh="24.484486" CO2_perVeh="2744.147282" HC_perVeh="0.174167" PMx_perVeh="0.037739" NOx_perVeh="1.031554" fuel_perVeh="1.179595" electricity_perVeh="0"/>
        <edge id=":1110673663_1" sampledSeconds="170.82" CO_abs="2560.538815" CO2_abs="320276.697379" HC_abs="18.919561" PMx_abs="4.257931" NOx_abs="118.911621" fuel_abs="137.673657" electricity_abs="0"
            CO_normed="55.958263" CO2_normed="6999.357918" HC_normed="0.413470" PMx_normed="0.093053" NOx_normed="2.598706" fuel_normed="3.008733" electricity_normed="0"
            traveltime="1.28" CO_perVeh="19.116365" CO2_perVeh="2391.108496" HC_perVeh="0.141249" PMx_perVeh="0.031789" NOx_perVeh="0.887765" fuel_perVeh="1.027838" electricity_perVeh="0"/>