<?xml version="1.0" encoding="UTF-8"?>

<!-- generated on Mon Nov  9 22:13:00 2020 by Eclipse SUMO sumo Version 1.7.0
<configuration xmlns:xsi="http://www.w3.org/2001/XMLSchema-instance" xsi:noNamespaceSchemaLocation="http://sumo.dlr.de/xsd/sumoConfiguration.xsd">

    <input>
        <net-file value="../dataSets/Porto/6AM7AM_Routing_SaoBento/Porto.net.xml"/>
        <route-files value="../results/Porto/6AM7AM_Routing_SaoBento/cost_hc-ttime/solution4/Porto.rou.xml"/>
        <additional-files value="moreOutputInfo.xml"/>
    </input>

    <output>
        <emission-output.precision value="6"/>
        <tripinfo-output value="../results/Porto/6AM7AM_Routing_SaoBento/cost_hc-ttime/solution4/Porto-tripinfo"/>
    </output>

    <processing>
        <collision.action value="warn"/>
        <time-to-teleport value="-1"/>
    </processing>

    <emissions>
        <device.emissions.probability value="1"/>
    </emissions>

    <gui_only>
        <quit-on-end value="true"/>
        <start value="true"/>
    </gui_only>

</configuration>
-->

<meandata xmlns:xsi="http://www.w3.org/2001/XMLSchema-instance" xsi:noNamespaceSchemaLocation="http://sumo.dlr.de/xsd/meandata_file.xsd">
    <interval begin="0.00" end="4700.00" id="emissions-detector">
        <edge id=":1092997347_0" sampledSeconds="271.63" CO_abs="34919.862471" CO2_abs="1369971.554464" HC_abs="191.373908" PMx_abs="27.996194" NOx_abs="595.109877" fuel_abs="588.897136" electricity_abs="0"
            CO_normed="60788.928866" CO2_normed="2384863.441039" HC_normed="333.146069" PMx_normed="48.736121" NOx_normed="1035.974641" fuel_normed="1025.159425" electricity_normed="0"
            traveltime="0.08" CO_perVeh="9.816742" CO2_perVeh="385.129164" HC_perVeh="0.053799" PMx_perVeh="0.007870" NOx_perVeh="0.167298" fuel_perVeh="0.165552" electricity_perVeh="0"/>
        <edge id=":1103427051_0" sampledSeconds="11.01" CO_abs="939.678087" CO2_abs="52759.632896" HC_abs="5.532769" PMx_abs="1.042983" NOx_abs="22.567739" fuel_abs="22.679021" electricity_abs="0"
            CO_normed="2481.908373" CO2_normed="139350.461061" HC_normed="14.613329" PMx_normed="2.754762" NOx_normed="59.606648" fuel_normed="59.900568" electricity_normed="0"
            traveltime="0.03" CO_perVeh="2.574704" CO2_perVeh="144.560597" HC_perVeh="0.015160" PMx_perVeh="0.002858" NOx_perVeh="0.061835" fuel_perVeh="0.062140" electricity_perVeh="0"/>
        <edge id=":1105984386_0" sampledSeconds="23.19" CO_abs="424.503120" CO2_abs="36298.766897" HC_abs="2.746752" PMx_abs="0.409905" NOx_abs="13.298435" fuel_abs="15.603531" electricity_abs="0"
            CO_normed="33.486233" CO2_normed="2863.368776" HC_normed="0.216673" PMx_normed="0.032335" NOx_normed="1.049025" fuel_normed="1.230859" electricity_normed="0"
            traveltime="0.97" CO_perVeh="17.816067" CO2_perVeh="1523.431131" HC_perVeh="0.115279" PMx_perVeh="0.017203" NOx_perVeh="0.558125" fuel_perVeh="0.654868" electricity_perVeh="0"/>
        <edge id=":1105984390_0" sampledSeconds="23.86" CO_abs="49.023789" CO2_abs="3176.430874" HC_abs="0.296567" PMx_abs="0.049833" NOx_abs="1.267539" fuel_abs="1.365421" electricity_abs="0"
            CO_normed="2.989661" CO2_normed="193.711057" HC_normed="0.018086" PMx_normed="0.003039" NOx_normed="0.077299" fuel_normed="0.083269" electricity_normed="0"
            traveltime="1.08" CO_perVeh="2.223205" CO2_perVeh="144.049580" HC_perVeh="0.013449" PMx_perVeh="0.002260" NOx_perVeh="0.057482" fuel_perVeh="0.061921" electricity_perVeh="0"/>
        <edge id=":1105984390_1" sampledSeconds="645.66" CO_abs="14608.690561" CO2_abs="1914102.257654" HC_abs="112.213810" PMx_abs="33.738728" NOx_abs="715.586262" fuel_abs="822.784902" electricity_abs="0"
            CO_normed="852.218989" CO2_normed="111661.909993" HC_normed="6.546154" PMx_normed="1.968197" NOx_normed="41.744754" fuel_normed="47.998341" electricity_normed="0"
            traveltime="0.64" CO_perVeh="14.382774" CO2_perVeh="1884.501522" HC_perVeh="0.110478" PMx_perVeh="0.033217" NOx_perVeh="0.704520" fuel_perVeh="0.810061" electricity_perVeh="0"/>
        <edge id=":1105984395_0" sampledSeconds="9.03" CO_abs="149.447278" CO2_abs="12849.485815" HC_abs="0.966063" PMx_abs="0.132005" NOx_abs="4.623839" fuel_abs="5.523550" electricity_abs="0"
            CO_normed="124.424191" CO2_normed="10697.999291" HC_normed="0.804308" PMx_normed="0.109902" NOx_normed="3.849634" fuel_normed="4.598700" electricity_normed="0"
            traveltime="0.09" CO_perVeh="1.515559" CO2_perVeh="130.307837" HC_perVeh="0.009797" PMx_perVeh="0.001339" NOx_perVeh="0.046891" fuel_perVeh="0.056015" electricity_perVeh="0"/>
        <edge id=":1105984398_0" sampledSeconds="23.22" CO_abs="1542.294454" CO2_abs="108929.708697" HC_abs="9.583639" PMx_abs="1.906884" NOx_abs="44.521993" fuel_abs="46.824125" electricity_abs="0"
            CO_normed="97.711491" CO2_normed="6901.201121" HC_normed="0.607168" PMx_normed="0.120810" NOx_normed="2.820674" fuel_normed="2.966525" electricity_normed="0"
            traveltime="1.10" CO_perVeh="72.980009" CO2_perVeh="5154.457419" HC_perVeh="0.453489" PMx_perVeh="0.090232" NOx_perVeh="2.106741" fuel_perVeh="2.215676" electricity_perVeh="0"/>
        <edge id=":1105984398_1" sampledSeconds="451.70" CO_abs="8757.850973" CO2_abs="981776.693115" HC_abs="62.425060" PMx_abs="14.400705" NOx_abs="373.911080" fuel_abs="422.023705" electricity_abs="0"
            CO_normed="537.080958" CO2_normed="60208.100016" HC_normed="3.828258" PMx_normed="0.883133" NOx_normed="22.930342" fuel_normed="25.880881" electricity_normed="0"
            traveltime="0.95" CO_perVeh="18.495190" CO2_perVeh="2073.356373" HC_perVeh="0.131832" PMx_perVeh="0.030412" NOx_perVeh="0.789641" fuel_perVeh="0.891247" electricity_perVeh="0"/>
        <edge id=":1106006327_0" sampledSeconds="289.79" CO_abs="39112.075831" CO2_abs="1267777.729023" HC_abs="207.934383" PMx_abs="26.450801" NOx_abs="554.967143" fuel_abs="544.972921" electricity_abs="0"
            CO_normed="3381.285073" CO2_normed="109600.879508" HC_normed="17.976173" PMx_normed="2.286703" NOx_normed="47.977564" fuel_normed="47.113552" electricity_normed="0"
            traveltime="2.10" CO_perVeh="282.907169" CO2_perVeh="9170.145056" HC_perVeh="1.504040" PMx_perVeh="0.191325" NOx_perVeh="4.014212" fuel_perVeh="3.941922" electricity_perVeh="0"/>
        <edge id=":1106006327_1" sampledSeconds="160.76" CO_abs="21717.426132" CO2_abs="727218.488174" HC_abs="116.025893" PMx_abs="15.159192" NOx_abs="318.191696" fuel_abs="312.604986" electricity_abs="0"
            CO_normed="1637.266168" CO2_normed="54824.647291" HC_normed="8.747136" PMx_normed="1.142844" NOx_normed="23.988317" fuel_normed="23.567137" electricity_normed="0"
            traveltime="2.28" CO_perVeh="308.306854" CO2_perVeh="10323.803711" HC_perVeh="1.647137" PMx_perVeh="0.215204" NOx_perVeh="4.517141" fuel_perVeh="4.437831" electricity_perVeh="0"/>
        <edge id=":1106006327_2" sampledSeconds="0.00" CO_abs="0" CO2_abs="0" HC_abs="0" PMx_abs="0" NOx_abs="0" fuel_abs="0" electricity_abs="0"
            CO_normed="0" CO2_normed="0" HC_normed="0" PMx_normed="0" NOx_normed="0" fuel_normed="0" electricity_normed="0"/>
        <edge id=":1106006327_3" sampledSeconds="0.00" CO_abs="0" CO2_abs="0" HC_abs="0" PMx_abs="0" NOx_abs="0" fuel_abs="0" electricity_abs="0"
            CO_normed="0" CO2_normed="0" HC_normed="0" PMx_normed="0" NOx_normed="0" fuel_normed="0" electricity_normed="0"/>
        <edge id=":1107381198_0" sampledSeconds="0.00" CO_abs="0" CO2_abs="0" HC_abs="0" PMx_abs="0" NOx_abs="0" fuel_abs="0" electricity_abs="0"
            CO_normed="0" CO2_normed="0" HC_normed="0" PMx_normed="0" NOx_normed="0" fuel_normed="0" electricity_normed="0"/>
        <edge id=":1107381198_1" sampledSeconds="36.10" CO_abs="1603.118945" CO2_abs="66078.535959" HC_abs="8.825474" PMx_abs="1.154717" NOx_abs="27.453853" fuel_abs="28.404804" electricity_abs="0"
            CO_normed="133.906313" CO2_normed="5519.448930" HC_normed="0.737180" PMx_normed="0.096452" NOx_normed="2.293182" fuel_normed="2.372614" electricity_normed="0"
            traveltime="1.49" CO_perVeh="66.004852" CO2_perVeh="2720.636560" HC_perVeh="0.363369" PMx_perVeh="0.047543" NOx_perVeh="1.130351" fuel_perVeh="1.169505" electricity_perVeh="0"/>
        <edge id=":1110338277_0" sampledSeconds="96.83" CO_abs="1417.062540" CO2_abs="178208.243405" HC_abs="10.479179" PMx_abs="2.353304" NOx_abs="66.052781" fuel_abs="76.604343" electricity_abs="0"
            CO_normed="3876.462875" CO2_normed="487499.753994" HC_normed="28.666448" PMx_normed="6.437609" NOx_normed="180.691497" fuel_normed="209.555954" electricity_normed="0"
            traveltime="0.02" CO_perVeh="0.319361" CO2_perVeh="40.162513" HC_perVeh="0.002362" PMx_perVeh="0.000530" NOx_perVeh="0.014886" fuel_perVeh="0.017264" electricity_perVeh="0"/>
        <edge id=":1110338293_0" sampledSeconds="122.97" CO_abs="6668.023256" CO2_abs="460379.252815" HC_abs="41.187132" PMx_abs="8.106407" NOx_abs="188.627874" fuel_abs="197.896977" electricity_abs="0"
            CO_normed="17024.740228" CO2_normed="1175436.390165" HC_normed="105.158634" PMx_normed="20.697210" NOx_normed="481.603082" fuel_normed="505.268878" electricity_normed="0"
            traveltime="0.03" CO_perVeh="1.529425" CO2_perVeh="105.595828" HC_perVeh="0.009447" PMx_perVeh="0.001859" NOx_perVeh="0.043265" fuel_perVeh="0.045391" electricity_perVeh="0"/>
        <edge id=":1110338295_0" sampledSeconds="0.00" CO_abs="0" CO2_abs="0" HC_abs="0" PMx_abs="0" NOx_abs="0" fuel_abs="0" electricity_abs="0"
            CO_normed="0" CO2_normed="0" HC_normed="0" PMx_normed="0" NOx_normed="0" fuel_normed="0" electricity_normed="0"/>
        <edge id=":1110673403_0" sampledSeconds="143.73" CO_abs="2014.333570" CO2_abs="269288.968501" HC_abs="15.312483" PMx_abs="3.518798" NOx_abs="99.337606" fuel_abs="115.756158" electricity_abs="0"
            CO_normed="5142.979329" CO2_normed="687546.302556" HC_normed="39.095701" PMx_normed="8.984164" NOx_normed="253.627931" fuel_normed="295.547636" electricity_normed="0"
            traveltime="0.02" CO_perVeh="0.323415" CO2_perVeh="43.236120" HC_perVeh="0.002459" PMx_perVeh="0.000565" NOx_perVeh="0.015949" fuel_perVeh="0.018585" electricity_perVeh="0"/>
        <edge id=":1110673412_0" sampledSeconds="251.79" CO_abs="45628.074224" CO2_abs="3094649.120008" HC_abs="283.533461" PMx_abs="68.227341" NOx_abs="1331.748204" fuel_abs="1330.237092" electricity_abs="0"
            CO_normed="120514.355984" CO2_normed="8173688.064585" HC_normed="748.877812" PMx_normed="180.204275" NOx_normed="3517.456738" fuel_normed="3513.465541" electricity_normed="0"
            traveltime="0.02" CO_perVeh="2.807945" CO2_perVeh="190.444268" HC_perVeh="0.017449" PMx_perVeh="0.004199" NOx_perVeh="0.081956" fuel_perVeh="0.081863" electricity_perVeh="0"/>
        <edge id=":1110673414_0" sampledSeconds="0.00" CO_abs="0" CO2_abs="0" HC_abs="0" PMx_abs="0" NOx_abs="0" fuel_abs="0" electricity_abs="0"
            CO_normed="0" CO2_normed="0" HC_normed="0" PMx_normed="0" NOx_normed="0" fuel_normed="0" electricity_normed="0"/>
        <edge id=":1110673414_1" sampledSeconds="135.38" CO_abs="8488.688747" CO2_abs="318951.701446" HC_abs="46.053941" PMx_abs="5.890749" NOx_abs="134.678410" fuel_abs="137.106096" electricity_abs="0"
            CO_normed="720.041457" CO2_normed="27054.643510" HC_normed="3.906463" PMx_normed="0.499675" NOx_normed="11.423913" fuel_normed="11.629838" electricity_normed="0"
            traveltime="1.61" CO_perVeh="101.138487" CO2_perVeh="3800.150236" HC_perVeh="0.548710" PMx_perVeh="0.070185" NOx_perVeh="1.604626" fuel_perVeh="1.633551" electricity_perVeh="0"/>
        <edge id=":1110673417_0" sampledSeconds="30.02" CO_abs="498.436328" CO2_abs="52774.323104" HC_abs="3.464212" PMx_abs="0.761166" NOx_abs="20.104103" fuel_abs="22.685451" electricity_abs="0"
            CO_normed="1363.503632" CO2_normed="144367.449219" HC_normed="9.476567" PMx_normed="2.082217" NOx_normed="54.996026" fuel_normed="62.057463" electricity_normed="0"
            traveltime="0.02" CO_perVeh="0.369946" CO2_perVeh="39.169809" HC_perVeh="0.002571" PMx_perVeh="0.000565" NOx_perVeh="0.014922" fuel_perVeh="0.016837" electricity_perVeh="0"/>
        <edge id=":1110673446_0" sampledSeconds="333.45" CO_abs="2996.302105" CO2_abs="247243.523717" HC_abs="19.488348" PMx_abs="4.481530" NOx_abs="100.714247" fuel_abs="106.278661" electricity_abs="0"
            CO_normed="7650.133034" CO2_normed="631260.060554" HC_normed="49.757484" PMx_normed="11.442203" NOx_normed="257.142759" fuel_normed="271.349773" electricity_normed="0"
            traveltime="0.02" CO_perVeh="0.204571" CO2_perVeh="16.880385" HC_perVeh="0.001331" PMx_perVeh="0.000306" NOx_perVeh="0.006876" fuel_perVeh="0.007256" electricity_perVeh="0"/>
        <edge id=":1110673451_0" sampledSeconds="38.11" CO_abs="319.539827" CO2_abs="23008.895797" HC_abs="1.976815" PMx_abs="0.302690" NOx_abs="8.757392" fuel_abs="9.890667" electricity_abs="0"
            CO_normed="906.495963" CO2_normed="65273.463253" HC_normed="5.607985" PMx_normed="0.858694" NOx_normed="24.843665" fuel_normed="28.058630" electricity_normed="0"
            traveltime="0.03" CO_perVeh="0.229152" CO2_perVeh="16.500403" HC_perVeh="0.001418" PMx_perVeh="0.000217" NOx_perVeh="0.006280" fuel_perVeh="0.007093" electricity_perVeh="0"/>
        <edge id=":1110673464_0" sampledSeconds="324.78" CO_abs="601.013122" CO2_abs="46904.299280" HC_abs="3.803924" PMx_abs="0.622862" NOx_abs="17.832767" fuel_abs="20.162365" electricity_abs="0"
            CO_normed="32.602725" CO2_normed="2544.383663" HC_normed="0.206349" PMx_normed="0.033788" NOx_normed="0.967361" fuel_normed="1.093733" electricity_normed="0"
            traveltime="1.17" CO_perVeh="2.172583" CO2_perVeh="169.552854" HC_perVeh="0.013751" PMx_perVeh="0.002252" NOx_perVeh="0.064463" fuel_perVeh="0.072884" electricity_perVeh="0"/>
        <edge id=":1110673464_1" sampledSeconds="708.78" CO_abs="16839.052393" CO2_abs="2174728.367389" HC_abs="128.809176" PMx_abs="38.542547" NOx_abs="814.677317" fuel_abs="934.816021" electricity_abs="0"
            CO_normed="895.072698" CO2_normed="115596.765287" HC_normed="6.846797" PMx_normed="2.048713" NOx_normed="43.303828" fuel_normed="49.689750" electricity_normed="0"
            traveltime="0.70" CO_perVeh="16.607909" CO2_perVeh="2144.876702" HC_perVeh="0.127041" PMx_perVeh="0.038013" NOx_perVeh="0.803495" fuel_perVeh="0.921984" electricity_perVeh="0"/>
        <edge id=":1110673479_0" sampledSeconds="133.45" CO_abs="6911.649343" CO2_abs="475010.841866" HC_abs="42.642134" PMx_abs="8.377221" NOx_abs="194.759601" fuel_abs="204.186461" electricity_abs="0"
            CO_normed="17646.764279" CO2_normed="1212793.638808" HC_normed="108.873535" PMx_normed="21.388649" NOx_normed="497.258557" fuel_normed="521.327135" electricity_normed="0"
            traveltime="0.03" CO_perVeh="1.456014" CO2_perVeh="100.066190" HC_perVeh="0.008983" PMx_perVeh="0.001765" NOx_perVeh="0.041028" fuel_perVeh="0.043014" electricity_perVeh="0"/>
        <edge id=":1110673511_0" sampledSeconds="11.80" CO_abs="198.311553" CO2_abs="21291.108649" HC_abs="1.386945" PMx_abs="0.307411" NOx_abs="8.097348" fuel_abs="9.152147" electricity_abs="0"
            CO_normed="506.327370" CO2_normed="54360.277402" HC_normed="3.541136" PMx_normed="0.784879" NOx_normed="20.674081" fuel_normed="23.367183" electricity_normed="0"
            traveltime="0.02" CO_perVeh="0.392696" CO2_perVeh="42.160611" HC_perVeh="0.002746" PMx_perVeh="0.000609" NOx_perVeh="0.016034" fuel_perVeh="0.018123" electricity_perVeh="0"/>
        <edge id=":1110673517_0" sampledSeconds="17.36" CO_abs="564.595827" CO2_abs="41775.784622" HC_abs="3.542848" PMx_abs="0.671771" NOx_abs="16.654922" fuel_abs="17.957657" electricity_abs="0"
            CO_normed="1441.521261" CO2_normed="106661.577759" HC_normed="9.045569" PMx_normed="1.715159" NOx_normed="42.523205" fuel_normed="45.849338" electricity_normed="0"
            traveltime="0.03" CO_perVeh="0.906496" CO2_perVeh="67.073778" HC_perVeh="0.005688" PMx_perVeh="0.001079" NOx_perVeh="0.026741" fuel_perVeh="0.028832" electricity_perVeh="0"/>
        <edge id=":1110673534_0" sampledSeconds="476.58" CO_abs="3550.317155" CO2_abs="289166.888735" HC_abs="22.810482" PMx_abs="4.130168" NOx_abs="111.550920" fuel_abs="124.301241" electricity_abs="0"
            CO_normed="175.671309" CO2_normed="14308.109289" HC_normed="1.128673" PMx_normed="0.204363" NOx_normed="5.519590" fuel_normed="6.150482" electricity_normed="0"
            traveltime="1.44" CO_perVeh="10.695692" CO2_perVeh="871.144682" HC_perVeh="0.068719" PMx_perVeh="0.012443" NOx_perVeh="0.336059" fuel_perVeh="0.374470" electricity_perVeh="0"/>
        <edge id=":1110673534_1" sampledSeconds="184.27" CO_abs="2811.932480" CO2_abs="357916.575727" HC_abs="20.993311" PMx_abs="4.772336" NOx_abs="132.836608" fuel_abs="153.853443" electricity_abs="0"
            CO_normed="135.290240" CO2_normed="17220.406188" HC_normed="1.010049" PMx_normed="0.229611" NOx_normed="6.391155" fuel_normed="7.402336" electricity_normed="0"
            traveltime="1.22" CO_perVeh="18.670222" CO2_perVeh="2376.437568" HC_perVeh="0.139388" PMx_perVeh="0.031687" NOx_perVeh="0.881987" fuel_perVeh="1.021532" electricity_perVeh="0"/>
        <edge id=":1110673549_0" sampledSeconds="61.10" CO_abs="53.000870" CO2_abs="5580.064839" HC_abs="0.367685" PMx_abs="0.065920" NOx_abs="2.042523" fuel_abs="2.398656" electricity_abs="0"
            CO_normed="2.540451" CO2_normed="267.465095" HC_normed="0.017624" PMx_normed="0.003160" NOx_normed="0.097903" fuel_normed="0.114973" electricity_normed="0"
            traveltime="1.27" CO_perVeh="1.104228" CO2_perVeh="116.255898" HC_perVeh="0.007660" PMx_perVeh="0.001373" NOx_perVeh="0.042554" fuel_perVeh="0.049974" electricity_perVeh="0"/>
        <edge id=":1110673549_1" sampledSeconds="639.00" CO_abs="14641.895603" CO2_abs="1918371.490484" HC_abs="112.505942" PMx_abs="33.786682" NOx_abs="717.048977" fuel_abs="824.620096" electricity_abs="0"
            CO_normed="678.878267" CO2_normed="88946.182136" HC_normed="5.216390" PMx_normed="1.566535" NOx_normed="33.246308" fuel_normed="38.233892" electricity_normed="0"
            traveltime="0.80" CO_perVeh="18.435899" CO2_perVeh="2415.459339" HC_perVeh="0.141658" PMx_perVeh="0.042541" NOx_perVeh="0.902850" fuel_perVeh="1.038295" electricity_perVeh="0"/>
        <edge id=":1110673556_0" sampledSeconds="424.83" CO_abs="51724.419759" CO2_abs="2569155.328580" HC_abs="296.550753" PMx_abs="51.629992" NOx_abs="1105.550244" fuel_abs="1104.369354" electricity_abs="0"
            CO_normed="1838.454965" CO2_normed="91316.178930" HC_normed="10.540383" PMx_normed="1.835099" NOx_normed="39.294870" fuel_normed="39.252897" electricity_normed="0"
            traveltime="2.64" CO_perVeh="321.079976" CO2_perVeh="15948.063524" HC_perVeh="1.840842" PMx_perVeh="0.320494" NOx_perVeh="6.862717" fuel_perVeh="6.855386" electricity_perVeh="0"/>
        <edge id=":1110673556_2" sampledSeconds="246.00" CO_abs="23199.987998" CO2_abs="1005406.319295" HC_abs="129.230568" PMx_abs="19.265720" NOx_abs="427.880372" fuel_abs="432.184755" electricity_abs="0"
            CO_normed="862.212692" CO2_normed="37365.281773" HC_normed="4.802771" PMx_normed="0.715998" NOx_normed="15.901900" fuel_normed="16.061870" electricity_normed="0"
            traveltime="2.98" CO_perVeh="281.411409" CO2_perVeh="12195.385988" HC_perVeh="1.567542" PMx_perVeh="0.233689" NOx_perVeh="5.190107" fuel_perVeh="5.242318" electricity_perVeh="0"/>
        <edge id=":1110673556_3" sampledSeconds="415.91" CO_abs="35277.728624" CO2_abs="1242923.024463" HC_abs="189.524434" PMx_abs="23.579104" NOx_abs="529.221746" fuel_abs="534.289695" electricity_abs="0"
            CO_normed="2982.476705" CO2_normed="105080.148609" HC_normed="16.022920" PMx_normed="1.993443" NOx_normed="44.741869" fuel_normed="45.170328" electricity_normed="0"
            traveltime="1.75" CO_perVeh="148.357852" CO2_perVeh="5227.019905" HC_perVeh="0.797031" PMx_perVeh="0.099160" NOx_perVeh="2.225603" fuel_perVeh="2.246915" electricity_perVeh="0"/>
        <edge id=":1110673556_4" sampledSeconds="197.91" CO_abs="20639.981909" CO2_abs="835632.856936" HC_abs="113.617996" PMx_abs="16.413750" NOx_abs="358.759984" fuel_abs="359.206293" electricity_abs="0"
            CO_normed="1066.038290" CO2_normed="43159.757894" HC_normed="5.868277" PMx_normed="0.847757" NOx_normed="18.529662" fuel_normed="18.552713" electricity_normed="0"
            traveltime="2.38" CO_perVeh="248.140256" CO2_perVeh="10046.237064" HC_perVeh="1.365951" PMx_perVeh="0.197331" NOx_perVeh="4.313124" fuel_perVeh="4.318489" electricity_perVeh="0"/>
        <edge id=":1110673556_5" sampledSeconds="23.51" CO_abs="1658.882204" CO2_abs="71277.606994" HC_abs="9.216188" PMx_abs="1.319115" NOx_abs="30.061772" fuel_abs="30.639529" electricity_abs="0"
            CO_normed="119.420411" CO2_normed="5131.166717" HC_normed="0.663459" PMx_normed="0.094961" NOx_normed="2.164101" fuel_normed="2.205693" electricity_normed="0"
            traveltime="1.63" CO_perVeh="114.688152" CO2_perVeh="4927.834558" HC_perVeh="0.637169" PMx_perVeh="0.091198" NOx_perVeh="2.078345" fuel_perVeh="2.118288" electricity_perVeh="0"/>
        <edge id=":1110673556_6" sampledSeconds="307.18" CO_abs="36210.555235" CO2_abs="1863774.104744" HC_abs="209.205698" PMx_abs="37.432444" NOx_abs="800.814822" fuel_abs="801.155331" electricity_abs="0"
            CO_normed="1319.493075" CO2_normed="67914.921727" HC_normed="7.623343" PMx_normed="1.364018" NOx_normed="29.181260" fuel_normed="29.193668" electricity_normed="0"
            traveltime="2.43" CO_perVeh="286.759405" CO2_perVeh="14759.639836" HC_perVeh="1.656746" PMx_perVeh="0.296436" NOx_perVeh="6.341830" fuel_perVeh="6.344526" electricity_perVeh="0"/>
        <edge id=":1110673561_0" sampledSeconds="101.39" CO_abs="9961.026705" CO2_abs="714863.521099" HC_abs="62.533132" PMx_abs="14.451839" NOx_abs="302.208039" fuel_abs="307.285765" electricity_abs="0"
            CO_normed="456.050364" CO2_normed="32728.932303" HC_normed="2.862984" PMx_normed="0.661655" NOx_normed="13.836133" fuel_normed="14.068608" electricity_normed="0"
            traveltime="1.20" CO_perVeh="117.549783" CO2_perVeh="8436.083395" HC_perVeh="0.737952" PMx_perVeh="0.170546" NOx_perVeh="3.566348" fuel_perVeh="3.626270" electricity_perVeh="0"/>
        <edge id=":1110673561_1" sampledSeconds="1314.42" CO_abs="122632.760850" CO2_abs="8498275.707800" HC_abs="764.034126" PMx_abs="177.728667" NOx_abs="3633.663749" fuel_abs="3652.998147" electricity_abs="0"
            CO_normed="5473.862261" CO2_normed="379330.860339" HC_normed="34.103591" PMx_normed="7.933135" NOx_normed="162.192996" fuel_normed="163.056010" electricity_normed="0"
            traveltime="1.19" CO_perVeh="111.058637" CO2_perVeh="7696.205424" HC_perVeh="0.691924" PMx_perVeh="0.160955" NOx_perVeh="3.290717" fuel_perVeh="3.308227" electricity_perVeh="0"/>
        <edge id=":1110673562_0" sampledSeconds="104.14" CO_abs="2170.202886" CO2_abs="176042.420543" HC_abs="13.882788" PMx_abs="2.291080" NOx_abs="66.518094" fuel_abs="75.673916" electricity_abs="0"
            CO_normed="6156.603932" CO2_normed="499411.122108" HC_normed="39.383796" PMx_normed="6.499518" NOx_normed="188.703814" fuel_normed="214.677775" electricity_normed="0"
            traveltime="0.03" CO_perVeh="0.553199" CO2_perVeh="44.874349" HC_perVeh="0.003539" PMx_perVeh="0.000584" NOx_perVeh="0.016956" fuel_perVeh="0.019290" electricity_perVeh="0"/>
        <edge id=":1110673564_0" sampledSeconds="28.95" CO_abs="456.257781" CO2_abs="54525.585880" HC_abs="3.327395" PMx_abs="0.733507" NOx_abs="20.351510" fuel_abs="23.438287" electricity_abs="0"
            CO_normed="3494.740450" CO2_normed="417642.785466" HC_normed="25.486429" PMx_normed="5.618353" NOx_normed="155.883904" fuel_normed="179.527308" electricity_normed="0"
            traveltime="7.957742e-03" CO_perVeh="0.125432" CO2_perVeh="14.989852" HC_perVeh="0.000915" PMx_perVeh="0.000202" NOx_perVeh="0.005595" fuel_perVeh="0.006444" electricity_perVeh="0"/>
        <edge id=":1110673588_0" sampledSeconds="11.79" CO_abs="165.948338" CO2_abs="17138.590642" HC_abs="1.147025" PMx_abs="0.259123" NOx_abs="6.605082" fuel_abs="7.367141" electricity_abs="0"
            CO_normed="508.437462" CO2_normed="52509.724519" HC_normed="3.514289" PMx_normed="0.793909" NOx_normed="20.236846" fuel_normed="22.571667" electricity_normed="0"
            traveltime="0.02" CO_perVeh="0.276581" CO2_perVeh="28.564318" HC_perVeh="0.001912" PMx_perVeh="0.000432" NOx_perVeh="0.011008" fuel_perVeh="0.012279" electricity_perVeh="0"/>
        <edge id=":1110673601_0" sampledSeconds="29.80" CO_abs="553.729041" CO2_abs="62155.519135" HC_abs="3.932759" PMx_abs="0.878222" NOx_abs="23.482753" fuel_abs="26.718039" electricity_abs="0"
            CO_normed="1514.760295" CO2_normed="170030.295505" HC_normed="10.758307" PMx_normed="2.402431" NOx_normed="64.238533" fuel_normed="73.088859" electricity_normed="0"
            traveltime="0.02" CO_perVeh="0.410985" CO2_perVeh="46.132658" HC_perVeh="0.002919" PMx_perVeh="0.000652" NOx_perVeh="0.017429" fuel_perVeh="0.019830" electricity_perVeh="0"/>
        <edge id=":1110673617_0" sampledSeconds="238.39" CO_abs="6116.915677" CO2_abs="741068.108158" HC_abs="45.618518" PMx_abs="13.363065" NOx_abs="280.545675" fuel_abs="318.551025" electricity_abs="0"
            CO_normed="15617.657047" CO2_normed="1892088.786785" HC_normed="116.472812" PMx_normed="34.118464" NOx_normed="716.286829" fuel_normed="813.321766" electricity_normed="0"
            traveltime="0.01" CO_perVeh="0.374634" CO2_perVeh="45.387159" HC_perVeh="0.002794" PMx_perVeh="0.000818" NOx_perVeh="0.017182" fuel_perVeh="0.019510" electricity_perVeh="0"/>
        <edge id=":1110673621_0" sampledSeconds="25.98" CO_abs="560.808756" CO2_abs="59033.881769" HC_abs="3.917612" PMx_abs="0.896896" NOx_abs="22.743518" fuel_abs="25.376111" electricity_abs="0"
            CO_normed="1718.222573" CO2_normed="180869.765421" HC_normed="12.002895" PMx_normed="2.747938" NOx_normed="69.682267" fuel_normed="77.748085" electricity_normed="0"
            traveltime="0.02" CO_perVeh="0.424855" CO2_perVeh="44.722638" HC_perVeh="0.002968" PMx_perVeh="0.000679" NOx_perVeh="0.017230" fuel_perVeh="0.019224" electricity_perVeh="0"/>
        <edge id=":1110673630_0" sampledSeconds="53.94" CO_abs="157.491818" CO2_abs="10458.349625" HC_abs="0.960138" PMx_abs="0.171045" NOx_abs="4.213582" fuel_abs="4.495613" electricity_abs="0"
            CO_normed="8.604282" CO2_normed="571.373094" HC_normed="0.052455" PMx_normed="0.009345" NOx_normed="0.230201" fuel_normed="0.245610" electricity_normed="0"
            traveltime="1.26" CO_perVeh="3.676138" CO2_perVeh="244.116379" HC_perVeh="0.022411" PMx_perVeh="0.003992" NOx_perVeh="0.098352" fuel_perVeh="0.104936" electricity_perVeh="0"/>
        <edge id=":1110673630_1" sampledSeconds="7.32" CO_abs="72.919311" CO2_abs="5593.588199" HC_abs="0.461367" PMx_abs="0.085292" NOx_abs="2.199678" fuel_abs="2.404454" electricity_abs="0"
            CO_normed="4.856790" CO2_normed="372.560916" HC_normed="0.030729" PMx_normed="0.005681" NOx_normed="0.146510" fuel_normed="0.160149" electricity_normed="0"
            traveltime="1.04" CO_perVeh="10.320887" CO2_perVeh="791.707868" HC_perVeh="0.065301" PMx_perVeh="0.012072" NOx_perVeh="0.311339" fuel_perVeh="0.340323" electricity_perVeh="0"/>
        <edge id=":1110673650_0" sampledSeconds="143.38" CO_abs="2128.139146" CO2_abs="275766.160528" HC_abs="15.951591" PMx_abs="3.744022" NOx_abs="102.583838" fuel_abs="118.540270" electricity_abs="0"
            CO_normed="5433.546755" CO2_normed="704083.814113" HC_normed="40.727466" PMx_normed="9.559205" NOx_normed="261.916182" fuel_normed="302.656009" electricity_normed="0"
            traveltime="0.02" CO_perVeh="0.341687" CO2_perVeh="44.276076" HC_perVeh="0.002561" PMx_perVeh="0.000601" NOx_perVeh="0.016471" fuel_perVeh="0.019032" electricity_perVeh="0"/>
        <edge id=":1110673655_0" sampledSeconds="44.86" CO_abs="730.056450" CO2_abs="82112.416471" HC_abs="5.210263" PMx_abs="1.146048" NOx_abs="30.975778" fuel_abs="35.296688" electricity_abs="0"
            CO_normed="1863.973916" CO2_normed="209648.722906" HC_normed="13.302800" PMx_normed="2.926079" NOx_normed="79.087092" fuel_normed="90.119204" electricity_normed="0"
            traveltime="0.02" CO_perVeh="0.390718" CO2_perVeh="43.945634" HC_perVeh="0.002788" PMx_perVeh="0.000613" NOx_perVeh="0.016578" fuel_perVeh="0.018890" electricity_perVeh="0"/>
        <edge id=":1110673663_0" sampledSeconds="109.27" CO_abs="1898.767570" CO2_abs="213061.848218" HC_abs="13.549769" PMx_abs="3.088428" NOx_abs="80.944962" fuel_abs="91.586207" electricity_abs="0"
            CO_normed="88.789692" CO2_normed="9963.144644" HC_normed="0.633611" PMx_normed="0.144420" NOx_normed="3.785128" fuel_normed="4.282731" electricity_normed="0"
            traveltime="1.28" CO_perVeh="22.301921" CO2_perVeh="2502.511920" HC_perVeh="0.159148" PMx_perVeh="0.036275" NOx_perVeh="0.950737" fuel_perVeh="1.075723" electricity_perVeh="0"/>
        <edge id=":1110673663_1" sampledSeconds="153.44" CO_abs="2907.715575" CO2_abs="356059.830742" HC_abs="21.461160" PMx_abs="5.008601" NOx_abs="133.809679" fuel_abs="153.055008" electricity_abs="0"
            CO_normed="136.136088" CO2_normed="16670.334894" HC_normed="1.004788" PMx_normed="0.234497" NOx_normed="6.264824" fuel_normed="7.165869" electricity_normed="0"
            traveltime="1.24" CO_perVeh="23.535927" CO2_perVeh="2882.055678" HC_perVeh="0.173713" PMx_perVeh="0.040541" NOx_perVeh="1.083096" fuel_perVeh="1.238873" electricity_perVeh="0"/>
        <edge id=":1110673666_0" sampledSeconds="191.81" CO_abs="4241.493739" CO2_abs="330869.192473" HC_abs="26.880290" PMx_abs="4.588204" NOx_abs="126.988698" fuel_abs="142.227727" electricity_abs="0"