<?xml version="1.0" encoding="UTF-8"?>

<!-- generated on Mon Nov  9 23:40:27 2020 by Eclipse SUMO sumo Version 1.7.0
<configuration xmlns:xsi="http://www.w3.org/2001/XMLSchema-instance" xsi:noNamespaceSchemaLocation="http://sumo.dlr.de/xsd/sumoConfiguration.xsd">

    <input>
        <net-file value="../dataSets/Porto/6AM7AM_Routing_SaoBento/Porto.net.xml"/>
        <route-files value="../results/Porto/6AM7AM_Routing_SaoBento/cost_PMx-length/solution13/Porto.rou.xml"/>
        <additional-files value="moreOutputInfo.xml"/>
    </input>

    <output>
        <emission-output.precision value="6"/>
        <tripinfo-output value="../results/Porto/6AM7AM_Routing_SaoBento/cost_PMx-length/solution13/Porto-tripinfo"/>
    </output>

    <processing>
        <collision.action value="warn"/>
        <time-to-teleport value="-1"/>
    </processing>

    <emissions>
        <device.emissions.probability value="1"/>
    </emissions>

    <gui_only>
        <quit-on-end value="true"/>
        <start value="true"/>
    </gui_only>

</configuration>
-->

<meandata xmlns:xsi="http://www.w3.org/2001/XMLSchema-instance" xsi:noNamespaceSchemaLocation="http://sumo.dlr.de/xsd/meandata_file.xsd">
    <interval begin="0.00" end="4698.00" id="emissions-detector">
        <edge id=":1092997347_0" sampledSeconds="269.69" CO_abs="34835.971241" CO2_abs="1372418.354099" HC_abs="191.069043" PMx_abs="28.114675" NOx_abs="596.506734" fuel_abs="589.948701" electricity_abs="0"
            CO_normed="60668.706446" CO2_normed="2390139.940960" HC_normed="332.756954" PMx_normed="48.963209" NOx_normed="1038.848371" fuel_normed="1027.427205" electricity_normed="0"
            traveltime="0.08" CO_perVeh="9.800986" CO2_perVeh="386.125386" HC_perVeh="0.053757" PMx_perVeh="0.007910" NOx_perVeh="0.167825" fuel_perVeh="0.165980" electricity_perVeh="0"/>
        <edge id=":1103427051_0" sampledSeconds="10.82" CO_abs="895.111424" CO2_abs="50395.719945" HC_abs="5.275827" PMx_abs="1.006982" NOx_abs="21.623916" fuel_abs="21.662861" electricity_abs="0"
            CO_normed="2365.203921" CO2_normed="133163.482480" HC_normed="13.940618" PMx_normed="2.660807" NOx_normed="57.138107" fuel_normed="57.241013" electricity_normed="0"
            traveltime="0.03" CO_perVeh="2.452592" CO2_perVeh="138.083511" HC_perVeh="0.014456" PMx_perVeh="0.002759" NOx_perVeh="0.059249" fuel_perVeh="0.059356" electricity_perVeh="0"/>
        <edge id=":1105984386_0" sampledSeconds="23.21" CO_abs="461.772852" CO2_abs="36231.211165" HC_abs="2.927366" PMx_abs="0.482591" NOx_abs="13.787072" fuel_abs="15.574408" electricity_abs="0"
            CO_normed="36.441702" CO2_normed="2859.256458" HC_normed="0.231019" PMx_normed="0.038085" NOx_normed="1.088034" fuel_normed="1.229085" electricity_normed="0"
            traveltime="0.97" CO_perVeh="19.380249" CO2_perVeh="1520.595870" HC_perVeh="0.122859" PMx_perVeh="0.020254" NOx_perVeh="0.578633" fuel_perVeh="0.653646" electricity_perVeh="0"/>
        <edge id=":1105984390_0" sampledSeconds="23.50" CO_abs="26.844057" CO2_abs="2681.194818" HC_abs="0.183459" PMx_abs="0.034535" NOx_abs="0.999496" fuel_abs="1.152540" electricity_abs="0"
            CO_normed="1.637751" CO2_normed="163.579253" HC_normed="0.011193" PMx_normed="0.002107" NOx_normed="0.060979" fuel_normed="0.070316" electricity_normed="0"
            traveltime="1.07" CO_perVeh="1.217365" CO2_perVeh="121.590868" HC_perVeh="0.008320" PMx_perVeh="0.001566" NOx_perVeh="0.045327" fuel_perVeh="0.052267" electricity_perVeh="0"/>
        <edge id=":1105984390_1" sampledSeconds="646.15" CO_abs="14645.186518" CO2_abs="1920653.914692" HC_abs="112.743893" PMx_abs="33.918337" NOx_abs="717.618978" fuel_abs="825.601171" electricity_abs="0"
            CO_normed="854.711740" CO2_normed="112091.808977" HC_normed="6.579877" PMx_normed="1.979517" NOx_normed="41.881158" fuel_normed="48.183136" electricity_normed="0"
            traveltime="0.64" CO_perVeh="14.412286" CO2_perVeh="1890.109970" HC_perVeh="0.110951" PMx_perVeh="0.033379" NOx_perVeh="0.706207" fuel_perVeh="0.812472" electricity_perVeh="0"/>
        <edge id=":1105984395_0" sampledSeconds="9.02" CO_abs="174.140824" CO2_abs="14870.292078" HC_abs="1.131588" PMx_abs="0.194865" NOx_abs="5.617218" fuel_abs="6.392162" electricity_abs="0"
            CO_normed="145.044831" CO2_normed="12385.717207" HC_normed="0.942519" PMx_normed="0.162306" NOx_normed="4.678676" fuel_normed="5.324140" electricity_normed="0"
            traveltime="0.09" CO_perVeh="1.765978" CO2_perVeh="150.801022" HC_perVeh="0.011476" PMx_perVeh="0.001976" NOx_perVeh="0.056965" fuel_perVeh="0.064824" electricity_perVeh="0"/>
        <edge id=":1105984398_0" sampledSeconds="24.56" CO_abs="1426.962070" CO2_abs="96328.407358" HC_abs="8.782546" PMx_abs="1.806862" NOx_abs="40.218069" fuel_abs="41.407239" electricity_abs="0"
            CO_normed="90.443137" CO2_normed="6105.448432" HC_normed="0.556652" PMx_normed="0.114522" NOx_normed="2.549086" fuel_normed="2.624457" electricity_normed="0"
            traveltime="1.12" CO_perVeh="65.192019" CO2_perVeh="4400.848165" HC_perVeh="0.401238" PMx_perVeh="0.082548" NOx_perVeh="1.837398" fuel_perVeh="1.891726" electricity_perVeh="0"/>
        <edge id=":1105984398_1" sampledSeconds="453.51" CO_abs="7339.984696" CO2_abs="854713.407210" HC_abs="53.156989" PMx_abs="12.394587" NOx_abs="324.148524" fuel_abs="367.404690" electricity_abs="0"
            CO_normed="450.321004" CO2_normed="52438.174737" HC_normed="3.261275" PMx_normed="0.760430" NOx_normed="19.887084" fuel_normed="22.540926" electricity_normed="0"
            traveltime="0.96" CO_perVeh="15.496155" CO2_perVeh="1804.468509" HC_perVeh="0.112225" PMx_perVeh="0.026167" NOx_perVeh="0.684341" fuel_perVeh="0.775664" electricity_perVeh="0"/>
        <edge id=":1106006327_0" sampledSeconds="38.79" CO_abs="5233.777636" CO2_abs="169142.757729" HC_abs="27.812401" PMx_abs="3.529040" NOx_abs="74.040235" fuel_abs="72.708518" electricity_abs="0"
            CO_normed="452.658869" CO2_normed="14628.815870" HC_normed="2.405438" PMx_normed="0.305220" NOx_normed="6.403591" fuel_normed="6.288413" electricity_normed="0"
            traveltime="2.10" CO_perVeh="283.928912" CO2_perVeh="9175.880685" HC_perVeh="1.508804" PMx_perVeh="0.191448" NOx_perVeh="4.016633" fuel_perVeh="3.944388" electricity_perVeh="0"/>
        <edge id=":1106006327_1" sampledSeconds="160.18" CO_abs="21868.445444" CO2_abs="736877.512629" HC_abs="116.956948" PMx_abs="15.418864" NOx_abs="322.772799" fuel_abs="316.756847" electricity_abs="0"
            CO_normed="1649.353293" CO2_normed="55576.486004" HC_normed="8.821081" PMx_normed="1.162915" NOx_normed="24.344043" fuel_normed="23.890310" electricity_normed="0"
            traveltime="2.27" CO_perVeh="310.450768" CO2_perVeh="10460.926012" HC_perVeh="1.660355" PMx_perVeh="0.218891" NOx_perVeh="4.582176" fuel_perVeh="4.496772" electricity_perVeh="0"/>
        <edge id=":1106006327_2" sampledSeconds="0.00" CO_abs="0" CO2_abs="0" HC_abs="0" PMx_abs="0" NOx_abs="0" fuel_abs="0" electricity_abs="0"
            CO_normed="0" CO2_normed="0" HC_normed="0" PMx_normed="0" NOx_normed="0" fuel_normed="0" electricity_normed="0"/>
        <edge id=":1106006327_3" sampledSeconds="0.00" CO_abs="0" CO2_abs="0" HC_abs="0" PMx_abs="0" NOx_abs="0" fuel_abs="0" electricity_abs="0"
            CO_normed="0" CO2_normed="0" HC_normed="0" PMx_normed="0" NOx_normed="0" fuel_normed="0" electricity_normed="0"/>
        <edge id=":1107381198_0" sampledSeconds="0.00" CO_abs="0" CO2_abs="0" HC_abs="0" PMx_abs="0" NOx_abs="0" fuel_abs="0" electricity_abs="0"
            CO_normed="0" CO2_normed="0" HC_normed="0" PMx_normed="0" NOx_normed="0" fuel_normed="0" electricity_normed="0"/>
        <edge id=":1107381198_1" sampledSeconds="35.63" CO_abs="1826.051931" CO2_abs="74157.538609" HC_abs="10.017098" PMx_abs="1.248109" NOx_abs="30.501085" fuel_abs="31.877775" electricity_abs="0"
            CO_normed="152.592531" CO2_normed="6196.913859" HC_normed="0.837071" PMx_normed="0.104297" NOx_normed="2.548798" fuel_normed="2.663840" electricity_normed="0"
            traveltime="1.47" CO_perVeh="75.183622" CO2_perVeh="3053.271503" HC_perVeh="0.412432" PMx_perVeh="0.051388" NOx_perVeh="1.255814" fuel_perVeh="1.312496" electricity_perVeh="0"/>
        <edge id=":1110338277_0" sampledSeconds="96.16" CO_abs="1556.738932" CO2_abs="195290.693640" HC_abs="11.472221" PMx_abs="2.590526" NOx_abs="72.462700" fuel_abs="83.947360" electricity_abs="0"
            CO_normed="4260.369271" CO2_normed="534457.289655" HC_normed="31.396336" PMx_normed="7.089562" NOx_normed="198.310619" fuel_normed="229.740997" electricity_normed="0"
            traveltime="0.02" CO_perVeh="0.351344" CO2_perVeh="44.075622" HC_perVeh="0.002589" PMx_perVeh="0.000585" NOx_perVeh="0.016354" fuel_perVeh="0.018946" electricity_perVeh="0"/>
        <edge id=":1110338293_0" sampledSeconds="124.27" CO_abs="6436.166419" CO2_abs="441649.050665" HC_abs="39.692970" PMx_abs="7.791555" NOx_abs="181.082632" fuel_abs="189.845687" electricity_abs="0"
            CO_normed="16439.760969" CO2_normed="1128094.637714" HC_normed="101.386896" PMx_normed="19.901801" NOx_normed="462.535459" fuel_normed="484.918741" electricity_normed="0"
            traveltime="0.03" CO_perVeh="1.476241" CO2_perVeh="101.299526" HC_perVeh="0.009104" PMx_perVeh="0.001787" NOx_perVeh="0.041534" fuel_perVeh="0.043544" electricity_perVeh="0"/>
        <edge id=":1110338295_0" sampledSeconds="0.00" CO_abs="0" CO2_abs="0" HC_abs="0" PMx_abs="0" NOx_abs="0" fuel_abs="0" electricity_abs="0"
            CO_normed="0" CO2_normed="0" HC_normed="0" PMx_normed="0" NOx_normed="0" fuel_normed="0" electricity_normed="0"/>
        <edge id=":1110673403_0" sampledSeconds="143.92" CO_abs="2278.511678" CO2_abs="284283.526951" HC_abs="16.851862" PMx_abs="3.838802" NOx_abs="105.870833" fuel_abs="122.201612" electricity_abs="0"
            CO_normed="5819.953201" CO2_normed="726139.277013" HC_normed="43.044347" PMx_normed="9.805370" NOx_normed="270.423582" fuel_normed="312.136939" electricity_normed="0"
            traveltime="0.02" CO_perVeh="0.365830" CO2_perVeh="45.643595" HC_perVeh="0.002706" PMx_perVeh="0.000616" NOx_perVeh="0.016998" fuel_perVeh="0.019620" electricity_perVeh="0"/>
        <edge id=":1110673412_0" sampledSeconds="253.37" CO_abs="44855.864143" CO2_abs="3065847.434299" HC_abs="279.273712" PMx_abs="67.302652" NOx_abs="1317.050526" fuel_abs="1317.856858" electricity_abs="0"
            CO_normed="118525.205821" CO2_normed="8101063.375079" HC_normed="737.940842" PMx_normed="177.837632" NOx_normed="3480.117653" fuel_normed="3482.248270" electricity_normed="0"
            traveltime="0.02" CO_perVeh="2.754527" CO2_perVeh="188.268824" HC_perVeh="0.017150" PMx_perVeh="0.004133" NOx_perVeh="0.080878" fuel_perVeh="0.080927" electricity_perVeh="0"/>
        <edge id=":1110673414_0" sampledSeconds="0.00" CO_abs="0" CO2_abs="0" HC_abs="0" PMx_abs="0" NOx_abs="0" fuel_abs="0" electricity_abs="0"
            CO_normed="0" CO2_normed="0" HC_normed="0" PMx_normed="0" NOx_normed="0" fuel_normed="0" electricity_normed="0"/>
        <edge id=":1110673414_1" sampledSeconds="131.44" CO_abs="8480.813337" CO2_abs="328111.676089" HC_abs="46.244543" PMx_abs="6.089919" NOx_abs="138.711186" fuel_abs="141.043388" electricity_abs="0"
            CO_normed="719.679683" CO2_normed="27843.474166" HC_normed="3.924300" PMx_normed="0.516789" NOx_normed="11.770996" fuel_normed="11.968906" electricity_normed="0"
            traveltime="1.57" CO_perVeh="101.044656" CO2_perVeh="3909.286760" HC_perVeh="0.550981" PMx_perVeh="0.072558" NOx_perVeh="1.652675" fuel_perVeh="1.680462" electricity_perVeh="0"/>
        <edge id=":1110673417_0" sampledSeconds="29.99" CO_abs="588.600909" CO2_abs="63410.820450" HC_abs="4.148142" PMx_abs="0.902486" NOx_abs="24.058299" fuel_abs="27.257649" electricity_abs="0"
            CO_normed="1610.839926" CO2_normed="173538.096469" HC_normed="11.352332" PMx_normed="2.469858" NOx_normed="65.840993" fuel_normed="74.596741" electricity_normed="0"
            traveltime="0.02" CO_perVeh="0.436867" CO2_perVeh="47.064360" HC_perVeh="0.003079" PMx_perVeh="0.000670" NOx_perVeh="0.017856" fuel_perVeh="0.020231" electricity_perVeh="0"/>
        <edge id=":1110673446_0" sampledSeconds="333.97" CO_abs="3746.424717" CO2_abs="294167.988677" HC_abs="24.057761" PMx_abs="5.553659" NOx_abs="121.426348" fuel_abs="126.449140" electricity_abs="0"
            CO_normed="9569.411794" CO2_normed="751386.944258" HC_normed="61.450221" PMx_normed="14.185591" NOx_normed="310.156701" fuel_normed="322.986308" electricity_normed="0"
            traveltime="0.02" CO_perVeh="0.255523" CO2_perVeh="20.063574" HC_perVeh="0.001641" PMx_perVeh="0.000379" NOx_perVeh="0.008282" fuel_perVeh="0.008624" electricity_perVeh="0"/>
        <edge id=":1110673451_0" sampledSeconds="37.93" CO_abs="468.451566" CO2_abs="33761.255719" HC_abs="2.910789" PMx_abs="0.506892" NOx_abs="13.258931" fuel_abs="14.512610" electricity_abs="0"
            CO_normed="1329.506360" CO2_normed="95817.385324" HC_normed="8.261073" PMx_normed="1.438605" NOx_normed="37.630003" fuel_normed="41.188050" electricity_normed="0"
            traveltime="0.03" CO_perVeh="0.335941" CO2_perVeh="24.211259" HC_perVeh="0.002087" PMx_perVeh="0.000364" NOx_perVeh="0.009508" fuel_perVeh="0.010407" electricity_perVeh="0"/>
        <edge id=":1110673464_0" sampledSeconds="322.69" CO_abs="512.526621" CO2_abs="47768.243726" HC_abs="3.378664" PMx_abs="0.576039" NOx_abs="17.607412" fuel_abs="20.533757" electricity_abs="0"
            CO_normed="27.814498" CO2_normed="2592.352562" HC_normed="0.183358" PMx_normed="0.031261" NOx_normed="0.955543" fuel_normed="1.114354" electricity_normed="0"
            traveltime="1.17" CO_perVeh="1.852722" CO2_perVeh="172.676419" HC_perVeh="0.012213" PMx_perVeh="0.002082" NOx_perVeh="0.063649" fuel_perVeh="0.074227" electricity_perVeh="0"/>
        <edge id=":1110673464_1" sampledSeconds="710.17" CO_abs="15161.169751" CO2_abs="1958826.263785" HC_abs="115.642240" PMx_abs="34.591253" NOx_abs="733.922564" fuel_abs="842.009635" electricity_abs="0"
            CO_normed="806.228633" CO2_normed="104164.905905" HC_normed="6.149531" PMx_normed="1.839466" NOx_normed="39.027951" fuel_normed="44.775719" electricity_normed="0"
            traveltime="0.70" CO_perVeh="14.956065" CO2_perVeh="1932.326724" HC_perVeh="0.114078" PMx_perVeh="0.034123" NOx_perVeh="0.723994" fuel_perVeh="0.830619" electricity_perVeh="0"/>
        <edge id=":1110673479_0" sampledSeconds="133.19" CO_abs="6872.738431" CO2_abs="478006.650868" HC_abs="42.537973" PMx_abs="8.420061" NOx_abs="195.792503" fuel_abs="205.474187" electricity_abs="0"
            CO_normed="17554.887436" CO2_normed="1220962.071184" HC_normed="108.653826" PMx_normed="21.507180" NOx_normed="500.108565" fuel_normed="524.838282" electricity_normed="0"
            traveltime="0.03" CO_perVeh="1.447807" CO2_perVeh="100.696577" HC_perVeh="0.008961" PMx_perVeh="0.001774" NOx_perVeh="0.041246" fuel_perVeh="0.043285" electricity_perVeh="0"/>
        <edge id=":1110673511_0" sampledSeconds="11.87" CO_abs="174.902321" CO2_abs="21996.310494" HC_abs="1.303576" PMx_abs="0.294209" NOx_abs="8.178062" fuel_abs="9.455299" electricity_abs="0"
            CO_normed="446.749223" CO2_normed="56184.701133" HC_normed="3.329696" PMx_normed="0.751492" NOx_normed="20.889047" fuel_normed="24.151466" electricity_normed="0"
            traveltime="0.02" CO_perVeh="0.346341" CO2_perVeh="43.557050" HC_perVeh="0.002581" PMx_perVeh="0.000583" NOx_perVeh="0.016194" fuel_perVeh="0.018723" electricity_perVeh="0"/>
        <edge id=":1110673517_0" sampledSeconds="17.30" CO_abs="708.267117" CO2_abs="49497.198587" HC_abs="4.390342" PMx_abs="0.875425" NOx_abs="20.279630" fuel_abs="21.276678" electricity_abs="0"
            CO_normed="1809.111411" CO2_normed="126429.626019" HC_normed="11.214155" PMx_normed="2.236080" NOx_normed="51.799822" fuel_normed="54.346559" electricity_normed="0"
            traveltime="0.03" CO_perVeh="1.137170" CO2_perVeh="79.471017" HC_perVeh="0.007049" PMx_perVeh="0.001406" NOx_perVeh="0.032560" fuel_perVeh="0.034161" electricity_perVeh="0"/>
        <edge id=":1110673534_0" sampledSeconds="477.53" CO_abs="3612.075763" CO2_abs="289936.027741" HC_abs="23.123727" PMx_abs="4.225858" NOx_abs="112.420538" fuel_abs="124.631776" electricity_abs="0"
            CO_normed="178.803240" CO2_normed="14352.273988" HC_normed="1.144660" PMx_normed="0.209186" NOx_normed="5.564987" fuel_normed="6.169462" electricity_normed="0"
            traveltime="1.44" CO_perVeh="10.881737" CO2_perVeh="873.461046" HC_perVeh="0.069663" PMx_perVeh="0.012731" NOx_perVeh="0.338678" fuel_perVeh="0.375466" electricity_perVeh="0"/>
        <edge id=":1110673534_1" sampledSeconds="184.48" CO_abs="2954.980424" CO2_abs="371793.334892" HC_abs="21.930095" PMx_abs="5.073396" NOx_abs="138.634147" fuel_abs="159.818336" electricity_abs="0"
            CO_normed="142.233217" CO2_normed="17895.672563" HC_normed="1.055570" PMx_normed="0.244200" NOx_normed="6.672931" fuel_normed="7.692598" electricity_normed="0"
            traveltime="1.22" CO_perVeh="19.620045" CO2_perVeh="2468.578719" HC_perVeh="0.145608" PMx_perVeh="0.033686" NOx_perVeh="0.920483" fuel_perVeh="1.061138" electricity_perVeh="0"/>
        <edge id=":1110673549_0" sampledSeconds="59.99" CO_abs="101.005857" CO2_abs="11422.996371" HC_abs="0.725819" PMx_abs="0.166334" NOx_abs="4.320467" fuel_abs="4.910260" electricity_abs="0"
            CO_normed="4.843500" CO2_normed="547.763074" HC_normed="0.034805" PMx_normed="0.007976" NOx_normed="0.207178" fuel_normed="0.235460" electricity_normed="0"
            traveltime="1.25" CO_perVeh="2.104371" CO2_perVeh="237.988399" HC_perVeh="0.015122" PMx_perVeh="0.003465" NOx_perVeh="0.090013" fuel_perVeh="0.102301" electricity_perVeh="0"/>
        <edge id=":1110673549_1" sampledSeconds="638.64" CO_abs="14324.888809" CO2_abs="1922553.476661" HC_abs="111.337752" PMx_abs="33.674744" NOx_abs="716.358423" fuel_abs="826.417870" electricity_abs="0"
            CO_normed="664.462851" CO2_normed="89178.029958" HC_normed="5.164424" PMx_normed="1.562010" NOx_normed="33.228430" fuel_normed="38.333559" electricity_normed="0"
            traveltime="0.80" CO_perVeh="18.032208" CO2_perVeh="2420.115427" HC_perVeh="0.140152" PMx_perVeh="0.042390" NOx_perVeh="0.901754" fuel_perVeh="1.040297" electricity_perVeh="0"/>
        <edge id=":1110673556_0" sampledSeconds="419.23" CO_abs="51994.025515" CO2_abs="2602876.074336" HC_abs="298.649339" PMx_abs="52.579364" NOx_abs="1121.482870" fuel_abs="1118.863721" electricity_abs="0"
            CO_normed="1848.824369" CO2_normed="92554.109194" HC_normed="10.619493" PMx_normed="1.869638" NOx_normed="39.878137" fuel_normed="39.785004" electricity_normed="0"
            traveltime="2.60" CO_perVeh="322.753557" CO2_perVeh="16157.385471" HC_perVeh="1.853869" PMx_perVeh="0.326387" NOx_perVeh="6.961619" fuel_perVeh="6.945360" electricity_perVeh="0"/>
        <edge id=":1110673556_2" sampledSeconds="249.72" CO_abs="23400.934442" CO2_abs="999891.112553" HC_abs="130.072815" PMx_abs="19.515261" NOx_abs="427.951341" fuel_abs="429.813710" electricity_abs="0"
            CO_normed="870.050972" CO2_normed="37176.132278" HC_normed="4.836131" PMx_normed="0.725581" NOx_normed="15.911308" fuel_normed="15.980551" electricity_normed="0"
            traveltime="3.03" CO_perVeh="283.848850" CO2_perVeh="12128.487588" HC_perVeh="1.577758" PMx_perVeh="0.236716" NOx_perVeh="5.190968" fuel_perVeh="5.213558" electricity_perVeh="0"/>
        <edge id=":1110673556_3" sampledSeconds="429.76" CO_abs="35094.264462" CO2_abs="1247238.265528" HC_abs="188.818597" PMx_abs="23.762321" NOx_abs="531.690237" fuel_abs="536.144254" electricity_abs="0"
            CO_normed="2968.229214" CO2_normed="105489.860321" HC_normed="15.970042" PMx_normed="2.009788" NOx_normed="44.969699" fuel_normed="45.346414" electricity_normed="0"
            traveltime="1.74" CO_perVeh="142.120147" CO2_perVeh="5050.901872" HC_perVeh="0.764653" PMx_perVeh="0.096230" NOx_perVeh="2.153169" fuel_perVeh="2.171207" electricity_perVeh="0"/>
        <edge id=":1110673556_4" sampledSeconds="185.99" CO_abs="19583.571589" CO2_abs="771777.293461" HC_abs="107.282715" PMx_abs="15.122408" NOx_abs="331.204455" fuel_abs="331.757744" electricity_abs="0"
            CO_normed="1011.906154" CO2_normed="39878.639573" HC_normed="5.543424" PMx_normed="0.781393" NOx_normed="17.113723" fuel_normed="17.142312" electricity_normed="0"
            traveltime="2.47" CO_perVeh="260.222897" CO2_perVeh="10255.234720" HC_perVeh="1.425553" PMx_perVeh="0.200944" NOx_perVeh="4.400984" fuel_perVeh="4.408336" electricity_perVeh="0"/>
        <edge id=":1110673556_5" sampledSeconds="25.14" CO_abs="2541.577674" CO2_abs="101712.557805" HC_abs="13.949299" PMx_abs="1.933128" NOx_abs="43.263074" fuel_abs="43.722423" electricity_abs="0"
            CO_normed="183.042209" CO2_normed="7325.249748" HC_normed="1.004616" PMx_normed="0.139222" NOx_normed="3.115769" fuel_normed="3.148851" electricity_normed="0"
            traveltime="1.74" CO_perVeh="175.714012" CO2_perVeh="7031.979305" HC_perVeh="0.964396" PMx_perVeh="0.133648" NOx_perVeh="2.991027" fuel_perVeh="3.022785" electricity_perVeh="0"/>
        <edge id=":1110673556_6" sampledSeconds="306.60" CO_abs="36355.749933" CO2_abs="1868601.065173" HC_abs="209.995907" PMx_abs="37.612449" NOx_abs="803.437014" fuel_abs="803.230147" electricity_abs="0"
            CO_normed="1325.347869" CO2_normed="68119.800707" HC_normed="7.655395" PMx_normed="1.371161" NOx_normed="29.289274" fuel_normed="29.281733" electricity_normed="0"
            traveltime="2.43" CO_perVeh="287.908294" CO2_perVeh="14797.817282" HC_perVeh="1.662999" PMx_perVeh="0.297860" NOx_perVeh="6.362575" fuel_perVeh="6.360937" electricity_perVeh="0"/>
        <edge id=":1110673561_0" sampledSeconds="100.80" CO_abs="9927.393294" CO2_abs="705486.995672" HC_abs="62.187403" PMx_abs="14.377487" NOx_abs="299.032854" fuel_abs="303.255148" electricity_abs="0"
            CO_normed="454.704000" CO2_normed="32313.392816" HC_normed="2.848367" PMx_normed="0.658531" NOx_normed="13.696590" fuel_normed="13.889984" electricity_normed="0"
            traveltime="1.19" CO_perVeh="117.152876" CO2_perVeh="8325.431295" HC_perVeh="0.733872" PMx_perVeh="0.169668" NOx_perVeh="3.528878" fuel_perVeh="3.578705" electricity_perVeh="0"/>
        <edge id=":1110673561_1" sampledSeconds="1315.87" CO_abs="121831.716021" CO2_abs="8435374.222079" HC_abs="758.876998" PMx_abs="176.515043" NOx_abs="3607.723647" fuel_abs="3625.959742" electricity_abs="0"
            CO_normed="5440.421725" CO2_normed="376683.466945" HC_normed="33.887817" PMx_normed="7.882318" NOx_normed="161.103683" fuel_normed="161.918019" electricity_normed="0"
            traveltime="1.19" CO_perVeh="110.454905" CO2_perVeh="7647.667507" HC_perVeh="0.688012" PMx_perVeh="0.160032" NOx_perVeh="3.270830" fuel_perVeh="3.287363" electricity_perVeh="0"/>
        <edge id=":1110673562_0" sampledSeconds="104.27" CO_abs="2355.968291" CO2_abs="184445.095216" HC_abs="14.941080" PMx_abs="2.530929" NOx_abs="70.616620" fuel_abs="79.285767" electricity_abs="0"
            CO_normed="6686.443283" CO2_normed="523471.250790" HC_normed="42.404087" PMx_normed="7.182997" NOx_normed="200.416120" fuel_normed="225.019915" electricity_normed="0"
            traveltime="0.03" CO_perVeh="0.600547" CO2_perVeh="47.015894" HC_perVeh="0.003809" PMx_perVeh="0.000645" NOx_perVeh="0.018000" fuel_perVeh="0.020210" electricity_perVeh="0"/>
        <edge id=":1110673564_0" sampledSeconds="28.97" CO_abs="545.116082" CO2_abs="61916.372079" HC_abs="3.891268" PMx_abs="0.847869" NOx_abs="23.242844" fuel_abs="26.615274" electricity_abs="0"
            CO_normed="4177.134724" CO2_normed="474454.958461" HC_normed="29.818147" PMx_normed="6.497084" NOx_normed="178.106085" fuel_normed="203.948460" electricity_normed="0"
            traveltime="7.965157e-03" CO_perVeh="0.149860" CO2_perVeh="17.021683" HC_perVeh="0.001070" PMx_perVeh="0.000233" NOx_perVeh="0.006390" fuel_perVeh="0.007317" electricity_perVeh="0"/>
        <edge id=":1110673588_0" sampledSeconds="11.79" CO_abs="120.308567" CO2_abs="15797.278830" HC_abs="0.888861" PMx_abs="0.200102" NOx_abs="5.786101" fuel_abs="6.790603" electricity_abs="0"
            CO_normed="368.761891" CO2_normed="48420.778024" HC_normed="2.724478" PMx_normed="0.613341" NOx_normed="17.735175" fuel_normed="20.814109" electricity_normed="0"
            traveltime="0.02" CO_perVeh="0.200514" CO2_perVeh="26.328798" HC_perVeh="0.001481" PMx_perVeh="0.000334" NOx_perVeh="0.009644" fuel_perVeh="0.011318" electricity_perVeh="0"/>
        <edge id=":1110673601_0" sampledSeconds="30.02" CO_abs="489.111418" CO2_abs="56224.489132" HC_abs="3.526939" PMx_abs="0.798730" NOx_abs="21.253102" fuel_abs="24.168528" electricity_abs="0"
            CO_normed="1338.564362" CO2_normed="153871.070421" HC_normed="9.652269" PMx_normed="2.185906" NOx_normed="58.163934" fuel_normed="66.142660" electricity_normed="0"
            traveltime="0.02" CO_perVeh="0.363025" CO2_perVeh="41.730568" HC_perVeh="0.002618" PMx_perVeh="0.000593" NOx_perVeh="0.015774" fuel_perVeh="0.017938" electricity_perVeh="0"/>
        <edge id=":1110673617_0" sampledSeconds="238.42" CO_abs="5978.268595" CO2_abs="724008.289245" HC_abs="44.418613" PMx_abs="13.025539" NOx_abs="273.900952" fuel_abs="311.217813" electricity_abs="0"
            CO_normed="15270.162440" CO2_normed="1849318.746475" HC_normed="113.457503" PMx_normed="33.270854" NOx_normed="699.619290" fuel_normed="794.936942" electricity_normed="0"
            traveltime="0.01" CO_perVeh="0.366290" CO2_perVeh="44.360139" HC_perVeh="0.002722" PMx_perVeh="0.000798" NOx_perVeh="0.016782" fuel_perVeh="0.019068" electricity_perVeh="0"/>
        <edge id=":1110673621_0" sampledSeconds="25.70" CO_abs="539.446535" CO2_abs="59802.256519" HC_abs="3.830869" PMx_abs="0.868153" NOx_abs="22.745496" fuel_abs="25.706443" electricity_abs="0"
            CO_normed="1653.475970" CO2_normed="183301.935692" HC_normed="11.742128" PMx_normed="2.661005" NOx_normed="69.717994" fuel_normed="78.793694" electricity_normed="0"
            traveltime="0.02" CO_perVeh="0.408672" CO2_perVeh="45.304740" HC_perVeh="0.002902" PMx_perVeh="0.000658" NOx_perVeh="0.017231" fuel_perVeh="0.019475" electricity_perVeh="0"/>
        <edge id=":1110673630_0" sampledSeconds="54.43" CO_abs="214.603102" CO2_abs="19767.772560" HC_abs="1.419844" PMx_abs="0.216099" NOx_abs="7.173163" fuel_abs="8.497452" electricity_abs="0"
            CO_normed="11.729445" CO2_normed="1080.436408" HC_normed="0.077604" PMx_normed="0.011811" NOx_normed="0.392060" fuel_normed="0.464441" electricity_normed="0"
            traveltime="1.27" CO_perVeh="5.009216" CO2_perVeh="461.414776" HC_perVeh="0.033142" PMx_perVeh="0.005044" NOx_perVeh="0.167434" fuel_perVeh="0.198346" electricity_perVeh="0"/>
        <edge id=":1110673630_1" sampledSeconds="7.27" CO_abs="78.661832" CO2_abs="6380.078268" HC_abs="0.506759" PMx_abs="0.101446" NOx_abs="2.527994" fuel_abs="2.742524" electricity_abs="0"
            CO_normed="5.241501" CO2_normed="425.125988" HC_normed="0.033767" PMx_normed="0.006760" NOx_normed="0.168449" fuel_normed="0.182744" electricity_normed="0"
            traveltime="1.03" CO_perVeh="11.133675" CO2_perVeh="903.026463" HC_perVeh="0.071726" PMx_perVeh="0.014358" NOx_perVeh="0.357808" fuel_perVeh="0.388173" electricity_perVeh="0"/>
        <edge id=":1110673650_0" sampledSeconds="143.22" CO_abs="2078.883136" CO2_abs="275575.399980" HC_abs="15.704262" PMx_abs="3.648352" NOx_abs="101.894139" fuel_abs="118.458373" electricity_abs="0"
            CO_normed="5310.046325" CO2_normed="703896.296244" HC_normed="40.113058" PMx_normed="9.318907" NOx_normed="260.266001" fuel_normed="302.575665" electricity_normed="0"
            traveltime="0.02" CO_perVeh="0.334220" CO2_perVeh="44.303941" HC_perVeh="0.002525" PMx_perVeh="0.000587" NOx_perVeh="0.016381" fuel_perVeh="0.019044" electricity_perVeh="0"/>
        <edge id=":1110673655_0" sampledSeconds="45.28" CO_abs="582.127137" CO2_abs="72559.905445" HC_abs="4.309996" PMx_abs="0.969297" NOx_abs="26.991477" fuel_abs="31.190486" electricity_abs="0"
            CO_normed="1486.914782" CO2_normed="185338.200370" HC_normed="11.008930" PMx_normed="2.475856" NOx_normed="68.943747" fuel_normed="79.669186" electricity_normed="0"
            traveltime="0.02" CO_perVeh="0.311548" CO2_perVeh="38.833238" HC_perVeh="0.002307" PMx_perVeh="0.000519" NOx_perVeh="0.014446" fuel_perVeh="0.016693" electricity_perVeh="0"/>
        <edge id=":1110673663_0" sampledSeconds="108.54" CO_abs="2128.476506" CO2_abs="237645.167822" HC_abs="15.148316" PMx_abs="3.470609" NOx_abs="90.486038" fuel_abs="102.153491" electricity_abs="0"
            CO_normed="99.573656" CO2_normed="11117.434486" HC_normed="0.708663" PMx_normed="0.162361" NOx_normed="4.233087" fuel_normed="4.778909" electricity_normed="0"
            traveltime="1.27" CO_perVeh="24.999961" CO2_perVeh="2791.254606" HC_perVeh="0.177924" PMx_perVeh="0.040764" NOx_perVeh="1.062801" fuel_perVeh="1.199841" electricity_perVeh="0"/>
        <edge id=":1110673663_1" sampledSeconds="153.54" CO_abs="2400.953166" CO2_abs="287415.285741" HC_abs="17.523863" PMx_abs="4.053059" NOx_abs="108.129598" fuel_abs="123.547649" electricity_abs="0"
            CO_normed="112.457876" CO2_normed="13462.200383" HC_normed="0.820798" PMx_normed="0.189841" NOx_normed="5.064666" fuel_normed="5.786829" electricity_normed="0"
            traveltime="1.25" CO_perVeh="19.517229" CO2_perVeh="2336.384593" HC_perVeh="0.142451" PMx_perVeh="0.032947" NOx_perVeh="0.878980" fuel_perVeh="1.004313" electricity_perVeh="0"/>
        <edge id=":1110673666_0" sampledSeconds="192.28" CO_abs="4265.576539" CO2_abs="331659.068480" HC_abs="27.010118" PMx_abs="4.614375" NOx_abs="127.417013" fuel_abs="142.567249" electricity_abs="0"