<?xml version="1.0" encoding="UTF-8"?>

<!-- generated on Fri Oct  2 15:56:59 2020 by Eclipse SUMO Version 1.1.0
<configuration xmlns:xsi="http://www.w3.org/2001/XMLSchema-instance" xsi:noNamespaceSchemaLocation="http://sumo.dlr.de/xsd/sumoConfiguration.xsd">

    <input>
        <net-file value="../dataSets/Angeja_Estarreja/angeja_estarreja.net.xml"/>
        <route-files value="../results/angeja_estarreja/cost_co2-cost_hc/solution9/angeja_estarreja.rou.xml"/>
        <additional-files value="moreOutputInfo.xml"/>
    </input>

    <output>
        <emission-output.precision value="6"/>
        <tripinfo-output value="../results/angeja_estarreja/cost_co2-cost_hc/solution9/angeja_estarreja-tripinfo"/>
    </output>

    <processing>
        <collision.action value="warn"/>
        <time-to-teleport value="-1"/>
    </processing>

    <emissions>
        <device.emissions.probability value="1"/>
    </emissions>

    <gui_only>
        <quit-on-end value="true"/>
        <start value="true"/>
    </gui_only>

</configuration>
-->

<meandata xmlns:xsi="http://www.w3.org/2001/XMLSchema-instance" xsi:noNamespaceSchemaLocation="http://sumo.dlr.de/xsd/meandata_file.xsd">
    <interval begin="0.00" end="19080.00" id="emissions-detector">
        <edge id=":10_0" sampledSeconds="403.17" CO_abs="41071.833494" CO2_abs="2255803.288634" HC_abs="240.601483" PMx_abs="44.558470" NOx_abs="964.603996" fuel_abs="969.670373" electricity_abs="0"
            CO_normed="443.076189" CO2_normed="24335.235106" HC_normed="2.595569" PMx_normed="0.480689" NOx_normed="10.405989" fuel_normed="10.460645" electricity_normed="0"
            traveltime="1.90" CO_perVeh="193.411657" CO2_perVeh="10622.818980" HC_perVeh="1.133018" PMx_perVeh="0.209831" NOx_perVeh="4.542423" fuel_perVeh="4.566282" electricity_perVeh="0"/>
        <edge id=":10_1" sampledSeconds="0.00" CO_abs="0" CO2_abs="0" HC_abs="0" PMx_abs="0" NOx_abs="0" fuel_abs="0" electricity_abs="0"
            CO_normed="0" CO2_normed="0" HC_normed="0" PMx_normed="0" NOx_normed="0" fuel_normed="0" electricity_normed="0"/>
        <edge id=":100_0" sampledSeconds="0.00" CO_abs="0" CO2_abs="0" HC_abs="0" PMx_abs="0" NOx_abs="0" fuel_abs="0" electricity_abs="0"
            CO_normed="0" CO2_normed="0" HC_normed="0" PMx_normed="0" NOx_normed="0" fuel_normed="0" electricity_normed="0"/>
        <edge id=":100_1" sampledSeconds="911.06" CO_abs="21201.773272" CO2_abs="2749645.822798" HC_abs="163.326709" PMx_abs="49.356921" NOx_abs="1022.124969" fuel_abs="1181.947000" electricity_abs="0"
            CO_normed="135.329316" CO2_normed="17550.781415" HC_normed="1.042502" PMx_normed="0.315041" NOx_normed="6.524146" fuel_normed="7.544278" electricity_normed="0"
            traveltime="1.37" CO_perVeh="31.881987" CO2_perVeh="4134.756677" HC_perVeh="0.245601" PMx_perVeh="0.074220" NOx_perVeh="1.537012" fuel_perVeh="1.777343" electricity_perVeh="0"/>
        <edge id=":101_0" sampledSeconds="438.88" CO_abs="10457.601957" CO2_abs="1317098.730641" HC_abs="79.644264" PMx_abs="23.832499" NOx_abs="492.099246" fuel_abs="566.160355" electricity_abs="0"
            CO_normed="241.509479" CO2_normed="30417.282064" HC_normed="1.839317" PMx_normed="0.550391" NOx_normed="11.364616" fuel_normed="13.074995" electricity_normed="0"
            traveltime="0.38" CO_perVeh="9.034010" CO2_perVeh="1137.802262" HC_perVeh="0.068802" PMx_perVeh="0.020588" NOx_perVeh="0.425110" fuel_perVeh="0.489089" electricity_perVeh="0"/>
        <edge id=":102_0" sampledSeconds="341.47" CO_abs="7958.153748" CO2_abs="997326.680191" HC_abs="60.494400" PMx_abs="18.075275" NOx_abs="372.844459" fuel_abs="428.704999" electricity_abs="0"
            CO_normed="185.375116" CO2_normed="23231.462385" HC_normed="1.409140" PMx_normed="0.421041" NOx_normed="8.684940" fuel_normed="9.986140" electricity_normed="0"
            traveltime="0.38" CO_perVeh="8.754686" CO2_perVeh="1097.149193" HC_perVeh="0.066549" PMx_perVeh="0.019884" NOx_perVeh="0.410162" fuel_perVeh="0.471614" electricity_perVeh="0"/>
        <edge id=":103_0" sampledSeconds="434.58" CO_abs="10055.898422" CO2_abs="1283717.495258" HC_abs="76.952604" PMx_abs="23.137124" NOx_abs="478.454056" fuel_abs="551.811367" electricity_abs="0"
            CO_normed="235.694326" CO2_normed="30088.304119" HC_normed="1.803647" PMx_normed="0.542298" NOx_normed="11.214205" fuel_normed="12.933584" electricity_normed="0"
            traveltime="0.37" CO_perVeh="8.639641" CO2_perVeh="1102.920705" HC_perVeh="0.066115" PMx_perVeh="0.019879" NOx_perVeh="0.411069" fuel_perVeh="0.474095" electricity_perVeh="0"/>
        <edge id=":104_0" sampledSeconds="340.62" CO_abs="8668.937685" CO2_abs="1044980.149290" HC_abs="64.882758" PMx_abs="19.154297" NOx_abs="392.964597" fuel_abs="449.188894" electricity_abs="0"
            CO_normed="202.181535" CO2_normed="24371.577986" HC_normed="1.513230" PMx_normed="0.446727" NOx_normed="9.164928" fuel_normed="10.476220" electricity_normed="0"
            traveltime="0.37" CO_perVeh="9.532235" CO2_perVeh="1149.044680" HC_perVeh="0.071344" PMx_perVeh="0.021062" NOx_perVeh="0.432098" fuel_perVeh="0.493921" electricity_perVeh="0"/>
        <edge id=":105_0" sampledSeconds="168.65" CO_abs="3916.416836" CO2_abs="485905.510108" HC_abs="29.658124" PMx_abs="8.831816" NOx_abs="181.972745" fuel_abs="208.868473" electricity_abs="0"
            CO_normed="3358.848059" CO2_normed="416728.567845" HC_normed="25.435784" PMx_normed="7.574457" NOx_normed="156.065819" fuel_normed="179.132481" electricity_normed="0"
            traveltime="0.01" CO_perVeh="0.236834" CO2_perVeh="29.383737" HC_perVeh="0.001793" PMx_perVeh="0.000534" NOx_perVeh="0.011004" fuel_perVeh="0.012631" electricity_perVeh="0"/>
        <edge id=":106_0" sampledSeconds="134.45" CO_abs="3208.810687" CO2_abs="388859.545690" HC_abs="24.066766" PMx_abs="7.115230" NOx_abs="146.144352" fuel_abs="167.152835" electricity_abs="0"
            CO_normed="1953.019286" CO2_normed="236676.534200" HC_normed="14.648062" PMx_normed="4.330633" NOx_normed="88.949697" fuel_normed="101.736357" electricity_normed="0"
            traveltime="0.01" CO_perVeh="0.343087" CO2_perVeh="41.576941" HC_perVeh="0.002573" PMx_perVeh="0.000761" NOx_perVeh="0.015626" fuel_perVeh="0.017872" electricity_perVeh="0"/>
        <edge id=":107_0" sampledSeconds="438.40" CO_abs="11959.604702" CO2_abs="1434741.094975" HC_abs="89.337925" PMx_abs="26.318569" NOx_abs="540.352058" fuel_abs="616.729141" electricity_abs="0"
            CO_normed="276.196963" CO2_normed="33134.133045" HC_normed="2.063184" PMx_normed="0.607805" NOx_normed="12.478974" fuel_normed="14.242838" electricity_normed="0"
            traveltime="0.38" CO_perVeh="10.331567" CO2_perVeh="1239.432630" HC_perVeh="0.077177" PMx_perVeh="0.022736" NOx_perVeh="0.466795" fuel_perVeh="0.532775" electricity_perVeh="0"/>
        <edge id=":108_0" sampledSeconds="94.55" CO_abs="8384.404519" CO2_abs="607431.019764" HC_abs="52.770890" PMx_abs="12.266026" NOx_abs="256.599828" fuel_abs="261.105615" electricity_abs="0"
            CO_normed="131.501506" CO2_normed="9526.984736" HC_normed="0.827662" PMx_normed="0.192381" NOx_normed="4.024527" fuel_normed="4.095196" electricity_normed="0"
            traveltime="0.85" CO_perVeh="75.378620" CO2_perVeh="5461.009420" HC_perVeh="0.474428" PMx_perVeh="0.110276" NOx_perVeh="2.306919" fuel_perVeh="2.347427" electricity_perVeh="0"/>
        <edge id=":108_1" sampledSeconds="402.53" CO_abs="9921.694138" CO2_abs="1206689.248925" HC_abs="74.509029" PMx_abs="22.048264" NOx_abs="453.412210" fuel_abs="518.700219" electricity_abs="0"
            CO_normed="145.117656" CO2_normed="17649.396649" HC_normed="1.089791" PMx_normed="0.322484" NOx_normed="6.631742" fuel_normed="7.586664" electricity_normed="0"
            traveltime="0.60" CO_perVeh="14.745415" CO2_perVeh="1793.356404" HC_perVeh="0.110734" PMx_perVeh="0.032768" NOx_perVeh="0.673852" fuel_perVeh="0.770881" electricity_perVeh="0"/>
        <edge id=":109_0" sampledSeconds="305.96" CO_abs="87.627168" CO2_abs="17336.974114" HC_abs="0.788011" PMx_abs="0.198875" NOx_abs="6.147035" fuel_abs="7.452459" electricity_abs="0"
            CO_normed="1.317405" CO2_normed="260.647585" HC_normed="0.011847" PMx_normed="0.002990" NOx_normed="0.092416" fuel_normed="0.112042" electricity_normed="0"
            traveltime="0.85" CO_perVeh="0.243554" CO2_perVeh="48.187058" HC_perVeh="0.002190" PMx_perVeh="0.000553" NOx_perVeh="0.017085" fuel_perVeh="0.020714" electricity_perVeh="0"/>
        <edge id=":109_1" sampledSeconds="524.59" CO_abs="12958.438874" CO2_abs="1648631.117959" HC_abs="99.005773" PMx_abs="29.734322" NOx_abs="614.871047" fuel_abs="708.670997" electricity_abs="0"
            CO_normed="127.078403" CO2_normed="16167.488310" HC_normed="0.970911" PMx_normed="0.291593" NOx_normed="6.029803" fuel_normed="6.949663" electricity_normed="0"
            traveltime="0.89" CO_perVeh="22.065135" CO2_perVeh="2807.226181" HC_perVeh="0.168583" PMx_perVeh="0.050630" NOx_perVeh="1.046979" fuel_perVeh="1.206698" electricity_perVeh="0"/>
        <edge id=":11_0" sampledSeconds="287.83" CO_abs="17735.267482" CO2_abs="1261535.366300" HC_abs="110.584320" PMx_abs="22.883680" NOx_abs="520.023184" fuel_abs="542.277716" electricity_abs="0"
            CO_normed="183.357637" CO2_normed="13042.495387" HC_normed="1.143286" PMx_normed="0.236585" NOx_normed="5.376306" fuel_normed="5.606386" electricity_normed="0"
            traveltime="1.60" CO_perVeh="98.409745" CO2_perVeh="7000.028261" HC_perVeh="0.613612" PMx_perVeh="0.126977" NOx_perVeh="2.885513" fuel_perVeh="3.009000" electricity_perVeh="0"/>
        <edge id=":11_1" sampledSeconds="50.63" CO_abs="1153.699786" CO2_abs="100558.681739" HC_abs="7.555401" PMx_abs="1.372639" NOx_abs="38.293561" fuel_abs="43.226179" electricity_abs="0"
            CO_normed="12.229169" CO2_normed="1065.917763" HC_normed="0.080087" PMx_normed="0.014550" NOx_normed="0.405910" fuel_normed="0.458196" electricity_normed="0"
            traveltime="1.67" CO_perVeh="37.945041" CO2_perVeh="3307.362408" HC_perVeh="0.248496" PMx_perVeh="0.045146" NOx_perVeh="1.259470" fuel_perVeh="1.421704" electricity_perVeh="0"/>
        <edge id=":110_0" sampledSeconds="94.96" CO_abs="0" CO2_abs="0" HC_abs="0" PMx_abs="0" NOx_abs="0" fuel_abs="0" electricity_abs="0"
            CO_normed="0" CO2_normed="0" HC_normed="0" PMx_normed="0" NOx_normed="0" fuel_normed="0" electricity_normed="0"
            traveltime="0.93" CO_perVeh="0" CO2_perVeh="0" HC_perVeh="0" PMx_perVeh="0" NOx_perVeh="0" fuel_perVeh="0" electricity_perVeh="0"/>
        <edge id=":110_1" sampledSeconds="443.99" CO_abs="11185.364333" CO2_abs="1351528.445075" HC_abs="83.782273" PMx_abs="24.740673" NOx_abs="508.370928" fuel_abs="580.959895" electricity_abs="0"
            CO_normed="143.567762" CO2_normed="17347.303877" HC_normed="1.075373" PMx_normed="0.317555" NOx_normed="6.525105" fuel_normed="7.456808" electricity_normed="0"
            traveltime="0.68" CO_perVeh="17.182390" CO2_perVeh="2076.149501" HC_perVeh="0.128702" PMx_perVeh="0.038005" NOx_perVeh="0.780934" fuel_perVeh="0.892441" electricity_perVeh="0"/>
        <edge id=":111_0" sampledSeconds="340.78" CO_abs="8283.173095" CO2_abs="1035541.810644" HC_abs="62.903285" PMx_abs="18.779197" NOx_abs="387.324357" fuel_abs="445.131918" electricity_abs="0"
            CO_normed="191.292882" CO2_normed="23914.962949" HC_normed="1.452698" PMx_normed="0.433690" NOx_normed="8.944929" fuel_normed="10.279945" electricity_normed="0"
            traveltime="0.38" CO_perVeh="9.205456" CO2_perVeh="1150.843379" HC_perVeh="0.069907" PMx_perVeh="0.020870" NOx_perVeh="0.430451" fuel_perVeh="0.494695" electricity_perVeh="0"/>
        <edge id=":114_0" sampledSeconds="107.06" CO_abs="11090.531591" CO2_abs="786411.462811" HC_abs="69.465492" PMx_abs="16.135528" NOx_abs="334.191403" fuel_abs="338.040552" electricity_abs="0"
            CO_normed="147.362897" CO2_normed="10449.262062" HC_normed="0.923007" PMx_normed="0.214397" NOx_normed="4.440492" fuel_normed="4.491636" electricity_normed="0"
            traveltime="0.99" CO_perVeh="102.599791" CO2_perVeh="7275.183408" HC_perVeh="0.642633" PMx_perVeh="0.149272" NOx_perVeh="3.091643" fuel_perVeh="3.127252" electricity_perVeh="0"/>
        <edge id=":114_1" sampledSeconds="416.02" CO_abs="10261.345691" CO2_abs="1294891.384665" HC_abs="78.161837" PMx_abs="23.405967" NOx_abs="483.700537" fuel_abs="556.614442" electricity_abs="0"
            CO_normed="135.486561" CO2_normed="17097.209880" HC_normed="1.032017" PMx_normed="0.309043" NOx_normed="6.386582" fuel_normed="7.349307" electricity_normed="0"
            traveltime="0.66" CO_perVeh="16.351175" CO2_perVeh="2063.374176" HC_perVeh="0.124549" PMx_perVeh="0.037297" NOx_perVeh="0.770764" fuel_perVeh="0.886950" electricity_perVeh="0"/>
        <edge id=":115_0" sampledSeconds="79.85" CO_abs="90.344445" CO2_abs="11384.394672" HC_abs="0.671148" PMx_abs="0.152790" NOx_abs="4.237303" fuel_abs="4.893676" electricity_abs="0"
            CO_normed="2.041452" CO2_normed="257.245389" HC_normed="0.015165" PMx_normed="0.003453" NOx_normed="0.095747" fuel_normed="0.110579" electricity_normed="0"
            traveltime="0.63" CO_perVeh="0.710938" CO2_perVeh="89.585991" HC_perVeh="0.005281" PMx_perVeh="0.001202" NOx_perVeh="0.033344" fuel_perVeh="0.038509" electricity_perVeh="0"/>
        <edge id=":115_1" sampledSeconds="72.40" CO_abs="977.360059" CO2_abs="158581.538262" HC_abs="7.980636" PMx_abs="2.308632" NOx_abs="58.443549" fuel_abs="68.167220" electricity_abs="0"
            CO_normed="19.722734" CO2_normed="3200.111760" HC_normed="0.161046" PMx_normed="0.046587" NOx_normed="1.179367" fuel_normed="1.375587" electricity_normed="0"
            traveltime="0.59" CO_perVeh="8.001328" CO2_perVeh="1298.255304" HC_perVeh="0.065335" PMx_perVeh="0.018900" NOx_perVeh="0.478458" fuel_perVeh="0.558063" electricity_perVeh="0"/>
        <edge id=":116_0" sampledSeconds="74.92" CO_abs="124.687956" CO2_abs="12978.867625" HC_abs="0.869922" PMx_abs="0.194703" NOx_abs="4.995383" fuel_abs="5.579058" electricity_abs="0"
            CO_normed="3.145191" CO2_normed="327.385421" HC_normed="0.021943" PMx_normed="0.004911" NOx_normed="0.126006" fuel_normed="0.140729" electricity_normed="0"
            traveltime="0.57" CO_perVeh="0.941488" CO2_perVeh="98.000192" HC_perVeh="0.006569" PMx_perVeh="0.001470" NOx_perVeh="0.037719" fuel_perVeh="0.042126" electricity_perVeh="0"/>
        <edge id=":117_0" sampledSeconds="238.78" CO_abs="13126.440057" CO2_abs="1085732.121054" HC_abs="85.586851" PMx_abs="19.967757" NOx_abs="443.583068" fuel_abs="466.706092" electricity_abs="0"
            CO_normed="296.609198" CO2_normed="24533.546968" HC_normed="1.933948" PMx_normed="0.451198" NOx_normed="10.023344" fuel_normed="10.545839" electricity_normed="0"
            traveltime="0.60" CO_perVeh="33.235019" CO2_perVeh="2748.980465" HC_perVeh="0.216699" PMx_perVeh="0.050557" NOx_perVeh="1.123114" fuel_perVeh="1.181660" electricity_perVeh="0"/>
        <edge id=":117_1" sampledSeconds="75.78" CO_abs="4540.811534" CO2_abs="380406.378588" HC_abs="29.716051" PMx_abs="6.921479" NOx_abs="154.874973" fuel_abs="163.519204" electricity_abs="0"
            CO_normed="96.699424" CO2_normed="8100.991920" HC_normed="0.632822" PMx_normed="0.147397" NOx_normed="3.298159" fuel_normed="3.482244" electricity_normed="0"
            traveltime="0.64" CO_perVeh="38.390021" CO2_perVeh="3216.123090" HC_perVeh="0.251233" PMx_perVeh="0.058517" NOx_perVeh="1.309381" fuel_perVeh="1.382463" electricity_perVeh="0"/>
        <edge id=":118_0" sampledSeconds="899.14" CO_abs="13133.610020" CO2_abs="2070420.815176" HC_abs="106.346759" PMx_abs="30.493581" NOx_abs="765.969952" fuel_abs="889.982522" electricity_abs="0"
            CO_normed="39.846272" CO2_normed="6281.483146" HC_normed="0.322647" PMx_normed="0.092515" NOx_normed="2.323889" fuel_normed="2.700132" electricity_normed="0"
            traveltime="3.92" CO_perVeh="57.284795" CO2_perVeh="9030.543118" HC_perVeh="0.463852" PMx_perVeh="0.133004" NOx_perVeh="3.340927" fuel_perVeh="3.881832" electricity_perVeh="0"/>
        <edge id=":118_4" sampledSeconds="283.51" CO_abs="3570.884216" CO2_abs="574814.124472" HC_abs="29.167407" PMx_abs="8.327507" NOx_abs="211.617150" fuel_abs="247.087384" electricity_abs="0"
            CO_normed="10.854708" CO2_normed="1747.309412" HC_normed="0.088663" PMx_normed="0.025314" NOx_normed="0.643270" fuel_normed="0.751092" electricity_normed="0"
            traveltime="3.93" CO_perVeh="49.508098" CO2_perVeh="7969.441785" HC_perVeh="0.404388" PMx_perVeh="0.115456" NOx_perVeh="2.933941" fuel_perVeh="3.425714" electricity_perVeh="0"/>
        <edge id=":118_5" sampledSeconds="238.12" CO_abs="3772.382273" CO2_abs="580064.198138" HC_abs="30.164553" PMx_abs="8.724418" NOx_abs="215.546658" fuel_abs="249.343804" electricity_abs="0"
            CO_normed="11.581032" CO2_normed="1780.769201" HC_normed="0.092604" PMx_normed="0.026784" NOx_normed="0.661718" fuel_normed="0.765473" electricity_normed="0"
            traveltime="3.81" CO_perVeh="60.374934" CO2_perVeh="9283.613169" HC_perVeh="0.482767" PMx_perVeh="0.139630" NOx_perVeh="3.449707" fuel_perVeh="3.990612" electricity_perVeh="0"/>
        <edge id=":119_0" sampledSeconds="138.95" CO_abs="2058.716610" CO2_abs="328988.927997" HC_abs="16.886606" PMx_abs="4.852248" NOx_abs="121.781212" fuel_abs="141.417803" electricity_abs="0"
            CO_normed="44.140579" CO2_normed="7053.793482" HC_normed="0.362063" PMx_normed="0.104036" NOx_normed="2.611089" fuel_normed="3.032114" electricity_normed="0"
            traveltime="0.56" CO_perVeh="8.253249" CO2_perVeh="1318.893247" HC_perVeh="0.067697" PMx_perVeh="0.019452" NOx_perVeh="0.488212" fuel_perVeh="0.566934" electricity_perVeh="0"/>
        <edge id=":12_0" sampledSeconds="591.77" CO_abs="52097.124138" CO2_abs="2986180.187690" HC_abs="308.121594" PMx_abs="58.312731" NOx_abs="1270.689716" fuel_abs="1283.626478" electricity_abs="0"
            CO_normed="488.065842" CO2_normed="27975.681435" HC_normed="2.886601" PMx_normed="0.546296" NOx_normed="11.904309" fuel_normed="12.025505" electricity_normed="0"
            traveltime="2.09" CO_perVeh="184.082641" CO2_perVeh="10551.521714" HC_perVeh="1.088733" PMx_perVeh="0.206045" NOx_perVeh="4.489920" fuel_perVeh="4.535631" electricity_perVeh="0"/>
        <edge id=":12_1" sampledSeconds="55.69" CO_abs="1030.492351" CO2_abs="93955.684042" HC_abs="6.822946" PMx_abs="1.166319" NOx_abs="34.982413" fuel_abs="40.387954" electricity_abs="0"
            CO_normed="9.644470" CO2_normed="879.339660" HC_normed="0.063857" PMx_normed="0.010916" NOx_normed="0.327404" fuel_normed="0.377994" electricity_normed="0"
            traveltime="1.88" CO_perVeh="34.749642" CO2_perVeh="3168.316925" HC_perVeh="0.230079" PMx_perVeh="0.039330" NOx_perVeh="1.179656" fuel_perVeh="1.361938" electricity_perVeh="0"/>
        <edge id=":120_0" sampledSeconds="39.04" CO_abs="571.456016" CO2_abs="92226.767362" HC_abs="4.670053" PMx_abs="1.341284" NOx_abs="33.979643" fuel_abs="39.644234" electricity_abs="0"
            CO_normed="449.257874" CO2_normed="72505.320253" HC_normed="3.671425" PMx_normed="1.054468" NOx_normed="26.713556" fuel_normed="31.166850" electricity_normed="0"
            traveltime="0.02" CO_perVeh="0.219879" CO2_perVeh="35.486051" HC_perVeh="0.001797" PMx_perVeh="0.000516" NOx_perVeh="0.013074" fuel_perVeh="0.015254" electricity_perVeh="0"/>
        <edge id=":121_0" sampledSeconds="377.36" CO_abs="53719.997562" CO2_abs="1431707.076124" HC_abs="278.223331" PMx_abs="30.917345" NOx_abs="633.225397" fuel_abs="615.446965" electricity_abs="0"
            CO_normed="30714.692717" CO2_normed="818586.092695" HC_normed="159.075661" PMx_normed="17.677155" NOx_normed="362.049970" fuel_normed="351.885057" electricity_normed="0"
            traveltime="0.12" CO_perVeh="16.493536" CO2_perVeh="439.573951" HC_perVeh="0.085422" PMx_perVeh="0.009492" NOx_perVeh="0.194418" fuel_perVeh="0.188959" electricity_perVeh="0"/>
        <edge id=":122_0" sampledSeconds="134.64" CO_abs="950.865609" CO2_abs="99255.673528" HC_abs="6.639691" PMx_abs="1.724123" NOx_abs="39.082576" fuel_abs="42.665447" electricity_abs="0"
            CO_normed="20.934493" CO2_normed="2185.237523" HC_normed="0.146181" PMx_normed="0.037959" NOx_normed="0.860452" fuel_normed="0.939333" electricity_normed="0"
            traveltime="0.54" CO_perVeh="3.795597" CO2_perVeh="396.201705" HC_perVeh="0.026504" PMx_perVeh="0.006882" NOx_perVeh="0.156007" fuel_perVeh="0.170309" electricity_perVeh="0"/>
        <edge id=":123_0" sampledSeconds="313.33" CO_abs="40006.955100" CO2_abs="2456637.723988" HC_abs="241.147531" PMx_abs="50.336829" NOx_abs="1053.532784" fuel_abs="1055.994336" electricity_abs="0"
            CO_normed="152.556227" CO2_normed="9367.755693" HC_normed="0.919554" PMx_normed="0.191947" NOx_normed="4.017376" fuel_normed="4.026763" electricity_normed="0"
            traveltime="4.27" CO_perVeh="544.817166" CO2_perVeh="33454.643044" HC_perVeh="3.283962" PMx_perVeh="0.685490" NOx_perVeh="14.347074" fuel_perVeh="14.380596" electricity_perVeh="0"/>
        <edge id=":123_1" sampledSeconds="0.00" CO_abs="0" CO2_abs="0" HC_abs="0" PMx_abs="0" NOx_abs="0" fuel_abs="0" electricity_abs="0"
            CO_normed="0" CO2_normed="0" HC_normed="0" PMx_normed="0" NOx_normed="0" fuel_normed="0" electricity_normed="0"/>
        <edge id=":123_2" sampledSeconds="257.75" CO_abs="34585.132220" CO2_abs="2154770.907560" HC_abs="209.325614" PMx_abs="44.586847" NOx_abs="925.980765" fuel_abs="926.234823" electricity_abs="0"
            CO_normed="133.146228" CO2_normed="8295.461102" HC_normed="0.805864" PMx_normed="0.171651" NOx_normed="3.564851" fuel_normed="3.565829" electricity_normed="0"
            traveltime="4.05" CO_perVeh="543.609314" CO2_perVeh="33868.701951" HC_perVeh="3.290181" PMx_perVeh="0.700816" NOx_perVeh="14.554571" fuel_perVeh="14.558564" electricity_perVeh="0"/>
        <edge id=":123_3" sampledSeconds="469.12" CO_abs="22114.065965" CO2_abs="2109735.405273" HC_abs="150.541287" PMx_abs="39.118123" NOx_abs="844.192166" fuel_abs="906.876336" electricity_abs="0"
            CO_normed="87.107835" CO2_normed="8310.298205" HC_normed="0.592986" PMx_normed="0.154087" NOx_normed="3.325293" fuel_normed="3.572208" electricity_normed="0"
            traveltime="2.81" CO_perVeh="132.361643" CO2_perVeh="12627.621072" HC_perVeh="0.901051" PMx_perVeh="0.234138" NOx_perVeh="5.052832" fuel_perVeh="5.428022" electricity_perVeh="0"/>
        <edge id=":123_5" sampledSeconds="0.00" CO_abs="0" CO2_abs="0" HC_abs="0" PMx_abs="0" NOx_abs="0" fuel_abs="0" electricity_abs="0"
            CO_normed="0" CO2_normed="0" HC_normed="0" PMx_normed="0" NOx_normed="0" fuel_normed="0" electricity_normed="0"/>
        <edge id=":123_6" sampledSeconds="194.72" CO_abs="9447.924654" CO2_abs="919075.500740" HC_abs="64.697115" PMx_abs="16.922124" NOx_abs="366.694771" fuel_abs="395.067516" electricity_abs="0"
            CO_normed="35.947314" CO2_normed="3496.883885" HC_normed="0.246159" PMx_normed="0.064385" NOx_normed="1.395194" fuel_normed="1.503147" electricity_normed="0"
            traveltime="2.91" CO_perVeh="141.345199" CO2_perVeh="13749.782511" HC_perVeh="0.967898" PMx_perVeh="0.253163" NOx_perVeh="5.485919" fuel_perVeh="5.910388" electricity_perVeh="0"/>
        <edge id=":124_0" sampledSeconds="118.81" CO_abs="4218.379348" CO2_abs="381038.286533" HC_abs="28.213160" PMx_abs="7.228243" NOx_abs="154.066337" fuel_abs="163.790378" electricity_abs="0"
            CO_normed="98.749458" CO2_normed="8919.853142" HC_normed="0.660451" PMx_normed="0.169208" NOx_normed="3.606591" fuel_normed="3.834224" electricity_normed="0"
            traveltime="0.46" CO_perVeh="16.405983" CO2_perVeh="1481.921609" HC_perVeh="0.109726" PMx_perVeh="0.028112" NOx_perVeh="0.599190" fuel_perVeh="0.637008" electricity_perVeh="0"/>
        <edge id=":125_0" sampledSeconds="141.24" CO_abs="5500.262729" CO2_abs="558674.509967" HC_abs="38.196931" PMx_abs="10.355001" NOx_abs="220.234233" fuel_abs="240.148002" electricity_abs="0"
            CO_normed="345.928474" CO2_normed="35136.761633" HC_normed="2.402323" PMx_normed="0.651258" NOx_normed="13.851210" fuel_normed="15.103648" electricity_normed="0"
            traveltime="0.16" CO_perVeh="6.299213" CO2_perVeh="639.825742" HC_perVeh="0.043745" PMx_perVeh="0.011859" NOx_perVeh="0.252225" fuel_perVeh="0.275031" electricity_perVeh="0"/>
        <edge id=":125_3" sampledSeconds="0.00" CO_abs="0" CO2_abs="0" HC_abs="0" PMx_abs="0" NOx_abs="0" fuel_abs="0" electricity_abs="0"
            CO_normed="0" CO2_normed="0" HC_normed="0" PMx_normed="0" NOx_normed="0" fuel_normed="0" electricity_normed="0"/>
        <edge id=":126_0" sampledSeconds="27.33" CO_abs="148.980406" CO2_abs="11277.691941" HC_abs="0.933091" PMx_abs="0.141304" NOx_abs="4.241258" fuel_abs="4.847864" electricity_abs="0"
            CO_normed="4.905674" CO2_normed="371.355393" HC_normed="0.030725" PMx_normed="0.004653" NOx_normed="0.139657" fuel_normed="0.159632" electricity_normed="0"
            traveltime="0.57" CO_perVeh="3.094307" CO2_perVeh="234.236412" HC_perVeh="0.019380" PMx_perVeh="0.002935" NOx_perVeh="0.088090" fuel_perVeh="0.100690" electricity_perVeh="0"/>
        <edge id=":126_1" sampledSeconds="80.88" CO_abs="1377.106375" CO2_abs="224156.801137" HC_abs="11.329901" PMx_abs="3.535937" NOx_abs="82.281350" fuel_abs="96.354932" electricity_abs="0"
            CO_normed="40.346489" CO2_normed="6567.350320" HC_normed="0.331944" PMx_normed="0.103596" NOx_normed="2.410681" fuel_normed="2.823009" electricity_normed="0"
            traveltime="0.35" CO_perVeh="5.958976" CO2_perVeh="969.964992" HC_perVeh="0.049026" PMx_perVeh="0.015301" NOx_perVeh="0.356046" fuel_perVeh="0.416944" electricity_perVeh="0"/>
        <edge id=":127_0" sampledSeconds="234.26" CO_abs="5392.239763" CO2_abs="693564.841815" HC_abs="40.719444" PMx_abs="11.882446" NOx_abs="262.641650" fuel_abs="298.131746" electricity_abs="0"
            CO_normed="124.681830" CO2_normed="16036.922905" HC_normed="0.941534" PMx_normed="0.274751" NOx_normed="6.072920" fuel_normed="6.893538" electricity_normed="0"
            traveltime="0.44" CO_perVeh="10.083619" CO2_perVeh="1296.983007" HC_perVeh="0.076146" PMx_perVeh="0.022220" NOx_perVeh="0.491146" fuel_perVeh="0.557514" electricity_perVeh="0"/>
        <edge id=":128_0" sampledSeconds="229.45" CO_abs="345.475301" CO2_abs="48955.285717" HC_abs="2.712093" PMx_abs="0.750598" NOx_abs="18.347055" fuel_abs="21.043703" electricity_abs="0"
            CO_normed="5.338576" CO2_normed="756.498474" HC_normed="0.041910" PMx_normed="0.011599" NOx_normed="0.283514" fuel_normed="0.325185" electricity_normed="0"
            traveltime="0.75" CO_perVeh="1.135698" CO2_perVeh="160.933068" HC_perVeh="0.008916" PMx_perVeh="0.002467" NOx_perVeh="0.060313" fuel_perVeh="0.069178" electricity_perVeh="0"/>
        <edge id=":128_1" sampledSeconds="142.34" CO_abs="217.175951" CO2_abs="29452.933251" HC_abs="1.662785" PMx_abs="0.395117" NOx_abs="10.919032" fuel_abs="12.660577" electricity_abs="0"
            CO_normed="3.466717" CO2_normed="470.148665" HC_normed="0.026543" PMx_normed="0.006307" NOx_normed="0.174297" fuel_normed="0.202097" electricity_normed="0"
            traveltime="0.85" CO_perVeh="1.301846" CO2_perVeh="176.553593" HC_perVeh="0.009967" PMx_perVeh="0.002369" NOx_perVeh="0.065453" fuel_perVeh="0.075893" electricity_perVeh="0"/>
        <edge id=":129_0" sampledSeconds="105.27" CO_abs="5622.005131" CO2_abs="504534.350199" HC_abs="37.593167" PMx_abs="9.486221" NOx_abs="204.427071" fuel_abs="216.875586" electricity_abs="0"
            CO_normed="130.957492" CO2_normed="11752.488940" HC_normed="0.875685" PMx_normed="0.220970" NOx_normed="4.761870" fuel_normed="5.051842" electricity_normed="0"
            traveltime="0.50" CO_perVeh="26.645354" CO2_perVeh="2391.228014" HC_perVeh="0.178172" PMx_perVeh="0.044960" NOx_perVeh="0.968877" fuel_perVeh="1.027876" electricity_perVeh="0"/>
        <edge id=":13_0" sampledSeconds="59.35" CO_abs="5209.415814" CO2_abs="366141.130969" HC_abs="32.493056" PMx_abs="7.224175" NOx_abs="154.380099" fuel_abs="157.386917" electricity_abs="0"
            CO_normed="36.826851" CO2_normed="2588.356398" HC_normed="0.229703" PMx_normed="0.051070" NOx_normed="1.091357" fuel_normed="1.112613" electricity_normed="0"
            traveltime="2.10" CO_perVeh="184.265410" CO2_perVeh="12951.000299" HC_perVeh="1.149332" PMx_perVeh="0.255531" NOx_perVeh="5.460672" fuel_perVeh="5.567028" electricity_perVeh="0"/>
        <edge id=":13_1" sampledSeconds="543.13" CO_abs="12187.276352" CO2_abs="937478.474594" HC_abs="76.907112" PMx_abs="12.918681" NOx_abs="359.674769" fuel_abs="402.985563" electricity_abs="0"
            CO_normed="121.408981" CO2_normed="9339.109348" HC_normed="0.766144" PMx_normed="0.128695" NOx_normed="3.583060" fuel_normed="4.014520" electricity_normed="0"
            traveltime="1.90" CO_perVeh="42.548680" CO2_perVeh="3272.960291" HC_perVeh="0.268501" PMx_perVeh="0.045102" NOx_perVeh="1.255710" fuel_perVeh="1.406918" electricity_perVeh="0"/>
        <edge id=":132_0" sampledSeconds="40.98" CO_abs="546.463906" CO2_abs="84531.789850" HC_abs="4.400983" PMx_abs="1.243281" NOx_abs="31.390019" fuel_abs="36.336486" electricity_abs="0"
            CO_normed="1031.063973" CO2_normed="159493.943113" HC_normed="8.303742" PMx_normed="2.345814" NOx_normed="59.226451" fuel_normed="68.559408" electricity_normed="0"
            traveltime="6.352437e-03" CO_perVeh="0.084717" CO2_perVeh="13.104688" HC_perVeh="0.000682" PMx_perVeh="0.000193" NOx_perVeh="0.004866" fuel_perVeh="0.005633" electricity_perVeh="0"/>
        <edge id=":133_0" sampledSeconds="44.79" CO_abs="685.775901" CO2_abs="93623.331119" HC_abs="5.231737" PMx_abs="1.253633" NOx_abs="34.644285" fuel_abs="40.244731" electricity_abs="0"