<?xml version="1.0" encoding="UTF-8"?>

<!-- generated on Tue Nov 10 02:28:12 2020 by Eclipse SUMO sumo Version 1.7.0
<configuration xmlns:xsi="http://www.w3.org/2001/XMLSchema-instance" xsi:noNamespaceSchemaLocation="http://sumo.dlr.de/xsd/sumoConfiguration.xsd">

    <input>
        <net-file value="../dataSets/Porto/6AM7AM_Routing_SaoBento/Porto.net.xml"/>
        <route-files value="../results/Porto/6AM7AM_Routing_SaoBento/cost_PMx-cost_nox/solution4/Porto.rou.xml"/>
        <additional-files value="moreOutputInfo.xml"/>
    </input>

    <output>
        <emission-output.precision value="6"/>
        <tripinfo-output value="../results/Porto/6AM7AM_Routing_SaoBento/cost_PMx-cost_nox/solution4/Porto-tripinfo"/>
    </output>

    <processing>
        <collision.action value="warn"/>
        <time-to-teleport value="-1"/>
    </processing>

    <emissions>
        <device.emissions.probability value="1"/>
    </emissions>

    <gui_only>
        <quit-on-end value="true"/>
        <start value="true"/>
    </gui_only>

</configuration>
-->

<meandata xmlns:xsi="http://www.w3.org/2001/XMLSchema-instance" xsi:noNamespaceSchemaLocation="http://sumo.dlr.de/xsd/meandata_file.xsd">
    <interval begin="0.00" end="4699.00" id="emissions-detector">
        <edge id=":1092997347_0" sampledSeconds="312.24" CO_abs="39836.495857" CO2_abs="1573258.259815" HC_abs="218.567529" PMx_abs="32.113224" NOx_abs="683.040183" fuel_abs="676.281976" electricity_abs="0"
            CO_normed="69362.623133" CO2_normed="2739330.290456" HC_normed="380.566032" PMx_normed="55.914994" NOx_normed="1189.297847" fuel_normed="1177.530575" electricity_normed="0"
            traveltime="0.08" CO_perVeh="9.640774" CO2_perVeh="380.742013" HC_perVeh="0.052895" PMx_perVeh="0.007772" NOx_perVeh="0.165302" fuel_perVeh="0.163666" electricity_perVeh="0"/>
        <edge id=":1103427051_0" sampledSeconds="10.94" CO_abs="893.809199" CO2_abs="50246.148467" HC_abs="5.261934" PMx_abs="0.981434" NOx_abs="21.414498" fuel_abs="21.598603" electricity_abs="0"
            CO_normed="2361.260368" CO2_normed="132740.006665" HC_normed="13.900949" PMx_normed="2.592746" NOx_normed="56.572707" fuel_normed="57.059073" electricity_normed="0"
            traveltime="0.03" CO_perVeh="2.449024" CO2_perVeh="137.673687" HC_perVeh="0.014418" PMx_perVeh="0.002689" NOx_perVeh="0.058675" fuel_perVeh="0.059180" electricity_perVeh="0"/>
        <edge id=":1105984386_0" sampledSeconds="36.48" CO_abs="744.922559" CO2_abs="60968.108971" HC_abs="4.790114" PMx_abs="0.856813" NOx_abs="23.438975" fuel_abs="26.207761" electricity_abs="0"
            CO_normed="58.774501" CO2_normed="4810.392910" HC_normed="0.377941" PMx_normed="0.067603" NOx_normed="1.849339" fuel_normed="2.067796" electricity_normed="0"
            traveltime="0.94" CO_perVeh="19.239276" CO2_perVeh="1574.636499" HC_perVeh="0.123715" PMx_perVeh="0.022129" NOx_perVeh="0.605363" fuel_perVeh="0.676873" electricity_perVeh="0"/>
        <edge id=":1105984390_0" sampledSeconds="36.61" CO_abs="8.654625" CO2_abs="778.781742" HC_abs="0.056446" PMx_abs="0.006517" NOx_abs="0.270406" fuel_abs="0.334773" electricity_abs="0"
            CO_normed="0.527905" CO2_normed="47.503234" HC_normed="0.003443" PMx_normed="0.000398" NOx_normed="0.016494" fuel_normed="0.020420" electricity_normed="0"
            traveltime="1.02" CO_perVeh="0.241528" CO2_perVeh="21.733766" HC_perVeh="0.001575" PMx_perVeh="0.000182" NOx_perVeh="0.007546" fuel_perVeh="0.009343" electricity_perVeh="0"/>
        <edge id=":1105984390_1" sampledSeconds="646.58" CO_abs="13483.676069" CO2_abs="1796837.514165" HC_abs="104.348764" PMx_abs="31.501966" NOx_abs="670.242565" fuel_abs="772.378279" electricity_abs="0"
            CO_normed="786.757044" CO2_normed="104843.409521" HC_normed="6.088631" PMx_normed="1.838104" NOx_normed="39.107885" fuel_normed="45.067387" electricity_normed="0"
            traveltime="0.64" CO_perVeh="13.267998" CO2_perVeh="1768.096216" HC_perVeh="0.102680" PMx_perVeh="0.030998" NOx_perVeh="0.659522" fuel_perVeh="0.760024" electricity_perVeh="0"/>
        <edge id=":1105984395_0" sampledSeconds="14.27" CO_abs="263.393870" CO2_abs="21292.667075" HC_abs="1.683196" PMx_abs="0.277326" NOx_abs="8.052343" fuel_abs="9.152905" electricity_abs="0"
            CO_normed="219.338512" CO2_normed="17731.247507" HC_normed="1.401664" PMx_normed="0.230940" NOx_normed="6.705505" fuel_normed="7.621986" electricity_normed="0"
            traveltime="0.09" CO_perVeh="1.643755" CO2_perVeh="132.880571" HC_perVeh="0.010504" PMx_perVeh="0.001731" NOx_perVeh="0.050252" fuel_perVeh="0.057120" electricity_perVeh="0"/>
        <edge id=":1105984398_0" sampledSeconds="38.21" CO_abs="2120.573356" CO2_abs="151778.948923" HC_abs="13.231777" PMx_abs="2.687985" NOx_abs="62.185179" fuel_abs="65.243076" electricity_abs="0"
            CO_normed="134.376726" CO2_normed="9617.945147" HC_normed="0.838473" PMx_normed="0.170333" NOx_normed="3.940557" fuel_normed="4.134330" electricity_normed="0"
            traveltime="1.10" CO_perVeh="60.905591" CO2_perVeh="4359.286380" HC_perVeh="0.380034" PMx_perVeh="0.077202" NOx_perVeh="1.786038" fuel_perVeh="1.873865" electricity_perVeh="0"/>
        <edge id=":1105984398_1" sampledSeconds="453.22" CO_abs="8449.160931" CO2_abs="990477.666606" HC_abs="61.304200" PMx_abs="14.203084" NOx_abs="374.701332" fuel_abs="425.764115" electricity_abs="0"
            CO_normed="518.260607" CO2_normed="60754.619440" HC_normed="3.760320" PMx_normed="0.871199" NOx_normed="22.983695" fuel_normed="26.115820" electricity_normed="0"
            traveltime="0.95" CO_perVeh="17.760177" CO2_perVeh="2081.988805" HC_perVeh="0.128862" PMx_perVeh="0.029855" NOx_perVeh="0.787624" fuel_perVeh="0.894958" electricity_perVeh="0"/>
        <edge id=":1106006327_0" sampledSeconds="37.53" CO_abs="5085.036972" CO2_abs="168433.575570" HC_abs="27.122529" PMx_abs="3.516092" NOx_abs="73.750203" fuel_abs="72.403553" electricity_abs="0"
            CO_normed="439.700995" CO2_normed="14564.380012" HC_normed="2.345274" PMx_normed="0.304035" NOx_normed="6.377149" fuel_normed="6.260705" electricity_normed="0"
            traveltime="2.04" CO_perVeh="275.859831" CO2_perVeh="9137.408031" HC_perVeh="1.471379" PMx_perVeh="0.190746" NOx_perVeh="4.000899" fuel_perVeh="3.927844" electricity_perVeh="0"/>
        <edge id=":1106006327_1" sampledSeconds="162.42" CO_abs="21887.224591" CO2_abs="727516.865275" HC_abs="116.798843" PMx_abs="15.154690" NOx_abs="318.270657" fuel_abs="312.733399" electricity_abs="0"
            CO_normed="1650.418344" CO2_normed="54858.813883" HC_normed="8.807282" PMx_normed="1.142748" NOx_normed="23.999376" fuel_normed="23.581836" electricity_normed="0"
            traveltime="2.31" CO_perVeh="310.717362" CO2_perVeh="10328.039558" HC_perVeh="1.658110" PMx_perVeh="0.215140" NOx_perVeh="4.518262" fuel_perVeh="4.439654" electricity_perVeh="0"/>
        <edge id=":1106006327_2" sampledSeconds="0.00" CO_abs="0" CO2_abs="0" HC_abs="0" PMx_abs="0" NOx_abs="0" fuel_abs="0" electricity_abs="0"
            CO_normed="0" CO2_normed="0" HC_normed="0" PMx_normed="0" NOx_normed="0" fuel_normed="0" electricity_normed="0"/>
        <edge id=":1106006327_3" sampledSeconds="0.00" CO_abs="0" CO2_abs="0" HC_abs="0" PMx_abs="0" NOx_abs="0" fuel_abs="0" electricity_abs="0"
            CO_normed="0" CO2_normed="0" HC_normed="0" PMx_normed="0" NOx_normed="0" fuel_normed="0" electricity_normed="0"/>
        <edge id=":1107381198_0" sampledSeconds="0.00" CO_abs="0" CO2_abs="0" HC_abs="0" PMx_abs="0" NOx_abs="0" fuel_abs="0" electricity_abs="0"
            CO_normed="0" CO2_normed="0" HC_normed="0" PMx_normed="0" NOx_normed="0" fuel_normed="0" electricity_normed="0"/>
        <edge id=":1107381198_1" sampledSeconds="35.35" CO_abs="1997.262738" CO2_abs="83152.535628" HC_abs="11.012327" PMx_abs="1.438616" NOx_abs="34.448958" fuel_abs="35.744312" electricity_abs="0"
            CO_normed="166.864104" CO2_normed="6947.094669" HC_normed="0.920040" PMx_normed="0.120191" NOx_normed="2.878086" fuel_normed="2.986308" electricity_normed="0"
            traveltime="1.46" CO_perVeh="82.232845" CO2_perVeh="3423.620473" HC_perVeh="0.453408" PMx_perVeh="0.059232" NOx_perVeh="1.418359" fuel_perVeh="1.471692" electricity_perVeh="0"/>
        <edge id=":1110338277_0" sampledSeconds="96.97" CO_abs="1507.761612" CO2_abs="175863.098251" HC_abs="10.903644" PMx_abs="2.428737" NOx_abs="66.056403" fuel_abs="75.596183" electricity_abs="0"
            CO_normed="4125.453595" CO2_normed="481186.843480" HC_normed="29.833945" PMx_normed="6.645376" NOx_normed="180.739863" fuel_normed="206.842079" electricity_normed="0"
            traveltime="0.02" CO_perVeh="0.340143" CO2_perVeh="39.673833" HC_perVeh="0.002460" PMx_perVeh="0.000548" NOx_perVeh="0.014902" fuel_perVeh="0.017054" electricity_perVeh="0"/>
        <edge id=":1110338293_0" sampledSeconds="124.62" CO_abs="5855.371953" CO2_abs="402107.578143" HC_abs="36.102448" PMx_abs="7.012581" NOx_abs="164.373842" fuel_abs="172.848648" electricity_abs="0"
            CO_normed="14953.067342" CO2_normed="1026876.130607" HC_normed="92.196078" PMx_normed="17.908272" NOx_normed="419.767207" fuel_normed="441.409614" electricity_normed="0"
            traveltime="0.03" CO_perVeh="1.343027" CO2_perVeh="92.230047" HC_perVeh="0.008281" PMx_perVeh="0.001608" NOx_perVeh="0.037702" fuel_perVeh="0.039646" electricity_perVeh="0"/>
        <edge id=":1110338295_0" sampledSeconds="0.00" CO_abs="0" CO2_abs="0" HC_abs="0" PMx_abs="0" NOx_abs="0" fuel_abs="0" electricity_abs="0"
            CO_normed="0" CO2_normed="0" HC_normed="0" PMx_normed="0" NOx_normed="0" fuel_normed="0" electricity_normed="0"/>
        <edge id=":1110673403_0" sampledSeconds="147.38" CO_abs="2402.574797" CO2_abs="295148.238962" HC_abs="17.650327" PMx_abs="4.100604" NOx_abs="110.595966" fuel_abs="126.871753" electricity_abs="0"
            CO_normed="6135.538959" CO2_normed="753730.339977" HC_normed="45.074255" PMx_normed="10.471856" NOx_normed="282.432772" fuel_normed="323.996816" electricity_normed="0"
            traveltime="0.02" CO_perVeh="0.375598" CO2_perVeh="46.140944" HC_perVeh="0.002759" PMx_perVeh="0.000641" NOx_perVeh="0.017290" fuel_perVeh="0.019834" electricity_perVeh="0"/>
        <edge id=":1110673412_0" sampledSeconds="252.42" CO_abs="44732.998244" CO2_abs="3054625.834135" HC_abs="278.448199" PMx_abs="67.125744" NOx_abs="1312.498196" fuel_abs="1313.033191" electricity_abs="0"
            CO_normed="118175.395849" CO2_normed="8069694.214386" HC_normed="735.602965" PMx_normed="177.332432" NOx_normed="3467.350724" fuel_normed="3468.764072" electricity_normed="0"
            traveltime="0.02" CO_perVeh="2.753195" CO2_perVeh="188.003973" HC_perVeh="0.017138" PMx_perVeh="0.004131" NOx_perVeh="0.080781" fuel_perVeh="0.080814" electricity_perVeh="0"/>
        <edge id=":1110673414_0" sampledSeconds="0.00" CO_abs="0" CO2_abs="0" HC_abs="0" PMx_abs="0" NOx_abs="0" fuel_abs="0" electricity_abs="0"
            CO_normed="0" CO2_normed="0" HC_normed="0" PMx_normed="0" NOx_normed="0" fuel_normed="0" electricity_normed="0"/>
        <edge id=":1110673414_1" sampledSeconds="253.37" CO_abs="17533.504596" CO2_abs="675937.578408" HC_abs="95.567003" PMx_abs="12.636866" NOx_abs="286.350266" fuel_abs="290.561125" electricity_abs="0"
            CO_normed="1487.572143" CO2_normed="57347.685773" HC_normed="8.108066" PMx_normed="1.072133" NOx_normed="24.294440" fuel_normed="24.651697" electricity_normed="0"
            traveltime="1.58" CO_perVeh="109.425355" CO2_perVeh="4218.478356" HC_perVeh="0.596427" PMx_perVeh="0.078866" NOx_perVeh="1.787092" fuel_perVeh="1.813371" electricity_perVeh="0"/>
        <edge id=":1110673417_0" sampledSeconds="29.63" CO_abs="444.564966" CO2_abs="55740.792894" HC_abs="3.283843" PMx_abs="0.740194" NOx_abs="20.662983" fuel_abs="23.960655" electricity_abs="0"
            CO_normed="1216.393973" CO2_normed="152514.862142" HC_normed="8.985069" PMx_normed="2.025278" NOx_normed="56.536906" fuel_normed="65.559815" electricity_normed="0"
            traveltime="0.02" CO_perVeh="0.329962" CO2_perVeh="41.371563" HC_perVeh="0.002437" PMx_perVeh="0.000549" NOx_perVeh="0.015336" fuel_perVeh="0.017784" electricity_perVeh="0"/>
        <edge id=":1110673446_0" sampledSeconds="333.39" CO_abs="3294.972626" CO2_abs="267641.891877" HC_abs="21.348450" PMx_abs="4.863359" NOx_abs="109.201987" fuel_abs="115.047003" electricity_abs="0"
            CO_normed="8414.486384" CO2_normed="683486.423181" HC_normed="54.518281" PMx_normed="12.419729" NOx_normed="278.872919" fuel_normed="293.799541" electricity_normed="0"
            traveltime="0.02" CO_perVeh="0.225218" CO2_perVeh="18.293870" HC_perVeh="0.001459" PMx_perVeh="0.000332" NOx_perVeh="0.007464" fuel_perVeh="0.007864" electricity_perVeh="0"/>
        <edge id=":1110673451_0" sampledSeconds="37.23" CO_abs="463.274585" CO2_abs="33838.988677" HC_abs="2.883507" PMx_abs="0.477847" NOx_abs="13.085090" fuel_abs="14.546066" electricity_abs="0"
            CO_normed="1314.533829" CO2_normed="96017.560266" HC_normed="8.181902" PMx_normed="1.355883" NOx_normed="37.128723" fuel_normed="41.274216" electricity_normed="0"
            traveltime="0.03" CO_perVeh="0.332229" CO2_perVeh="24.267004" HC_perVeh="0.002068" PMx_perVeh="0.000343" NOx_perVeh="0.009384" fuel_perVeh="0.010431" electricity_perVeh="0"/>
        <edge id=":1110673464_0" sampledSeconds="322.45" CO_abs="570.488003" CO2_abs="46147.840606" HC_abs="3.649631" PMx_abs="0.615918" NOx_abs="17.520241" fuel_abs="19.837174" electricity_abs="0"
            CO_normed="30.953437" CO2_normed="2503.881336" HC_normed="0.198021" PMx_normed="0.033418" NOx_normed="0.950610" fuel_normed="1.076322" electricity_normed="0"
            traveltime="1.17" CO_perVeh="2.062242" CO2_perVeh="166.818574" HC_perVeh="0.013193" PMx_perVeh="0.002226" NOx_perVeh="0.063333" fuel_perVeh="0.071709" electricity_perVeh="0"/>
        <edge id=":1110673464_1" sampledSeconds="718.48" CO_abs="16826.620512" CO2_abs="2161125.862848" HC_abs="128.279073" PMx_abs="38.278401" NOx_abs="810.452019" fuel_abs="928.968913" electricity_abs="0"
            CO_normed="894.602227" CO2_normed="114898.176340" HC_normed="6.820071" PMx_normed="2.035105" NOx_normed="43.088402" fuel_normed="49.389458" electricity_normed="0"
            traveltime="0.70" CO_perVeh="16.404765" CO2_perVeh="2106.944890" HC_perVeh="0.125063" PMx_perVeh="0.037319" NOx_perVeh="0.790133" fuel_perVeh="0.905679" electricity_perVeh="0"/>
        <edge id=":1110673479_0" sampledSeconds="133.15" CO_abs="6765.261341" CO2_abs="470402.006447" HC_abs="41.851690" PMx_abs="8.194618" NOx_abs="192.107145" fuel_abs="202.205422" electricity_abs="0"
            CO_normed="17276.683569" CO2_normed="1201281.991353" HC_normed="106.878120" PMx_normed="20.926882" NOx_normed="490.590709" fuel_normed="516.379030" electricity_normed="0"
            traveltime="0.03" CO_perVeh="1.425166" CO2_perVeh="99.094587" HC_perVeh="0.008816" PMx_perVeh="0.001726" NOx_perVeh="0.040469" fuel_perVeh="0.042596" electricity_perVeh="0"/>
        <edge id=":1110673511_0" sampledSeconds="11.88" CO_abs="108.895119" CO2_abs="14359.441116" HC_abs="0.827817" PMx_abs="0.195025" NOx_abs="5.347834" fuel_abs="6.172518" electricity_abs="0"
            CO_normed="278.089259" CO2_normed="36670.205021" HC_normed="2.114026" PMx_normed="0.498043" NOx_normed="13.656949" fuel_normed="15.762975" electricity_normed="0"
            traveltime="0.02" CO_perVeh="0.215634" CO2_perVeh="28.434537" HC_perVeh="0.001639" PMx_perVeh="0.000386" NOx_perVeh="0.010590" fuel_perVeh="0.012223" electricity_perVeh="0"/>
        <edge id=":1110673517_0" sampledSeconds="17.24" CO_abs="825.839002" CO2_abs="60073.926651" HC_abs="5.171082" PMx_abs="1.035845" NOx_abs="24.408483" fuel_abs="25.823165" electricity_abs="0"
            CO_normed="2108.973829" CO2_normed="153412.879297" HC_normed="13.205572" PMx_normed="2.645275" NOx_normed="62.332794" fuel_normed="65.945517" electricity_normed="0"
            traveltime="0.03" CO_perVeh="1.325939" CO2_perVeh="96.452652" HC_perVeh="0.008303" PMx_perVeh="0.001663" NOx_perVeh="0.039189" fuel_perVeh="0.041461" electricity_perVeh="0"/>
        <edge id=":1110673534_0" sampledSeconds="476.06" CO_abs="2993.831245" CO2_abs="265737.259654" HC_abs="19.675083" PMx_abs="3.424338" NOx_abs="99.815363" fuel_abs="114.230151" electricity_abs="0"
            CO_normed="148.167658" CO2_normed="13151.598789" HC_normed="0.973739" PMx_normed="0.169474" NOx_normed="4.939961" fuel_normed="5.653363" electricity_normed="0"
            traveltime="1.43" CO_perVeh="9.019214" CO2_perVeh="800.559857" HC_perVeh="0.059273" PMx_perVeh="0.010316" NOx_perVeh="0.300704" fuel_perVeh="0.344130" electricity_perVeh="0"/>
        <edge id=":1110673534_1" sampledSeconds="199.96" CO_abs="3148.952962" CO2_abs="409674.139007" HC_abs="23.695635" PMx_abs="5.473307" NOx_abs="151.843441" fuel_abs="176.101813" electricity_abs="0"
            CO_normed="151.537517" CO2_normed="19714.807551" HC_normed="1.140308" PMx_normed="0.263393" NOx_normed="7.307184" fuel_normed="8.474573" electricity_normed="0"
            traveltime="1.22" CO_perVeh="19.248559" CO2_perVeh="2504.209111" HC_perVeh="0.144844" PMx_perVeh="0.033457" NOx_perVeh="0.928171" fuel_perVeh="1.076455" electricity_perVeh="0"/>
        <edge id=":1110673549_0" sampledSeconds="60.22" CO_abs="56.153776" CO2_abs="4753.161210" HC_abs="0.361458" PMx_abs="0.049477" NOx_abs="1.712319" fuel_abs="2.043220" electricity_abs="0"
            CO_normed="2.692150" CO2_normed="227.878223" HC_normed="0.017329" PMx_normed="0.002372" NOx_normed="0.082093" fuel_normed="0.097957" electricity_normed="0"
            traveltime="1.25" CO_perVeh="1.169916" CO2_perVeh="99.028065" HC_perVeh="0.007531" PMx_perVeh="0.001031" NOx_perVeh="0.035675" fuel_perVeh="0.042569" electricity_perVeh="0"/>
        <edge id=":1110673549_1" sampledSeconds="639.34" CO_abs="14187.046898" CO2_abs="1807898.547760" HC_abs="107.996174" PMx_abs="32.133597" NOx_abs="679.017543" fuel_abs="777.132611" electricity_abs="0"
            CO_normed="657.928981" CO2_normed="83841.891711" HC_normed="5.008358" PMx_normed="1.490206" NOx_normed="31.489663" fuel_normed="36.039781" electricity_normed="0"
            traveltime="0.80" CO_perVeh="17.859597" CO2_perVeh="2275.902818" HC_perVeh="0.135953" PMx_perVeh="0.040452" NOx_perVeh="0.854792" fuel_perVeh="0.978306" electricity_perVeh="0"/>
        <edge id=":1110673556_0" sampledSeconds="420.76" CO_abs="52152.759396" CO2_abs="2604182.842228" HC_abs="299.409212" PMx_abs="52.679295" NOx_abs="1122.794160" fuel_abs="1119.425417" electricity_abs="0"
            CO_normed="1854.074040" CO2_normed="92580.869327" HC_normed="10.644247" PMx_normed="1.872793" NOx_normed="39.916268" fuel_normed="39.796506" electricity_normed="0"
            traveltime="2.61" CO_perVeh="323.738900" CO2_perVeh="16165.497249" HC_perVeh="1.858586" PMx_perVeh="0.327007" NOx_perVeh="6.969759" fuel_perVeh="6.948847" electricity_perVeh="0"/>
        <edge id=":1110673556_2" sampledSeconds="246.63" CO_abs="23475.560540" CO2_abs="1017310.810275" HC_abs="130.816370" PMx_abs="19.767964" NOx_abs="434.796752" fuel_abs="437.301603" electricity_abs="0"
            CO_normed="872.639837" CO2_normed="37815.750458" HC_normed="4.862741" PMx_normed="0.734820" NOx_normed="16.162382" fuel_normed="16.255493" electricity_normed="0"
            traveltime="2.99" CO_perVeh="284.754051" CO2_perVeh="12339.785183" HC_perVeh="1.586778" PMx_perVeh="0.239782" NOx_perVeh="5.274001" fuel_perVeh="5.304385" electricity_perVeh="0"/>
        <edge id=":1110673556_3" sampledSeconds="370.22" CO_abs="32326.689229" CO2_abs="1159968.662153" HC_abs="174.223471" PMx_abs="22.240184" NOx_abs="495.350141" fuel_abs="498.629617" electricity_abs="0"
            CO_normed="2733.569287" CO2_normed="98087.827238" HC_normed="14.732468" PMx_normed="1.880647" NOx_normed="41.887182" fuel_normed="42.164497" electricity_normed="0"
            traveltime="1.73" CO_perVeh="151.484330" CO2_perVeh="5435.665708" HC_perVeh="0.816419" PMx_perVeh="0.104219" NOx_perVeh="2.321233" fuel_perVeh="2.336601" electricity_perVeh="0"/>
        <edge id=":1110673556_4" sampledSeconds="172.34" CO_abs="18416.371197" CO2_abs="737304.680480" HC_abs="101.176760" PMx_abs="14.489476" NOx_abs="316.645807" fuel_abs="316.938966" electricity_abs="0"
            CO_normed="951.393028" CO2_normed="38089.291602" HC_normed="5.226809" PMx_normed="0.748529" NOx_normed="16.357979" fuel_normed="16.373124" electricity_normed="0"
            traveltime="2.42" CO_perVeh="258.309982" CO2_perVeh="10341.513903" HC_perVeh="1.419116" PMx_perVeh="0.203231" NOx_perVeh="4.441308" fuel_perVeh="4.445420" electricity_perVeh="0"/>
        <edge id=":1110673556_5" sampledSeconds="23.88" CO_abs="2055.801962" CO2_abs="86559.422604" HC_abs="11.385849" PMx_abs="1.639633" NOx_abs="36.760884" fuel_abs="37.208576" electricity_abs="0"
            CO_normed="148.025557" CO2_normed="6232.607509" HC_normed="0.819824" PMx_normed="0.118060" NOx_normed="2.646923" fuel_normed="2.679159" electricity_normed="0"
            traveltime="1.65" CO_perVeh="142.129518" CO2_perVeh="5984.355143" HC_perVeh="0.787170" PMx_perVeh="0.113357" NOx_perVeh="2.541493" fuel_perVeh="2.572445" electricity_perVeh="0"/>
        <edge id=":1110673556_6" sampledSeconds="307.51" CO_abs="37551.777670" CO2_abs="1921530.697162" HC_abs="216.747971" PMx_abs="38.966485" NOx_abs="828.307109" fuel_abs="825.981964" electricity_abs="0"
            CO_normed="1368.657700" CO2_normed="70034.441704" HC_normed="7.899860" PMx_normed="1.420220" NOx_normed="30.189487" fuel_normed="30.104742" electricity_normed="0"
            traveltime="2.44" CO_perVeh="297.379871" CO2_perVeh="15216.977389" HC_perVeh="1.716470" PMx_perVeh="0.308583" NOx_perVeh="6.559526" fuel_perVeh="6.541113" electricity_perVeh="0"/>
        <edge id=":1110673561_0" sampledSeconds="98.75" CO_abs="10081.785612" CO2_abs="722855.189974" HC_abs="63.331667" PMx_abs="14.686240" NOx_abs="306.023447" fuel_abs="310.720911" electricity_abs="0"
            CO_normed="461.677355" CO2_normed="33101.861582" HC_normed="2.900161" PMx_normed="0.672530" NOx_normed="14.013797" fuel_normed="14.228909" electricity_normed="0"
            traveltime="1.17" CO_perVeh="118.974856" CO2_perVeh="8530.392845" HC_perVeh="0.747375" PMx_perVeh="0.173312" NOx_perVeh="3.611374" fuel_perVeh="3.666808" electricity_perVeh="0"/>
        <edge id=":1110673561_1" sampledSeconds="1313.69" CO_abs="122494.767390" CO2_abs="8487155.860896" HC_abs="763.138019" PMx_abs="177.360440" NOx_abs="3628.423408" fuel_abs="3648.218455" electricity_abs="0"
            CO_normed="5468.866344" CO2_normed="378915.132705" HC_normed="34.070842" PMx_normed="7.918383" NOx_normed="161.993553" fuel_normed="162.877318" electricity_normed="0"
            traveltime="1.19" CO_perVeh="111.137229" CO2_perVeh="7700.239011" HC_perVeh="0.692381" PMx_perVeh="0.160916" NOx_perVeh="3.292001" fuel_perVeh="3.309961" electricity_perVeh="0"/>
        <edge id=":1110673562_0" sampledSeconds="104.15" CO_abs="2260.842919" CO2_abs="173866.421006" HC_abs="14.267787" PMx_abs="2.407785" NOx_abs="66.756060" fuel_abs="74.738402" electricity_abs="0"
            CO_normed="6415.103693" CO2_normed="493343.040381" HC_normed="40.484605" PMx_normed="6.832050" NOx_normed="189.419195" fuel_normed="212.068958" electricity_normed="0"
            traveltime="0.03" CO_perVeh="0.576299" CO2_perVeh="44.319342" HC_perVeh="0.003637" PMx_perVeh="0.000614" NOx_perVeh="0.017016" fuel_perVeh="0.019051" electricity_perVeh="0"/>
        <edge id=":1110673564_0" sampledSeconds="28.47" CO_abs="460.345447" CO2_abs="55399.624266" HC_abs="3.355389" PMx_abs="0.749696" NOx_abs="20.672525" fuel_abs="23.813992" electricity_abs="0"
            CO_normed="3526.800617" CO2_normed="424427.851364" HC_normed="25.706319" PMx_normed="5.743578" NOx_normed="158.376443" fuel_normed="182.443862" electricity_normed="0"
            traveltime="7.825991e-03" CO_perVeh="0.126555" CO2_perVeh="15.230137" HC_perVeh="0.000922" PMx_perVeh="0.000206" NOx_perVeh="0.005683" fuel_perVeh="0.006547" electricity_perVeh="0"/>
        <edge id=":1110673588_0" sampledSeconds="11.71" CO_abs="144.030695" CO2_abs="21676.178667" HC_abs="1.142166" PMx_abs="0.268740" NOx_abs="7.879454" fuel_abs="9.317698" electricity_abs="0"
            CO_normed="441.379445" CO2_normed="66426.255119" HC_normed="3.500146" PMx_normed="0.823549" NOx_normed="24.146443" fuel_normed="28.553916" electricity_normed="0"
            traveltime="0.02" CO_perVeh="0.240051" CO2_perVeh="36.126964" HC_perVeh="0.001904" PMx_perVeh="0.000448" NOx_perVeh="0.013132" fuel_perVeh="0.015529" electricity_perVeh="0"/>
        <edge id=":1110673601_0" sampledSeconds="29.69" CO_abs="548.711411" CO2_abs="62290.620654" HC_abs="3.943576" PMx_abs="0.897452" NOx_abs="23.636791" fuel_abs="26.776087" electricity_abs="0"
            CO_normed="1501.353693" CO2_normed="170436.137137" HC_normed="10.790193" PMx_normed="2.455558" NOx_normed="64.673675" fuel_normed="73.263243" electricity_normed="0"
            traveltime="0.02" CO_perVeh="0.407261" CO2_perVeh="46.232932" HC_perVeh="0.002927" PMx_perVeh="0.000666" NOx_perVeh="0.017544" fuel_perVeh="0.019874" electricity_perVeh="0"/>
        <edge id=":1110673617_0" sampledSeconds="241.20" CO_abs="5789.216840" CO2_abs="713054.392555" HC_abs="43.378860" PMx_abs="12.764416" NOx_abs="269.260950" fuel_abs="306.509276" electricity_abs="0"
            CO_normed="14784.124725" CO2_normed="1820951.843085" HC_normed="110.778107" PMx_normed="32.596933" NOx_normed="687.621069" fuel_normed="782.743416" electricity_normed="0"
            traveltime="0.01" CO_perVeh="0.351418" CO2_perVeh="43.283955" HC_perVeh="0.002633" PMx_perVeh="0.000775" NOx_perVeh="0.016345" fuel_perVeh="0.018606" electricity_perVeh="0"/>
        <edge id=":1110673621_0" sampledSeconds="25.65" CO_abs="577.957145" CO2_abs="57053.615346" HC_abs="3.959930" PMx_abs="0.885970" NOx_abs="22.189496" fuel_abs="24.524874" electricity_abs="0"
            CO_normed="1771.139155" CO2_normed="174839.766116" HC_normed="12.135134" PMx_normed="2.715038" NOx_normed="67.999306" fuel_normed="75.156032" electricity_normed="0"
            traveltime="0.02" CO_perVeh="0.437846" CO2_perVeh="43.222436" HC_perVeh="0.003000" PMx_perVeh="0.000671" NOx_perVeh="0.016810" fuel_perVeh="0.018579" electricity_perVeh="0"/>
        <edge id=":1110673630_0" sampledSeconds="54.53" CO_abs="247.239350" CO2_abs="24393.394275" HC_abs="1.680054" PMx_abs="0.300583" NOx_abs="9.008558" fuel_abs="10.485779" electricity_abs="0"
            CO_normed="13.510351" CO2_normed="1332.972769" HC_normed="0.091806" PMx_normed="0.016425" NOx_normed="0.492271" fuel_normed="0.572994" electricity_normed="0"
            traveltime="1.27" CO_perVeh="5.771004" CO2_perVeh="569.384969" HC_perVeh="0.039215" PMx_perVeh="0.007016" NOx_perVeh="0.210276" fuel_perVeh="0.244757" electricity_perVeh="0"/>
        <edge id=":1110673630_1" sampledSeconds="7.37" CO_abs="10.726230" CO2_abs="2026.798308" HC_abs="0.094205" PMx_abs="0.018919" NOx_abs="0.697503" fuel_abs="0.871245" electricity_abs="0"
            CO_normed="0.714573" CO2_normed="135.023620" HC_normed="0.006276" PMx_normed="0.001260" NOx_normed="0.046467" fuel_normed="0.058042" electricity_normed="0"
            traveltime="1.04" CO_perVeh="1.518174" CO2_perVeh="286.869914" HC_perVeh="0.013334" PMx_perVeh="0.002678" NOx_perVeh="0.098723" fuel_perVeh="0.123315" electricity_perVeh="0"/>
        <edge id=":1110673650_0" sampledSeconds="146.81" CO_abs="2260.822650" CO2_abs="282918.843724" HC_abs="16.775278" PMx_abs="3.896803" NOx_abs="105.749546" fuel_abs="121.614884" electricity_abs="0"
            CO_normed="5773.541561" CO2_normed="722499.707318" HC_normed="42.839612" PMx_normed="9.951401" NOx_normed="270.056298" fuel_normed="310.572165" electricity_normed="0"
            traveltime="0.02" CO_perVeh="0.354119" CO2_perVeh="44.314428" HC_perVeh="0.002628" PMx_perVeh="0.000610" NOx_perVeh="0.016564" fuel_perVeh="0.019049" electricity_perVeh="0"/>
        <edge id=":1110673655_0" sampledSeconds="44.78" CO_abs="953.739243" CO2_abs="100896.661579" HC_abs="6.658957" PMx_abs="1.465780" NOx_abs="38.491161" fuel_abs="43.371201" electricity_abs="0"
            CO_normed="2435.597129" CO2_normed="257663.319632" HC_normed="17.005210" PMx_normed="3.743215" NOx_normed="98.296220" fuel_normed="110.758547" electricity_normed="0"
            traveltime="0.02" CO_perVeh="0.510430" CO2_perVeh="53.998749" HC_perVeh="0.003564" PMx_perVeh="0.000784" NOx_perVeh="0.020600" fuel_perVeh="0.023212" electricity_perVeh="0"/>
        <edge id=":1110673663_0" sampledSeconds="109.25" CO_abs="1713.837638" CO2_abs="210732.005212" HC_abs="12.595501" PMx_abs="2.834553" NOx_abs="78.481837" fuel_abs="90.584915" electricity_abs="0"
            CO_normed="80.159100" CO2_normed="9856.294195" HC_normed="0.589113" PMx_normed="0.132577" NOx_normed="3.670729" fuel_normed="4.236810" electricity_normed="0"
            traveltime="1.28" CO_perVeh="20.129832" CO2_perVeh="2475.146815" HC_perVeh="0.147940" PMx_perVeh="0.033293" NOx_perVeh="0.921806" fuel_perVeh="1.063963" electricity_perVeh="0"/>
        <edge id=":1110673663_1" sampledSeconds="154.16" CO_abs="3046.707132" CO2_abs="344077.916101" HC_abs="21.799382" PMx_abs="5.021572" NOx_abs="130.859089" fuel_abs="147.904370" electricity_abs="0"
            CO_normed="142.673878" CO2_normed="16112.782904" HC_normed="1.020841" PMx_normed="0.235155" NOx_normed="6.127984" fuel_normed="6.926196" electricity_normed="0"
            traveltime="1.24" CO_perVeh="24.603334" CO2_perVeh="2778.561701" HC_perVeh="0.176038" PMx_perVeh="0.040551" NOx_perVeh="1.056738" fuel_perVeh="1.194385" electricity_perVeh="0"/>
        <edge id=":1110673666_0" sampledSeconds="206.85" CO_abs="4490.994011" CO2_abs="363261.709097" HC_abs="28.739025" PMx_abs="4.902716" NOx_abs="138.367826" fuel_abs="156.152086" electricity_abs="0"