<?xml version="1.0" encoding="UTF-8"?>

<!-- generated on Tue Nov 10 04:59:17 2020 by Eclipse SUMO sumo Version 1.7.0
<configuration xmlns:xsi="http://www.w3.org/2001/XMLSchema-instance" xsi:noNamespaceSchemaLocation="http://sumo.dlr.de/xsd/sumoConfiguration.xsd">

    <input>
        <net-file value="../dataSets/Porto/8AM9AM_Routing_SaoBento/Porto.net.xml"/>
        <route-files value="../results/Porto/8AM9AM_Routing_SaoBento/cost_PMx-ttime/solution8/Porto.rou.xml"/>
        <additional-files value="moreOutputInfo.xml"/>
    </input>

    <output>
        <emission-output.precision value="6"/>
        <tripinfo-output value="../results/Porto/8AM9AM_Routing_SaoBento/cost_PMx-ttime/solution8/Porto-tripinfo"/>
    </output>

    <processing>
        <collision.action value="warn"/>
        <time-to-teleport value="-1"/>
    </processing>

    <emissions>
        <device.emissions.probability value="1"/>
    </emissions>

    <gui_only>
        <quit-on-end value="true"/>
        <start value="true"/>
    </gui_only>

</configuration>
-->

<meandata xmlns:xsi="http://www.w3.org/2001/XMLSchema-instance" xsi:noNamespaceSchemaLocation="http://sumo.dlr.de/xsd/meandata_file.xsd">
    <interval begin="0.00" end="8381.00" id="emissions-detector">
        <edge id=":1092997347_0" sampledSeconds="609.81" CO_abs="73022.618599" CO2_abs="3074784.001191" HC_abs="405.197006" PMx_abs="62.141722" NOx_abs="1330.192645" fuel_abs="1321.725847" electricity_abs="0"
            CO_normed="71287.172001" CO2_normed="3001709.061700" HC_normed="395.567143" PMx_normed="60.664870" NOx_normed="1298.579450" fuel_normed="1290.313872" electricity_normed="0"
            traveltime="0.07" CO_perVeh="8.351668" CO2_perVeh="351.666050" HC_perVeh="0.046343" PMx_perVeh="0.007107" NOx_perVeh="0.152135" fuel_perVeh="0.151167" electricity_perVeh="0"/>
        <edge id=":1103427051_0" sampledSeconds="19.40" CO_abs="1543.997926" CO2_abs="87959.101234" HC_abs="9.110782" PMx_abs="1.698091" NOx_abs="37.325515" fuel_abs="37.809753" electricity_abs="0"
            CO_normed="2286.943182" CO2_normed="130283.508446" HC_normed="13.494733" PMx_normed="2.515183" NOx_normed="55.285911" fuel_normed="56.003156" electricity_normed="0"
            traveltime="0.03" CO_perVeh="2.401112" CO2_perVeh="136.787534" HC_perVeh="0.014168" PMx_perVeh="0.002641" NOx_perVeh="0.058046" fuel_perVeh="0.058799" electricity_perVeh="0"/>
        <edge id=":1105984386_0" sampledSeconds="10.54" CO_abs="271.163383" CO2_abs="19213.284274" HC_abs="1.675169" PMx_abs="0.278259" NOx_abs="7.482508" fuel_abs="8.259039" electricity_abs="0"
            CO_normed="11.995503" CO2_normed="849.941507" HC_normed="0.074105" PMx_normed="0.012309" NOx_normed="0.331005" fuel_normed="0.365357" electricity_normed="0"
            traveltime="1.01" CO_perVeh="26.012611" CO2_perVeh="1843.123793" HC_perVeh="0.160698" PMx_perVeh="0.026693" NOx_perVeh="0.717794" fuel_perVeh="0.792287" electricity_perVeh="0"/>
        <edge id=":1105984390_0" sampledSeconds="11.15" CO_abs="44.219600" CO2_abs="3140.095435" HC_abs="0.269821" PMx_abs="0.027102" NOx_abs="1.102276" fuel_abs="1.349832" electricity_abs="0"
            CO_normed="1.512279" CO2_normed="107.389017" HC_normed="0.009228" PMx_normed="0.000927" NOx_normed="0.037697" fuel_normed="0.046163" electricity_normed="0"
            traveltime="1.16" CO_perVeh="4.583628" CO2_perVeh="325.489797" HC_perVeh="0.027969" PMx_perVeh="0.002809" NOx_perVeh="0.114258" fuel_perVeh="0.139918" electricity_perVeh="0"/>
        <edge id=":1105984390_1" sampledSeconds="2397.75" CO_abs="64208.219846" CO2_abs="7565358.658942" HC_abs="473.281478" PMx_abs="137.003109" NOx_abs="2882.887491" fuel_abs="3251.998001" electricity_abs="0"
            CO_normed="2100.547774" CO2_normed="247497.864437" HC_normed="15.483226" PMx_normed="4.482005" NOx_normed="94.312581" fuel_normed="106.387892" electricity_normed="0"
            traveltime="0.65" CO_perVeh="17.348642" CO2_perVeh="2044.110571" HC_perVeh="0.127878" PMx_perVeh="0.037017" NOx_perVeh="0.778937" fuel_perVeh="0.878669" electricity_perVeh="0"/>
        <edge id=":1105984395_0" sampledSeconds="4.13" CO_abs="129.101746" CO2_abs="8540.716634" HC_abs="0.781204" PMx_abs="0.113177" NOx_abs="3.268077" fuel_abs="3.671342" electricity_abs="0"
            CO_normed="60.276906" CO2_normed="3987.614309" HC_normed="0.364740" PMx_normed="0.052842" NOx_normed="1.525847" fuel_normed="1.714130" electricity_normed="0"
            traveltime="0.10" CO_perVeh="2.992532" CO2_perVeh="197.970756" HC_perVeh="0.018108" PMx_perVeh="0.002623" NOx_perVeh="0.075753" fuel_perVeh="0.085100" electricity_perVeh="0"/>
        <edge id=":1105984398_0" sampledSeconds="11.18" CO_abs="650.557797" CO2_abs="44290.708203" HC_abs="3.998860" PMx_abs="0.757528" NOx_abs="18.021937" fuel_abs="19.038685" electricity_abs="0"
            CO_normed="23.113528" CO2_normed="1573.595061" HC_normed="0.142075" PMx_normed="0.026914" NOx_normed="0.640298" fuel_normed="0.676421" electricity_normed="0"
            traveltime="1.16" CO_perVeh="67.544843" CO2_perVeh="4598.529061" HC_perVeh="0.415186" PMx_perVeh="0.078651" NOx_perVeh="1.871146" fuel_perVeh="1.976711" electricity_perVeh="0"/>
        <edge id=":1105984398_1" sampledSeconds="645.42" CO_abs="12490.922635" CO2_abs="1408448.244509" HC_abs="89.099756" PMx_abs="20.606185" NOx_abs="536.019061" fuel_abs="605.431512" electricity_abs="0"
            CO_normed="429.574744" CO2_normed="48437.878619" HC_normed="3.064226" PMx_normed="0.708666" NOx_normed="18.434207" fuel_normed="20.821367" electricity_normed="0"
            traveltime="0.95" CO_perVeh="18.418098" CO2_perVeh="2076.783154" HC_perVeh="0.131379" PMx_perVeh="0.030384" NOx_perVeh="0.790370" fuel_perVeh="0.892720" electricity_perVeh="0"/>
        <edge id=":1106006327_0" sampledSeconds="131.73" CO_abs="17779.870070" CO2_abs="578867.956167" HC_abs="94.593730" PMx_abs="12.112052" NOx_abs="253.610718" fuel_abs="248.834794" electricity_abs="0"
            CO_normed="861.988598" CO2_normed="28064.185844" HC_normed="4.586013" PMx_normed="0.587206" NOx_normed="12.295340" fuel_normed="12.063798" electricity_normed="0"
            traveltime="2.09" CO_perVeh="282.306139" CO2_perVeh="9191.179534" HC_perVeh="1.501945" PMx_perVeh="0.192313" NOx_perVeh="4.026793" fuel_perVeh="3.950962" electricity_perVeh="0"/>
        <edge id=":1106006327_1" sampledSeconds="681.03" CO_abs="92336.743631" CO2_abs="3093315.444115" HC_abs="493.362203" PMx_abs="64.570279" NOx_abs="1354.038098" fuel_abs="1329.704514" electricity_abs="0"
            CO_normed="3903.799523" CO2_normed="130778.743996" HC_normed="20.858296" PMx_normed="2.729893" NOx_normed="57.245827" fuel_normed="56.217056" electricity_normed="0"
            traveltime="2.29" CO_perVeh="309.952099" CO2_perVeh="10383.511219" HC_perVeh="1.656097" PMx_perVeh="0.216747" NOx_perVeh="4.545178" fuel_perVeh="4.463496" electricity_perVeh="0"/>
        <edge id=":1106006327_2" sampledSeconds="0.00" CO_abs="0" CO2_abs="0" HC_abs="0" PMx_abs="0" NOx_abs="0" fuel_abs="0" electricity_abs="0"
            CO_normed="0" CO2_normed="0" HC_normed="0" PMx_normed="0" NOx_normed="0" fuel_normed="0" electricity_normed="0"/>
        <edge id=":1106006327_3" sampledSeconds="0.00" CO_abs="0" CO2_abs="0" HC_abs="0" PMx_abs="0" NOx_abs="0" fuel_abs="0" electricity_abs="0"
            CO_normed="0" CO2_normed="0" HC_normed="0" PMx_normed="0" NOx_normed="0" fuel_normed="0" electricity_normed="0"/>
        <edge id=":1107381198_0" sampledSeconds="0.00" CO_abs="0" CO2_abs="0" HC_abs="0" PMx_abs="0" NOx_abs="0" fuel_abs="0" electricity_abs="0"
            CO_normed="0" CO2_normed="0" HC_normed="0" PMx_normed="0" NOx_normed="0" fuel_normed="0" electricity_normed="0"/>
        <edge id=":1107381198_1" sampledSeconds="103.24" CO_abs="4814.803423" CO2_abs="188444.799957" HC_abs="26.264966" PMx_abs="3.283301" NOx_abs="78.289145" fuel_abs="81.005909" electricity_abs="0"
            CO_normed="225.536006" CO2_normed="8827.169830" HC_normed="1.230309" PMx_normed="0.153797" NOx_normed="3.667236" fuel_normed="3.794495" electricity_normed="0"
            traveltime="1.55" CO_perVeh="72.086839" CO2_perVeh="2821.379989" HC_perVeh="0.393237" PMx_perVeh="0.049157" NOx_perVeh="1.172139" fuel_perVeh="1.212814" electricity_perVeh="0"/>
        <edge id=":1110338277_0" sampledSeconds="160.17" CO_abs="2924.190382" CO2_abs="330863.570246" HC_abs="20.925454" PMx_abs="4.770823" NOx_abs="125.575170" fuel_abs="142.224160" electricity_abs="0"
            CO_normed="4485.948394" CO2_normed="507571.911333" HC_normed="32.101366" PMx_normed="7.318834" NOx_normed="192.642631" fuel_normed="218.183552" electricity_normed="0"
            traveltime="0.02" CO_perVeh="0.396054" CO2_perVeh="44.812294" HC_perVeh="0.002834" PMx_perVeh="0.000646" NOx_perVeh="0.017008" fuel_perVeh="0.019263" electricity_perVeh="0"/>
        <edge id=":1110338293_0" sampledSeconds="6583.51" CO_abs="629539.604682" CO2_abs="10987087.389361" HC_abs="3123.589470" PMx_abs="262.541499" NOx_abs="4967.866289" fuel_abs="4723.164950" electricity_abs="0"
            CO_normed="901381.130674" CO2_normed="15731422.106232" HC_normed="4472.386785" PMx_normed="375.909556" NOx_normed="7113.040862" fuel_normed="6762.675027" electricity_normed="0"
            traveltime="0.44" CO_perVeh="42.078699" CO2_perVeh="734.381668" HC_perVeh="0.208782" PMx_perVeh="0.017548" NOx_perVeh="0.332054" fuel_perVeh="0.315698" electricity_perVeh="0"/>
        <edge id=":1110338295_0" sampledSeconds="0.00" CO_abs="0" CO2_abs="0" HC_abs="0" PMx_abs="0" NOx_abs="0" fuel_abs="0" electricity_abs="0"
            CO_normed="0" CO2_normed="0" HC_normed="0" PMx_normed="0" NOx_normed="0" fuel_normed="0" electricity_normed="0"/>
        <edge id=":1110673403_0" sampledSeconds="201.48" CO_abs="3166.794128" CO2_abs="367179.449157" HC_abs="22.865739" PMx_abs="5.192556" NOx_abs="138.617945" fuel_abs="157.834910" electricity_abs="0"
            CO_normed="4534.247647" CO2_normed="525731.224184" HC_normed="32.739394" PMx_normed="7.434754" NOx_normed="198.474566" fuel_normed="225.989610" electricity_normed="0"
            traveltime="0.02" CO_perVeh="0.366005" CO2_perVeh="42.437044" HC_perVeh="0.002643" PMx_perVeh="0.000600" NOx_perVeh="0.016021" fuel_perVeh="0.018242" electricity_perVeh="0"/>
        <edge id=":1110673412_0" sampledSeconds="949.97" CO_abs="170137.804071" CO2_abs="11594749.881934" HC_abs="1058.524161" PMx_abs="255.061871" NOx_abs="4984.490785" fuel_abs="4984.011682" electricity_abs="0"
            CO_normed="252005.190170" CO2_normed="17173944.173793" HC_normed="1567.867788" PMx_normed="377.793257" NOx_normed="7382.942051" fuel_normed="7382.232412" electricity_normed="0"
            traveltime="0.02" CO_perVeh="2.774442" CO2_perVeh="189.075926" HC_perVeh="0.017261" PMx_perVeh="0.004159" NOx_perVeh="0.081282" fuel_perVeh="0.081274" electricity_perVeh="0"/>
        <edge id=":1110673414_0" sampledSeconds="0.00" CO_abs="0" CO2_abs="0" HC_abs="0" PMx_abs="0" NOx_abs="0" fuel_abs="0" electricity_abs="0"
            CO_normed="0" CO2_normed="0" HC_normed="0" PMx_normed="0" NOx_normed="0" fuel_normed="0" electricity_normed="0"/>
        <edge id=":1110673414_1" sampledSeconds="7.31" CO_abs="438.745798" CO2_abs="16673.909798" HC_abs="2.381415" PMx_abs="0.290180" NOx_abs="6.927562" fuel_abs="7.167549" electricity_abs="0"
            CO_normed="20.870453" CO2_normed="793.151879" HC_normed="0.113280" PMx_normed="0.013803" NOx_normed="0.329533" fuel_normed="0.340949" electricity_normed="0"
            traveltime="1.60" CO_perVeh="95.836346" CO2_perVeh="3642.123983" HC_perVeh="0.520178" PMx_perVeh="0.063385" NOx_perVeh="1.513205" fuel_perVeh="1.565626" electricity_perVeh="0"/>
        <edge id=":1110673417_0" sampledSeconds="29.09" CO_abs="553.403708" CO2_abs="56544.069881" HC_abs="3.833950" PMx_abs="0.853640" NOx_abs="21.792239" fuel_abs="24.305868" electricity_abs="0"
            CO_normed="848.966774" CO2_normed="86743.250708" HC_normed="5.881594" PMx_normed="1.309553" NOx_normed="33.431086" fuel_normed="37.287200" electricity_normed="0"
            traveltime="0.02" CO_perVeh="0.421997" CO2_perVeh="43.117567" HC_perVeh="0.002924" PMx_perVeh="0.000651" NOx_perVeh="0.016618" fuel_perVeh="0.018534" electricity_perVeh="0"/>
        <edge id=":1110673446_0" sampledSeconds="1329.16" CO_abs="14779.295861" CO2_abs="1192574.975234" HC_abs="95.566952" PMx_abs="21.913339" NOx_abs="488.174702" fuel_abs="512.633118" electricity_abs="0"
            CO_normed="21161.144294" CO2_normed="1707540.830785" HC_normed="136.833722" PMx_normed="31.375739" NOx_normed="698.973442" fuel_normed="733.993248" electricity_normed="0"
            traveltime="0.02" CO_perVeh="0.253370" CO2_perVeh="20.444990" HC_perVeh="0.001638" PMx_perVeh="0.000376" NOx_perVeh="0.008369" fuel_perVeh="0.008788" electricity_perVeh="0"/>
        <edge id=":1110673451_0" sampledSeconds="36.33" CO_abs="537.579849" CO2_abs="36139.165655" HC_abs="3.280357" PMx_abs="0.551445" NOx_abs="14.288687" fuel_abs="15.534791" electricity_abs="0"
            CO_normed="855.235810" CO2_normed="57493.800509" HC_normed="5.218721" PMx_normed="0.877294" NOx_normed="22.731873" fuel_normed="24.714300" electricity_normed="0"
            traveltime="0.03" CO_perVeh="0.396077" CO2_perVeh="26.626575" HC_perVeh="0.002417" PMx_perVeh="0.000406" NOx_perVeh="0.010528" fuel_perVeh="0.011446" electricity_perVeh="0"/>
        <edge id=":1110673464_0" sampledSeconds="1026.23" CO_abs="3872.007484" CO2_abs="290574.219897" HC_abs="24.287533" PMx_abs="4.116538" NOx_abs="112.159226" fuel_abs="124.906479" electricity_abs="0"
            CO_normed="117.789927" CO2_normed="8839.527351" HC_normed="0.738848" PMx_normed="0.125229" NOx_normed="3.411984" fuel_normed="3.799767" electricity_normed="0"
            traveltime="1.22" CO_perVeh="4.591659" CO2_perVeh="344.580358" HC_perVeh="0.028802" PMx_perVeh="0.004882" NOx_perVeh="0.133005" fuel_perVeh="0.148122" electricity_perVeh="0"/>
        <edge id=":1110673464_1" sampledSeconds="2612.49" CO_abs="60589.105673" CO2_abs="7470109.721583" HC_abs="453.712100" PMx_abs="132.936482" NOx_abs="2827.044731" fuel_abs="3211.056421" electricity_abs="0"
            CO_normed="1806.080990" CO2_normed="222674.076643" HC_normed="13.524557" PMx_normed="3.962660" NOx_normed="84.270459" fuel_normed="95.717339" electricity_normed="0"
            traveltime="0.72" CO_perVeh="16.697036" CO2_perVeh="2058.599286" HC_perVeh="0.125033" PMx_perVeh="0.036634" NOx_perVeh="0.779072" fuel_perVeh="0.884897" electricity_perVeh="0"/>
        <edge id=":1110673479_0" sampledSeconds="134.64" CO_abs="6417.320480" CO2_abs="439209.311035" HC_abs="39.522770" PMx_abs="7.611676" NOx_abs="179.204664" fuel_abs="188.797172" electricity_abs="0"
            CO_normed="9188.383935" CO2_normed="628864.304071" HC_normed="56.589100" PMx_normed="10.898474" NOx_normed="256.587038" fuel_normed="270.321688" electricity_normed="0"
            traveltime="0.03" CO_perVeh="1.356680" CO2_perVeh="92.852819" HC_perVeh="0.008355" PMx_perVeh="0.001609" NOx_perVeh="0.037885" fuel_perVeh="0.039913" electricity_perVeh="0"/>
        <edge id=":1110673511_0" sampledSeconds="63.58" CO_abs="1320.511712" CO2_abs="139915.336289" HC_abs="9.193828" PMx_abs="1.952109" NOx_abs="52.919032" fuel_abs="60.143789" electricity_abs="0"
            CO_normed="1890.721935" CO2_normed="200332.184163" HC_normed="13.163816" PMx_normed="2.795049" NOx_normed="75.770002" fuel_normed="86.114481" electricity_normed="0"
            traveltime="0.02" CO_perVeh="0.506105" CO2_perVeh="53.624530" HC_perVeh="0.003524" PMx_perVeh="0.000748" NOx_perVeh="0.020282" fuel_perVeh="0.023051" electricity_perVeh="0"/>
        <edge id=":1110673517_0" sampledSeconds="182.38" CO_abs="7946.148223" CO2_abs="573626.611764" HC_abs="49.615055" PMx_abs="9.720113" NOx_abs="232.131154" fuel_abs="246.577399" electricity_abs="0"
            CO_normed="11377.374856" CO2_normed="821324.345683" HC_normed="71.039335" PMx_normed="13.917355" NOx_normed="332.367718" fuel_normed="353.051996" electricity_normed="0"
            traveltime="0.03" CO_perVeh="1.216620" CO2_perVeh="87.826877" HC_perVeh="0.007596" PMx_perVeh="0.001488" NOx_perVeh="0.035541" fuel_perVeh="0.037753" electricity_perVeh="0"/>
        <edge id=":1110673534_0" sampledSeconds="736.64" CO_abs="4934.276784" CO2_abs="400835.306063" HC_abs="31.625467" PMx_abs="5.503791" NOx_abs="153.280535" fuel_abs="172.303352" electricity_abs="0"
            CO_normed="136.917579" CO2_normed="11122.480973" HC_normed="0.877552" PMx_normed="0.152721" NOx_normed="4.253268" fuel_normed="4.781118" electricity_normed="0"
            traveltime="1.45" CO_perVeh="9.731210" CO2_perVeh="790.513545" HC_perVeh="0.062371" PMx_perVeh="0.010854" NOx_perVeh="0.302295" fuel_perVeh="0.339811" electricity_perVeh="0"/>
        <edge id=":1110673534_1" sampledSeconds="199.96" CO_abs="3172.591267" CO2_abs="415341.215016" HC_abs="23.871081" PMx_abs="5.485783" NOx_abs="153.535946" fuel_abs="178.537922" electricity_abs="0"
            CO_normed="85.600780" CO2_normed="11206.464656" HC_normed="0.644074" PMx_normed="0.148014" NOx_normed="4.142606" fuel_normed="4.817193" electricity_normed="0"
            traveltime="1.22" CO_perVeh="19.393052" CO2_perVeh="2538.850164" HC_perVeh="0.145916" PMx_perVeh="0.033533" NOx_perVeh="0.938517" fuel_perVeh="1.091346" electricity_perVeh="0"/>
        <edge id=":1110673549_0" sampledSeconds="653.20" CO_abs="1705.327605" CO2_abs="153702.319871" HC_abs="11.304792" PMx_abs="2.310515" NOx_abs="59.240512" fuel_abs="66.070205" electricity_abs="0"
            CO_normed="45.839272" CO2_normed="4131.524263" HC_normed="0.303873" PMx_normed="0.062107" NOx_normed="1.592387" fuel_normed="1.775970" electricity_normed="0"
            traveltime="1.30" CO_perVeh="3.388079" CO2_perVeh="305.369860" HC_perVeh="0.022460" PMx_perVeh="0.004590" NOx_perVeh="0.117697" fuel_perVeh="0.131266" electricity_perVeh="0"/>
        <edge id=":1110673549_1" sampledSeconds="3197.08" CO_abs="71545.498704" CO2_abs="9292404.205645" HC_abs="548.387958" PMx_abs="164.051097" NOx_abs="3480.696778" fuel_abs="3994.378779" electricity_abs="0"
            CO_normed="1860.282636" CO2_normed="241615.454566" HC_normed="14.258851" PMx_normed="4.265557" NOx_normed="90.502965" fuel_normed="103.859413" electricity_normed="0"
            traveltime="0.81" CO_perVeh="18.045899" CO2_perVeh="2343.820240" HC_perVeh="0.138320" PMx_perVeh="0.041379" NOx_perVeh="0.877935" fuel_perVeh="1.007501" electricity_perVeh="0"/>
        <edge id=":1110673556_0" sampledSeconds="461.29" CO_abs="56388.641095" CO2_abs="2734444.337410" HC_abs="321.714700" PMx_abs="55.196701" NOx_abs="1178.722602" fuel_abs="1175.420709" electricity_abs="0"
            CO_normed="1123.960411" CO2_normed="54504.012167" HC_normed="6.412543" PMx_normed="1.100202" NOx_normed="23.494759" fuel_normed="23.428945" electricity_normed="0"
            traveltime="2.72" CO_perVeh="332.405617" CO2_perVeh="16119.286449" HC_perVeh="1.896477" PMx_perVeh="0.325379" NOx_perVeh="6.948456" fuel_perVeh="6.928992" electricity_perVeh="0"/>
        <edge id=":1110673556_2" sampledSeconds="176.80" CO_abs="17854.209246" CO2_abs="757927.650739" HC_abs="99.102516" PMx_abs="14.694038" NOx_abs="323.746551" fuel_abs="325.803422" electricity_abs="0"
            CO_normed="372.108241" CO2_normed="15796.338062" HC_normed="2.065444" PMx_normed="0.306246" NOx_normed="6.747359" fuel_normed="6.790227" electricity_normed="0"
            traveltime="3.06" CO_perVeh="308.724791" CO2_perVeh="13105.652126" HC_perVeh="1.713624" PMx_perVeh="0.254081" NOx_perVeh="5.598040" fuel_perVeh="5.633607" electricity_perVeh="0"/>
        <edge id=":1110673556_3" sampledSeconds="343.02" CO_abs="33873.539369" CO2_abs="1173323.075814" HC_abs="181.638893" PMx_abs="22.998631" NOx_abs="504.317272" fuel_abs="504.370444" electricity_abs="0"
            CO_normed="1605.975960" CO2_normed="55628.336681" HC_normed="8.611669" PMx_normed="1.090386" NOx_normed="23.910150" fuel_normed="23.912671" electricity_normed="0"
            traveltime="1.81" CO_perVeh="179.214610" CO2_perVeh="6207.696075" HC_perVeh="0.960996" PMx_perVeh="0.121679" NOx_perVeh="2.668190" fuel_perVeh="2.668471" electricity_perVeh="0"/>
        <edge id=":1110673556_4" sampledSeconds="83.91" CO_abs="9349.491822" CO2_abs="360655.355838" HC_abs="51.068177" PMx_abs="7.271003" NOx_abs="156.124073" fuel_abs="155.031893" electricity_abs="0"
            CO_normed="270.803027" CO2_normed="10446.189383" HC_normed="1.479162" PMx_normed="0.210601" NOx_normed="4.522050" fuel_normed="4.490416" electricity_normed="0"
            traveltime="2.55" CO_perVeh="284.020010" CO2_perVeh="10956.032658" HC_perVeh="1.551355" PMx_perVeh="0.220879" NOx_perVeh="4.742756" fuel_perVeh="4.709578" electricity_perVeh="0"/>
        <edge id=":1110673556_5" sampledSeconds="21.89" CO_abs="1350.735561" CO2_abs="60536.794989" HC_abs="7.547445" PMx_abs="1.030840" NOx_abs="24.926484" fuel_abs="26.022553" electricity_abs="0"
            CO_normed="54.529983" CO2_normed="2443.905768" HC_normed="0.304695" PMx_normed="0.041616" NOx_normed="1.006297" fuel_normed="1.050546" electricity_normed="0"
            traveltime="1.51" CO_perVeh="93.384187" CO2_perVeh="4185.259900" HC_perVeh="0.521799" PMx_perVeh="0.071268" NOx_perVeh="1.723312" fuel_perVeh="1.799090" electricity_perVeh="0"/>
        <edge id=":1110673556_6" sampledSeconds="532.45" CO_abs="61680.980756" CO2_abs="3042794.328056" HC_abs="353.135483" PMx_abs="61.196161" NOx_abs="1309.601209" fuel_abs="1307.966679" electricity_abs="0"
            CO_normed="1260.448829" CO2_normed="62179.402785" HC_normed="7.216312" PMx_normed="1.250542" NOx_normed="26.761658" fuel_normed="26.728256" electricity_normed="0"
            traveltime="2.59" CO_perVeh="299.474799" CO2_perVeh="14773.439209" HC_perVeh="1.714551" PMx_perVeh="0.297121" NOx_perVeh="6.358403" fuel_perVeh="6.350467" electricity_perVeh="0"/>
        <edge id=":1110673561_0" sampledSeconds="101.71" CO_abs="10390.178997" CO2_abs="734879.018445" HC_abs="65.011296" PMx_abs="14.951260" NOx_abs="311.673035" fuel_abs="315.889423" electricity_abs="0"
            CO_normed="266.768010" CO2_normed="18868.030393" HC_normed="1.669166" PMx_normed="0.383874" NOx_normed="8.002210" fuel_normed="8.110466" electricity_normed="0"
            traveltime="1.20" CO_perVeh="122.614197" CO2_perVeh="8672.285691" HC_perVeh="0.767196" PMx_perVeh="0.176439" NOx_perVeh="3.678044" fuel_perVeh="3.727802" electricity_perVeh="0"/>
        <edge id=":1110673561_1" sampledSeconds="5250.15" CO_abs="488438.977577" CO2_abs="33956772.174414" HC_abs="3045.383380" PMx_abs="708.166942" NOx_abs="14505.019101" fuel_abs="14596.377617" electricity_abs="0"
            CO_normed="12226.430686" CO2_normed="849993.838238" HC_normed="76.230953" PMx_normed="17.726583" NOx_normed="363.084477" fuel_normed="365.371331" electricity_normed="0"
            traveltime="1.19" CO_perVeh="110.911241" CO2_perVeh="7710.661732" HC_perVeh="0.691524" PMx_perVeh="0.160806" NOx_perVeh="3.293696" fuel_perVeh="3.314441" electricity_perVeh="0"/>
        <edge id=":1110673562_0" sampledSeconds="302.20" CO_abs="6497.242270" CO2_abs="508867.636592" HC_abs="41.175727" PMx_abs="6.825298" NOx_abs="193.868753" fuel_abs="218.742621" electricity_abs="0"
            CO_normed="10336.463063" CO2_normed="809557.549364" HC_normed="65.506465" PMx_normed="10.858368" NOx_normed="308.425809" fuel_normed="347.997648" electricity_normed="0"
            traveltime="0.03" CO_perVeh="0.582422" CO2_perVeh="45.615625" HC_perVeh="0.003691" PMx_perVeh="0.000612" NOx_perVeh="0.017379" fuel_perVeh="0.019608" electricity_perVeh="0"/>
        <edge id=":1110673564_0" sampledSeconds="28.04" CO_abs="383.386439" CO2_abs="48455.576843" HC_abs="2.855272" PMx_abs="0.639881" NOx_abs="17.947346" fuel_abs="20.829048" electricity_abs="0"
            CO_normed="1646.809663" CO2_normed="208137.545205" HC_normed="12.264620" PMx_normed="2.748565" NOx_normed="77.091572" fuel_normed="89.469721" electricity_normed="0"
            traveltime="7.918576e-03" CO_perVeh="0.108286" CO2_perVeh="13.686083" HC_perVeh="0.000806" PMx_perVeh="0.000181" NOx_perVeh="0.005069" fuel_perVeh="0.005883" electricity_perVeh="0"/>
        <edge id=":1110673588_0" sampledSeconds="63.63" CO_abs="1060.405893" CO2_abs="114193.013773" HC_abs="7.434631" PMx_abs="1.607148" NOx_abs="43.227170" fuel_abs="49.086802" electricity_abs="0"
            CO_normed="1821.959773" CO2_normed="196203.245237" HC_normed="12.773975" PMx_normed="2.761356" NOx_normed="74.271715" fuel_normed="84.339571" electricity_normed="0"
            traveltime="0.02" CO_perVeh="0.342066" CO2_perVeh="36.836456" HC_perVeh="0.002398" PMx_perVeh="0.000518" NOx_perVeh="0.013944" fuel_perVeh="0.015834" electricity_perVeh="0"/>
        <edge id=":1110673601_0" sampledSeconds="29.14" CO_abs="525.105434" CO2_abs="57651.623789" HC_abs="3.703223" PMx_abs="0.812407" NOx_abs="21.802155" fuel_abs="24.782014" electricity_abs="0"
            CO_normed="805.554895" CO2_normed="88442.329436" HC_normed="5.681048" PMx_normed="1.246299" NOx_normed="33.446298" fuel_normed="38.017647" electricity_normed="0"
            traveltime="0.02" CO_perVeh="0.400418" CO2_perVeh="43.962130" HC_perVeh="0.002824" PMx_perVeh="0.000619" NOx_perVeh="0.016625" fuel_perVeh="0.018897" electricity_perVeh="0"/>
        <edge id=":1110673617_0" sampledSeconds="855.18" CO_abs="32476.299691" CO2_abs="3288655.529297" HC_abs="226.723639" PMx_abs="62.008232" NOx_abs="1289.861034" fuel_abs="1413.639026" electricity_abs="0"
            CO_normed="46499.892172" CO2_normed="4708730.026436" HC_normed="324.625184" PMx_normed="88.784009" NOx_normed="1846.835986" fuel_normed="2024.062560" electricity_normed="0"
            traveltime="0.02" CO_perVeh="0.575053" CO2_perVeh="58.231716" HC_perVeh="0.004015" PMx_perVeh="0.001098" NOx_perVeh="0.022839" fuel_perVeh="0.025031" electricity_perVeh="0"/>
        <edge id=":1110673621_0" sampledSeconds="26.06" CO_abs="730.016266" CO2_abs="69697.844529" HC_abs="4.952266" PMx_abs="1.101861" NOx_abs="27.267221" fuel_abs="29.960068" electricity_abs="0"
            CO_normed="1254.293549" CO2_normed="119752.888822" HC_normed="8.508844" PMx_normed="1.893187" NOx_normed="46.849777" fuel_normed="51.476551" electricity_normed="0"
            traveltime="0.02" CO_perVeh="0.553043" CO2_perVeh="52.801397" HC_perVeh="0.003752" PMx_perVeh="0.000835" NOx_perVeh="0.020657" fuel_perVeh="0.022697" electricity_perVeh="0"/>
        <edge id=":1110673630_0" sampledSeconds="286.58" CO_abs="1260.486367" CO2_abs="112194.491984" HC_abs="8.303607" PMx_abs="1.500653" NOx_abs="42.478449" fuel_abs="48.227980" electricity_abs="0"
            CO_normed="38.618624" CO2_normed="3437.400873" HC_normed="0.254405" PMx_normed="0.045977" NOx_normed="1.301449" fuel_normed="1.477603" electricity_normed="0"
            traveltime="1.29" CO_perVeh="5.671707" CO2_perVeh="504.832364" HC_perVeh="0.037363" PMx_perVeh="0.006752" NOx_perVeh="0.191137" fuel_perVeh="0.217007" electricity_perVeh="0"/>
        <edge id=":1110673630_1" sampledSeconds="336.61" CO_abs="1229.752551" CO2_abs="107209.406126" HC_abs="8.026124" PMx_abs="1.321311" NOx_abs="39.935990" fuel_abs="46.085275" electricity_abs="0"
            CO_normed="45.933184" CO2_normed="4004.439255" HC_normed="0.299788" PMx_normed="0.049353" NOx_normed="1.491672" fuel_normed="1.721357" electricity_normed="0"
            traveltime="1.07" CO_perVeh="3.920215" CO2_perVeh="341.763002" HC_perVeh="0.025586" PMx_perVeh="0.004212" NOx_perVeh="0.127308" fuel_perVeh="0.146911" electricity_perVeh="0"/>
        <edge id=":1110673650_0" sampledSeconds="199.82" CO_abs="3075.409490" CO2_abs="381999.475755" HC_abs="22.700914" PMx_abs="5.199264" NOx_abs="142.511856" fuel_abs="164.205564" electricity_abs="0"
            CO_normed="4403.402205" CO2_normed="546950.687156" HC_normed="32.503396" PMx_normed="7.444358" NOx_normed="204.049907" fuel_normed="235.111176" electricity_normed="0"
            traveltime="0.02" CO_perVeh="0.355837" CO2_perVeh="44.198861" HC_perVeh="0.002627" PMx_perVeh="0.000602" NOx_perVeh="0.016489" fuel_perVeh="0.018999" electricity_perVeh="0"/>
        <edge id=":1110673655_0" sampledSeconds="20.48" CO_abs="328.110002" CO2_abs="44770.732255" HC_abs="2.493142" PMx_abs="0.567430" NOx_abs="16.384724" fuel_abs="19.245100" electricity_abs="0"
            CO_normed="469.791197" CO2_normed="64103.184233" HC_normed="3.569705" PMx_normed="0.812453" NOx_normed="23.459813" fuel_normed="27.555328" electricity_normed="0"
            traveltime="0.02" CO_perVeh="0.374840" CO2_perVeh="51.147067" HC_perVeh="0.002848" PMx_perVeh="0.000648" NOx_perVeh="0.018718" fuel_perVeh="0.021986" electricity_perVeh="0"/>
        <edge id=":1110673663_0" sampledSeconds="111.11" CO_abs="1945.497799" CO2_abs="214918.293855" HC_abs="13.838892" PMx_abs="3.073541" NOx_abs="81.541942" fuel_abs="92.384296" electricity_abs="0"
            CO_normed="51.018009" CO2_normed="5635.937222" HC_normed="0.362906" PMx_normed="0.080599" NOx_normed="2.138325" fuel_normed="2.422651" electricity_normed="0"
            traveltime="1.31" CO_perVeh="22.850789" CO2_perVeh="2524.316750" HC_perVeh="0.162544" PMx_perVeh="0.036100" NOx_perVeh="0.957749" fuel_perVeh="1.085097" electricity_perVeh="0"/>
        <edge id=":1110673663_1" sampledSeconds="171.25" CO_abs="2790.621826" CO2_abs="330611.765141" HC_abs="20.222702" PMx_abs="4.586809" NOx_abs="124.076631" fuel_abs="142.116096" electricity_abs="0"
            CO_normed="73.269689" CO2_normed="8680.438512" HC_normed="0.530961" PMx_normed="0.120430" NOx_normed="3.257717" fuel_normed="3.731356" electricity_normed="0"
            traveltime="1.28" CO_perVeh="20.876712" CO2_perVeh="2473.314868" HC_perVeh="0.151287" PMx_perVeh="0.034314" NOx_perVeh="0.928220" fuel_perVeh="1.063174" electricity_perVeh="0"/>