<?xml version="1.0" encoding="UTF-8"?>

<!-- generated on Mon Nov  9 21:19:17 2020 by Eclipse SUMO sumo Version 1.7.0
<configuration xmlns:xsi="http://www.w3.org/2001/XMLSchema-instance" xsi:noNamespaceSchemaLocation="http://sumo.dlr.de/xsd/sumoConfiguration.xsd">

    <input>
        <net-file value="../dataSets/Porto/6AM7AM_Routing_SaoBento/Porto.net.xml"/>
        <route-files value="../results/Porto/6AM7AM_Routing_SaoBento/length-ttime/solution7/Porto.rou.xml"/>
        <additional-files value="moreOutputInfo.xml"/>
    </input>

    <output>
        <emission-output.precision value="6"/>
        <tripinfo-output value="../results/Porto/6AM7AM_Routing_SaoBento/length-ttime/solution7/Porto-tripinfo"/>
    </output>

    <processing>
        <collision.action value="warn"/>
        <time-to-teleport value="-1"/>
    </processing>

    <emissions>
        <device.emissions.probability value="1"/>
    </emissions>

    <gui_only>
        <quit-on-end value="true"/>
        <start value="true"/>
    </gui_only>

</configuration>
-->

<meandata xmlns:xsi="http://www.w3.org/2001/XMLSchema-instance" xsi:noNamespaceSchemaLocation="http://sumo.dlr.de/xsd/meandata_file.xsd">
    <interval begin="0.00" end="4790.00" id="emissions-detector">
        <edge id=":1092997347_0" sampledSeconds="269.57" CO_abs="35173.512276" CO2_abs="1387935.526870" HC_abs="192.979765" PMx_abs="28.459688" NOx_abs="603.429718" fuel_abs="596.618834" electricity_abs="0"
            CO_normed="60080.017172" CO2_normed="2370738.231510" HC_normed="329.629510" PMx_normed="48.612107" NOx_normed="1030.720717" fuel_normed="1019.087019" electricity_normed="0"
            traveltime="0.08" CO_perVeh="9.876551" CO2_perVeh="389.725542" HC_perVeh="0.054188" PMx_perVeh="0.007991" NOx_perVeh="0.169440" fuel_perVeh="0.167528" electricity_perVeh="0"/>
        <edge id=":1103427051_0" sampledSeconds="10.91" CO_abs="884.885588" CO2_abs="49396.398201" HC_abs="5.205319" PMx_abs="0.988090" NOx_abs="21.210507" fuel_abs="21.233301" electricity_abs="0"
            CO_normed="2293.274867" CO2_normed="128016.005704" HC_normed="13.490137" PMx_normed="2.560740" NOx_normed="54.969278" fuel_normed="55.028353" electricity_normed="0"
            traveltime="0.03" CO_perVeh="2.424573" CO2_perVeh="135.345384" HC_perVeh="0.014262" PMx_perVeh="0.002707" NOx_perVeh="0.058116" fuel_perVeh="0.058179" electricity_perVeh="0"/>
        <edge id=":1105984386_0" sampledSeconds="23.20" CO_abs="349.420471" CO2_abs="26914.523945" HC_abs="2.198535" PMx_abs="0.333404" NOx_abs="10.088564" fuel_abs="11.569564" electricity_abs="0"
            CO_normed="27.045568" CO2_normed="2083.216756" HC_normed="0.170169" PMx_normed="0.025806" NOx_normed="0.780867" fuel_normed="0.895498" electricity_normed="0"
            traveltime="0.97" CO_perVeh="14.664907" CO2_perVeh="1129.581723" HC_perVeh="0.092271" PMx_perVeh="0.013993" NOx_perVeh="0.423409" fuel_perVeh="0.485566" electricity_perVeh="0"/>
        <edge id=":1105984390_0" sampledSeconds="23.47" CO_abs="34.102432" CO2_abs="2630.664681" HC_abs="0.214070" PMx_abs="0.029536" NOx_abs="0.966421" fuel_abs="1.130831" electricity_abs="0"
            CO_normed="2.040623" CO2_normed="157.413814" HC_normed="0.012810" PMx_normed="0.001767" NOx_normed="0.057829" fuel_normed="0.067667" electricity_normed="0"
            traveltime="1.06" CO_perVeh="1.546529" CO2_perVeh="119.299351" HC_perVeh="0.009708" PMx_perVeh="0.001339" NOx_perVeh="0.043827" fuel_perVeh="0.051283" electricity_perVeh="0"/>
        <edge id=":1105984390_1" sampledSeconds="646.25" CO_abs="14540.466906" CO2_abs="1883898.627459" HC_abs="111.238002" PMx_abs="33.351071" NOx_abs="704.885071" fuel_abs="809.801704" electricity_abs="0"
            CO_normed="832.301378" CO2_normed="107835.011994" HC_normed="6.367302" PMx_normed="1.909027" NOx_normed="40.347866" fuel_normed="46.353331" electricity_normed="0"
            traveltime="0.64" CO_perVeh="14.310731" CO2_perVeh="1854.133469" HC_perVeh="0.109480" PMx_perVeh="0.032824" NOx_perVeh="0.693748" fuel_perVeh="0.797007" electricity_perVeh="0"/>
        <edge id=":1105984395_0" sampledSeconds="8.92" CO_abs="180.264493" CO2_abs="13762.536271" HC_abs="1.134497" PMx_abs="0.186554" NOx_abs="5.262799" fuel_abs="5.915985" electricity_abs="0"
            CO_normed="147.261544" CO2_normed="11242.881586" HC_normed="0.926792" PMx_normed="0.152399" NOx_normed="4.299282" fuel_normed="4.832882" electricity_normed="0"
            traveltime="0.09" CO_perVeh="1.828079" CO2_perVeh="139.567167" HC_perVeh="0.011505" PMx_perVeh="0.001892" NOx_perVeh="0.053371" fuel_perVeh="0.059995" electricity_perVeh="0"/>
        <edge id=":1105984398_0" sampledSeconds="23.98" CO_abs="1441.744219" CO2_abs="100423.612075" HC_abs="8.929970" PMx_abs="1.784419" NOx_abs="41.238639" fuel_abs="43.167700" electricity_abs="0"
            CO_normed="89.624946" CO2_normed="6242.758357" HC_normed="0.555125" PMx_normed="0.110927" NOx_normed="2.563569" fuel_normed="2.683488" electricity_normed="0"
            traveltime="1.12" CO_perVeh="67.430511" CO2_perVeh="4696.821685" HC_perVeh="0.417656" PMx_perVeh="0.083457" NOx_perVeh="1.928735" fuel_perVeh="2.018957" electricity_perVeh="0"/>
        <edge id=":1105984398_1" sampledSeconds="454.01" CO_abs="8173.612119" CO2_abs="941010.201674" HC_abs="58.872067" PMx_abs="13.577594" NOx_abs="356.755589" fuel_abs="404.500126" electricity_abs="0"
            CO_normed="491.834029" CO2_normed="56623.782968" HC_normed="3.542532" PMx_normed="0.817010" NOx_normed="21.467197" fuel_normed="24.340148" electricity_normed="0"
            traveltime="0.96" CO_perVeh="17.249140" CO2_perVeh="1985.856046" HC_perVeh="0.124240" PMx_perVeh="0.028653" NOx_perVeh="0.752877" fuel_perVeh="0.853635" electricity_perVeh="0"/>
        <edge id=":1106006327_0" sampledSeconds="38.30" CO_abs="5158.329023" CO2_abs="168106.950779" HC_abs="27.444909" PMx_abs="3.503412" NOx_abs="73.568350" fuel_abs="72.263229" electricity_abs="0"
            CO_normed="437.564727" CO2_normed="14259.980650" HC_normed="2.328065" PMx_normed="0.297183" NOx_normed="6.240570" fuel_normed="6.129861" electricity_normed="0"
            traveltime="2.08" CO_perVeh="279.835875" CO2_perVeh="9119.688856" HC_perVeh="1.488868" PMx_perVeh="0.190058" NOx_perVeh="3.991033" fuel_perVeh="3.920232" electricity_perVeh="0"/>
        <edge id=":1106006327_1" sampledSeconds="161.86" CO_abs="21858.581126" CO2_abs="728626.406565" HC_abs="116.698797" PMx_abs="15.188992" NOx_abs="318.815642" fuel_abs="313.210283" electricity_abs="0"
            CO_normed="1616.944998" CO2_normed="53898.687054" HC_normed="8.632561" PMx_normed="1.123575" NOx_normed="23.583752" fuel_normed="23.169107" electricity_normed="0"
            traveltime="2.30" CO_perVeh="310.310731" CO2_perVeh="10343.790927" HC_perVeh="1.656690" PMx_perVeh="0.215627" NOx_perVeh="4.525999" fuel_perVeh="4.446424" electricity_perVeh="0"/>
        <edge id=":1106006327_2" sampledSeconds="0.00" CO_abs="0" CO2_abs="0" HC_abs="0" PMx_abs="0" NOx_abs="0" fuel_abs="0" electricity_abs="0"
            CO_normed="0" CO2_normed="0" HC_normed="0" PMx_normed="0" NOx_normed="0" fuel_normed="0" electricity_normed="0"/>
        <edge id=":1106006327_3" sampledSeconds="0.00" CO_abs="0" CO2_abs="0" HC_abs="0" PMx_abs="0" NOx_abs="0" fuel_abs="0" electricity_abs="0"
            CO_normed="0" CO2_normed="0" HC_normed="0" PMx_normed="0" NOx_normed="0" fuel_normed="0" electricity_normed="0"/>
        <edge id=":1107381198_0" sampledSeconds="0.00" CO_abs="0" CO2_abs="0" HC_abs="0" PMx_abs="0" NOx_abs="0" fuel_abs="0" electricity_abs="0"
            CO_normed="0" CO2_normed="0" HC_normed="0" PMx_normed="0" NOx_normed="0" fuel_normed="0" electricity_normed="0"/>
        <edge id=":1107381198_1" sampledSeconds="35.67" CO_abs="1656.735299" CO2_abs="69503.950478" HC_abs="9.146039" PMx_abs="1.195797" NOx_abs="28.752030" fuel_abs="29.877271" electricity_abs="0"
            CO_normed="135.784681" CO2_normed="5696.487405" HC_normed="0.749602" PMx_normed="0.098007" NOx_normed="2.356493" fuel_normed="2.448717" electricity_normed="0"
            traveltime="1.47" CO_perVeh="68.212386" CO2_perVeh="2861.670375" HC_perVeh="0.376568" PMx_perVeh="0.049234" NOx_perVeh="1.183801" fuel_perVeh="1.230130" electricity_perVeh="0"/>
        <edge id=":1110338277_0" sampledSeconds="96.83" CO_abs="1518.445950" CO2_abs="178586.472956" HC_abs="10.996702" PMx_abs="2.485859" NOx_abs="67.161352" fuel_abs="76.766808" electricity_abs="0"
            CO_normed="4075.757098" CO2_normed="479355.280824" HC_normed="29.516945" PMx_normed="6.672451" NOx_normed="180.272046" fuel_normed="206.054658" electricity_normed="0"
            traveltime="0.02" CO_perVeh="0.342390" CO2_perVeh="40.268896" HC_perVeh="0.002480" PMx_perVeh="0.000561" NOx_perVeh="0.015144" fuel_perVeh="0.017310" electricity_perVeh="0"/>
        <edge id=":1110338293_0" sampledSeconds="124.03" CO_abs="6229.762658" CO2_abs="433543.869157" HC_abs="38.545294" PMx_abs="7.539215" NOx_abs="176.974521" fuel_abs="186.361722" electricity_abs="0"
            CO_normed="15606.921063" CO2_normed="1086122.427950" HC_normed="96.564411" PMx_normed="18.887386" NOx_normed="443.359969" fuel_normed="466.876966" electricity_normed="0"
            traveltime="0.03" CO_perVeh="1.428899" CO2_perVeh="99.440468" HC_perVeh="0.008841" PMx_perVeh="0.001729" NOx_perVeh="0.040592" fuel_perVeh="0.042745" electricity_perVeh="0"/>
        <edge id=":1110338295_0" sampledSeconds="0.00" CO_abs="0" CO2_abs="0" HC_abs="0" PMx_abs="0" NOx_abs="0" fuel_abs="0" electricity_abs="0"
            CO_normed="0" CO2_normed="0" HC_normed="0" PMx_normed="0" NOx_normed="0" fuel_normed="0" electricity_normed="0"/>
        <edge id=":1110673403_0" sampledSeconds="143.64" CO_abs="2387.915968" CO2_abs="286587.707263" HC_abs="17.435672" PMx_abs="4.004198" NOx_abs="107.676654" fuel_abs="123.191949" electricity_abs="0"
            CO_normed="5982.252947" CO2_normed="717965.028633" HC_normed="43.680180" PMx_normed="10.031394" NOx_normed="269.753621" fuel_normed="308.622837" electricity_normed="0"
            traveltime="0.02" CO_perVeh="0.383396" CO2_perVeh="46.013547" HC_perVeh="0.002799" PMx_perVeh="0.000643" NOx_perVeh="0.017288" fuel_perVeh="0.019779" electricity_perVeh="0"/>
        <edge id=":1110673412_0" sampledSeconds="258.76" CO_abs="45557.013176" CO2_abs="3113001.884729" HC_abs="283.615517" PMx_abs="68.323935" NOx_abs="1337.339972" fuel_abs="1338.126252" electricity_abs="0"
            CO_normed="118065.832146" CO2_normed="8067674.598678" HC_normed="735.019697" PMx_normed="177.068726" NOx_normed="3465.858398" fuel_normed="3467.896126" electricity_normed="0"
            traveltime="0.02" CO_perVeh="2.746982" CO2_perVeh="187.706754" HC_perVeh="0.017101" PMx_perVeh="0.004120" NOx_perVeh="0.080638" fuel_perVeh="0.080686" electricity_perVeh="0"/>
        <edge id=":1110673414_0" sampledSeconds="0.00" CO_abs="0" CO2_abs="0" HC_abs="0" PMx_abs="0" NOx_abs="0" fuel_abs="0" electricity_abs="0"
            CO_normed="0" CO2_normed="0" HC_normed="0" PMx_normed="0" NOx_normed="0" fuel_normed="0" electricity_normed="0"/>
        <edge id=":1110673414_1" sampledSeconds="14.24" CO_abs="803.082612" CO2_abs="31501.474025" HC_abs="4.395241" PMx_abs="0.614687" NOx_abs="13.511108" fuel_abs="13.541293" electricity_abs="0"
            CO_normed="66.840465" CO2_normed="2621.863713" HC_normed="0.365815" PMx_normed="0.051160" NOx_normed="1.124528" fuel_normed="1.127040" electricity_normed="0"
            traveltime="1.56" CO_perVeh="87.709676" CO2_perVeh="3440.473034" HC_perVeh="0.480032" PMx_perVeh="0.067134" NOx_perVeh="1.475633" fuel_perVeh="1.478929" electricity_perVeh="0"/>
        <edge id=":1110673417_0" sampledSeconds="29.57" CO_abs="515.626824" CO2_abs="61258.731402" HC_abs="3.740845" PMx_abs="0.829766" NOx_abs="22.905694" fuel_abs="26.332578" electricity_abs="0"
            CO_normed="1384.026667" CO2_normed="164428.446948" HC_normed="10.041039" PMx_normed="2.227226" NOx_normed="61.482626" fuel_normed="70.680944" electricity_normed="0"
            traveltime="0.02" CO_perVeh="0.382705" CO2_perVeh="45.467050" HC_perVeh="0.002777" PMx_perVeh="0.000616" NOx_perVeh="0.017001" fuel_perVeh="0.019544" electricity_perVeh="0"/>
        <edge id=":1110673446_0" sampledSeconds="342.92" CO_abs="3781.844086" CO2_abs="294133.780876" HC_abs="24.204512" PMx_abs="5.517579" NOx_abs="121.301506" fuel_abs="126.434507" electricity_abs="0"
            CO_normed="9474.348441" CO2_normed="736869.597184" HC_normed="60.637607" PMx_normed="13.822746" NOx_normed="303.886863" fuel_normed="316.746155" electricity_normed="0"
            traveltime="0.02" CO_perVeh="0.252149" CO2_perVeh="19.610920" HC_perVeh="0.001614" PMx_perVeh="0.000368" NOx_perVeh="0.008088" fuel_perVeh="0.008430" electricity_perVeh="0"/>
        <edge id=":1110673451_0" sampledSeconds="37.42" CO_abs="333.521663" CO2_abs="23953.981693" HC_abs="2.063473" PMx_abs="0.323553" NOx_abs="9.174238" fuel_abs="10.296912" electricity_abs="0"
            CO_normed="928.383196" CO2_normed="66677.750016" HC_normed="5.743837" PMx_normed="0.900633" NOx_normed="25.537197" fuel_normed="28.662246" electricity_normed="0"
            traveltime="0.03" CO_perVeh="0.239179" CO2_perVeh="17.178154" HC_perVeh="0.001480" PMx_perVeh="0.000232" NOx_perVeh="0.006579" fuel_perVeh="0.007384" electricity_perVeh="0"/>
        <edge id=":1110673464_0" sampledSeconds="325.09" CO_abs="664.719971" CO2_abs="54839.700797" HC_abs="4.265103" PMx_abs="0.706621" NOx_abs="20.652173" fuel_abs="23.573496" electricity_abs="0"
            CO_normed="35.381074" CO2_normed="2918.954782" HC_normed="0.227019" PMx_normed="0.037611" NOx_normed="1.099254" fuel_normed="1.254747" electricity_normed="0"
            traveltime="1.18" CO_perVeh="2.402875" CO2_perVeh="198.238283" HC_perVeh="0.015418" PMx_perVeh="0.002554" NOx_perVeh="0.074655" fuel_perVeh="0.085215" electricity_perVeh="0"/>
        <edge id=":1110673464_1" sampledSeconds="709.31" CO_abs="17346.446187" CO2_abs="2143703.720041" HC_abs="130.455050" PMx_abs="38.448242" NOx_abs="809.309819" fuel_abs="921.479559" electricity_abs="0"
            CO_normed="904.718601" CO2_normed="111806.684238" HC_normed="6.803994" PMx_normed="2.005301" NOx_normed="42.210239" fuel_normed="48.060547" electricity_normed="0"
            traveltime="0.70" CO_perVeh="17.112612" CO2_perVeh="2114.806045" HC_perVeh="0.128696" PMx_perVeh="0.037930" NOx_perVeh="0.798400" fuel_perVeh="0.909058" electricity_perVeh="0"/>
        <edge id=":1110673479_0" sampledSeconds="133.99" CO_abs="6797.260074" CO2_abs="467624.044123" HC_abs="41.950009" PMx_abs="8.259329" NOx_abs="191.821035" fuel_abs="201.011173" electricity_abs="0"
            CO_normed="17028.626490" CO2_normed="1171500.736843" HC_normed="105.093967" PMx_normed="20.691429" NOx_normed="480.553741" fuel_normed="503.577051" electricity_normed="0"
            traveltime="0.03" CO_perVeh="1.431906" CO2_perVeh="98.509384" HC_perVeh="0.008837" PMx_perVeh="0.001740" NOx_perVeh="0.040409" fuel_perVeh="0.042345" electricity_perVeh="0"/>
        <edge id=":1110673511_0" sampledSeconds="11.65" CO_abs="169.806535" CO2_abs="23193.426776" HC_abs="1.298458" PMx_abs="0.309990" NOx_abs="8.582378" fuel_abs="9.969879" electricity_abs="0"
            CO_normed="425.402593" CO2_normed="58104.618228" HC_normed="3.252921" PMx_normed="0.776594" NOx_normed="21.500738" fuel_normed="24.976733" electricity_normed="0"
            traveltime="0.02" CO_perVeh="0.336251" CO2_perVeh="45.927578" HC_perVeh="0.002571" PMx_perVeh="0.000614" NOx_perVeh="0.016995" fuel_perVeh="0.019742" electricity_perVeh="0"/>
        <edge id=":1110673517_0" sampledSeconds="17.23" CO_abs="658.041752" CO2_abs="45367.399712" HC_abs="4.067353" PMx_abs="0.819771" NOx_abs="18.709775" fuel_abs="19.501438" electricity_abs="0"
            CO_normed="1648.538835" CO2_normed="113655.281116" HC_normed="10.189611" PMx_normed="2.053707" NOx_normed="46.872088" fuel_normed="48.855378" electricity_normed="0"
            traveltime="0.03" CO_perVeh="1.056529" CO2_perVeh="72.840353" HC_perVeh="0.006530" PMx_perVeh="0.001316" NOx_perVeh="0.030040" fuel_perVeh="0.031311" electricity_perVeh="0"/>
        <edge id=":1110673534_0" sampledSeconds="516.62" CO_abs="3131.761631" CO2_abs="275575.702198" HC_abs="20.526180" PMx_abs="3.529891" NOx_abs="103.383433" fuel_abs="118.459372" electricity_abs="0"
            CO_normed="152.049407" CO2_normed="13379.409729" HC_normed="0.996562" PMx_normed="0.171379" NOx_normed="5.019344" fuel_normed="5.751293" electricity_normed="0"
            traveltime="1.44" CO_perVeh="8.746075" CO2_perVeh="769.600664" HC_perVeh="0.057323" PMx_perVeh="0.009858" NOx_perVeh="0.288719" fuel_perVeh="0.330822" electricity_perVeh="0"/>
        <edge id=":1110673534_1" sampledSeconds="151.63" CO_abs="2444.390364" CO2_abs="301279.483660" HC_abs="18.027824" PMx_abs="4.240290" NOx_abs="113.176904" fuel_abs="129.507240" electricity_abs="0"
            CO_normed="115.396992" CO2_normed="14223.074417" HC_normed="0.851074" PMx_normed="0.200179" NOx_normed="5.342958" fuel_normed="6.113895" electricity_normed="0"
            traveltime="1.22" CO_perVeh="19.611098" CO2_perVeh="2417.135029" HC_perVeh="0.144635" PMx_perVeh="0.034019" NOx_perVeh="0.908007" fuel_perVeh="1.039024" electricity_perVeh="0"/>
        <edge id=":1110673549_0" sampledSeconds="60.01" CO_abs="12.438428" CO2_abs="1853.647114" HC_abs="0.098402" PMx_abs="0.019465" NOx_abs="0.655887" fuel_abs="0.796812" electricity_abs="0"
            CO_normed="0.585000" CO2_normed="87.180082" HC_normed="0.004628" PMx_normed="0.000915" NOx_normed="0.030847" fuel_normed="0.037475" electricity_normed="0"
            traveltime="1.25" CO_perVeh="0.259144" CO2_perVeh="38.619159" HC_perVeh="0.002050" PMx_perVeh="0.000406" NOx_perVeh="0.013665" fuel_perVeh="0.016601" electricity_perVeh="0"/>
        <edge id=":1110673549_1" sampledSeconds="638.73" CO_abs="14155.162797" CO2_abs="1809433.854977" HC_abs="107.785029" PMx_abs="32.109089" NOx_abs="679.126533" fuel_abs="777.792606" electricity_abs="0"
            CO_normed="643.979159" CO2_normed="82318.918524" HC_normed="4.903604" PMx_normed="1.460780" NOx_normed="30.896383" fuel_normed="35.385127" electricity_normed="0"
            traveltime="0.80" CO_perVeh="17.821031" CO2_perVeh="2278.036416" HC_perVeh="0.135699" PMx_perVeh="0.040425" NOx_perVeh="0.855005" fuel_perVeh="0.979223" electricity_perVeh="0"/>
        <edge id=":1110673556_0" sampledSeconds="416.51" CO_abs="51313.952313" CO2_abs="2575897.751177" HC_abs="294.916073" PMx_abs="52.023199" NOx_abs="1109.600467" fuel_abs="1107.266824" electricity_abs="0"
            CO_normed="1789.596736" CO2_normed="89835.571054" HC_normed="10.285328" PMx_normed="1.814332" NOx_normed="38.697806" fuel_normed="38.616419" electricity_normed="0"
            traveltime="2.59" CO_perVeh="318.531995" CO2_perVeh="15989.917196" HC_perVeh="1.830695" PMx_perVeh="0.322935" NOx_perVeh="6.887859" fuel_perVeh="6.873373" electricity_perVeh="0"/>
        <edge id=":1110673556_2" sampledSeconds="244.50" CO_abs="23461.665590" CO2_abs="1020210.474719" HC_abs="130.772503" PMx_abs="19.547467" NOx_abs="434.104071" fuel_abs="438.548423" electricity_abs="0"
            CO_normed="855.554807" CO2_normed="37203.069521" HC_normed="4.768760" PMx_normed="0.712819" NOx_normed="15.830071" fuel_normed="15.992139" electricity_normed="0"
            traveltime="2.97" CO_perVeh="284.585508" CO2_perVeh="12374.957557" HC_perVeh="1.586245" PMx_perVeh="0.237107" NOx_perVeh="5.265599" fuel_perVeh="5.319508" electricity_perVeh="0"/>
        <edge id=":1110673556_3" sampledSeconds="403.62" CO_abs="35072.131412" CO2_abs="1250588.390603" HC_abs="188.822405" PMx_abs="23.944239" NOx_abs="533.861236" fuel_abs="537.584078" electricity_abs="0"
            CO_normed="2909.383352" CO2_normed="103741.657476" HC_normed="15.663626" PMx_normed="1.986277" NOx_normed="44.286074" fuel_normed="44.594899" electricity_normed="0"
            traveltime="1.74" CO_perVeh="151.375085" CO2_perVeh="5397.673786" HC_perVeh="0.814978" PMx_perVeh="0.103346" NOx_perVeh="2.304202" fuel_perVeh="2.320271" electricity_perVeh="0"/>
        <edge id=":1110673556_4" sampledSeconds="212.67" CO_abs="21853.948146" CO2_abs="878606.014899" HC_abs="120.122249" PMx_abs="17.116834" NOx_abs="376.388295" fuel_abs="377.679131" electricity_abs="0"
            CO_normed="1107.530627" CO2_normed="44526.648624" HC_normed="6.087645" PMx_normed="0.867460" NOx_normed="19.074886" fuel_normed="19.140304" electricity_normed="0"
            traveltime="2.40" CO_perVeh="247.049267" CO2_perVeh="9932.254357" HC_perVeh="1.357929" PMx_perVeh="0.193498" NOx_perVeh="4.254904" fuel_perVeh="4.269496" electricity_perVeh="0"/>
        <edge id=":1110673556_5" sampledSeconds="26.45" CO_abs="2299.031830" CO2_abs="86935.475716" HC_abs="12.495550" PMx_abs="1.652797" NOx_abs="37.001968" fuel_abs="37.370414" electricity_abs="0"
            CO_normed="162.394136" CO2_normed="6140.763821" HC_normed="0.882634" PMx_normed="0.116747" NOx_normed="2.613667" fuel_normed="2.639692" electricity_normed="0"
            traveltime="1.83" CO_perVeh="158.945410" CO2_perVeh="6010.353877" HC_perVeh="0.863890" PMx_perVeh="0.114267" NOx_perVeh="2.558161" fuel_perVeh="2.583634" electricity_perVeh="0"/>
        <edge id=":1110673556_6" sampledSeconds="491.40" CO_abs="58049.723794" CO2_abs="2832197.053970" HC_abs="331.609166" PMx_abs="57.121597" NOx_abs="1220.061440" fuel_abs="1217.440243" electricity_abs="0"
            CO_normed="2075.555894" CO2_normed="101264.621171" HC_normed="11.856617" PMx_normed="2.042371" NOx_normed="43.623045" fuel_normed="43.529325" electricity_normed="0"
            traveltime="2.64" CO_perVeh="311.512059" CO2_perVeh="15198.410553" HC_perVeh="1.779513" PMx_perVeh="0.306531" NOx_perVeh="6.547212" fuel_perVeh="6.533146" electricity_perVeh="0"/>
        <edge id=":1110673561_0" sampledSeconds="101.43" CO_abs="9815.784855" CO2_abs="696759.409315" HC_abs="61.482287" PMx_abs="14.143107" NOx_abs="295.143718" fuel_abs="299.503659" electricity_abs="0"
            CO_normed="440.956833" CO2_normed="31300.688368" HC_normed="2.761983" PMx_normed="0.635354" NOx_normed="13.258811" fuel_normed="13.454674" electricity_normed="0"
            traveltime="1.20" CO_perVeh="115.835916" CO2_perVeh="8222.446358" HC_perVeh="0.725551" PMx_perVeh="0.166903" NOx_perVeh="3.482986" fuel_perVeh="3.534438" electricity_perVeh="0"/>
        <edge id=":1110673561_1" sampledSeconds="1347.82" CO_abs="123940.923753" CO2_abs="8573558.204958" HC_abs="771.771948" PMx_abs="179.178669" NOx_abs="3666.131421" fuel_abs="3685.358724" electricity_abs="0"
            CO_normed="5428.307390" CO2_normed="375500.746235" HC_normed="33.801712" PMx_normed="7.847585" NOx_normed="160.567532" fuel_normed="161.409641" electricity_normed="0"
            traveltime="1.20" CO_perVeh="110.128169" CO2_perVeh="7618.067053" HC_perVeh="0.685761" PMx_perVeh="0.159210" NOx_perVeh="3.257555" fuel_perVeh="3.274639" electricity_perVeh="0"/>
        <edge id=":1110673562_0" sampledSeconds="103.75" CO_abs="2341.649799" CO2_abs="186271.970715" HC_abs="14.904928" PMx_abs="2.514172" NOx_abs="70.999570" fuel_abs="80.071105" electricity_abs="0"
            CO_normed="6518.162280" CO2_normed="518502.354113" HC_normed="41.489013" PMx_normed="6.998392" NOx_normed="197.632762" fuel_normed="222.884078" electricity_normed="0"
            traveltime="0.03" CO_perVeh="0.596902" CO2_perVeh="47.481981" HC_perVeh="0.003799" PMx_perVeh="0.000641" NOx_perVeh="0.018098" fuel_perVeh="0.020411" electricity_perVeh="0"/>
        <edge id=":1110673564_0" sampledSeconds="28.67" CO_abs="496.756615" CO2_abs="56758.105899" HC_abs="3.561264" PMx_abs="0.782169" NOx_abs="21.335215" fuel_abs="24.397941" electricity_abs="0"
            CO_normed="3733.452641" CO2_normed="426574.491103" HC_normed="26.765240" PMx_normed="5.878516" NOx_normed="160.348174" fuel_normed="183.366574" electricity_normed="0"
            traveltime="7.881577e-03" CO_perVeh="0.136565" CO2_perVeh="15.603603" HC_perVeh="0.000979" PMx_perVeh="0.000215" NOx_perVeh="0.005865" fuel_perVeh="0.006707" electricity_perVeh="0"/>
        <edge id=":1110673588_0" sampledSeconds="11.49" CO_abs="257.460246" CO2_abs="28896.314266" HC_abs="1.842471" PMx_abs="0.420031" NOx_abs="10.998311" fuel_abs="12.421292" electricity_abs="0"
            CO_normed="773.993224" CO2_normed="86869.921802" HC_normed="5.538954" PMx_normed="1.262725" NOx_normed="33.063816" fuel_normed="37.341670" electricity_normed="0"
            traveltime="0.02" CO_perVeh="0.429100" CO2_perVeh="48.160524" HC_perVeh="0.003071" PMx_perVeh="0.000700" NOx_perVeh="0.018331" fuel_perVeh="0.020702" electricity_perVeh="0"/>
        <edge id=":1110673601_0" sampledSeconds="29.78" CO_abs="475.740489" CO2_abs="51938.245737" HC_abs="3.371332" PMx_abs="0.751688" NOx_abs="19.780686" fuel_abs="22.326047" electricity_abs="0"
            CO_normed="1276.965224" CO2_normed="139410.740124" HC_normed="9.049205" PMx_normed="2.017654" NOx_normed="53.094594" fuel_normed="59.926759" electricity_normed="0"
            traveltime="0.02" CO_perVeh="0.353101" CO2_perVeh="38.549261" HC_perVeh="0.002502" PMx_perVeh="0.000558" NOx_perVeh="0.014681" fuel_perVeh="0.016571" electricity_perVeh="0"/>
        <edge id=":1110673617_0" sampledSeconds="238.13" CO_abs="5689.277833" CO2_abs="720550.357667" HC_abs="43.085666" PMx_abs="12.806215" NOx_abs="270.848390" fuel_abs="309.731515" electricity_abs="0"
            CO_normed="14252.888099" CO2_normed="1805136.595408" HC_normed="107.939037" PMx_normed="32.082377" NOx_normed="678.534588" fuel_normed="775.945340" electricity_normed="0"
            traveltime="0.01" CO_perVeh="0.348996" CO2_perVeh="44.200580" HC_perVeh="0.002643" PMx_perVeh="0.000786" NOx_perVeh="0.016615" fuel_perVeh="0.019000" electricity_perVeh="0"/>
        <edge id=":1110673621_0" sampledSeconds="26.05" CO_abs="552.033459" CO2_abs="57027.685856" HC_abs="3.839132" PMx_abs="0.873245" NOx_abs="22.039442" fuel_abs="24.513731" electricity_abs="0"
            CO_normed="1659.557788" CO2_normed="171440.224703" HC_normed="11.541442" PMx_normed="2.625204" NOx_normed="66.256359" fuel_normed="73.694725" electricity_normed="0"
            traveltime="0.02" CO_perVeh="0.418207" CO2_perVeh="43.202792" HC_perVeh="0.002908" PMx_perVeh="0.000662" NOx_perVeh="0.016697" fuel_perVeh="0.018571" electricity_perVeh="0"/>
        <edge id=":1110673630_0" sampledSeconds="54.15" CO_abs="231.746507" CO2_abs="25515.041742" HC_abs="1.630270" PMx_abs="0.285166" NOx_abs="9.227494" fuel_abs="10.967955" electricity_abs="0"
            CO_normed="12.423163" CO2_normed="1367.776875" HC_normed="0.087393" PMx_normed="0.015287" NOx_normed="0.494655" fuel_normed="0.587956" electricity_normed="0"
            traveltime="1.26" CO_perVeh="5.409373" CO2_perVeh="595.566205" HC_perVeh="0.038053" PMx_perVeh="0.006656" NOx_perVeh="0.215386" fuel_perVeh="0.256011" electricity_perVeh="0"/>
        <edge id=":1110673630_1" sampledSeconds="7.26" CO_abs="51.454088" CO2_abs="4095.092526" HC_abs="0.329247" PMx_abs="0.063345" NOx_abs="1.613900" fuel_abs="1.760309" electricity_abs="0"
            CO_normed="3.362707" CO2_normed="267.628812" HC_normed="0.021517" PMx_normed="0.004140" NOx_normed="0.105474" fuel_normed="0.115042" electricity_normed="0"
            traveltime="1.03" CO_perVeh="7.282732" CO2_perVeh="579.613096" HC_perVeh="0.046601" PMx_perVeh="0.008966" NOx_perVeh="0.228429" fuel_perVeh="0.249151" electricity_perVeh="0"/>
        <edge id=":1110673650_0" sampledSeconds="143.64" CO_abs="2297.453845" CO2_abs="294906.380934" HC_abs="17.153129" PMx_abs="3.970891" NOx_abs="109.593634" fuel_abs="126.767905" electricity_abs="0"
            CO_normed="5755.625499" CO2_normed="738805.129688" HC_normed="42.972347" PMx_normed="9.947954" NOx_normed="274.556076" fuel_normed="317.581390" electricity_normed="0"
            traveltime="0.02" CO_perVeh="0.368871" CO2_perVeh="47.349165" HC_perVeh="0.002754" PMx_perVeh="0.000638" NOx_perVeh="0.017596" fuel_perVeh="0.020353" electricity_perVeh="0"/>
        <edge id=":1110673655_0" sampledSeconds="44.56" CO_abs="721.142043" CO2_abs="88130.431713" HC_abs="5.300798" PMx_abs="1.153447" NOx_abs="32.676491" fuel_abs="37.883653" electricity_abs="0"
            CO_normed="1806.618898" CO2_normed="220786.050222" HC_normed="13.279660" PMx_normed="2.889637" NOx_normed="81.861774" fuel_normed="94.906856" electricity_normed="0"
            traveltime="0.02" CO_perVeh="0.385947" CO2_perVeh="47.166407" HC_perVeh="0.002837" PMx_perVeh="0.000617" NOx_perVeh="0.017488" fuel_perVeh="0.020275" electricity_perVeh="0"/>
        <edge id=":1110673663_0" sampledSeconds="108.46" CO_abs="1614.342116" CO2_abs="204377.751631" HC_abs="12.051828" PMx_abs="2.745649" NOx_abs="76.044600" fuel_abs="87.853465" electricity_abs="0"
            CO_normed="74.071078" CO2_normed="9377.492103" HC_normed="0.552976" PMx_normed="0.125979" NOx_normed="3.489165" fuel_normed="4.030992" electricity_normed="0"
            traveltime="1.27" CO_perVeh="18.961316" CO2_perVeh="2400.526615" HC_perVeh="0.141555" PMx_perVeh="0.032249" NOx_perVeh="0.893185" fuel_perVeh="1.031886" electricity_perVeh="0"/>
        <edge id=":1110673663_1" sampledSeconds="153.85" CO_abs="2603.658469" CO2_abs="305390.146945" HC_abs="18.845478" PMx_abs="4.345500" NOx_abs="115.225883" fuel_abs="131.274253" electricity_abs="0"
            CO_normed="119.610059" CO2_normed="14029.387439" HC_normed="0.865747" PMx_normed="0.199629" NOx_normed="5.293388" fuel_normed="6.030638" electricity_normed="0"
            traveltime="1.25" CO_perVeh="21.127744" CO2_perVeh="2478.130293" HC_perVeh="0.152924" PMx_perVeh="0.035262" NOx_perVeh="0.935016" fuel_perVeh="1.065243" electricity_perVeh="0"/>
        <edge id=":1110673666_0" sampledSeconds="158.92" CO_abs="3221.673761" CO2_abs="255255.989073" HC_abs="20.493509" PMx_abs="3.455245" NOx_abs="97.362321" fuel_abs="109.724659" electricity_abs="0"