<?xml version="1.0" encoding="UTF-8"?>

<!-- generated on Mon Nov  9 21:35:39 2020 by Eclipse SUMO sumo Version 1.7.0
<configuration xmlns:xsi="http://www.w3.org/2001/XMLSchema-instance" xsi:noNamespaceSchemaLocation="http://sumo.dlr.de/xsd/sumoConfiguration.xsd">

    <input>
        <net-file value="../dataSets/Porto/6AM7AM_Routing_SaoBento/Porto.net.xml"/>
        <route-files value="../results/Porto/6AM7AM_Routing_SaoBento/cost_co-ttime/solution7/Porto.rou.xml"/>
        <additional-files value="moreOutputInfo.xml"/>
    </input>

    <output>
        <emission-output.precision value="6"/>
        <tripinfo-output value="../results/Porto/6AM7AM_Routing_SaoBento/cost_co-ttime/solution7/Porto-tripinfo"/>
    </output>

    <processing>
        <collision.action value="warn"/>
        <time-to-teleport value="-1"/>
    </processing>

    <emissions>
        <device.emissions.probability value="1"/>
    </emissions>

    <gui_only>
        <quit-on-end value="true"/>
        <start value="true"/>
    </gui_only>

</configuration>
-->

<meandata xmlns:xsi="http://www.w3.org/2001/XMLSchema-instance" xsi:noNamespaceSchemaLocation="http://sumo.dlr.de/xsd/meandata_file.xsd">
    <interval begin="0.00" end="4700.00" id="emissions-detector">
        <edge id=":1092997347_0" sampledSeconds="289.23" CO_abs="36650.804409" CO2_abs="1433490.157995" HC_abs="200.728775" PMx_abs="29.166278" NOx_abs="621.844071" fuel_abs="616.201592" electricity_abs="0"
            CO_normed="63802.174020" CO2_normed="2495437.412370" HC_normed="349.431136" PMx_normed="50.773019" NOx_normed="1082.513856" fuel_normed="1072.691359" electricity_normed="0"
            traveltime="0.08" CO_perVeh="9.672397" CO2_perVeh="378.307820" HC_perVeh="0.052974" PMx_perVeh="0.007697" NOx_perVeh="0.164109" fuel_perVeh="0.162620" electricity_perVeh="0"/>
        <edge id=":1103427051_0" sampledSeconds="11.02" CO_abs="920.976086" CO2_abs="51755.365239" HC_abs="5.422823" PMx_abs="1.017945" NOx_abs="22.100823" fuel_abs="22.247338" electricity_abs="0"
            CO_normed="2432.512040" CO2_normed="136697.956612" HC_normed="14.322937" PMx_normed="2.688630" NOx_normed="58.373412" fuel_normed="58.760394" electricity_normed="0"
            traveltime="0.03" CO_perVeh="2.523461" CO2_perVeh="141.808918" HC_perVeh="0.014858" PMx_perVeh="0.002789" NOx_perVeh="0.060556" fuel_perVeh="0.060957" electricity_perVeh="0"/>
        <edge id=":1105984386_0" sampledSeconds="22.94" CO_abs="462.519844" CO2_abs="37666.607629" HC_abs="2.957527" PMx_abs="0.467226" NOx_abs="14.096953" fuel_abs="16.191469" electricity_abs="0"
            CO_normed="36.485120" CO2_normed="2971.268652" HC_normed="0.233300" PMx_normed="0.036856" NOx_normed="1.112015" fuel_normed="1.277237" electricity_normed="0"
            traveltime="0.96" CO_perVeh="19.411600" CO2_perVeh="1580.838348" HC_perVeh="0.124125" PMx_perVeh="0.019609" NOx_perVeh="0.591638" fuel_perVeh="0.679543" electricity_perVeh="0"/>
        <edge id=":1105984390_0" sampledSeconds="22.90" CO_abs="41.010126" CO2_abs="4056.896261" HC_abs="0.278241" PMx_abs="0.047061" NOx_abs="1.486889" fuel_abs="1.743907" electricity_abs="0"
            CO_normed="2.500956" CO2_normed="247.405247" HC_normed="0.016968" PMx_normed="0.002870" NOx_normed="0.090676" fuel_normed="0.106350" electricity_normed="0"
            traveltime="1.04" CO_perVeh="1.859789" CO2_perVeh="183.978253" HC_perVeh="0.012618" PMx_perVeh="0.002134" NOx_perVeh="0.067430" fuel_perVeh="0.079085" electricity_perVeh="0"/>
        <edge id=":1105984390_1" sampledSeconds="645.65" CO_abs="14681.066639" CO2_abs="1962270.114116" HC_abs="113.729696" PMx_abs="34.424341" NOx_abs="730.927794" fuel_abs="843.490229" electricity_abs="0"
            CO_normed="856.441152" CO2_normed="114471.851223" HC_normed="6.634585" PMx_normed="2.008193" NOx_normed="42.639725" fuel_normed="49.206216" electricity_normed="0"
            traveltime="0.64" CO_perVeh="14.463064" CO2_perVeh="1933.131933" HC_perVeh="0.112041" PMx_perVeh="0.033913" NOx_perVeh="0.720074" fuel_perVeh="0.830965" electricity_perVeh="0"/>
        <edge id=":1105984395_0" sampledSeconds="8.82" CO_abs="210.799949" CO2_abs="18010.913402" HC_abs="1.366485" PMx_abs="0.217913" NOx_abs="6.690600" fuel_abs="7.742220" electricity_abs="0"
            CO_normed="175.504121" CO2_normed="14995.210048" HC_normed="1.137684" PMx_normed="0.181426" NOx_normed="5.570343" fuel_normed="6.445882" electricity_normed="0"
            traveltime="0.09" CO_perVeh="2.137742" CO2_perVeh="182.650356" HC_perVeh="0.013858" PMx_perVeh="0.002210" NOx_perVeh="0.067850" fuel_perVeh="0.078515" electricity_perVeh="0"/>
        <edge id=":1105984398_0" sampledSeconds="22.89" CO_abs="1510.887707" CO2_abs="105406.873490" HC_abs="9.365499" PMx_abs="1.889161" NOx_abs="43.381056" fuel_abs="45.309759" electricity_abs="0"
            CO_normed="95.721728" CO2_normed="6678.013209" HC_normed="0.593348" PMx_normed="0.119687" NOx_normed="2.748391" fuel_normed="2.870583" electricity_normed="0"
            traveltime="1.10" CO_perVeh="72.667758" CO2_perVeh="5069.656178" HC_perVeh="0.450444" PMx_perVeh="0.090861" NOx_perVeh="2.086458" fuel_perVeh="2.179221" electricity_perVeh="0"/>
        <edge id=":1105984398_1" sampledSeconds="452.56" CO_abs="8212.831417" CO2_abs="944712.645652" HC_abs="59.134167" PMx_abs="13.594800" NOx_abs="357.980042" fuel_abs="406.091706" electricity_abs="0"
            CO_normed="503.657276" CO2_normed="57935.122981" HC_normed="3.626442" PMx_normed="0.833710" NOx_normed="21.953361" fuel_normed="24.903840" electricity_normed="0"
            traveltime="0.96" CO_perVeh="17.357891" CO2_perVeh="1996.658486" HC_perVeh="0.124981" PMx_perVeh="0.028733" NOx_perVeh="0.756594" fuel_perVeh="0.858278" electricity_perVeh="0"/>
        <edge id=":1106006327_0" sampledSeconds="135.88" CO_abs="18391.510538" CO2_abs="594726.694389" HC_abs="97.744936" PMx_abs="12.424608" NOx_abs="260.425266" fuel_abs="255.652040" electricity_abs="0"
            CO_normed="1589.967771" CO2_normed="51414.823971" HC_normed="8.450165" PMx_normed="1.074122" NOx_normed="22.514071" fuel_normed="22.101420" electricity_normed="0"
            traveltime="2.11" CO_perVeh="285.064874" CO2_perVeh="9218.149316" HC_perVeh="1.515028" PMx_perVeh="0.192579" NOx_perVeh="4.036542" fuel_perVeh="3.962557" electricity_perVeh="0"/>
        <edge id=":1106006327_1" sampledSeconds="162.13" CO_abs="21946.678303" CO2_abs="731441.216889" HC_abs="117.168962" PMx_abs="15.261895" NOx_abs="320.134728" fuel_abs="314.420250" electricity_abs="0"
            CO_normed="1654.549378" CO2_normed="55142.996750" HC_normed="8.833311" PMx_normed="1.150587" NOx_normed="24.134801" fuel_normed="23.703989" electricity_normed="0"
            traveltime="2.30" CO_perVeh="311.561384" CO2_perVeh="10383.750787" HC_perVeh="1.663364" PMx_perVeh="0.216662" NOx_perVeh="4.544725" fuel_perVeh="4.463601" electricity_perVeh="0"/>
        <edge id=":1106006327_2" sampledSeconds="0.00" CO_abs="0" CO2_abs="0" HC_abs="0" PMx_abs="0" NOx_abs="0" fuel_abs="0" electricity_abs="0"
            CO_normed="0" CO2_normed="0" HC_normed="0" PMx_normed="0" NOx_normed="0" fuel_normed="0" electricity_normed="0"/>
        <edge id=":1106006327_3" sampledSeconds="0.00" CO_abs="0" CO2_abs="0" HC_abs="0" PMx_abs="0" NOx_abs="0" fuel_abs="0" electricity_abs="0"
            CO_normed="0" CO2_normed="0" HC_normed="0" PMx_normed="0" NOx_normed="0" fuel_normed="0" electricity_normed="0"/>
        <edge id=":1107381198_0" sampledSeconds="0.00" CO_abs="0" CO2_abs="0" HC_abs="0" PMx_abs="0" NOx_abs="0" fuel_abs="0" electricity_abs="0"
            CO_normed="0" CO2_normed="0" HC_normed="0" PMx_normed="0" NOx_normed="0" fuel_normed="0" electricity_normed="0"/>
        <edge id=":1107381198_1" sampledSeconds="35.05" CO_abs="1634.460736" CO2_abs="67856.645681" HC_abs="9.004038" PMx_abs="1.156313" NOx_abs="27.994126" fuel_abs="29.169185" electricity_abs="0"
            CO_normed="136.524250" CO2_normed="5667.971982" HC_normed="0.752095" PMx_normed="0.096585" NOx_normed="2.338311" fuel_normed="2.436462" electricity_normed="0"
            traveltime="1.44" CO_perVeh="67.295281" CO2_perVeh="2793.846268" HC_perVeh="0.370721" PMx_perVeh="0.047609" NOx_perVeh="1.152596" fuel_perVeh="1.200976" electricity_perVeh="0"/>
        <edge id=":1110338277_0" sampledSeconds="96.83" CO_abs="1447.745354" CO2_abs="183061.170701" HC_abs="10.782629" PMx_abs="2.420806" NOx_abs="67.897156" fuel_abs="78.690411" electricity_abs="0"
            CO_normed="3960.397624" CO2_normed="500775.238999" HC_normed="29.496553" PMx_normed="6.622266" NOx_normed="185.736902" fuel_normed="215.262523" electricity_normed="0"
            traveltime="0.02" CO_perVeh="0.326276" CO2_perVeh="41.256210" HC_perVeh="0.002430" PMx_perVeh="0.000546" NOx_perVeh="0.015302" fuel_perVeh="0.017734" electricity_perVeh="0"/>
        <edge id=":1110338293_0" sampledSeconds="124.61" CO_abs="5786.597229" CO2_abs="404185.600320" HC_abs="35.825227" PMx_abs="6.956588" NOx_abs="164.499849" fuel_abs="173.741969" electricity_abs="0"
            CO_normed="14774.290797" CO2_normed="1031963.234860" HC_normed="91.468665" PMx_normed="17.761501" NOx_normed="419.999615" fuel_normed="443.596517" electricity_normed="0"
            traveltime="0.03" CO_perVeh="1.327252" CO2_perVeh="92.706663" HC_perVeh="0.008217" PMx_perVeh="0.001596" NOx_perVeh="0.037731" fuel_perVeh="0.039851" electricity_perVeh="0"/>
        <edge id=":1110338295_0" sampledSeconds="0.00" CO_abs="0" CO2_abs="0" HC_abs="0" PMx_abs="0" NOx_abs="0" fuel_abs="0" electricity_abs="0"
            CO_normed="0" CO2_normed="0" HC_normed="0" PMx_normed="0" NOx_normed="0" fuel_normed="0" electricity_normed="0"/>
        <edge id=":1110673403_0" sampledSeconds="143.86" CO_abs="2091.542037" CO2_abs="255540.243552" HC_abs="15.367133" PMx_abs="3.499367" NOx_abs="95.573475" fuel_abs="109.846031" electricity_abs="0"
            CO_normed="5340.107328" CO2_normed="652443.175026" HC_normed="39.235234" PMx_normed="8.934554" NOx_normed="244.017383" fuel_normed="280.457951" electricity_normed="0"
            traveltime="0.02" CO_perVeh="0.335812" CO2_perVeh="41.028830" HC_perVeh="0.002467" PMx_perVeh="0.000562" NOx_perVeh="0.015345" fuel_perVeh="0.017637" electricity_perVeh="0"/>
        <edge id=":1110673412_0" sampledSeconds="252.19" CO_abs="44753.227449" CO2_abs="3054835.536320" HC_abs="278.547821" PMx_abs="67.129259" NOx_abs="1312.720918" fuel_abs="1313.123335" electricity_abs="0"
            CO_normed="118203.682185" CO2_normed="8068531.130412" HC_normed="735.709578" PMx_normed="177.303986" NOx_normed="3467.201252" fuel_normed="3468.264127" electricity_normed="0"
            traveltime="0.02" CO_perVeh="2.756733" CO2_perVeh="188.173353" HC_perVeh="0.017158" PMx_perVeh="0.004135" NOx_perVeh="0.080862" fuel_perVeh="0.080886" electricity_perVeh="0"/>
        <edge id=":1110673414_0" sampledSeconds="0.00" CO_abs="0" CO2_abs="0" HC_abs="0" PMx_abs="0" NOx_abs="0" fuel_abs="0" electricity_abs="0"
            CO_normed="0" CO2_normed="0" HC_normed="0" PMx_normed="0" NOx_normed="0" fuel_normed="0" electricity_normed="0"/>
        <edge id=":1110673414_1" sampledSeconds="14.93" CO_abs="1057.436200" CO2_abs="38943.947349" HC_abs="5.722535" PMx_abs="0.743151" NOx_abs="16.604679" fuel_abs="16.740611" electricity_abs="0"
            CO_normed="89.695585" CO2_normed="3303.367274" HC_normed="0.485406" PMx_normed="0.063037" NOx_normed="1.408469" fuel_normed="1.420000" electricity_normed="0"
            traveltime="1.63" CO_perVeh="115.489222" CO2_perVeh="4253.312102" HC_perVeh="0.624994" PMx_perVeh="0.081164" NOx_perVeh="1.813501" fuel_perVeh="1.828347" electricity_perVeh="0"/>
        <edge id=":1110673417_0" sampledSeconds="29.49" CO_abs="635.188848" CO2_abs="65788.081078" HC_abs="4.409653" PMx_abs="0.979298" NOx_abs="25.266331" fuel_abs="28.279484" electricity_abs="0"
            CO_normed="1737.598673" CO2_normed="179967.395045" HC_normed="12.062882" PMx_normed="2.678931" NOx_normed="69.117623" fuel_normed="77.360290" electricity_normed="0"
            traveltime="0.02" CO_perVeh="0.471446" CO2_perVeh="48.828794" HC_perVeh="0.003273" PMx_perVeh="0.000727" NOx_perVeh="0.018753" fuel_perVeh="0.020989" electricity_perVeh="0"/>
        <edge id=":1110673446_0" sampledSeconds="333.20" CO_abs="3318.721064" CO2_abs="262372.907250" HC_abs="21.371959" PMx_abs="4.938432" NOx_abs="108.171741" fuel_abs="112.781923" electricity_abs="0"
            CO_normed="8473.330377" CO2_normed="669888.273830" HC_normed="54.566703" PMx_normed="12.608762" NOx_normed="276.183170" fuel_normed="287.953846" electricity_normed="0"
            traveltime="0.02" CO_perVeh="0.226725" CO2_perVeh="17.924504" HC_perVeh="0.001460" PMx_perVeh="0.000337" NOx_perVeh="0.007390" fuel_perVeh="0.007705" electricity_perVeh="0"/>
        <edge id=":1110673451_0" sampledSeconds="37.71" CO_abs="261.414909" CO2_abs="20087.009641" HC_abs="1.646343" PMx_abs="0.262535" NOx_abs="7.617229" fuel_abs="8.634647" electricity_abs="0"
            CO_normed="741.602578" CO2_normed="56984.424513" HC_normed="4.670478" PMx_normed="0.744782" NOx_normed="21.609161" fuel_normed="24.495451" electricity_normed="0"
            traveltime="0.03" CO_perVeh="0.187469" CO2_perVeh="14.405027" HC_perVeh="0.001181" PMx_perVeh="0.000188" NOx_perVeh="0.005463" fuel_perVeh="0.006192" electricity_perVeh="0"/>
        <edge id=":1110673464_0" sampledSeconds="324.18" CO_abs="756.915774" CO2_abs="53595.692072" HC_abs="4.671191" PMx_abs="0.755755" NOx_abs="20.742989" fuel_abs="23.038723" electricity_abs="0"
            CO_normed="41.059864" CO2_normed="2907.366817" HC_normed="0.253395" PMx_normed="0.040997" NOx_normed="1.125230" fuel_normed="1.249765" electricity_normed="0"
            traveltime="1.17" CO_perVeh="2.736151" CO2_perVeh="193.741356" HC_perVeh="0.016886" PMx_perVeh="0.002732" NOx_perVeh="0.074983" fuel_perVeh="0.083282" electricity_perVeh="0"/>
        <edge id=":1110673464_1" sampledSeconds="710.35" CO_abs="16078.916699" CO2_abs="2014236.424833" HC_abs="121.506013" PMx_abs="35.965869" NOx_abs="758.534444" fuel_abs="865.827663" electricity_abs="0"
            CO_normed="854.668007" CO2_normed="107065.884055" HC_normed="6.458601" PMx_normed="1.911751" NOx_normed="40.319577" fuel_normed="46.022703" electricity_normed="0"
            traveltime="0.70" CO_perVeh="15.870930" CO2_perVeh="1988.181566" HC_perVeh="0.119934" PMx_perVeh="0.035501" NOx_perVeh="0.748723" fuel_perVeh="0.854628" electricity_perVeh="0"/>
        <edge id=":1110673479_0" sampledSeconds="133.79" CO_abs="6970.541644" CO2_abs="481419.876865" HC_abs="43.056589" PMx_abs="8.461200" NOx_abs="197.154187" fuel_abs="206.941446" electricity_abs="0"
            CO_normed="17797.127603" CO2_normed="1229157.132422" HC_normed="109.931716" PMx_normed="21.603064" NOx_normed="503.372393" fuel_normed="528.361138" electricity_normed="0"
            traveltime="0.03" CO_perVeh="1.468410" CO2_perVeh="101.415605" HC_perVeh="0.009070" PMx_perVeh="0.001782" NOx_perVeh="0.041532" fuel_perVeh="0.043594" electricity_perVeh="0"/>
        <edge id=":1110673511_0" sampledSeconds="11.71" CO_abs="163.693418" CO2_abs="22846.123278" HC_abs="1.261540" PMx_abs="0.295617" NOx_abs="8.383589" fuel_abs="9.820601" electricity_abs="0"
            CO_normed="417.940643" CO2_normed="58330.527517" HC_normed="3.220953" PMx_normed="0.754767" NOx_normed="21.404908" fuel_normed="25.073874" electricity_normed="0"
            traveltime="0.02" CO_perVeh="0.324145" CO2_perVeh="45.239848" HC_perVeh="0.002498" PMx_perVeh="0.000585" NOx_perVeh="0.016601" fuel_perVeh="0.019447" electricity_perVeh="0"/>
        <edge id=":1110673517_0" sampledSeconds="17.13" CO_abs="671.050658" CO2_abs="50077.420628" HC_abs="4.230677" PMx_abs="0.854127" NOx_abs="20.258007" fuel_abs="21.526105" electricity_abs="0"
            CO_normed="1713.320828" CO2_normed="127857.244156" HC_normed="10.801728" PMx_normed="2.180749" NOx_normed="51.722571" fuel_normed="54.960268" electricity_normed="0"
            traveltime="0.03" CO_perVeh="1.077416" CO2_perVeh="80.402602" HC_perVeh="0.006793" PMx_perVeh="0.001371" NOx_perVeh="0.032526" fuel_perVeh="0.034562" electricity_perVeh="0"/>
        <edge id=":1110673534_0" sampledSeconds="472.63" CO_abs="3188.862264" CO2_abs="276164.155270" HC_abs="20.834742" PMx_abs="3.732752" NOx_abs="104.930344" fuel_abs="118.712063" electricity_abs="0"
            CO_normed="157.786356" CO2_normed="13664.728118" HC_normed="1.030913" PMx_normed="0.184698" NOx_normed="5.192001" fuel_normed="5.873927" electricity_normed="0"
            traveltime="1.42" CO_perVeh="9.606764" CO2_perVeh="831.971914" HC_perVeh="0.062767" PMx_perVeh="0.011245" NOx_perVeh="0.316113" fuel_perVeh="0.357632" electricity_perVeh="0"/>
        <edge id=":1110673534_1" sampledSeconds="184.11" CO_abs="2875.525761" CO2_abs="378675.491023" HC_abs="21.712190" PMx_abs="5.010634" NOx_abs="140.047024" fuel_abs="162.776827" electricity_abs="0"
            CO_normed="138.349898" CO2_normed="18219.177907" HC_normed="1.044637" PMx_normed="0.241076" NOx_normed="6.738069" fuel_normed="7.831666" electricity_normed="0"
            traveltime="1.22" CO_perVeh="19.092459" CO2_perVeh="2514.269313" HC_perVeh="0.144161" PMx_perVeh="0.033269" NOx_perVeh="0.929862" fuel_perVeh="1.080780" electricity_perVeh="0"/>
        <edge id=":1110673549_0" sampledSeconds="60.25" CO_abs="96.173490" CO2_abs="8792.039344" HC_abs="0.643442" PMx_abs="0.139018" NOx_abs="3.442109" fuel_abs="3.779318" electricity_abs="0"
            CO_normed="4.609812" CO2_normed="421.422278" HC_normed="0.030842" PMx_normed="0.006663" NOx_normed="0.164988" fuel_normed="0.181151" electricity_normed="0"
            traveltime="1.26" CO_perVeh="2.003693" CO2_perVeh="183.174651" HC_perVeh="0.013406" PMx_perVeh="0.002896" NOx_perVeh="0.071713" fuel_perVeh="0.078739" electricity_perVeh="0"/>
        <edge id=":1110673549_1" sampledSeconds="639.93" CO_abs="13625.728931" CO2_abs="1806376.408983" HC_abs="105.177179" PMx_abs="31.714419" NOx_abs="674.168817" fuel_abs="776.478587" electricity_abs="0"
            CO_normed="631.763229" CO2_normed="83753.478341" HC_normed="4.876589" PMx_normed="1.470454" NOx_normed="31.258149" fuel_normed="36.001789" electricity_normed="0"
            traveltime="0.81" CO_perVeh="17.152652" CO2_perVeh="2273.944087" HC_perVeh="0.132402" PMx_perVeh="0.039923" NOx_perVeh="0.848673" fuel_perVeh="0.977465" electricity_perVeh="0"/>
        <edge id=":1110673556_0" sampledSeconds="415.84" CO_abs="50486.206217" CO2_abs="2547838.357773" HC_abs="290.430713" PMx_abs="51.172177" NOx_abs="1095.828356" fuel_abs="1095.205495" electricity_abs="0"
            CO_normed="1794.444808" CO2_normed="90558.504102" HC_normed="10.322857" PMx_normed="1.818826" NOx_normed="38.949322" fuel_normed="38.927184" electricity_normed="0"
            traveltime="2.58" CO_perVeh="313.393750" CO2_perVeh="15815.738164" HC_perVeh="1.802852" PMx_perVeh="0.317652" NOx_perVeh="6.802368" fuel_perVeh="6.798502" electricity_perVeh="0"/>
        <edge id=":1110673556_2" sampledSeconds="245.32" CO_abs="23530.109824" CO2_abs="1019799.182221" HC_abs="131.070002" PMx_abs="19.531610" NOx_abs="433.916459" fuel_abs="438.371699" electricity_abs="0"
            CO_normed="874.481458" CO2_normed="37900.183303" HC_normed="4.871133" PMx_normed="0.725880" NOx_normed="16.126227" fuel_normed="16.291803" electricity_normed="0"
            traveltime="2.98" CO_perVeh="285.415723" CO2_perVeh="12369.968658" HC_perVeh="1.589854" PMx_perVeh="0.236915" NOx_perVeh="5.263323" fuel_perVeh="5.317365" electricity_perVeh="0"/>
        <edge id=":1110673556_3" sampledSeconds="408.07" CO_abs="34931.087224" CO2_abs="1243302.707074" HC_abs="187.989541" PMx_abs="23.708161" NOx_abs="530.152988" fuel_abs="534.452418" electricity_abs="0"
            CO_normed="2953.170683" CO2_normed="105112.248027" HC_normed="15.893155" PMx_normed="2.004353" NOx_normed="44.820599" fuel_normed="45.184085" electricity_normed="0"
            traveltime="1.73" CO_perVeh="147.847820" CO2_perVeh="5262.349642" HC_perVeh="0.795676" PMx_perVeh="0.100346" NOx_perVeh="2.243903" fuel_perVeh="2.262100" electricity_perVeh="0"/>
        <edge id=":1110673556_4" sampledSeconds="203.51" CO_abs="21547.204422" CO2_abs="863675.026439" HC_abs="118.383412" PMx_abs="16.875696" NOx_abs="370.276902" fuel_abs="371.260853" electricity_abs="0"
            CO_normed="1112.895596" CO2_normed="44608.113157" HC_normed="6.114407" PMx_normed="0.871616" NOx_normed="19.124501" fuel_normed="19.175321" electricity_normed="0"
            traveltime="2.41" CO_perVeh="254.999554" CO2_perVeh="10221.128577" HC_perVeh="1.401004" PMx_perVeh="0.199715" NOx_perVeh="4.382028" fuel_perVeh="4.393672" electricity_perVeh="0"/>
        <edge id=":1110673556_5" sampledSeconds="23.83" CO_abs="2010.874219" CO2_abs="83294.643757" HC_abs="11.096295" PMx_abs="1.538411" NOx_abs="35.120643" fuel_abs="35.805261" electricity_abs="0"
            CO_normed="144.759782" CO2_normed="5996.254950" HC_normed="0.798805" PMx_normed="0.110748" NOx_normed="2.528282" fuel_normed="2.577566" electricity_normed="0"
            traveltime="1.65" CO_perVeh="139.023403" CO2_perVeh="5758.642038" HC_perVeh="0.767151" PMx_perVeh="0.106359" NOx_perVeh="2.428094" fuel_perVeh="2.475425" electricity_perVeh="0"/>
        <edge id=":1110673556_6" sampledSeconds="540.94" CO_abs="63496.890741" CO2_abs="3155042.537186" HC_abs="364.128470" PMx_abs="63.664362" NOx_abs="1359.044316" fuel_abs="1356.216675" electricity_abs="0"
            CO_normed="2313.792403" CO2_normed="114968.045973" HC_normed="13.268645" PMx_normed="2.319895" NOx_normed="49.522841" fuel_normed="49.419803" electricity_normed="0"
            traveltime="2.57" CO_perVeh="301.121875" CO2_perVeh="14962.186545" HC_perVeh="1.726810" PMx_perVeh="0.301916" NOx_perVeh="6.445008" fuel_perVeh="6.431599" electricity_perVeh="0"/>
        <edge id=":1110673561_0" sampledSeconds="101.25" CO_abs="9624.997444" CO2_abs="687351.165162" HC_abs="60.373186" PMx_abs="13.945909" NOx_abs="290.958586" fuel_abs="295.459476" electricity_abs="0"
            CO_normed="440.665778" CO2_normed="31469.321191" HC_normed="2.764094" PMx_normed="0.638492" NOx_normed="13.321094" fuel_normed="13.527160" electricity_normed="0"
            traveltime="1.19" CO_perVeh="113.584312" CO2_perVeh="8111.410892" HC_perVeh="0.712462" PMx_perVeh="0.164575" NOx_perVeh="3.433594" fuel_perVeh="3.486709" electricity_perVeh="0"/>
        <edge id=":1110673561_1" sampledSeconds="1314.17" CO_abs="121724.744054" CO2_abs="8423041.578014" HC_abs="758.176452" PMx_abs="176.366692" NOx_abs="3603.224093" fuel_abs="3620.658434" electricity_abs="0"
            CO_normed="5433.331828" CO2_normed="375972.693558" HC_normed="33.842127" PMx_normed="7.872342" NOx_normed="160.834285" fuel_normed="161.612488" electricity_normed="0"
            traveltime="1.19" CO_perVeh="110.427043" CO2_perVeh="7641.269523" HC_perVeh="0.687807" PMx_perVeh="0.159997" NOx_perVeh="3.268796" fuel_perVeh="3.284612" electricity_perVeh="0"/>
        <edge id=":1110673562_0" sampledSeconds="104.28" CO_abs="1885.590773" CO2_abs="157163.966376" HC_abs="12.155775" PMx_abs="2.020384" NOx_abs="59.141146" fuel_abs="67.558791" electricity_abs="0"
            CO_normed="5349.193683" CO2_normed="445855.223763" HC_normed="34.484469" PMx_normed="5.731585" NOx_normed="167.776301" fuel_normed="191.656145" electricity_normed="0"
            traveltime="0.03" CO_perVeh="0.480646" CO2_perVeh="40.061811" HC_perVeh="0.003099" PMx_perVeh="0.000515" NOx_perVeh="0.015075" fuel_perVeh="0.017221" electricity_perVeh="0"/>
        <edge id=":1110673564_0" sampledSeconds="28.72" CO_abs="467.060564" CO2_abs="55734.219069" HC_abs="3.396004" PMx_abs="0.755344" NOx_abs="20.830614" fuel_abs="23.957820" electricity_abs="0"
            CO_normed="3577.485173" CO2_normed="426900.401382" HC_normed="26.011948" PMx_normed="5.785610" NOx_normed="159.553637" fuel_normed="183.506705" electricity_normed="0"
            traveltime="7.895569e-03" CO_perVeh="0.128402" CO2_perVeh="15.322122" HC_perVeh="0.000934" PMx_perVeh="0.000208" NOx_perVeh="0.005727" fuel_perVeh="0.006586" electricity_perVeh="0"/>
        <edge id=":1110673588_0" sampledSeconds="11.72" CO_abs="206.396280" CO2_abs="21204.821089" HC_abs="1.429517" PMx_abs="0.303827" NOx_abs="8.077937" fuel_abs="9.115065" electricity_abs="0"
            CO_normed="632.363070" CO2_normed="64967.962485" HC_normed="4.379796" PMx_normed="0.930875" NOx_normed="24.749423" fuel_normed="27.927008" electricity_normed="0"
            traveltime="0.02" CO_perVeh="0.343994" CO2_perVeh="35.341368" HC_perVeh="0.002383" PMx_perVeh="0.000506" NOx_perVeh="0.013463" fuel_perVeh="0.015192" electricity_perVeh="0"/>
        <edge id=":1110673601_0" sampledSeconds="29.71" CO_abs="411.672093" CO2_abs="54282.295134" HC_abs="3.098182" PMx_abs="0.689360" NOx_abs="19.921541" fuel_abs="23.333738" electricity_abs="0"
            CO_normed="1126.154661" CO2_normed="148492.600670" HC_normed="8.475270" PMx_normed="1.885786" NOx_normed="54.496618" fuel_normed="63.830894" electricity_normed="0"
            traveltime="0.02" CO_perVeh="0.305549" CO2_perVeh="40.289046" HC_perVeh="0.002300" PMx_perVeh="0.000512" NOx_perVeh="0.014786" fuel_perVeh="0.017319" electricity_perVeh="0"/>
        <edge id=":1110673617_0" sampledSeconds="238.18" CO_abs="5966.332979" CO2_abs="730532.419927" HC_abs="44.662055" PMx_abs="13.117774" NOx_abs="276.169828" fuel_abs="314.022249" electricity_abs="0"
            CO_normed="15233.190585" CO2_normed="1865189.157259" HC_normed="114.030780" PMx_normed="33.492188" NOx_normed="705.114455" fuel_normed="801.758935" electricity_normed="0"
            traveltime="0.01" CO_perVeh="0.365650" CO2_perVeh="44.771096" HC_perVeh="0.002737" PMx_perVeh="0.000804" NOx_perVeh="0.016925" fuel_perVeh="0.019245" electricity_perVeh="0"/>
        <edge id=":1110673621_0" sampledSeconds="25.77" CO_abs="461.289644" CO2_abs="53837.639941" HC_abs="3.335608" PMx_abs="0.750469" NOx_abs="20.239168" fuel_abs="23.142539" electricity_abs="0"
            CO_normed="1413.312952" CO2_normed="164949.364925" HC_normed="10.219737" PMx_normed="2.299311" NOx_normed="62.009367" fuel_normed="70.904800" electricity_normed="0"
            traveltime="0.02" CO_perVeh="0.349462" CO2_perVeh="40.786091" HC_perVeh="0.002527" PMx_perVeh="0.000569" NOx_perVeh="0.015333" fuel_perVeh="0.017532" electricity_perVeh="0"/>
        <edge id=":1110673630_0" sampledSeconds="54.03" CO_abs="202.506707" CO2_abs="17338.340434" HC_abs="1.316634" PMx_abs="0.225460" NOx_abs="6.538333" fuel_abs="7.453083" electricity_abs="0"
            CO_normed="11.063589" CO2_normed="947.248999" HC_normed="0.071932" PMx_normed="0.012318" NOx_normed="0.357210" fuel_normed="0.407186" electricity_normed="0"
            traveltime="1.26" CO_perVeh="4.726865" CO2_perVeh="404.707533" HC_perVeh="0.030733" PMx_perVeh="0.005263" NOx_perVeh="0.152616" fuel_perVeh="0.173968" electricity_perVeh="0"/>
        <edge id=":1110673630_1" sampledSeconds="7.56" CO_abs="8.428949" CO2_abs="993.991668" HC_abs="0.060789" PMx_abs="0.011032" NOx_abs="0.358708" fuel_abs="0.427279" electricity_abs="0"
            CO_normed="0.561410" CO2_normed="66.204810" HC_normed="0.004049" PMx_normed="0.000735" NOx_normed="0.023892" fuel_normed="0.028459" electricity_normed="0"
            traveltime="1.07" CO_perVeh="1.193021" CO2_perVeh="140.688051" HC_perVeh="0.008604" PMx_perVeh="0.001561" NOx_perVeh="0.050771" fuel_perVeh="0.060476" electricity_perVeh="0"/>
        <edge id=":1110673650_0" sampledSeconds="142.90" CO_abs="2172.080278" CO2_abs="281179.088070" HC_abs="16.302460" PMx_abs="3.769303" NOx_abs="104.398633" fuel_abs="120.867131" electricity_abs="0"
            CO_normed="5545.736881" CO2_normed="717904.054648" HC_normed="41.623303" PMx_normed="9.623754" NOx_normed="266.549702" fuel_normed="308.596931" electricity_normed="0"
            traveltime="0.02" CO_perVeh="0.349527" CO2_perVeh="45.246815" HC_perVeh="0.002623" PMx_perVeh="0.000607" NOx_perVeh="0.016800" fuel_perVeh="0.019450" electricity_perVeh="0"/>
        <edge id=":1110673655_0" sampledSeconds="45.06" CO_abs="751.362941" CO2_abs="87383.940973" HC_abs="5.399243" PMx_abs="1.170113" NOx_abs="32.600336" fuel_abs="37.562750" electricity_abs="0"
            CO_normed="1918.373466" CO2_normed="223107.934400" HC_normed="13.785302" PMx_normed="2.987522" NOx_normed="83.234900" fuel_normed="95.904894" electricity_normed="0"
            traveltime="0.02" CO_perVeh="0.402121" CO2_perVeh="46.766894" HC_perVeh="0.002890" PMx_perVeh="0.000626" NOx_perVeh="0.017447" fuel_perVeh="0.020103" electricity_perVeh="0"/>
        <edge id=":1110673663_0" sampledSeconds="108.00" CO_abs="1513.451142" CO2_abs="205856.781471" HC_abs="11.539866" PMx_abs="2.714324" NOx_abs="75.916458" fuel_abs="88.489240" electricity_abs="0"
            CO_normed="70.771622" CO2_normed="9626.223122" HC_normed="0.539624" PMx_normed="0.126927" NOx_normed="3.549986" fuel_normed="4.137912" electricity_normed="0"
            traveltime="1.27" CO_perVeh="17.776198" CO2_perVeh="2417.885012" HC_perVeh="0.135541" PMx_perVeh="0.031881" NOx_perVeh="0.891675" fuel_perVeh="1.039348" electricity_perVeh="0"/>
        <edge id=":1110673663_1" sampledSeconds="154.93" CO_abs="2753.360569" CO2_abs="310876.653284" HC_abs="19.637909" PMx_abs="4.553022" NOx_abs="118.276030" fuel_abs="133.632538" electricity_abs="0"
            CO_normed="128.909354" CO2_normed="14554.907556" HC_normed="0.919426" PMx_normed="0.213168" NOx_normed="5.537555" fuel_normed="6.256530" electricity_normed="0"
            traveltime="1.26" CO_perVeh="22.331759" CO2_perVeh="2521.436002" HC_perVeh="0.159278" PMx_perVeh="0.036928" NOx_perVeh="0.959305" fuel_perVeh="1.083857" electricity_perVeh="0"/>
        <edge id=":1110673666_0" sampledSeconds="191.53" CO_abs="4386.255688" CO2_abs="345650.956491" HC_abs="27.895160" PMx_abs="4.874077" NOx_abs="133.139905" fuel_abs="148.581672" electricity_abs="0"