<?xml version="1.0" encoding="UTF-8"?>

<!-- generated on Tue Nov 10 01:51:12 2020 by Eclipse SUMO sumo Version 1.7.0
<configuration xmlns:xsi="http://www.w3.org/2001/XMLSchema-instance" xsi:noNamespaceSchemaLocation="http://sumo.dlr.de/xsd/sumoConfiguration.xsd">

    <input>
        <net-file value="../dataSets/Porto/6AM7AM_Routing_SaoBento/Porto.net.xml"/>
        <route-files value="../results/Porto/6AM7AM_Routing_SaoBento/cost_co2-cost_hc/solution2/Porto.rou.xml"/>
        <additional-files value="moreOutputInfo.xml"/>
    </input>

    <output>
        <emission-output.precision value="6"/>
        <tripinfo-output value="../results/Porto/6AM7AM_Routing_SaoBento/cost_co2-cost_hc/solution2/Porto-tripinfo"/>
    </output>

    <processing>
        <collision.action value="warn"/>
        <time-to-teleport value="-1"/>
    </processing>

    <emissions>
        <device.emissions.probability value="1"/>
    </emissions>

    <gui_only>
        <quit-on-end value="true"/>
        <start value="true"/>
    </gui_only>

</configuration>
-->

<meandata xmlns:xsi="http://www.w3.org/2001/XMLSchema-instance" xsi:noNamespaceSchemaLocation="http://sumo.dlr.de/xsd/meandata_file.xsd">
    <interval begin="0.00" end="4789.00" id="emissions-detector">
        <edge id=":1092997347_0" sampledSeconds="277.27" CO_abs="35246.188389" CO2_abs="1361048.528714" HC_abs="192.625107" PMx_abs="27.782153" NOx_abs="591.085775" fuel_abs="585.061993" electricity_abs="0"
            CO_normed="60216.726874" CO2_normed="2325297.890702" HC_normed="329.092421" PMx_normed="47.464716" NOx_normed="1009.846803" fuel_normed="999.555409" electricity_normed="0"
            traveltime="0.08" CO_perVeh="9.895996" CO2_perVeh="382.138658" HC_perVeh="0.054083" PMx_perVeh="0.007800" NOx_perVeh="0.165958" fuel_perVeh="0.164267" electricity_perVeh="0"/>
        <edge id=":1103427051_0" sampledSeconds="10.80" CO_abs="896.209811" CO2_abs="50450.870477" HC_abs="5.283553" PMx_abs="1.015664" NOx_abs="21.699702" fuel_abs="21.686556" electricity_abs="0"
            CO_normed="2323.107783" CO2_normed="130776.084357" HC_normed="13.695747" PMx_normed="2.632751" NOx_normed="56.248822" fuel_normed="56.214747" electricity_normed="0"
            traveltime="0.03" CO_perVeh="2.455601" CO2_perVeh="138.234622" HC_perVeh="0.014477" PMx_perVeh="0.002783" NOx_perVeh="0.059457" fuel_perVeh="0.059421" electricity_perVeh="0"/>
        <edge id=":1105984386_0" sampledSeconds="22.95" CO_abs="519.829454" CO2_abs="40876.468036" HC_abs="3.291217" PMx_abs="0.512177" NOx_abs="15.349374" fuel_abs="17.571274" electricity_abs="0"
            CO_normed="40.243831" CO2_normed="3164.548798" HC_normed="0.254797" PMx_normed="0.039651" NOx_normed="1.188308" fuel_normed="1.360322" electricity_normed="0"
            traveltime="0.96" CO_perVeh="21.816840" CO2_perVeh="1715.553703" HC_perVeh="0.138130" PMx_perVeh="0.021496" NOx_perVeh="0.644201" fuel_perVeh="0.737453" electricity_perVeh="0"/>
        <edge id=":1105984390_0" sampledSeconds="23.62" CO_abs="12.728903" CO2_abs="901.019615" HC_abs="0.078250" PMx_abs="0.011187" NOx_abs="0.339197" fuel_abs="0.387316" electricity_abs="0"
            CO_normed="0.761832" CO2_normed="53.926504" HC_normed="0.004683" PMx_normed="0.000670" NOx_normed="0.020301" fuel_normed="0.023181" electricity_normed="0"
            traveltime="1.07" CO_perVeh="0.577249" CO2_perVeh="40.860797" HC_perVeh="0.003549" PMx_perVeh="0.000507" NOx_perVeh="0.015382" fuel_perVeh="0.017565" electricity_perVeh="0"/>
        <edge id=":1105984390_1" sampledSeconds="646.05" CO_abs="14658.811747" CO2_abs="1830929.316284" HC_abs="110.420440" PMx_abs="32.700644" NOx_abs="689.479132" fuel_abs="787.032352" electricity_abs="0"
            CO_normed="839.250687" CO2_normed="104824.914334" HC_normed="6.321824" PMx_normed="1.872187" NOx_normed="39.474266" fuel_normed="45.059412" electricity_normed="0"
            traveltime="0.64" CO_perVeh="14.443898" CO2_perVeh="1804.085925" HC_perVeh="0.108802" PMx_perVeh="0.032221" NOx_perVeh="0.679371" fuel_perVeh="0.775494" electricity_perVeh="0"/>
        <edge id=":1105984395_0" sampledSeconds="9.02" CO_abs="207.502931" CO2_abs="16583.965729" HC_abs="1.321933" PMx_abs="0.217565" NOx_abs="6.281639" fuel_abs="7.128813" electricity_abs="0"
            CO_normed="169.548547" CO2_normed="13550.590716" HC_normed="1.080138" PMx_normed="0.177770" NOx_normed="5.132664" fuel_normed="5.824881" electricity_normed="0"
            traveltime="0.09" CO_perVeh="2.104307" CO2_perVeh="168.179547" HC_perVeh="0.013406" PMx_perVeh="0.002206" NOx_perVeh="0.063703" fuel_perVeh="0.072294" electricity_perVeh="0"/>
        <edge id=":1105984398_0" sampledSeconds="22.29" CO_abs="1488.067287" CO2_abs="106293.817756" HC_abs="9.278812" PMx_abs="1.876276" NOx_abs="43.508752" fuel_abs="45.691036" electricity_abs="0"
            CO_normed="92.523900" CO2_normed="6609.055041" HC_normed="0.576931" PMx_normed="0.116662" NOx_normed="2.705254" fuel_normed="2.840942" electricity_normed="0"
            traveltime="1.09" CO_perVeh="72.560357" CO2_perVeh="5183.043404" HC_perVeh="0.452449" PMx_perVeh="0.091490" NOx_perVeh="2.121551" fuel_perVeh="2.227962" electricity_perVeh="0"/>
        <edge id=":1105984398_1" sampledSeconds="452.56" CO_abs="7832.826033" CO2_abs="930553.932773" HC_abs="56.921385" PMx_abs="13.200412" NOx_abs="350.833000" fuel_abs="400.005582" electricity_abs="0"
            CO_normed="471.426190" CO2_normed="56006.286056" HC_normed="3.425868" PMx_normed="0.794480" NOx_normed="21.115223" fuel_normed="24.074722" electricity_normed="0"
            traveltime="0.95" CO_perVeh="16.528875" CO2_perVeh="1963.660274" HC_perVeh="0.120116" PMx_perVeh="0.027856" NOx_perVeh="0.740330" fuel_perVeh="0.844094" electricity_perVeh="0"/>
        <edge id=":1106006327_0" sampledSeconds="286.52" CO_abs="38459.419139" CO2_abs="1253776.955943" HC_abs="204.626123" PMx_abs="26.092718" NOx_abs="548.471549" fuel_abs="538.954388" electricity_abs="0"
            CO_normed="3263.072044" CO2_normed="106376.139483" HC_normed="17.361411" PMx_normed="2.213825" NOx_normed="46.534821" fuel_normed="45.727342" electricity_normed="0"
            traveltime="2.07" CO_perVeh="278.186917" CO2_perVeh="9068.892709" HC_perVeh="1.480114" PMx_perVeh="0.188735" NOx_perVeh="3.967236" fuel_perVeh="3.898396" electricity_perVeh="0"/>
        <edge id=":1106006327_1" sampledSeconds="162.38" CO_abs="21878.917725" CO2_abs="727105.272084" HC_abs="116.751325" PMx_abs="15.145952" NOx_abs="318.079099" fuel_abs="312.556475" electricity_abs="0"
            CO_normed="1618.787309" CO2_normed="53797.395350" HC_normed="8.638250" PMx_normed="1.120626" NOx_normed="23.534181" fuel_normed="23.125571" electricity_normed="0"
            traveltime="2.31" CO_perVeh="310.599436" CO2_perVeh="10322.196463" HC_perVeh="1.657436" PMx_perVeh="0.215016" NOx_perVeh="4.515543" fuel_perVeh="4.437142" electricity_perVeh="0"/>
        <edge id=":1106006327_2" sampledSeconds="0.00" CO_abs="0" CO2_abs="0" HC_abs="0" PMx_abs="0" NOx_abs="0" fuel_abs="0" electricity_abs="0"
            CO_normed="0" CO2_normed="0" HC_normed="0" PMx_normed="0" NOx_normed="0" fuel_normed="0" electricity_normed="0"/>
        <edge id=":1106006327_3" sampledSeconds="0.00" CO_abs="0" CO2_abs="0" HC_abs="0" PMx_abs="0" NOx_abs="0" fuel_abs="0" electricity_abs="0"
            CO_normed="0" CO2_normed="0" HC_normed="0" PMx_normed="0" NOx_normed="0" fuel_normed="0" electricity_normed="0"/>
        <edge id=":1107381198_0" sampledSeconds="0.00" CO_abs="0" CO2_abs="0" HC_abs="0" PMx_abs="0" NOx_abs="0" fuel_abs="0" electricity_abs="0"
            CO_normed="0" CO2_normed="0" HC_normed="0" PMx_normed="0" NOx_normed="0" fuel_normed="0" electricity_normed="0"/>
        <edge id=":1107381198_1" sampledSeconds="34.76" CO_abs="1536.913715" CO2_abs="64287.529008" HC_abs="8.474579" PMx_abs="1.076926" NOx_abs="26.396266" fuel_abs="27.634967" electricity_abs="0"
            CO_normed="125.990504" CO2_normed="5270.053952" HC_normed="0.694715" PMx_normed="0.088282" NOx_normed="2.163868" fuel_normed="2.265412" electricity_normed="0"
            traveltime="1.43" CO_perVeh="63.279000" CO2_perVeh="2646.895838" HC_perVeh="0.348922" PMx_perVeh="0.044340" NOx_perVeh="1.086807" fuel_perVeh="1.137808" electricity_perVeh="0"/>
        <edge id=":1110338277_0" sampledSeconds="96.74" CO_abs="1461.700265" CO2_abs="179464.433895" HC_abs="10.747825" PMx_abs="2.406318" NOx_abs="66.843310" fuel_abs="77.144298" electricity_abs="0"
            CO_normed="3924.261668" CO2_normed="481812.458628" HC_normed="28.854943" PMx_normed="6.460299" NOx_normed="179.455834" fuel_normed="207.111142" electricity_normed="0"
            traveltime="0.02" CO_perVeh="0.329886" CO2_perVeh="40.502728" HC_perVeh="0.002426" PMx_perVeh="0.000543" NOx_perVeh="0.015086" fuel_perVeh="0.017410" electricity_perVeh="0"/>
        <edge id=":1110338293_0" sampledSeconds="122.69" CO_abs="6526.856758" CO2_abs="447495.902303" HC_abs="40.259302" PMx_abs="7.978019" NOx_abs="184.020093" fuel_abs="192.358871" electricity_abs="0"
            CO_normed="16354.621235" CO2_normed="1121309.423185" HC_normed="100.879438" PMx_normed="19.990859" NOx_normed="461.106935" fuel_normed="482.001765" electricity_normed="0"
            traveltime="0.03" CO_perVeh="1.497043" CO2_perVeh="102.640598" HC_perVeh="0.009234" PMx_perVeh="0.001830" NOx_perVeh="0.042208" fuel_perVeh="0.044121" electricity_perVeh="0"/>
        <edge id=":1110338295_0" sampledSeconds="0.00" CO_abs="0" CO2_abs="0" HC_abs="0" PMx_abs="0" NOx_abs="0" fuel_abs="0" electricity_abs="0"
            CO_normed="0" CO2_normed="0" HC_normed="0" PMx_normed="0" NOx_normed="0" fuel_normed="0" electricity_normed="0"/>
        <edge id=":1110673403_0" sampledSeconds="143.55" CO_abs="2359.229561" CO2_abs="282858.518732" HC_abs="17.224786" PMx_abs="3.926593" NOx_abs="106.176752" fuel_abs="121.588965" electricity_abs="0"
            CO_normed="5911.621368" CO2_normed="708770.562702" HC_normed="43.160876" PMx_normed="9.839031" NOx_normed="266.051583" fuel_normed="304.670615" electricity_normed="0"
            traveltime="0.02" CO_perVeh="0.378790" CO2_perVeh="45.414801" HC_perVeh="0.002766" PMx_perVeh="0.000630" NOx_perVeh="0.017047" fuel_perVeh="0.019522" electricity_perVeh="0"/>
        <edge id=":1110673412_0" sampledSeconds="253.70" CO_abs="45076.712012" CO2_abs="3071886.241511" HC_abs="280.421334" PMx_abs="67.511582" NOx_abs="1320.626753" fuel_abs="1320.452588" electricity_abs="0"
            CO_normed="116845.474358" CO2_normed="7962781.423981" HC_normed="726.893385" PMx_normed="174.999960" NOx_normed="3423.258985" fuel_normed="3422.807523" electricity_normed="0"
            traveltime="0.02" CO_perVeh="2.769462" CO2_perVeh="188.733195" HC_perVeh="0.017229" PMx_perVeh="0.004148" NOx_perVeh="0.081138" fuel_perVeh="0.081127" electricity_perVeh="0"/>
        <edge id=":1110673414_0" sampledSeconds="0.00" CO_abs="0" CO2_abs="0" HC_abs="0" PMx_abs="0" NOx_abs="0" fuel_abs="0" electricity_abs="0"
            CO_normed="0" CO2_normed="0" HC_normed="0" PMx_normed="0" NOx_normed="0" fuel_normed="0" electricity_normed="0"/>
        <edge id=":1110673414_1" sampledSeconds="131.72" CO_abs="9391.986207" CO2_abs="357065.462088" HC_abs="51.044130" PMx_abs="6.538272" NOx_abs="150.397880" fuel_abs="153.489851" electricity_abs="0"
            CO_normed="781.857055" CO2_normed="29724.718989" HC_normed="4.249284" PMx_normed="0.544293" NOx_normed="12.520210" fuel_normed="12.777608" electricity_normed="0"
            traveltime="1.57" CO_perVeh="111.900825" CO2_perVeh="4254.256660" HC_perVeh="0.608165" PMx_perVeh="0.077900" NOx_perVeh="1.791916" fuel_perVeh="1.828755" electricity_perVeh="0"/>
        <edge id=":1110673417_0" sampledSeconds="29.59" CO_abs="515.391703" CO2_abs="60117.962658" HC_abs="3.710235" PMx_abs="0.833474" NOx_abs="22.577041" fuel_abs="25.842190" electricity_abs="0"
            CO_normed="1383.684434" CO2_normed="161400.132422" HC_normed="9.960957" PMx_normed="2.237649" NOx_normed="60.613121" fuel_normed="69.379144" electricity_normed="0"
            traveltime="0.02" CO_perVeh="0.382531" CO2_perVeh="44.620357" HC_perVeh="0.002754" PMx_perVeh="0.000619" NOx_perVeh="0.016757" fuel_perVeh="0.019180" electricity_perVeh="0"/>
        <edge id=":1110673446_0" sampledSeconds="334.87" CO_abs="3577.797378" CO2_abs="281434.598775" HC_abs="22.980651" PMx_abs="5.217377" NOx_abs="115.664544" fuel_abs="120.975779" electricity_abs="0"
            CO_normed="8965.038324" CO2_normed="705202.586197" HC_normed="57.583589" PMx_normed="13.073401" NOx_normed="289.825544" fuel_normed="303.134130" electricity_normed="0"
            traveltime="0.02" CO_perVeh="0.244161" CO2_perVeh="19.206046" HC_perVeh="0.001568" PMx_perVeh="0.000356" NOx_perVeh="0.007893" fuel_perVeh="0.008256" electricity_perVeh="0"/>
        <edge id=":1110673451_0" sampledSeconds="37.19" CO_abs="397.919388" CO2_abs="31357.607249" HC_abs="2.525573" PMx_abs="0.416872" NOx_abs="11.927532" fuel_abs="13.479432" electricity_abs="0"
            CO_normed="1107.870504" CO2_normed="87304.537480" HC_normed="7.031594" PMx_normed="1.160638" NOx_normed="33.208136" fuel_normed="37.528871" electricity_normed="0"
            traveltime="0.03" CO_perVeh="0.285361" CO2_perVeh="22.487527" HC_perVeh="0.001811" PMx_perVeh="0.000299" NOx_perVeh="0.008554" fuel_perVeh="0.009667" electricity_perVeh="0"/>
        <edge id=":1110673464_0" sampledSeconds="324.22" CO_abs="701.249310" CO2_abs="52411.873295" HC_abs="4.393153" PMx_abs="0.740893" NOx_abs="20.234276" fuel_abs="22.529815" electricity_abs="0"
            CO_normed="37.333217" CO2_normed="2790.311246" HC_normed="0.233883" PMx_normed="0.039444" NOx_normed="1.077235" fuel_normed="1.199446" electricity_normed="0"
            traveltime="1.17" CO_perVeh="2.534924" CO2_perVeh="189.462007" HC_perVeh="0.015881" PMx_perVeh="0.002678" NOx_perVeh="0.073144" fuel_perVeh="0.081442" electricity_perVeh="0"/>
        <edge id=":1110673464_1" sampledSeconds="709.20" CO_abs="15652.889679" CO2_abs="2064518.047400" HC_abs="120.491441" PMx_abs="36.280462" NOx_abs="771.086342" fuel_abs="887.441833" electricity_abs="0"
            CO_normed="816.560198" CO2_normed="107699.172543" HC_normed="6.285645" PMx_normed="1.892633" NOx_normed="40.225059" fuel_normed="46.294946" electricity_normed="0"
            traveltime="0.70" CO_perVeh="15.456385" CO2_perVeh="2038.600361" HC_perVeh="0.118979" PMx_perVeh="0.035825" NOx_perVeh="0.761406" fuel_perVeh="0.876301" electricity_perVeh="0"/>
        <edge id=":1110673479_0" sampledSeconds="134.54" CO_abs="6720.864469" CO2_abs="457827.248429" HC_abs="41.390763" PMx_abs="8.198176" NOx_abs="188.559762" fuel_abs="196.799840" electricity_abs="0"
            CO_normed="16840.754569" CO2_normed="1147197.114460" HC_normed="103.714586" PMx_normed="20.542517" NOx_normed="472.482178" fuel_normed="493.129689" electricity_normed="0"
            traveltime="0.03" CO_perVeh="1.415813" CO2_perVeh="96.445626" HC_perVeh="0.008719" PMx_perVeh="0.001727" NOx_perVeh="0.039722" fuel_perVeh="0.041458" electricity_perVeh="0"/>
        <edge id=":1110673511_0" sampledSeconds="11.86" CO_abs="224.748844" CO2_abs="24071.069531" HC_abs="1.584075" PMx_abs="0.360538" NOx_abs="9.247463" fuel_abs="10.347116" electricity_abs="0"
            CO_normed="563.162691" CO2_normed="60315.897759" HC_normed="3.969284" PMx_normed="0.903416" NOx_normed="23.171760" fuel_normed="25.927206" electricity_normed="0"
            traveltime="0.02" CO_perVeh="0.445047" CO2_perVeh="47.665484" HC_perVeh="0.003137" PMx_perVeh="0.000714" NOx_perVeh="0.018312" fuel_perVeh="0.020489" electricity_perVeh="0"/>
        <edge id=":1110673517_0" sampledSeconds="17.31" CO_abs="676.011053" CO2_abs="49436.182100" HC_abs="4.237664" PMx_abs="0.844860" NOx_abs="20.039916" fuel_abs="21.250470" electricity_abs="0"
            CO_normed="1693.909508" CO2_normed="123874.333931" HC_normed="10.618494" PMx_normed="2.117001" NOx_normed="50.214867" fuel_normed="53.248203" electricity_normed="0"
            traveltime="0.03" CO_perVeh="1.085380" CO2_perVeh="79.373051" HC_perVeh="0.006804" PMx_perVeh="0.001356" NOx_perVeh="0.032175" fuel_perVeh="0.034119" electricity_perVeh="0"/>
        <edge id=":1110673534_0" sampledSeconds="475.75" CO_abs="2610.590786" CO2_abs="236931.000854" HC_abs="17.272130" PMx_abs="3.002216" NOx_abs="88.571902" fuel_abs="101.847495" electricity_abs="0"
            CO_normed="126.772632" CO2_normed="11505.582117" HC_normed="0.838750" PMx_normed="0.145790" NOx_normed="4.301131" fuel_normed="4.945806" electricity_normed="0"
            traveltime="1.43" CO_perVeh="7.864668" CO2_perVeh="713.778563" HC_perVeh="0.052034" PMx_perVeh="0.009044" NOx_perVeh="0.266832" fuel_perVeh="0.306826" electricity_perVeh="0"/>
        <edge id=":1110673534_1" sampledSeconds="184.20" CO_abs="2846.846485" CO2_abs="362058.667728" HC_abs="21.238574" PMx_abs="4.880239" NOx_abs="134.625223" fuel_abs="155.633883" electricity_abs="0"
            CO_normed="134.424568" CO2_normed="17095.962216" HC_normed="1.002859" PMx_normed="0.230439" NOx_normed="6.356836" fuel_normed="7.348839" electricity_normed="0"
            traveltime="1.22" CO_perVeh="18.902039" CO2_perVeh="2403.939572" HC_perVeh="0.141017" PMx_perVeh="0.032403" NOx_perVeh="0.893863" fuel_perVeh="1.033353" electricity_perVeh="0"/>
        <edge id=":1110673549_0" sampledSeconds="59.89" CO_abs="138.023536" CO2_abs="12688.861087" HC_abs="0.926238" PMx_abs="0.204768" NOx_abs="4.973217" fuel_abs="5.454389" electricity_abs="0"
            CO_normed="6.492830" CO2_normed="596.902684" HC_normed="0.043572" PMx_normed="0.009633" NOx_normed="0.233947" fuel_normed="0.256582" electricity_normed="0"
            traveltime="1.25" CO_perVeh="2.875603" CO2_perVeh="264.361612" HC_perVeh="0.019297" PMx_perVeh="0.004266" NOx_perVeh="0.103613" fuel_perVeh="0.113638" electricity_perVeh="0"/>
        <edge id=":1110673549_1" sampledSeconds="639.15" CO_abs="13112.106223" CO2_abs="1735402.636071" HC_abs="101.276968" PMx_abs="30.511526" NOx_abs="647.825823" fuel_abs="745.970199" electricity_abs="0"
            CO_normed="596.650597" CO2_normed="78967.406262" HC_normed="4.608486" PMx_normed="1.388390" NOx_normed="29.478534" fuel_normed="33.944475" electricity_normed="0"
            traveltime="0.80" CO_perVeh="16.508545" CO2_perVeh="2184.925347" HC_perVeh="0.127511" PMx_perVeh="0.038415" NOx_perVeh="0.815633" fuel_perVeh="0.939199" electricity_perVeh="0"/>
        <edge id=":1110673556_0" sampledSeconds="412.89" CO_abs="50496.654722" CO2_abs="2551113.719548" HC_abs="290.613895" PMx_abs="51.521922" NOx_abs="1098.984287" fuel_abs="1096.612960" electricity_abs="0"
            CO_normed="1761.460859" CO2_normed="88989.795257" HC_normed="10.137404" PMx_normed="1.797225" NOx_normed="38.335565" fuel_normed="38.252847" electricity_normed="0"
            traveltime="2.56" CO_perVeh="313.459094" CO2_perVeh="15836.094497" HC_perVeh="1.803992" PMx_perVeh="0.319823" NOx_perVeh="6.821969" fuel_perVeh="6.807249" electricity_perVeh="0"/>
        <edge id=":1110673556_2" sampledSeconds="244.91" CO_abs="23210.101489" CO2_abs="1007512.299995" HC_abs="129.379149" PMx_abs="19.578340" NOx_abs="430.574888" fuel_abs="433.089581" electricity_abs="0"
            CO_normed="846.557987" CO2_normed="36747.688708" HC_normed="4.718935" PMx_normed="0.714094" NOx_normed="15.704654" fuel_normed="15.796374" electricity_normed="0"
            traveltime="2.97" CO_perVeh="281.534083" CO2_perVeh="12220.931131" HC_perVeh="1.569344" PMx_perVeh="0.237482" NOx_perVeh="5.222791" fuel_perVeh="5.253294" electricity_perVeh="0"/>
        <edge id=":1110673556_3" sampledSeconds="376.33" CO_abs="31533.419920" CO2_abs="1119371.408453" HC_abs="169.653214" PMx_abs="21.453785" NOx_abs="477.989191" fuel_abs="481.178588" electricity_abs="0"
            CO_normed="2616.378311" CO2_normed="92876.036982" HC_normed="14.076399" PMx_normed="1.780055" NOx_normed="39.659528" fuel_normed="39.924157" electricity_normed="0"
            traveltime="1.75" CO_perVeh="146.719286" CO2_perVeh="5208.232218" HC_perVeh="0.789366" PMx_perVeh="0.099821" NOx_perVeh="2.223997" fuel_perVeh="2.238837" electricity_perVeh="0"/>
        <edge id=":1110673556_4" sampledSeconds="168.30" CO_abs="16968.489981" CO2_abs="675056.535848" HC_abs="93.070160" PMx_abs="13.016496" NOx_abs="288.308633" fuel_abs="290.181352" electricity_abs="0"
            CO_normed="860.121313" CO2_normed="34218.160508" HC_normed="4.717664" PMx_normed="0.659797" NOx_normed="14.614170" fuel_normed="14.709097" electricity_normed="0"
            traveltime="2.41" CO_perVeh="242.491093" CO2_perVeh="9647.010259" HC_perVeh="1.330035" PMx_perVeh="0.186014" NOx_perVeh="4.120124" fuel_perVeh="4.146886" electricity_perVeh="0"/>
        <edge id=":1110673556_5" sampledSeconds="23.82" CO_abs="1875.022151" CO2_abs="79354.358231" HC_abs="10.389785" PMx_abs="1.479640" NOx_abs="33.555985" fuel_abs="34.111422" electricity_abs="0"
            CO_normed="132.471495" CO2_normed="5606.435362" HC_normed="0.734045" PMx_normed="0.104538" NOx_normed="2.370751" fuel_normed="2.409993" electricity_normed="0"
            traveltime="1.65" CO_perVeh="129.631161" CO2_perVeh="5486.227236" HC_perVeh="0.718306" PMx_perVeh="0.102296" NOx_perVeh="2.319920" fuel_perVeh="2.358321" electricity_perVeh="0"/>
        <edge id=":1110673556_6" sampledSeconds="309.05" CO_abs="36801.933207" CO2_abs="1879683.520658" HC_abs="212.313300" PMx_abs="37.991285" NOx_abs="809.270028" fuel_abs="807.993964" electricity_abs="0"
            CO_normed="1316.120291" CO2_normed="67221.730126" HC_normed="7.592803" PMx_normed="1.358654" NOx_normed="28.941325" fuel_normed="28.895690" electricity_normed="0"
            traveltime="2.45" CO_perVeh="291.441843" CO2_perVeh="14885.588409" HC_perVeh="1.681351" PMx_perVeh="0.300861" NOx_perVeh="6.408771" fuel_perVeh="6.398665" electricity_perVeh="0"/>
        <edge id=":1110673561_0" sampledSeconds="101.15" CO_abs="9839.115311" CO2_abs="704558.955785" HC_abs="61.759175" PMx_abs="14.270986" NOx_abs="298.043227" fuel_abs="302.856303" electricity_abs="0"
            CO_normed="442.097209" CO2_normed="31657.678364" HC_normed="2.775001" PMx_normed="0.641233" NOx_normed="13.391862" fuel_normed="13.608127" electricity_normed="0"
            traveltime="1.19" CO_perVeh="116.111111" CO2_perVeh="8314.479523" HC_perVeh="0.728818" PMx_perVeh="0.168411" NOx_perVeh="3.517199" fuel_perVeh="3.573998" electricity_perVeh="0"/>
        <edge id=":1110673561_1" sampledSeconds="1317.18" CO_abs="120899.750134" CO2_abs="8369346.709638" HC_abs="753.002455" PMx_abs="174.810807" NOx_abs="3578.017129" fuel_abs="3597.578160" electricity_abs="0"
            CO_normed="5296.217153" CO2_normed="366633.326795" HC_normed="32.986541" PMx_normed="7.657882" NOx_normed="156.741066" fuel_normed="157.597970" electricity_normed="0"
            traveltime="1.20" CO_perVeh="109.829375" CO2_perVeh="7602.994370" HC_perVeh="0.684053" PMx_perVeh="0.158804" NOx_perVeh="3.250390" fuel_perVeh="3.268160" electricity_perVeh="0"/>
        <edge id=":1110673562_0" sampledSeconds="104.19" CO_abs="1936.242126" CO2_abs="156669.342787" HC_abs="12.382682" PMx_abs="2.090805" NOx_abs="59.527226" fuel_abs="67.346094" electricity_abs="0"
            CO_normed="5390.804277" CO2_normed="436192.226036" HC_normed="34.475344" PMx_normed="5.821133" NOx_normed="165.733211" fuel_normed="187.502175" electricity_normed="0"
            traveltime="0.03" CO_perVeh="0.493557" CO2_perVeh="39.935729" HC_perVeh="0.003156" PMx_perVeh="0.000533" NOx_perVeh="0.015174" fuel_perVeh="0.017167" electricity_perVeh="0"/>
        <edge id=":1110673564_0" sampledSeconds="28.73" CO_abs="304.350114" CO2_abs="38299.151656" HC_abs="2.265086" PMx_abs="0.507812" NOx_abs="14.212224" fuel_abs="16.463218" electricity_abs="0"
            CO_normed="2287.868890" CO2_normed="287903.416083" HC_normed="17.027162" PMx_normed="3.817337" NOx_normed="106.836510" fuel_normed="123.757746" electricity_normed="0"
            traveltime="7.897218e-03" CO_perVeh="0.083670" CO2_perVeh="10.528976" HC_perVeh="0.000623" PMx_perVeh="0.000140" NOx_perVeh="0.003907" fuel_perVeh="0.004526" electricity_perVeh="0"/>
        <edge id=":1110673588_0" sampledSeconds="11.66" CO_abs="138.282436" CO2_abs="20385.209146" HC_abs="1.075582" PMx_abs="0.247340" NOx_abs="7.360432" fuel_abs="8.762773" electricity_abs="0"
            CO_normed="415.800183" CO2_normed="61296.097662" HC_normed="3.234158" PMx_normed="0.743724" NOx_normed="22.132016" fuel_normed="26.348703" electricity_normed="0"
            traveltime="0.02" CO_perVeh="0.230471" CO2_perVeh="33.975349" HC_perVeh="0.001793" PMx_perVeh="0.000412" NOx_perVeh="0.012267" fuel_perVeh="0.014605" electricity_perVeh="0"/>
        <edge id=":1110673601_0" sampledSeconds="29.64" CO_abs="481.293546" CO2_abs="57922.288547" HC_abs="3.511974" PMx_abs="0.762296" NOx_abs="21.517718" fuel_abs="24.898410" electricity_abs="0"
            CO_normed="1292.140295" CO2_normed="155505.353616" HC_normed="9.428680" PMx_normed="2.046554" NOx_normed="57.769133" fuel_normed="66.845358" electricity_normed="0"
            traveltime="0.02" CO_perVeh="0.357223" CO2_perVeh="42.990698" HC_perVeh="0.002607" PMx_perVeh="0.000566" NOx_perVeh="0.015971" fuel_perVeh="0.018480" electricity_perVeh="0"/>
        <edge id=":1110673617_0" sampledSeconds="238.06" CO_abs="6354.240209" CO2_abs="763990.012516" HC_abs="47.278780" PMx_abs="13.795485" NOx_abs="289.740908" fuel_abs="328.404072" electricity_abs="0"
            CO_normed="15922.088643" CO2_normed="1914362.111129" HC_normed="118.468441" PMx_normed="34.567932" NOx_normed="726.016056" fuel_normed="822.895985" electricity_normed="0"
            traveltime="0.01" CO_perVeh="0.389155" CO2_perVeh="46.789317" HC_perVeh="0.002896" PMx_perVeh="0.000845" NOx_perVeh="0.017745" fuel_perVeh="0.020113" electricity_perVeh="0"/>
        <edge id=":1110673621_0" sampledSeconds="25.71" CO_abs="506.500484" CO2_abs="59142.655505" HC_abs="3.660949" PMx_abs="0.833496" NOx_abs="22.290028" fuel_abs="25.422928" electricity_abs="0"
            CO_normed="1522.991641" CO2_normed="177835.506217" HC_normed="11.008074" PMx_normed="2.506230" NOx_normed="67.023680" fuel_normed="76.443967" electricity_normed="0"
            traveltime="0.02" CO_perVeh="0.383712" CO2_perVeh="44.805042" HC_perVeh="0.002773" PMx_perVeh="0.000631" NOx_perVeh="0.016886" fuel_perVeh="0.019260" electricity_perVeh="0"/>
        <edge id=":1110673630_0" sampledSeconds="53.80" CO_abs="93.947046" CO2_abs="11128.348305" HC_abs="0.675804" PMx_abs="0.108811" NOx_abs="3.923319" fuel_abs="4.783675" electricity_abs="0"
            CO_normed="5.037242" CO2_normed="596.678460" HC_normed="0.036235" PMx_normed="0.005834" NOx_normed="0.210360" fuel_normed="0.256491" electricity_normed="0"
            traveltime="1.26" CO_perVeh="2.192890" CO2_perVeh="259.755333" HC_perVeh="0.015774" PMx_perVeh="0.002540" NOx_perVeh="0.091577" fuel_perVeh="0.111659" electricity_perVeh="0"/>
        <edge id=":1110673630_1" sampledSeconds="7.48" CO_abs="0.417193" CO2_abs="133.881987" HC_abs="0.004878" PMx_abs="0.001073" NOx_abs="0.044477" fuel_abs="0.057551" electricity_abs="0"
            CO_normed="0.027271" CO2_normed="8.751489" HC_normed="0.000319" PMx_normed="0.000070" NOx_normed="0.002907" fuel_normed="0.003762" electricity_normed="0"
            traveltime="1.06" CO_perVeh="0.059049" CO2_perVeh="18.949450" HC_perVeh="0.000690" PMx_perVeh="0.000152" NOx_perVeh="0.006295" fuel_perVeh="0.008146" electricity_perVeh="0"/>
        <edge id=":1110673650_0" sampledSeconds="143.25" CO_abs="2345.793515" CO2_abs="288444.021023" HC_abs="17.268862" PMx_abs="3.963783" NOx_abs="107.901985" fuel_abs="123.989955" electricity_abs="0"
            CO_normed="5877.954100" CO2_normed="722766.392207" HC_normed="43.271319" PMx_normed="9.932219" NOx_normed="270.374570" fuel_normed="310.686879" electricity_normed="0"
            traveltime="0.02" CO_perVeh="0.376633" CO2_perVeh="46.311590" HC_perVeh="0.002773" PMx_perVeh="0.000636" NOx_perVeh="0.017324" fuel_perVeh="0.019907" electricity_perVeh="0"/>
        <edge id=":1110673655_0" sampledSeconds="44.90" CO_abs="782.105421" CO2_abs="87403.350216" HC_abs="5.579176" PMx_abs="1.239091" NOx_abs="33.088905" fuel_abs="37.571016" electricity_abs="0"
            CO_normed="1959.754657" CO2_normed="219010.274084" HC_normed="13.979978" PMx_normed="3.104844" NOx_normed="82.912270" fuel_normed="94.143285" electricity_normed="0"
            traveltime="0.02" CO_perVeh="0.418574" CO2_perVeh="46.777281" HC_perVeh="0.002986" PMx_perVeh="0.000663" NOx_perVeh="0.017709" fuel_perVeh="0.020108" electricity_perVeh="0"/>
        <edge id=":1110673663_0" sampledSeconds="108.57" CO_abs="1632.169576" CO2_abs="209489.109768" HC_abs="12.193538" PMx_abs="2.815409" NOx_abs="77.767113" fuel_abs="90.050611" electricity_abs="0"
            CO_normed="74.904696" CO2_normed="9614.024345" HC_normed="0.559595" PMx_normed="0.129207" NOx_normed="3.568944" fuel_normed="4.132667" electricity_normed="0"
            traveltime="1.28" CO_perVeh="19.170644" CO2_perVeh="2460.553876" HC_perVeh="0.143219" PMx_perVeh="0.033068" NOx_perVeh="0.913413" fuel_perVeh="1.057689" electricity_perVeh="0"/>
        <edge id=":1110673663_1" sampledSeconds="153.43" CO_abs="2557.541045" CO2_abs="325191.802640" HC_abs="19.014733" PMx_abs="4.489187" NOx_abs="121.431097" fuel_abs="139.786199" electricity_abs="0"
            CO_normed="117.515994" CO2_normed="14942.179658" HC_normed="0.873705" PMx_normed="0.206273" NOx_normed="5.579616" fuel_normed="6.423011" electricity_normed="0"
            traveltime="1.24" CO_perVeh="20.711715" CO2_perVeh="2633.498292" HC_perVeh="0.153987" PMx_perVeh="0.036355" NOx_perVeh="0.983385" fuel_perVeh="1.132030" electricity_perVeh="0"/>
        <edge id=":1110673666_0" sampledSeconds="192.11" CO_abs="3940.181853" CO2_abs="317217.788413" HC_abs="25.168054" PMx_abs="4.222565" NOx_abs="120.468330" fuel_abs="136.359698" electricity_abs="0"