<?xml version="1.0" encoding="UTF-8"?>

<!-- generated on Tue Oct 13 23:53:15 2020 by Eclipse SUMO sumo Version 1.7.0
<configuration xmlns:xsi="http://www.w3.org/2001/XMLSchema-instance" xsi:noNamespaceSchemaLocation="http://sumo.dlr.de/xsd/sumoConfiguration.xsd">

    <input>
        <net-file value="../dataSets/Angeja_Estarreja/angeja_estarreja.net.xml"/>
        <route-files value="../results/angeja_estarreja/cost_hc-cost_nox/solution5/angeja_estarreja.rou.xml"/>
        <additional-files value="moreOutputInfo.xml"/>
    </input>

    <output>
        <emission-output.precision value="6"/>
        <tripinfo-output value="../results/angeja_estarreja/cost_hc-cost_nox/solution5/angeja_estarreja-tripinfo"/>
    </output>

    <processing>
        <collision.action value="warn"/>
        <time-to-teleport value="-1"/>
    </processing>

    <emissions>
        <device.emissions.probability value="1"/>
    </emissions>

    <gui_only>
        <quit-on-end value="true"/>
        <start value="true"/>
    </gui_only>

</configuration>
-->

<meandata xmlns:xsi="http://www.w3.org/2001/XMLSchema-instance" xsi:noNamespaceSchemaLocation="http://sumo.dlr.de/xsd/meandata_file.xsd">
    <interval begin="0.00" end="19079.00" id="emissions-detector">
        <edge id=":10_0" sampledSeconds="390.66" CO_abs="39643.068893" CO2_abs="2176411.322516" HC_abs="232.184945" PMx_abs="42.866868" NOx_abs="929.896698" fuel_abs="935.543466" electricity_abs="0"
            CO_normed="427.685327" CO2_normed="23479.998233" HC_normed="2.504904" PMx_normed="0.462465" NOx_normed="10.032099" fuel_normed="10.093018" electricity_normed="0"
            traveltime="1.91" CO_perVeh="193.484293" CO2_perVeh="10622.321088" HC_perVeh="1.133215" PMx_perVeh="0.209219" NOx_perVeh="4.538509" fuel_perVeh="4.566068" electricity_perVeh="0"/>
        <edge id=":10_1" sampledSeconds="0.00" CO_abs="0" CO2_abs="0" HC_abs="0" PMx_abs="0" NOx_abs="0" fuel_abs="0" electricity_abs="0"
            CO_normed="0" CO2_normed="0" HC_normed="0" PMx_normed="0" NOx_normed="0" fuel_normed="0" electricity_normed="0"/>
        <edge id=":100_0" sampledSeconds="0.00" CO_abs="0" CO2_abs="0" HC_abs="0" PMx_abs="0" NOx_abs="0" fuel_abs="0" electricity_abs="0"
            CO_normed="0" CO2_normed="0" HC_normed="0" PMx_normed="0" NOx_normed="0" fuel_normed="0" electricity_normed="0"/>
        <edge id=":100_1" sampledSeconds="911.82" CO_abs="22347.872968" CO2_abs="2791273.574657" HC_abs="169.581041" PMx_abs="50.620862" NOx_abs="1044.118640" fuel_abs="1199.840452" electricity_abs="0"
            CO_normed="142.652260" CO2_normed="17817.422036" HC_normed="1.082480" PMx_normed="0.323126" NOx_normed="6.664880" fuel_normed="7.658892" electricity_normed="0"
            traveltime="1.37" CO_perVeh="33.602012" CO2_perVeh="4196.927758" HC_perVeh="0.254980" PMx_perVeh="0.076113" NOx_perVeh="1.569925" fuel_perVeh="1.804067" electricity_perVeh="0"/>
        <edge id=":101_0" sampledSeconds="438.79" CO_abs="10275.405002" CO2_abs="1324748.795190" HC_abs="78.968680" PMx_abs="23.812891" NOx_abs="493.068997" fuel_abs="569.448887" electricity_abs="0"
            CO_normed="237.314232" CO2_normed="30595.557380" HC_normed="1.823811" PMx_normed="0.549967" NOx_normed="11.387609" fuel_normed="13.151630" electricity_normed="0"
            traveltime="0.38" CO_perVeh="8.876616" CO2_perVeh="1144.410925" HC_perVeh="0.068219" PMx_perVeh="0.020571" NOx_perVeh="0.425948" fuel_perVeh="0.491930" electricity_perVeh="0"/>
        <edge id=":102_0" sampledSeconds="341.71" CO_abs="7482.670507" CO2_abs="962929.747707" HC_abs="57.448418" PMx_abs="17.315079" NOx_abs="358.493791" fuel_abs="413.919429" electricity_abs="0"
            CO_normed="174.308472" CO2_normed="22431.405040" HC_normed="1.338258" PMx_normed="0.403354" NOx_normed="8.351097" fuel_normed="9.642234" electricity_normed="0"
            traveltime="0.38" CO_perVeh="8.231593" CO2_perVeh="1059.307075" HC_perVeh="0.063198" PMx_perVeh="0.019048" NOx_perVeh="0.394375" fuel_perVeh="0.455348" electricity_perVeh="0"/>
        <edge id=":103_0" sampledSeconds="434.24" CO_abs="10060.779751" CO2_abs="1273992.832804" HC_abs="76.765140" PMx_abs="23.019889" NOx_abs="475.390752" fuel_abs="547.631145" electricity_abs="0"
            CO_normed="235.821096" CO2_normed="29861.938531" HC_normed="1.799348" PMx_normed="0.539578" NOx_normed="11.142990" fuel_normed="12.836279" electricity_normed="0"
            traveltime="0.37" CO_perVeh="8.643849" CO2_perVeh="1094.567394" HC_perVeh="0.065954" PMx_perVeh="0.019778" NOx_perVeh="0.408438" fuel_perVeh="0.470504" electricity_perVeh="0"/>
        <edge id=":104_0" sampledSeconds="341.15" CO_abs="8304.655819" CO2_abs="1016923.622521" HC_abs="62.511950" PMx_abs="18.545760" NOx_abs="381.550275" fuel_abs="437.128738" electricity_abs="0"
            CO_normed="193.695713" CO2_normed="23718.471983" HC_normed="1.458013" PMx_normed="0.432557" NOx_normed="8.899183" fuel_normed="10.195481" electricity_normed="0"
            traveltime="0.38" CO_perVeh="9.131689" CO2_perVeh="1118.195713" HC_perVeh="0.068737" PMx_perVeh="0.020393" NOx_perVeh="0.419548" fuel_perVeh="0.480661" electricity_perVeh="0"/>
        <edge id=":105_0" sampledSeconds="168.76" CO_abs="3811.879774" CO2_abs="487437.159390" HC_abs="29.176389" PMx_abs="8.778182" NOx_abs="181.629456" fuel_abs="209.526917" electricity_abs="0"
            CO_normed="3269.364982" CO2_normed="418064.071827" HC_normed="25.023944" PMx_normed="7.528853" NOx_normed="155.779567" fuel_normed="179.706603" electricity_normed="0"
            traveltime="0.01" CO_perVeh="0.230513" CO2_perVeh="29.476385" HC_perVeh="0.001764" PMx_perVeh="0.000531" NOx_perVeh="0.010984" fuel_perVeh="0.012671" electricity_perVeh="0"/>
        <edge id=":106_0" sampledSeconds="134.55" CO_abs="2810.603583" CO2_abs="363924.791127" HC_abs="21.649843" PMx_abs="6.535508" NOx_abs="135.380361" fuel_abs="156.434619" electricity_abs="0"
            CO_normed="1710.743090" CO2_normed="221511.786825" HC_normed="13.177710" PMx_normed="3.977998" NOx_normed="82.402591" fuel_normed="95.217784" electricity_normed="0"
            traveltime="0.01" CO_perVeh="0.300508" CO2_perVeh="38.910624" HC_perVeh="0.002315" PMx_perVeh="0.000699" NOx_perVeh="0.014475" fuel_perVeh="0.016726" electricity_perVeh="0"/>
        <edge id=":107_0" sampledSeconds="438.87" CO_abs="10847.598011" CO2_abs="1361341.725158" HC_abs="82.466928" PMx_abs="24.648876" NOx_abs="508.978724" fuel_abs="585.178368" electricity_abs="0"
            CO_normed="250.529239" CO2_normed="31440.684466" HC_normed="1.904604" PMx_normed="0.569275" NOx_normed="11.755050" fuel_normed="13.514908" electricity_normed="0"
            traveltime="0.38" CO_perVeh="9.370916" CO2_perVeh="1176.022464" HC_perVeh="0.071241" PMx_perVeh="0.021293" NOx_perVeh="0.439692" fuel_perVeh="0.505518" electricity_perVeh="0"/>
        <edge id=":108_0" sampledSeconds="92.56" CO_abs="7767.521781" CO2_abs="571471.968345" HC_abs="49.082769" PMx_abs="11.412399" NOx_abs="240.443202" fuel_abs="245.648641" electricity_abs="0"
            CO_normed="121.832665" CO2_normed="8963.470589" HC_normed="0.769857" PMx_normed="0.179002" NOx_normed="3.771323" fuel_normed="3.852970" electricity_normed="0"
            traveltime="0.85" CO_perVeh="71.613718" CO2_perVeh="5268.763146" HC_perVeh="0.452525" PMx_perVeh="0.105218" NOx_perVeh="2.216799" fuel_perVeh="2.264791" electricity_perVeh="0"/>
        <edge id=":108_1" sampledSeconds="403.27" CO_abs="9412.928506" CO2_abs="1212060.534216" HC_abs="72.266092" PMx_abs="21.787015" NOx_abs="451.192107" fuel_abs="521.009357" electricity_abs="0"
            CO_normed="137.683514" CO2_normed="17728.887856" HC_normed="1.057041" PMx_normed="0.318680" NOx_normed="6.599616" fuel_normed="7.620838" electricity_normed="0"
            traveltime="0.60" CO_perVeh="13.983138" CO2_perVeh="1800.545947" HC_perVeh="0.107353" PMx_perVeh="0.032365" NOx_perVeh="0.670257" fuel_perVeh="0.773972" electricity_perVeh="0"/>
        <edge id=":109_0" sampledSeconds="307.93" CO_abs="126.649429" CO2_abs="22680.933916" HC_abs="1.093648" PMx_abs="0.282340" NOx_abs="8.122807" fuel_abs="9.749593" electricity_abs="0"
            CO_normed="1.904173" CO2_normed="341.007633" HC_normed="0.016443" PMx_normed="0.004245" NOx_normed="0.122126" fuel_normed="0.146585" electricity_normed="0"
            traveltime="0.86" CO_perVeh="0.352014" CO2_perVeh="63.040268" HC_perVeh="0.003040" PMx_perVeh="0.000785" NOx_perVeh="0.022577" fuel_perVeh="0.027098" electricity_perVeh="0"/>
        <edge id=":109_1" sampledSeconds="524.17" CO_abs="12541.209905" CO2_abs="1541483.896404" HC_abs="94.606525" PMx_abs="28.094345" NOx_abs="578.032801" fuel_abs="662.613118" electricity_abs="0"
            CO_normed="122.993246" CO2_normed="15117.529235" HC_normed="0.927818" PMx_normed="0.275525" NOx_normed="5.668841" fuel_normed="6.498331" electricity_normed="0"
            traveltime="0.89" CO_perVeh="21.354694" CO2_perVeh="2624.779979" HC_perVeh="0.161092" PMx_perVeh="0.047838" NOx_perVeh="0.984252" fuel_perVeh="1.128272" electricity_perVeh="0"/>
        <edge id=":11_0" sampledSeconds="275.67" CO_abs="16658.933361" CO2_abs="1200638.927927" HC_abs="104.247920" PMx_abs="21.742699" NOx_abs="494.371399" fuel_abs="516.100957" electricity_abs="0"
            CO_normed="172.238889" CO2_normed="12413.562758" HC_normed="1.077833" PMx_normed="0.224801" NOx_normed="5.111370" fuel_normed="5.336035" electricity_normed="0"
            traveltime="1.59" CO_perVeh="95.786243" CO2_perVeh="6903.484699" HC_perVeh="0.599409" PMx_perVeh="0.125017" NOx_perVeh="2.842558" fuel_perVeh="2.967499" electricity_perVeh="0"/>
        <edge id=":11_1" sampledSeconds="50.76" CO_abs="1038.320750" CO2_abs="90526.652366" HC_abs="6.789409" PMx_abs="1.179570" NOx_abs="34.119566" fuel_abs="38.913893" electricity_abs="0"
            CO_normed="11.006733" CO2_normed="959.628972" HC_normed="0.071971" PMx_normed="0.012504" NOx_normed="0.361685" fuel_normed="0.412507" electricity_normed="0"
            traveltime="1.67" CO_perVeh="34.150239" CO2_perVeh="2977.410222" HC_perVeh="0.223303" PMx_perVeh="0.038796" NOx_perVeh="1.122188" fuel_perVeh="1.279873" electricity_perVeh="0"/>
        <edge id=":110_0" sampledSeconds="95.03" CO_abs="3.163199" CO2_abs="467.749195" HC_abs="0.024861" PMx_abs="0.004523" NOx_abs="0.163384" fuel_abs="0.201068" electricity_abs="0"
            CO_normed="0.041021" CO2_normed="6.065924" HC_normed="0.000322" PMx_normed="0.000059" NOx_normed="0.002119" fuel_normed="0.002608" electricity_normed="0"
            traveltime="0.93" CO_perVeh="0.030970" CO2_perVeh="4.579605" HC_perVeh="0.000243" PMx_perVeh="0.000044" NOx_perVeh="0.001600" fuel_perVeh="0.001969" electricity_perVeh="0"/>
        <edge id=":110_1" sampledSeconds="443.56" CO_abs="11084.223327" CO2_abs="1337097.551225" HC_abs="83.026979" PMx_abs="24.505996" NOx_abs="502.915046" fuel_abs="574.756720" electricity_abs="0"
            CO_normed="142.277041" CO2_normed="17162.978223" HC_normed="1.065734" PMx_normed="0.314559" NOx_normed="6.455415" fuel_normed="7.377575" electricity_normed="0"
            traveltime="0.68" CO_perVeh="17.027064" CO2_perVeh="2053.986487" HC_perVeh="0.127542" PMx_perVeh="0.037645" NOx_perVeh="0.772554" fuel_perVeh="0.882914" electricity_perVeh="0"/>
        <edge id=":111_0" sampledSeconds="340.69" CO_abs="8227.729274" CO2_abs="1037541.128467" HC_abs="62.645699" PMx_abs="18.764089" NOx_abs="387.407610" fuel_abs="445.991376" electricity_abs="0"
            CO_normed="190.022413" CO2_normed="23962.391395" HC_normed="1.446825" PMx_normed="0.433363" NOx_normed="8.947320" fuel_normed="10.300334" electricity_normed="0"
            traveltime="0.38" CO_perVeh="9.143838" CO2_perVeh="1153.065164" HC_perVeh="0.069621" PMx_perVeh="0.020853" NOx_perVeh="0.430543" fuel_perVeh="0.495650" electricity_perVeh="0"/>
        <edge id=":114_0" sampledSeconds="108.10" CO_abs="10290.736357" CO2_abs="734347.763741" HC_abs="64.577831" PMx_abs="15.008447" NOx_abs="311.602257" fuel_abs="315.660912" electricity_abs="0"
            CO_normed="136.742967" CO2_normed="9757.989019" HC_normed="0.858108" PMx_normed="0.199432" NOx_normed="4.140561" fuel_normed="4.194492" electricity_normed="0"
            traveltime="1.00" CO_perVeh="95.200792" CO2_perVeh="6793.536105" HC_perVeh="0.597417" PMx_perVeh="0.138845" NOx_perVeh="2.882669" fuel_perVeh="2.920216" electricity_perVeh="0"/>
        <edge id=":114_1" sampledSeconds="416.14" CO_abs="9905.658092" CO2_abs="1226964.829969" HC_abs="74.888255" PMx_abs="22.299941" NOx_abs="459.514963" fuel_abs="527.415855" electricity_abs="0"
            CO_normed="130.797065" CO2_normed="16201.184885" HC_normed="0.988845" PMx_normed="0.294455" NOx_normed="6.067563" fuel_normed="6.964146" electricity_normed="0"
            traveltime="0.66" CO_perVeh="15.784387" CO2_perVeh="1955.133836" HC_perVeh="0.119332" PMx_perVeh="0.035534" NOx_perVeh="0.732224" fuel_perVeh="0.840422" electricity_perVeh="0"/>
        <edge id=":115_0" sampledSeconds="80.14" CO_abs="104.121145" CO2_abs="13164.630284" HC_abs="0.776411" PMx_abs="0.170458" NOx_abs="4.869189" fuel_abs="5.658934" electricity_abs="0"
            CO_normed="2.352878" CO2_normed="297.487748" HC_normed="0.017545" PMx_normed="0.003852" NOx_normed="0.110031" fuel_normed="0.127878" electricity_normed="0"
            traveltime="0.63" CO_perVeh="0.819349" CO2_perVeh="103.595008" HC_perVeh="0.006110" PMx_perVeh="0.001341" NOx_perVeh="0.038317" fuel_perVeh="0.044531" electricity_perVeh="0"/>
        <edge id=":115_1" sampledSeconds="72.23" CO_abs="1021.882301" CO2_abs="153945.235653" HC_abs="8.209699" PMx_abs="2.302225" NOx_abs="57.408824" fuel_abs="66.174241" electricity_abs="0"
            CO_normed="20.622255" CO2_normed="3106.715861" HC_normed="0.165677" PMx_normed="0.046460" NOx_normed="1.158548" fuel_normed="1.335440" electricity_normed="0"
            traveltime="0.59" CO_perVeh="8.365817" CO2_perVeh="1260.299408" HC_perVeh="0.067210" PMx_perVeh="0.018848" NOx_perVeh="0.469987" fuel_perVeh="0.541747" electricity_perVeh="0"/>
        <edge id=":116_0" sampledSeconds="74.68" CO_abs="89.434455" CO2_abs="12827.765915" HC_abs="0.695404" PMx_abs="0.169529" NOx_abs="4.719602" fuel_abs="5.514118" electricity_abs="0"
            CO_normed="2.256057" CO2_normed="323.590916" HC_normed="0.017542" PMx_normed="0.004277" NOx_normed="0.119056" fuel_normed="0.139098" electricity_normed="0"
            traveltime="0.56" CO_perVeh="0.675297" CO2_perVeh="96.859260" HC_perVeh="0.005251" PMx_perVeh="0.001280" NOx_perVeh="0.035637" fuel_perVeh="0.041636" electricity_perVeh="0"/>
        <edge id=":117_0" sampledSeconds="238.19" CO_abs="13872.269770" CO2_abs="1142900.945773" HC_abs="90.386955" PMx_abs="21.151775" NOx_abs="467.772128" fuel_abs="491.280180" electricity_abs="0"
            CO_normed="313.478632" CO2_normed="25826.705443" HC_normed="2.042519" PMx_normed="0.477977" NOx_normed="10.570481" fuel_normed="11.101704" electricity_normed="0"
            traveltime="0.60" CO_perVeh="35.081383" CO2_perVeh="2890.265751" HC_perVeh="0.228578" PMx_perVeh="0.053490" NOx_perVeh="1.182942" fuel_perVeh="1.242391" electricity_perVeh="0"/>
        <edge id=":117_1" sampledSeconds="76.03" CO_abs="4337.613178" CO2_abs="362061.157496" HC_abs="28.352141" PMx_abs="6.614020" NOx_abs="147.617162" fuel_abs="155.633405" electricity_abs="0"
            CO_normed="92.377029" CO2_normed="7710.723081" HC_normed="0.603808" PMx_normed="0.140857" NOx_normed="3.143765" fuel_normed="3.314484" electricity_normed="0"
            traveltime="0.64" CO_perVeh="36.672092" CO2_perVeh="3061.024510" HC_perVeh="0.239701" PMx_perVeh="0.055918" NOx_perVeh="1.248021" fuel_perVeh="1.315793" electricity_perVeh="0"/>
        <edge id=":118_0" sampledSeconds="899.13" CO_abs="14125.926447" CO2_abs="2091819.670042" HC_abs="111.221237" PMx_abs="31.462347" NOx_abs="779.489859" fuel_abs="899.180497" electricity_abs="0"
            CO_normed="42.859123" CO2_normed="6346.738115" HC_normed="0.337454" PMx_normed="0.095459" NOx_normed="2.365031" fuel_normed="2.728181" electricity_normed="0"
            traveltime="3.92" CO_perVeh="61.612976" CO2_perVeh="9123.878386" HC_perVeh="0.485113" PMx_perVeh="0.137229" NOx_perVeh="3.399897" fuel_perVeh="3.921951" electricity_perVeh="0"/>
        <edge id=":118_4" sampledSeconds="282.89" CO_abs="3774.671716" CO2_abs="608424.848607" HC_abs="30.838743" PMx_abs="8.891767" NOx_abs="224.169771" fuel_abs="261.535065" electricity_abs="0"
            CO_normed="11.474779" CO2_normed="1849.575611" HC_normed="0.093748" PMx_normed="0.027030" NOx_normed="0.681463" fuel_normed="0.795051" electricity_normed="0"
            traveltime="3.92" CO_perVeh="52.333485" CO2_perVeh="8435.433656" HC_perVeh="0.427560" PMx_perVeh="0.123279" NOx_perVeh="3.107975" fuel_perVeh="3.626022" electricity_perVeh="0"/>
        <edge id=":118_5" sampledSeconds="239.27" CO_abs="4024.830828" CO2_abs="571217.320503" HC_abs="30.967265" PMx_abs="8.771586" NOx_abs="214.131755" fuel_abs="245.540810" electricity_abs="0"
            CO_normed="12.356685" CO2_normed="1753.701625" HC_normed="0.095073" PMx_normed="0.026930" NOx_normed="0.657409" fuel_normed="0.753838" electricity_normed="0"
            traveltime="3.83" CO_perVeh="64.415236" CO2_perVeh="9142.023686" HC_perVeh="0.495614" PMx_perVeh="0.140384" NOx_perVeh="3.427063" fuel_perVeh="3.929748" electricity_perVeh="0"/>
        <edge id=":119_0" sampledSeconds="139.14" CO_abs="2078.645647" CO2_abs="321299.940904" HC_abs="16.738270" PMx_abs="4.766721" NOx_abs="119.330390" fuel_abs="138.112629" electricity_abs="0"
            CO_normed="44.570210" CO2_normed="6889.296342" HC_normed="0.358901" PMx_normed="0.102208" NOx_normed="2.558676" fuel_normed="2.961404" electricity_normed="0"
            traveltime="0.56" CO_perVeh="8.333143" CO2_perVeh="1288.068644" HC_perVeh="0.067103" PMx_perVeh="0.019109" NOx_perVeh="0.478387" fuel_perVeh="0.553684" electricity_perVeh="0"/>
        <edge id=":12_0" sampledSeconds="589.94" CO_abs="53453.102029" CO2_abs="3029264.620505" HC_abs="315.361647" PMx_abs="59.507603" NOx_abs="1291.772001" fuel_abs="1302.146494" electricity_abs="0"
            CO_normed="500.795410" CO2_normed="28380.800391" HC_normed="2.954584" PMx_normed="0.557519" NOx_normed="12.102450" fuel_normed="12.199647" electricity_normed="0"
            traveltime="2.12" CO_perVeh="192.197958" CO2_perVeh="10892.136334" HC_perVeh="1.133926" PMx_perVeh="0.213968" NOx_perVeh="4.644743" fuel_perVeh="4.682046" electricity_perVeh="0"/>
        <edge id=":12_1" sampledSeconds="56.21" CO_abs="1165.424135" CO2_abs="99842.544612" HC_abs="7.592199" PMx_abs="1.367098" NOx_abs="38.074813" fuel_abs="42.918348" electricity_abs="0"
            CO_normed="10.907881" CO2_normed="934.484293" HC_normed="0.071060" PMx_normed="0.012795" NOx_normed="0.356364" fuel_normed="0.401698" electricity_normed="0"
            traveltime="1.90" CO_perVeh="39.299730" CO2_perVeh="3366.830087" HC_perVeh="0.256020" PMx_perVeh="0.046100" NOx_perVeh="1.283936" fuel_perVeh="1.447267" electricity_perVeh="0"/>
        <edge id=":120_0" sampledSeconds="38.79" CO_abs="618.826410" CO2_abs="98435.343631" HC_abs="4.999416" PMx_abs="1.438182" NOx_abs="36.321983" fuel_abs="42.313019" electricity_abs="0"
            CO_normed="486.524249" CO2_normed="77390.332537" HC_normed="3.930564" PMx_normed="1.130705" NOx_normed="28.556515" fuel_normed="33.266695" electricity_normed="0"
            traveltime="0.01" CO_perVeh="0.238106" CO2_perVeh="37.874937" HC_perVeh="0.001924" PMx_perVeh="0.000553" NOx_perVeh="0.013976" fuel_perVeh="0.016281" electricity_perVeh="0"/>
        <edge id=":121_0" sampledSeconds="374.65" CO_abs="53383.284376" CO2_abs="1432717.399094" HC_abs="276.723673" PMx_abs="30.933948" NOx_abs="633.678796" fuel_abs="615.880955" electricity_abs="0"
            CO_normed="30523.774951" CO2_normed="819206.685558" HC_normed="158.226516" PMx_normed="17.687576" NOx_normed="362.328193" fuel_normed="352.151650" electricity_normed="0"
            traveltime="0.11" CO_perVeh="16.324059" CO2_perVeh="438.110244" HC_perVeh="0.084619" PMx_perVeh="0.009459" NOx_perVeh="0.193772" fuel_perVeh="0.188330" electricity_perVeh="0"/>
        <edge id=":122_0" sampledSeconds="134.47" CO_abs="846.830493" CO2_abs="95166.191159" HC_abs="6.067306" PMx_abs="1.625566" NOx_abs="37.063756" fuel_abs="40.907576" electricity_abs="0"
            CO_normed="18.645007" CO2_normed="2095.312282" HC_normed="0.133586" PMx_normed="0.035791" NOx_normed="0.816048" fuel_normed="0.900679" electricity_normed="0"
            traveltime="0.54" CO_perVeh="3.381334" CO2_perVeh="379.991818" HC_perVeh="0.024226" PMx_perVeh="0.006491" NOx_perVeh="0.147993" fuel_perVeh="0.163341" electricity_perVeh="0"/>
        <edge id=":123_0" sampledSeconds="309.98" CO_abs="40292.227183" CO2_abs="2475835.544603" HC_abs="242.954216" PMx_abs="50.939843" NOx_abs="1062.754073" fuel_abs="1064.246280" electricity_abs="0"
            CO_normed="153.652091" CO2_normed="9441.456476" HC_normed="0.926492" PMx_normed="0.194256" NOx_normed="4.052752" fuel_normed="4.058442" electricity_normed="0"
            traveltime="4.22" CO_perVeh="548.702018" CO2_perVeh="33716.080142" HC_perVeh="3.308565" PMx_perVeh="0.693702" NOx_perVeh="14.472650" fuel_perVeh="14.492971" electricity_perVeh="0"/>
        <edge id=":123_1" sampledSeconds="0.00" CO_abs="0" CO2_abs="0" HC_abs="0" PMx_abs="0" NOx_abs="0" fuel_abs="0" electricity_abs="0"
            CO_normed="0" CO2_normed="0" HC_normed="0" PMx_normed="0" NOx_normed="0" fuel_normed="0" electricity_normed="0"/>
        <edge id=":123_2" sampledSeconds="262.85" CO_abs="34294.427643" CO2_abs="2125174.525671" HC_abs="207.228058" PMx_abs="43.706380" NOx_abs="911.821929" fuel_abs="913.513265" electricity_abs="0"
            CO_normed="132.033991" CO2_normed="8181.949444" HC_normed="0.797831" PMx_normed="0.168270" NOx_normed="3.510526" fuel_normed="3.517038" electricity_normed="0"
            traveltime="4.13" CO_perVeh="539.040018" CO2_perVeh="33403.505844" HC_perVeh="3.257212" PMx_perVeh="0.686977" NOx_perVeh="14.332023" fuel_perVeh="14.358607" electricity_perVeh="0"/>
        <edge id=":123_3" sampledSeconds="468.61" CO_abs="22252.623807" CO2_abs="2107034.032036" HC_abs="150.878992" PMx_abs="39.209838" NOx_abs="843.958892" fuel_abs="905.715028" electricity_abs="0"
            CO_normed="87.658211" CO2_normed="8300.092446" HC_normed="0.594347" PMx_normed="0.154457" NOx_normed="3.324548" fuel_normed="3.567820" electricity_normed="0"
            traveltime="2.80" CO_perVeh="133.190968" CO2_perVeh="12611.452259" HC_perVeh="0.903072" PMx_perVeh="0.234687" NOx_perVeh="5.051436" fuel_perVeh="5.421071" electricity_perVeh="0"/>
        <edge id=":123_5" sampledSeconds="0.00" CO_abs="0" CO2_abs="0" HC_abs="0" PMx_abs="0" NOx_abs="0" fuel_abs="0" electricity_abs="0"
            CO_normed="0" CO2_normed="0" HC_normed="0" PMx_normed="0" NOx_normed="0" fuel_normed="0" electricity_normed="0"/>
        <edge id=":123_6" sampledSeconds="195.08" CO_abs="9272.060942" CO2_abs="860531.828147" HC_abs="62.719664" PMx_abs="16.187851" NOx_abs="346.414969" fuel_abs="369.902114" electricity_abs="0"
            CO_normed="35.280039" CO2_normed="3274.309457" HC_normed="0.238647" PMx_normed="0.061595" NOx_normed="1.318103" fuel_normed="1.407471" electricity_normed="0"
            traveltime="2.92" CO_perVeh="138.714198" CO2_perVeh="12873.942861" HC_perVeh="0.938314" PMx_perVeh="0.242178" NOx_perVeh="5.182524" fuel_perVeh="5.533902" electricity_perVeh="0"/>
        <edge id=":124_0" sampledSeconds="118.72" CO_abs="4650.851356" CO2_abs="400641.218876" HC_abs="30.706972" PMx_abs="7.798990" NOx_abs="163.452958" fuel_abs="172.216622" electricity_abs="0"
            CO_normed="108.879047" CO2_normed="9379.236339" HC_normed="0.718867" PMx_normed="0.182579" NOx_normed="3.826526" fuel_normed="4.031688" electricity_normed="0"
            traveltime="0.46" CO_perVeh="18.077581" CO2_perVeh="1557.268473" HC_perVeh="0.119356" PMx_perVeh="0.030314" NOx_perVeh="0.635332" fuel_perVeh="0.669396" electricity_perVeh="0"/>
        <edge id=":125_0" sampledSeconds="141.11" CO_abs="5440.040981" CO2_abs="558878.692675" HC_abs="37.969218" PMx_abs="10.345271" NOx_abs="219.840176" fuel_abs="240.235786" electricity_abs="0"
            CO_normed="342.158875" CO2_normed="35151.445632" HC_normed="2.388126" PMx_normed="0.650680" NOx_normed="13.827151" fuel_normed="15.109961" electricity_normed="0"
            traveltime="0.16" CO_perVeh="6.230244" CO2_perVeh="640.059583" HC_perVeh="0.043485" PMx_perVeh="0.011848" NOx_perVeh="0.251773" fuel_perVeh="0.275132" electricity_perVeh="0"/>
        <edge id=":125_3" sampledSeconds="0.00" CO_abs="0" CO2_abs="0" HC_abs="0" PMx_abs="0" NOx_abs="0" fuel_abs="0" electricity_abs="0"
            CO_normed="0" CO2_normed="0" HC_normed="0" PMx_normed="0" NOx_normed="0" fuel_normed="0" electricity_normed="0"/>
        <edge id=":126_0" sampledSeconds="26.73" CO_abs="290.817970" CO2_abs="20450.597983" HC_abs="1.797927" PMx_abs="0.322431" NOx_abs="8.140615" fuel_abs="8.790873" electricity_abs="0"
            CO_normed="9.576648" CO2_normed="673.439029" HC_normed="0.059206" PMx_normed="0.010618" NOx_normed="0.268071" fuel_normed="0.289484" electricity_normed="0"
            traveltime="0.56" CO_perVeh="6.081521" CO2_perVeh="427.658345" HC_perVeh="0.037598" PMx_perVeh="0.006743" NOx_perVeh="0.170235" fuel_perVeh="0.183833" electricity_perVeh="0"/>
        <edge id=":126_1" sampledSeconds="80.67" CO_abs="1249.262259" CO2_abs="209150.615406" HC_abs="10.462279" PMx_abs="3.281139" NOx_abs="76.643997" fuel_abs="89.904456" electricity_abs="0"
            CO_normed="36.602828" CO2_normed="6128.019974" HC_normed="0.306540" PMx_normed="0.096136" NOx_normed="2.245635" fuel_normed="2.634161" electricity_normed="0"
            traveltime="0.35" CO_perVeh="5.405812" CO2_perVeh="905.037340" HC_perVeh="0.045272" PMx_perVeh="0.014198" NOx_perVeh="0.331654" fuel_perVeh="0.389035" electricity_perVeh="0"/>
        <edge id=":127_0" sampledSeconds="234.23" CO_abs="5241.536711" CO2_abs="690733.681882" HC_abs="39.957422" PMx_abs="11.709843" NOx_abs="260.797408" fuel_abs="296.914838" electricity_abs="0"
            CO_normed="121.203557" CO2_normed="15972.296655" HC_normed="0.923962" PMx_normed="0.270775" NOx_normed="6.030593" fuel_normed="6.865760" electricity_normed="0"
            traveltime="0.44" CO_perVeh="9.801800" CO2_perVeh="1291.688669" HC_perVeh="0.074721" PMx_perVeh="0.021898" NOx_perVeh="0.487697" fuel_perVeh="0.555238" electricity_perVeh="0"/>
        <edge id=":128_0" sampledSeconds="229.04" CO_abs="168.911746" CO2_abs="28268.152074" HC_abs="1.357709" PMx_abs="0.392220" NOx_abs="10.263211" fuel_abs="12.151255" electricity_abs="0"
            CO_normed="2.610304" CO2_normed="436.846286" HC_normed="0.020982" PMx_normed="0.006061" NOx_normed="0.158604" fuel_normed="0.187781" electricity_normed="0"
            traveltime="0.75" CO_perVeh="0.555274" CO2_perVeh="92.927706" HC_perVeh="0.004463" PMx_perVeh="0.001289" NOx_perVeh="0.033739" fuel_perVeh="0.039946" electricity_perVeh="0"/>
        <edge id=":128_1" sampledSeconds="142.51" CO_abs="132.954486" CO2_abs="20169.873526" HC_abs="1.068781" PMx_abs="0.253701" NOx_abs="7.356108" fuel_abs="8.670195" electricity_abs="0"
            CO_normed="2.122425" CO2_normed="321.982740" HC_normed="0.017062" PMx_normed="0.004050" NOx_normed="0.117430" fuel_normed="0.138407" electricity_normed="0"
            traveltime="0.85" CO_perVeh="0.796987" CO2_perVeh="120.906927" HC_perVeh="0.006407" PMx_perVeh="0.001521" NOx_perVeh="0.044096" fuel_perVeh="0.051973" electricity_perVeh="0"/>
        <edge id=":129_0" sampledSeconds="105.09" CO_abs="5569.560802" CO2_abs="504746.850269" HC_abs="37.248718" PMx_abs="9.441380" NOx_abs="203.976839" fuel_abs="216.966961" electricity_abs="0"
            CO_normed="129.742668" CO2_normed="11758.055110" HC_normed="0.867707" PMx_normed="0.219937" NOx_normed="4.751631" fuel_normed="5.054236" electricity_normed="0"
            traveltime="0.50" CO_perVeh="26.396795" CO2_perVeh="2392.235152" HC_perVeh="0.176539" PMx_perVeh="0.044747" NOx_perVeh="0.966743" fuel_perVeh="1.028310" electricity_perVeh="0"/>
        <edge id=":13_0" sampledSeconds="60.15" CO_abs="4754.435934" CO2_abs="341693.621504" HC_abs="29.815387" PMx_abs="6.613210" NOx_abs="143.153242" fuel_abs="146.878192" electricity_abs="0"
            CO_normed="33.612229" CO2_normed="2415.656566" HC_normed="0.210785" PMx_normed="0.046753" NOx_normed="1.012044" fuel_normed="1.038378" electricity_normed="0"
            traveltime="2.13" CO_perVeh="168.172041" CO2_perVeh="12086.252595" HC_perVeh="1.054618" PMx_perVeh="0.233920" NOx_perVeh="5.063560" fuel_perVeh="5.195318" electricity_perVeh="0"/>
        <edge id=":13_1" sampledSeconds="534.17" CO_abs="15470.319725" CO2_abs="1154853.631975" HC_abs="97.042202" PMx_abs="17.159093" NOx_abs="451.473703" fuel_abs="496.425147" electricity_abs="0"
            CO_normed="154.122558" CO2_normed="11505.191788" HC_normed="0.966780" PMx_normed="0.170947" NOx_normed="4.497792" fuel_normed="4.945619" electricity_normed="0"
            traveltime="1.86" CO_perVeh="54.010565" CO2_perVeh="4031.868658" HC_perVeh="0.338797" PMx_perVeh="0.059906" NOx_perVeh="1.576202" fuel_perVeh="1.733138" electricity_perVeh="0"/>
        <edge id=":132_0" sampledSeconds="41.12" CO_abs="490.205113" CO2_abs="87896.760427" HC_abs="4.101730" PMx_abs="1.217650" NOx_abs="31.907599" fuel_abs="37.782991" electricity_abs="0"
            CO_normed="924.963786" CO2_normed="165851.636636" HC_normed="7.739519" PMx_normed="2.297573" NOx_normed="60.206172" fuel_normed="71.292399" electricity_normed="0"
            traveltime="6.375053e-03" CO_perVeh="0.075995" CO2_perVeh="13.626348" HC_perVeh="0.000636" PMx_perVeh="0.000189" NOx_perVeh="0.004947" fuel_perVeh="0.005857" electricity_perVeh="0"/>