<?xml version="1.0" encoding="UTF-8"?>

<!-- generated on Tue Nov 10 02:26:06 2020 by Eclipse SUMO sumo Version 1.7.0
<configuration xmlns:xsi="http://www.w3.org/2001/XMLSchema-instance" xsi:noNamespaceSchemaLocation="http://sumo.dlr.de/xsd/sumoConfiguration.xsd">

    <input>
        <net-file value="../dataSets/Porto/6AM7AM_Routing_SaoBento/Porto.net.xml"/>
        <route-files value="../results/Porto/6AM7AM_Routing_SaoBento/cost_PMx-cost_nox/solution2/Porto.rou.xml"/>
        <additional-files value="moreOutputInfo.xml"/>
    </input>

    <output>
        <emission-output.precision value="6"/>
        <tripinfo-output value="../results/Porto/6AM7AM_Routing_SaoBento/cost_PMx-cost_nox/solution2/Porto-tripinfo"/>
    </output>

    <processing>
        <collision.action value="warn"/>
        <time-to-teleport value="-1"/>
    </processing>

    <emissions>
        <device.emissions.probability value="1"/>
    </emissions>

    <gui_only>
        <quit-on-end value="true"/>
        <start value="true"/>
    </gui_only>

</configuration>
-->

<meandata xmlns:xsi="http://www.w3.org/2001/XMLSchema-instance" xsi:noNamespaceSchemaLocation="http://sumo.dlr.de/xsd/meandata_file.xsd">
    <interval begin="0.00" end="4701.00" id="emissions-detector">
        <edge id=":1092997347_0" sampledSeconds="265.19" CO_abs="34100.969398" CO2_abs="1360923.168413" HC_abs="187.462733" PMx_abs="27.862057" NOx_abs="591.266803" fuel_abs="585.007033" electricity_abs="0"
            CO_normed="59350.761845" CO2_normed="2368607.939456" HC_normed="326.268028" PMx_normed="48.492296" NOx_normed="1029.065619" fuel_normed="1018.170854" electricity_normed="0"
            traveltime="0.07" CO_perVeh="9.572935" CO2_perVeh="382.042768" HC_perVeh="0.052625" PMx_perVeh="0.007822" NOx_perVeh="0.165982" fuel_perVeh="0.164225" electricity_perVeh="0"/>
        <edge id=":1103427051_0" sampledSeconds="11.48" CO_abs="945.513832" CO2_abs="52606.316591" HC_abs="5.548107" PMx_abs="1.002116" NOx_abs="22.259584" fuel_abs="22.613182" electricity_abs="0"
            CO_normed="2496.790702" CO2_normed="138915.960454" HC_normed="14.650724" PMx_normed="2.646258" NOx_normed="58.780232" fuel_normed="59.713967" electricity_normed="0"
            traveltime="0.03" CO_perVeh="2.590694" CO2_perVeh="144.140512" HC_perVeh="0.015202" PMx_perVeh="0.002746" NOx_perVeh="0.060991" fuel_perVeh="0.061960" electricity_perVeh="0"/>
        <edge id=":1105984386_0" sampledSeconds="22.91" CO_abs="385.287593" CO2_abs="34188.041933" HC_abs="2.521775" PMx_abs="0.386848" NOx_abs="12.509286" fuel_abs="14.696195" electricity_abs="0"
            CO_normed="30.386316" CO2_normed="2696.294015" HC_normed="0.198884" PMx_normed="0.030509" NOx_normed="0.986565" fuel_normed="1.159039" electricity_normed="0"
            traveltime="0.96" CO_perVeh="16.170222" CO2_perVeh="1434.845640" HC_perVeh="0.105837" PMx_perVeh="0.016236" NOx_perVeh="0.525005" fuel_perVeh="0.616788" electricity_perVeh="0"/>
        <edge id=":1105984390_0" sampledSeconds="23.27" CO_abs="17.492304" CO2_abs="2108.067252" HC_abs="0.126853" PMx_abs="0.021526" NOx_abs="0.746835" fuel_abs="0.906181" electricity_abs="0"
            CO_normed="1.066522" CO2_normed="128.530759" HC_normed="0.007734" PMx_normed="0.001312" NOx_normed="0.045535" fuel_normed="0.055251" electricity_normed="0"
            traveltime="1.06" CO_perVeh="0.793267" CO2_perVeh="95.599815" HC_perVeh="0.005753" PMx_perVeh="0.000976" NOx_perVeh="0.033869" fuel_perVeh="0.041095" electricity_perVeh="0"/>
        <edge id=":1105984390_1" sampledSeconds="645.35" CO_abs="13795.025916" CO2_abs="1863338.061618" HC_abs="107.084792" PMx_abs="32.536559" NOx_abs="692.945493" fuel_abs="800.963943" electricity_abs="0"
            CO_normed="804.581503" CO2_normed="108677.384709" HC_normed="6.245617" PMx_normed="1.897663" NOx_normed="40.415374" fuel_normed="46.715445" electricity_normed="0"
            traveltime="0.64" CO_perVeh="13.596853" CO2_perVeh="1836.570241" HC_perVeh="0.105546" PMx_perVeh="0.032069" NOx_perVeh="0.682991" fuel_perVeh="0.789458" electricity_perVeh="0"/>
        <edge id=":1105984395_0" sampledSeconds="8.91" CO_abs="172.908089" CO2_abs="13104.043255" HC_abs="1.089241" PMx_abs="0.194914" NOx_abs="5.125811" fuel_abs="5.632899" electricity_abs="0"
            CO_normed="143.926158" CO2_normed="10907.613486" HC_normed="0.906668" PMx_normed="0.162244" NOx_normed="4.266650" fuel_normed="4.688742" electricity_normed="0"
            traveltime="0.09" CO_perVeh="1.753477" CO2_perVeh="132.889328" HC_perVeh="0.011046" PMx_perVeh="0.001977" NOx_perVeh="0.051981" fuel_perVeh="0.057124" electricity_perVeh="0"/>
        <edge id=":1105984398_0" sampledSeconds="22.44" CO_abs="1562.554108" CO2_abs="110165.018182" HC_abs="9.711169" PMx_abs="1.960888" NOx_abs="45.231157" fuel_abs="47.355084" electricity_abs="0"
            CO_normed="98.973975" CO2_normed="6977.979017" HC_normed="0.615117" PMx_normed="0.124205" NOx_normed="2.864994" fuel_normed="2.999526" electricity_normed="0"
            traveltime="1.08" CO_perVeh="75.346041" CO2_perVeh="5312.134720" HC_perVeh="0.468271" PMx_perVeh="0.094554" NOx_perVeh="2.181037" fuel_perVeh="2.283453" electricity_perVeh="0"/>
        <edge id=":1105984398_1" sampledSeconds="452.06" CO_abs="7669.817101" CO2_abs="900355.766010" HC_abs="55.773923" PMx_abs="12.921583" NOx_abs="340.642269" fuel_abs="387.024549" electricity_abs="0"
            CO_normed="470.256513" CO2_normed="55203.162873" HC_normed="3.419645" PMx_normed="0.792256" NOx_normed="20.885667" fuel_normed="23.729486" electricity_normed="0"
            traveltime="0.96" CO_perVeh="16.204726" CO2_perVeh="1902.264208" HC_perVeh="0.117839" PMx_perVeh="0.027301" NOx_perVeh="0.719706" fuel_perVeh="0.817702" electricity_perVeh="0"/>
        <edge id=":1106006327_0" sampledSeconds="527.73" CO_abs="71117.675599" CO2_abs="2304997.103922" HC_abs="378.076656" PMx_abs="48.060792" NOx_abs="1008.839681" fuel_abs="990.836988" electricity_abs="0"
            CO_normed="6146.899059" CO2_normed="199227.328658" HC_normed="32.678220" PMx_normed="4.154028" NOx_normed="87.196827" fuel_normed="85.640804" electricity_normed="0"
            traveltime="2.09" CO_perVeh="282.298976" CO2_perVeh="9149.600518" HC_perVeh="1.500761" PMx_perVeh="0.190776" NOx_perVeh="4.004552" fuel_perVeh="3.933091" electricity_perVeh="0"/>
        <edge id=":1106006327_1" sampledSeconds="160.71" CO_abs="21664.543806" CO2_abs="725496.680808" HC_abs="115.741526" PMx_abs="15.109692" NOx_abs="317.377929" fuel_abs="311.864859" electricity_abs="0"
            CO_normed="1632.931963" CO2_normed="54683.206348" HC_normed="8.723841" PMx_normed="1.138870" NOx_normed="23.921878" fuel_normed="23.506338" electricity_normed="0"
            traveltime="2.28" CO_perVeh="307.556122" CO2_perVeh="10299.360436" HC_perVeh="1.643100" PMx_perVeh="0.214502" NOx_perVeh="4.505589" fuel_perVeh="4.427324" electricity_perVeh="0"/>
        <edge id=":1106006327_2" sampledSeconds="0.00" CO_abs="0" CO2_abs="0" HC_abs="0" PMx_abs="0" NOx_abs="0" fuel_abs="0" electricity_abs="0"
            CO_normed="0" CO2_normed="0" HC_normed="0" PMx_normed="0" NOx_normed="0" fuel_normed="0" electricity_normed="0"/>
        <edge id=":1106006327_3" sampledSeconds="0.00" CO_abs="0" CO2_abs="0" HC_abs="0" PMx_abs="0" NOx_abs="0" fuel_abs="0" electricity_abs="0"
            CO_normed="0" CO2_normed="0" HC_normed="0" PMx_normed="0" NOx_normed="0" fuel_normed="0" electricity_normed="0"/>
        <edge id=":1107381198_0" sampledSeconds="0.00" CO_abs="0" CO2_abs="0" HC_abs="0" PMx_abs="0" NOx_abs="0" fuel_abs="0" electricity_abs="0"
            CO_normed="0" CO2_normed="0" HC_normed="0" PMx_normed="0" NOx_normed="0" fuel_normed="0" electricity_normed="0"/>
        <edge id=":1107381198_1" sampledSeconds="35.78" CO_abs="1411.527624" CO2_abs="56451.153751" HC_abs="7.720196" PMx_abs="0.938799" NOx_abs="23.152365" fuel_abs="24.266444" electricity_abs="0"
            CO_normed="117.877874" CO2_normed="4714.283940" HC_normed="0.644720" PMx_normed="0.078400" NOx_normed="1.933474" fuel_normed="2.026511" electricity_normed="0"
            traveltime="1.47" CO_perVeh="58.116506" CO2_perVeh="2324.250538" HC_perVeh="0.317862" PMx_perVeh="0.038653" NOx_perVeh="0.953247" fuel_perVeh="0.999117" electricity_perVeh="0"/>
        <edge id=":1110338277_0" sampledSeconds="97.00" CO_abs="1383.323313" CO2_abs="176923.614321" HC_abs="10.323656" PMx_abs="2.335190" NOx_abs="65.525381" fuel_abs="76.052125" electricity_abs="0"
            CO_normed="3783.362147" CO2_normed="483882.617341" HC_normed="28.234998" PMx_normed="6.386698" NOx_normed="179.210633" fuel_normed="208.001072" electricity_normed="0"
            traveltime="0.02" CO_perVeh="0.311757" CO2_perVeh="39.872998" HC_perVeh="0.002327" PMx_perVeh="0.000526" NOx_perVeh="0.014767" fuel_perVeh="0.017140" electricity_perVeh="0"/>
        <edge id=":1110338293_0" sampledSeconds="123.95" CO_abs="6125.295107" CO2_abs="421981.336839" HC_abs="37.810345" PMx_abs="7.416848" NOx_abs="172.836423" fuel_abs="181.391416" electricity_abs="0"
            CO_normed="15635.724588" CO2_normed="1077169.972786" HC_normed="96.516515" PMx_normed="18.932604" NOx_normed="441.190614" fuel_normed="463.028502" electricity_normed="0"
            traveltime="0.03" CO_perVeh="1.404964" CO2_perVeh="96.790205" HC_perVeh="0.008673" PMx_perVeh="0.001701" NOx_perVeh="0.039644" fuel_perVeh="0.041606" electricity_perVeh="0"/>
        <edge id=":1110338295_0" sampledSeconds="0.00" CO_abs="0" CO2_abs="0" HC_abs="0" PMx_abs="0" NOx_abs="0" fuel_abs="0" electricity_abs="0"
            CO_normed="0" CO2_normed="0" HC_normed="0" PMx_normed="0" NOx_normed="0" fuel_normed="0" electricity_normed="0"/>
        <edge id=":1110673403_0" sampledSeconds="144.03" CO_abs="2102.886114" CO2_abs="264294.932145" HC_abs="15.614727" PMx_abs="3.625760" NOx_abs="98.696552" fuel_abs="113.609261" electricity_abs="0"
            CO_normed="5367.928818" CO2_normed="674652.028450" HC_normed="39.858908" PMx_normed="9.255290" NOx_normed="251.937594" fuel_normed="290.004495" electricity_normed="0"
            traveltime="0.02" CO_perVeh="0.337632" CO2_perVeh="42.434295" HC_perVeh="0.002507" PMx_perVeh="0.000582" NOx_perVeh="0.015846" fuel_perVeh="0.018241" electricity_perVeh="0"/>
        <edge id=":1110673412_0" sampledSeconds="252.32" CO_abs="45188.670419" CO2_abs="3078541.400314" HC_abs="281.112959" PMx_abs="67.727263" NOx_abs="1323.476422" fuel_abs="1323.313267" electricity_abs="0"
            CO_normed="119328.399320" CO2_normed="8129414.168027" HC_normed="742.326763" PMx_normed="178.845401" NOx_normed="3494.865451" fuel_normed="3494.434610" electricity_normed="0"
            traveltime="0.02" CO_perVeh="2.774965" CO2_perVeh="189.048340" HC_perVeh="0.017263" PMx_perVeh="0.004159" NOx_perVeh="0.081273" fuel_perVeh="0.081263" electricity_perVeh="0"/>
        <edge id=":1110673414_0" sampledSeconds="0.00" CO_abs="0" CO2_abs="0" HC_abs="0" PMx_abs="0" NOx_abs="0" fuel_abs="0" electricity_abs="0"
            CO_normed="0" CO2_normed="0" HC_normed="0" PMx_normed="0" NOx_normed="0" fuel_normed="0" electricity_normed="0"/>
        <edge id=":1110673414_1" sampledSeconds="130.81" CO_abs="7777.152064" CO2_abs="299240.065066" HC_abs="42.345890" PMx_abs="5.440117" NOx_abs="125.776584" fuel_abs="128.632732" electricity_abs="0"
            CO_normed="659.545999" CO2_normed="25377.231400" HC_normed="3.591168" PMx_normed="0.461352" NOx_normed="10.666558" fuel_normed="10.908775" electricity_normed="0"
            traveltime="1.56" CO_perVeh="92.660883" CO2_perVeh="3565.295933" HC_perVeh="0.504530" PMx_perVeh="0.064816" NOx_perVeh="1.498565" fuel_perVeh="1.532595" electricity_perVeh="0"/>
        <edge id=":1110673417_0" sampledSeconds="29.85" CO_abs="510.141434" CO2_abs="59504.833618" HC_abs="3.693934" PMx_abs="0.811905" NOx_abs="22.311554" fuel_abs="25.578651" electricity_abs="0"
            CO_normed="1395.226822" CO2_normed="162744.553609" HC_normed="10.102838" PMx_normed="2.220543" NOx_normed="61.021662" fuel_normed="69.957108" electricity_normed="0"
            traveltime="0.02" CO_perVeh="0.378634" CO2_perVeh="44.165284" HC_perVeh="0.002742" PMx_perVeh="0.000603" NOx_perVeh="0.016560" fuel_perVeh="0.018985" electricity_perVeh="0"/>
        <edge id=":1110673446_0" sampledSeconds="334.17" CO_abs="3297.854989" CO2_abs="267918.307123" HC_abs="21.363106" PMx_abs="4.910890" NOx_abs="109.494950" fuel_abs="115.165763" electricity_abs="0"
            CO_normed="8418.264172" CO2_normed="683901.230691" HC_normed="54.532498" PMx_normed="12.535776" NOx_normed="279.502106" fuel_normed="293.977698" electricity_normed="0"
            traveltime="0.02" CO_perVeh="0.224973" CO2_perVeh="18.276830" HC_perVeh="0.001457" PMx_perVeh="0.000335" NOx_perVeh="0.007470" fuel_perVeh="0.007856" electricity_perVeh="0"/>
        <edge id=":1110673451_0" sampledSeconds="37.64" CO_abs="433.294058" CO2_abs="29102.892339" HC_abs="2.644141" PMx_abs="0.448091" NOx_abs="11.534544" fuel_abs="12.510171" electricity_abs="0"
            CO_normed="1228.941525" CO2_normed="82543.834188" HC_normed="7.499512" PMx_normed="1.270910" NOx_normed="32.715149" fuel_normed="35.482297" electricity_normed="0"
            traveltime="0.03" CO_perVeh="0.310729" CO2_perVeh="20.870600" HC_perVeh="0.001896" PMx_perVeh="0.000321" NOx_perVeh="0.008272" fuel_perVeh="0.008971" electricity_perVeh="0"/>
        <edge id=":1110673464_0" sampledSeconds="324.25" CO_abs="676.837843" CO2_abs="53877.171313" HC_abs="4.299118" PMx_abs="0.737984" NOx_abs="20.580977" fuel_abs="23.159692" electricity_abs="0"
            CO_normed="36.708124" CO2_normed="2922.014313" HC_normed="0.233162" PMx_normed="0.040024" NOx_normed="1.116204" fuel_normed="1.256060" electricity_normed="0"
            traveltime="1.17" CO_perVeh="2.446680" CO2_perVeh="194.758866" HC_perVeh="0.015541" PMx_perVeh="0.002668" NOx_perVeh="0.074398" fuel_perVeh="0.083719" electricity_perVeh="0"/>
        <edge id=":1110673464_1" sampledSeconds="708.00" CO_abs="16430.042226" CO2_abs="2140001.407877" HC_abs="125.970977" PMx_abs="37.788163" NOx_abs="800.719498" fuel_abs="919.888568" electricity_abs="0"
            CO_normed="873.146160" CO2_normed="113726.671298" HC_normed="6.694510" PMx_normed="2.008187" NOx_normed="42.552852" fuel_normed="48.885886" electricity_normed="0"
            traveltime="0.70" CO_perVeh="16.220949" CO2_perVeh="2112.767205" HC_perVeh="0.124368" PMx_perVeh="0.037307" NOx_perVeh="0.790529" fuel_perVeh="0.908182" electricity_perVeh="0"/>
        <edge id=":1110673479_0" sampledSeconds="134.81" CO_abs="6570.143607" CO2_abs="453392.813930" HC_abs="40.559090" PMx_abs="7.888126" NOx_abs="185.176997" fuel_abs="194.893957" electricity_abs="0"
            CO_normed="16771.266386" CO2_normed="1157352.428666" HC_normed="103.533095" PMx_normed="20.135612" NOx_normed="472.691760" fuel_normed="497.495743" electricity_normed="0"
            traveltime="0.03" CO_perVeh="1.384069" CO2_perVeh="95.511889" HC_perVeh="0.008544" PMx_perVeh="0.001662" NOx_perVeh="0.039009" fuel_perVeh="0.041056" electricity_perVeh="0"/>
        <edge id=":1110673511_0" sampledSeconds="11.88" CO_abs="149.675544" CO2_abs="19043.843015" HC_abs="1.104114" PMx_abs="0.247713" NOx_abs="7.027621" fuel_abs="8.186163" electricity_abs="0"
            CO_normed="382.069034" CO2_normed="48612.234882" HC_normed="2.818415" PMx_normed="0.632324" NOx_normed="17.939046" fuel_normed="20.896396" electricity_normed="0"
            traveltime="0.02" CO_perVeh="0.296387" CO2_perVeh="37.710580" HC_perVeh="0.002186" PMx_perVeh="0.000491" NOx_perVeh="0.013916" fuel_perVeh="0.016210" electricity_perVeh="0"/>
        <edge id=":1110673517_0" sampledSeconds="17.05" CO_abs="690.357600" CO2_abs="51095.258678" HC_abs="4.339089" PMx_abs="0.856217" NOx_abs="20.588650" fuel_abs="21.963656" electricity_abs="0"
            CO_normed="1762.240205" CO2_normed="130428.228916" HC_normed="11.076169" PMx_normed="2.185620" NOx_normed="52.555585" fuel_normed="56.065490" electricity_normed="0"
            traveltime="0.03" CO_perVeh="1.108415" CO2_perVeh="82.036808" HC_perVeh="0.006967" PMx_perVeh="0.001375" NOx_perVeh="0.033056" fuel_perVeh="0.035264" electricity_perVeh="0"/>
        <edge id=":1110673534_0" sampledSeconds="475.02" CO_abs="2993.890527" CO2_abs="264238.504689" HC_abs="19.646877" PMx_abs="3.462595" NOx_abs="99.628117" fuel_abs="113.585820" electricity_abs="0"
            CO_normed="148.107554" CO2_normed="13071.860252" HC_normed="0.971930" PMx_normed="0.171294" NOx_normed="4.928596" fuel_normed="5.619083" electricity_normed="0"
            traveltime="1.43" CO_perVeh="9.019392" CO2_perVeh="796.044709" HC_perVeh="0.059188" PMx_perVeh="0.010431" NOx_perVeh="0.300140" fuel_perVeh="0.342189" electricity_perVeh="0"/>
        <edge id=":1110673534_1" sampledSeconds="184.37" CO_abs="2861.956134" CO2_abs="372748.932715" HC_abs="21.501819" PMx_abs="4.946616" NOx_abs="137.962151" fuel_abs="160.229247" electricity_abs="0"
            CO_normed="137.667732" CO2_normed="17930.219030" HC_normed="1.034295" PMx_normed="0.237945" NOx_normed="6.636348" fuel_normed="7.707455" electricity_normed="0"
            traveltime="1.22" CO_perVeh="19.002361" CO2_perVeh="2474.919093" HC_perVeh="0.142764" PMx_perVeh="0.032844" NOx_perVeh="0.916019" fuel_perVeh="1.063865" electricity_perVeh="0"/>
        <edge id=":1110673549_0" sampledSeconds="59.45" CO_abs="100.024166" CO2_abs="17775.845029" HC_abs="0.836189" PMx_abs="0.198525" NOx_abs="6.245368" fuel_abs="7.641128" electricity_abs="0"
            CO_normed="4.793364" CO2_normed="851.855104" HC_normed="0.040072" PMx_normed="0.009514" NOx_normed="0.299291" fuel_normed="0.366179" electricity_normed="0"
            traveltime="1.24" CO_perVeh="2.083918" CO2_perVeh="370.344589" HC_perVeh="0.017421" PMx_perVeh="0.004136" NOx_perVeh="0.130117" fuel_perVeh="0.159196" electricity_perVeh="0"/>
        <edge id=":1110673549_1" sampledSeconds="638.49" CO_abs="13405.884749" CO2_abs="1810150.758805" HC_abs="104.512852" PMx_abs="31.671085" NOx_abs="673.693355" fuel_abs="778.101131" electricity_abs="0"
            CO_normed="621.437831" CO2_normed="83910.624494" HC_normed="4.844756" PMx_normed="1.468132" NOx_normed="31.229460" fuel_normed="36.069345" electricity_normed="0"
            traveltime="0.80" CO_perVeh="16.875356" CO2_perVeh="2278.621543" HC_perVeh="0.131561" PMx_perVeh="0.039868" NOx_perVeh="0.848047" fuel_perVeh="0.979475" electricity_perVeh="0"/>
        <edge id=":1110673556_0" sampledSeconds="417.63" CO_abs="51520.021623" CO2_abs="2583066.206169" HC_abs="296.018885" PMx_abs="52.152402" NOx_abs="1112.657831" fuel_abs="1110.348303" electricity_abs="0"
            CO_normed="1830.800455" CO2_normed="91791.086975" HC_normed="10.519241" PMx_normed="1.853273" NOx_normed="39.539084" fuel_normed="39.457013" electricity_normed="0"
            traveltime="2.59" CO_perVeh="319.811339" CO2_perVeh="16034.423808" HC_perVeh="1.837542" PMx_perVeh="0.323737" NOx_perVeh="6.906841" fuel_perVeh="6.892504" electricity_perVeh="0"/>
        <edge id=":1110673556_2" sampledSeconds="247.58" CO_abs="23577.396988" CO2_abs="1020261.554660" HC_abs="131.341706" PMx_abs="19.790834" NOx_abs="435.840238" fuel_abs="438.570092" electricity_abs="0"
            CO_normed="876.052461" CO2_normed="37909.301270" HC_normed="4.880192" PMx_normed="0.735357" NOx_normed="16.194278" fuel_normed="16.295709" electricity_normed="0"
            traveltime="3.00" CO_perVeh="285.989307" CO2_perVeh="12375.577147" HC_perVeh="1.593150" PMx_perVeh="0.240059" NOx_perVeh="5.286659" fuel_perVeh="5.319771" electricity_perVeh="0"/>
        <edge id=":1110673556_3" sampledSeconds="410.86" CO_abs="34916.237645" CO2_abs="1235831.617587" HC_abs="187.747035" PMx_abs="23.590047" NOx_abs="527.109473" fuel_abs="531.240988" electricity_abs="0"
            CO_normed="2951.287325" CO2_normed="104458.396276" HC_normed="15.869277" PMx_normed="1.993944" NOx_normed="44.553813" fuel_normed="44.903028" electricity_normed="0"
            traveltime="1.74" CO_perVeh="147.784968" CO2_perVeh="5230.727829" HC_perVeh="0.794650" PMx_perVeh="0.099846" NOx_perVeh="2.231021" fuel_perVeh="2.248508" electricity_perVeh="0"/>
        <edge id=":1110673556_4" sampledSeconds="202.82" CO_abs="21337.761532" CO2_abs="858530.253755" HC_abs="117.322265" PMx_abs="16.831707" NOx_abs="368.443377" fuel_abs="369.049155" electricity_abs="0"
            CO_normed="1101.843606" CO2_normed="44332.957286" HC_normed="6.058311" PMx_normed="0.869159" NOx_normed="19.025753" fuel_normed="19.057034" electricity_normed="0"
            traveltime="2.40" CO_perVeh="252.520911" CO2_perVeh="10160.242964" HC_perVeh="1.388446" PMx_perVeh="0.199194" NOx_perVeh="4.360329" fuel_perVeh="4.367498" electricity_perVeh="0"/>
        <edge id=":1110673556_5" sampledSeconds="24.33" CO_abs="1950.210106" CO2_abs="79945.015700" HC_abs="10.744830" PMx_abs="1.494825" NOx_abs="33.835254" fuel_abs="34.365369" electricity_abs="0"
            CO_normed="140.362800" CO2_normed="5753.896078" HC_normed="0.773339" PMx_normed="0.107587" NOx_normed="2.435230" fuel_normed="2.473385" electricity_normed="0"
            traveltime="1.68" CO_perVeh="134.829341" CO2_perVeh="5527.062814" HC_perVeh="0.742852" PMx_perVeh="0.103346" NOx_perVeh="2.339227" fuel_perVeh="2.375877" electricity_perVeh="0"/>
        <edge id=":1110673556_6" sampledSeconds="309.96" CO_abs="37387.073219" CO2_abs="1910466.954847" HC_abs="215.688103" PMx_abs="38.501339" NOx_abs="821.876255" fuel_abs="821.226568" electricity_abs="0"
            CO_normed="1362.074952" CO2_normed="69601.575119" HC_normed="7.857886" PMx_normed="1.402670" NOx_normed="29.942356" fuel_normed="29.918687" electricity_normed="0"
            traveltime="2.45" CO_perVeh="296.075545" CO2_perVeh="15129.361450" HC_perVeh="1.708076" PMx_perVeh="0.304900" NOx_perVeh="6.508599" fuel_perVeh="6.503454" electricity_perVeh="0"/>
        <edge id=":1110673561_0" sampledSeconds="99.88" CO_abs="10084.736137" CO2_abs="722935.958425" HC_abs="63.338541" PMx_abs="14.665247" NOx_abs="305.880454" fuel_abs="310.755668" electricity_abs="0"
            CO_normed="461.615994" CO2_normed="33091.475753" HC_normed="2.899241" PMx_normed="0.671283" NOx_normed="14.001289" fuel_normed="14.224446" electricity_normed="0"
            traveltime="1.18" CO_perVeh="119.009675" CO2_perVeh="8531.345991" HC_perVeh="0.747456" PMx_perVeh="0.173064" NOx_perVeh="3.609686" fuel_perVeh="3.667219" electricity_perVeh="0"/>
        <edge id=":1110673561_1" sampledSeconds="1313.99" CO_abs="122710.702373" CO2_abs="8466157.726968" HC_abs="763.642181" PMx_abs="177.501217" NOx_abs="3623.805272" fuel_abs="3639.191855" electricity_abs="0"
            CO_normed="5476.176132" CO2_normed="377816.848683" HC_normed="34.078846" PMx_normed="7.921297" NOx_normed="161.718542" fuel_normed="162.405195" electricity_normed="0"
            traveltime="1.19" CO_perVeh="111.325236" CO2_perVeh="7680.642250" HC_perVeh="0.692789" PMx_perVeh="0.161032" NOx_perVeh="3.287578" fuel_perVeh="3.301537" electricity_perVeh="0"/>
        <edge id=":1110673562_0" sampledSeconds="104.19" CO_abs="2117.903117" CO2_abs="169889.141399" HC_abs="13.504043" PMx_abs="2.210798" NOx_abs="64.191630" fuel_abs="73.028876" electricity_abs="0"
            CO_normed="6006.957716" CO2_normed="481852.489255" HC_normed="38.301193" PMx_normed="6.270432" NOx_normed="182.065178" fuel_normed="207.130047" electricity_normed="0"
            traveltime="0.03" CO_perVeh="0.539863" CO2_perVeh="43.305516" HC_perVeh="0.003442" PMx_perVeh="0.000564" NOx_perVeh="0.016363" fuel_perVeh="0.018615" electricity_perVeh="0"/>
        <edge id=":1110673564_0" sampledSeconds="28.81" CO_abs="539.724493" CO2_abs="61283.748046" HC_abs="3.856795" PMx_abs="0.842315" NOx_abs="23.025689" fuel_abs="26.343331" electricity_abs="0"
            CO_normed="4133.180550" CO2_normed="469307.579164" HC_normed="29.535124" PMx_normed="6.450400" NOx_normed="176.329463" fuel_normed="201.735786" electricity_normed="0"
            traveltime="7.920426e-03" CO_perVeh="0.148378" CO2_perVeh="16.847766" HC_perVeh="0.001060" PMx_perVeh="0.000232" NOx_perVeh="0.006330" fuel_perVeh="0.007242" electricity_perVeh="0"/>
        <edge id=":1110673588_0" sampledSeconds="11.81" CO_abs="99.648690" CO2_abs="14093.566478" HC_abs="0.765632" PMx_abs="0.164289" NOx_abs="5.057036" fuel_abs="6.058265" electricity_abs="0"
            CO_normed="305.241681" CO2_normed="43171.103443" HC_normed="2.345266" PMx_normed="0.503247" NOx_normed="15.490601" fuel_normed="18.557545" electricity_normed="0"
            traveltime="0.02" CO_perVeh="0.166081" CO2_perVeh="23.489277" HC_perVeh="0.001276" PMx_perVeh="0.000274" NOx_perVeh="0.008428" fuel_perVeh="0.010097" electricity_perVeh="0"/>
        <edge id=":1110673601_0" sampledSeconds="30.02" CO_abs="380.111819" CO2_abs="46640.421138" HC_abs="2.773600" PMx_abs="0.614203" NOx_abs="17.282973" fuel_abs="20.048793" electricity_abs="0"
            CO_normed="1039.598375" CO2_normed="127560.637629" HC_normed="7.585742" PMx_normed="1.679832" NOx_normed="47.268593" fuel_normed="54.833056" electricity_normed="0"
            traveltime="0.02" CO_perVeh="0.282124" CO2_perVeh="34.617145" HC_perVeh="0.002059" PMx_perVeh="0.000456" NOx_perVeh="0.012828" fuel_perVeh="0.014880" electricity_perVeh="0"/>
        <edge id=":1110673617_0" sampledSeconds="237.90" CO_abs="5873.684790" CO2_abs="721552.176788" HC_abs="44.032908" PMx_abs="12.959742" NOx_abs="272.534662" fuel_abs="310.162063" electricity_abs="0"
            CO_normed="14993.451921" CO2_normed="1841868.989886" HC_normed="112.400530" PMx_normed="33.081665" NOx_normed="695.685162" fuel_normed="791.734685" electricity_normed="0"
            traveltime="0.01" CO_perVeh="0.360341" CO2_perVeh="44.266045" HC_perVeh="0.002701" PMx_perVeh="0.000795" NOx_perVeh="0.016720" fuel_perVeh="0.019028" electricity_perVeh="0"/>
        <edge id=":1110673621_0" sampledSeconds="25.73" CO_abs="585.153817" CO2_abs="62716.049085" HC_abs="4.124144" PMx_abs="0.931718" NOx_abs="24.023487" fuel_abs="26.958942" electricity_abs="0"
            CO_normed="1792.430328" CO2_normed="192110.424766" HC_normed="12.632988" PMx_normed="2.854018" NOx_normed="73.588219" fuel_normed="82.580038" electricity_normed="0"
            traveltime="0.02" CO_perVeh="0.443308" CO2_perVeh="47.513157" HC_perVeh="0.003124" PMx_perVeh="0.000706" NOx_perVeh="0.018200" fuel_perVeh="0.020424" electricity_perVeh="0"/>
        <edge id=":1110673630_0" sampledSeconds="54.28" CO_abs="128.756688" CO2_abs="12090.917480" HC_abs="0.861292" PMx_abs="0.153401" NOx_abs="4.519164" fuel_abs="5.197415" electricity_abs="0"
            CO_normed="7.032893" CO2_normed="660.424982" HC_normed="0.047045" PMx_normed="0.008379" NOx_normed="0.246844" fuel_normed="0.283891" electricity_normed="0"
            traveltime="1.27" CO_perVeh="3.005409" CO2_perVeh="282.223400" HC_perVeh="0.020104" PMx_perVeh="0.003581" NOx_perVeh="0.105485" fuel_perVeh="0.121317" electricity_perVeh="0"/>
        <edge id=":1110673630_1" sampledSeconds="7.48" CO_abs="33.019162" CO2_abs="3370.953596" HC_abs="0.228320" PMx_abs="0.048441" NOx_abs="1.288982" fuel_abs="1.449031" electricity_abs="0"
            CO_normed="2.198773" CO2_normed="224.474588" HC_normed="0.015204" PMx_normed="0.003226" NOx_normed="0.085834" fuel_normed="0.096492" electricity_normed="0"
            traveltime="1.06" CO_perVeh="4.673481" CO2_perVeh="477.119586" HC_perVeh="0.032316" PMx_perVeh="0.006856" NOx_perVeh="0.182441" fuel_perVeh="0.205094" electricity_perVeh="0"/>
        <edge id=":1110673650_0" sampledSeconds="143.54" CO_abs="2148.097470" CO2_abs="272961.934724" HC_abs="16.004949" PMx_abs="3.767305" NOx_abs="101.989392" fuel_abs="117.334791" electricity_abs="0"
            CO_normed="5483.337510" CO2_normed="696775.838478" HC_normed="40.855007" PMx_normed="9.616605" NOx_normed="260.343057" fuel_normed="299.514463" electricity_normed="0"
            traveltime="0.02" CO_perVeh="0.344891" CO2_perVeh="43.825839" HC_perVeh="0.002570" PMx_perVeh="0.000605" NOx_perVeh="0.016375" fuel_perVeh="0.018839" electricity_perVeh="0"/>
        <edge id=":1110673655_0" sampledSeconds="44.86" CO_abs="792.133692" CO2_abs="87225.689506" HC_abs="5.582332" PMx_abs="1.186374" NOx_abs="32.761910" fuel_abs="37.494722" electricity_abs="0"
            CO_normed="2022.038780" CO2_normed="222656.514373" HC_normed="14.249732" PMx_normed="3.028396" NOx_normed="83.629635" fuel_normed="95.710841" electricity_normed="0"
            traveltime="0.02" CO_perVeh="0.423941" CO2_perVeh="46.682199" HC_perVeh="0.002988" PMx_perVeh="0.000635" NOx_perVeh="0.017534" fuel_perVeh="0.020067" electricity_perVeh="0"/>
        <edge id=":1110673663_0" sampledSeconds="108.57" CO_abs="1843.914544" CO2_abs="225026.768274" HC_abs="13.502377" PMx_abs="3.071414" NOx_abs="84.013611" fuel_abs="96.729586" electricity_abs="0"
            CO_normed="86.206327" CO2_normed="10520.406847" HC_normed="0.631260" PMx_normed="0.143594" NOx_normed="3.927788" fuel_normed="4.522282" electricity_normed="0"
            traveltime="1.28" CO_perVeh="21.657646" CO2_perVeh="2643.045551" HC_perVeh="0.158592" PMx_perVeh="0.036075" NOx_perVeh="0.986779" fuel_perVeh="1.136135" electricity_perVeh="0"/>
        <edge id=":1110673663_1" sampledSeconds="154.39" CO_abs="2245.670580" CO2_abs="295807.442199" HC_abs="16.964871" PMx_abs="3.966369" NOx_abs="109.689779" fuel_abs="127.155227" electricity_abs="0"
            CO_normed="105.117494" CO2_normed="13846.437395" HC_normed="0.794108" PMx_normed="0.185662" NOx_normed="5.134464" fuel_normed="5.952003" electricity_normed="0"
            traveltime="1.25" CO_perVeh="18.170594" CO2_perVeh="2393.493037" HC_perVeh="0.137269" PMx_perVeh="0.032093" NOx_perVeh="0.887543" fuel_perVeh="1.028862" electricity_perVeh="0"/>
        <edge id=":1110673666_0" sampledSeconds="191.77" CO_abs="4184.448166" CO2_abs="332966.855460" HC_abs="26.638178" PMx_abs="4.441046" NOx_abs="126.581467" fuel_abs="143.129635" electricity_abs="0"