<?xml version="1.0" encoding="UTF-8"?>

<!-- generated on Tue Nov 10 00:28:53 2020 by Eclipse SUMO sumo Version 1.7.0
<configuration xmlns:xsi="http://www.w3.org/2001/XMLSchema-instance" xsi:noNamespaceSchemaLocation="http://sumo.dlr.de/xsd/sumoConfiguration.xsd">

    <input>
        <net-file value="../dataSets/Porto/6AM7AM_Routing_SaoBento/Porto.net.xml"/>
        <route-files value="../results/Porto/6AM7AM_Routing_SaoBento/cost_nox-length/solution8/Porto.rou.xml"/>
        <additional-files value="moreOutputInfo.xml"/>
    </input>

    <output>
        <emission-output.precision value="6"/>
        <tripinfo-output value="../results/Porto/6AM7AM_Routing_SaoBento/cost_nox-length/solution8/Porto-tripinfo"/>
    </output>

    <processing>
        <collision.action value="warn"/>
        <time-to-teleport value="-1"/>
    </processing>

    <emissions>
        <device.emissions.probability value="1"/>
    </emissions>

    <gui_only>
        <quit-on-end value="true"/>
        <start value="true"/>
    </gui_only>

</configuration>
-->

<meandata xmlns:xsi="http://www.w3.org/2001/XMLSchema-instance" xsi:noNamespaceSchemaLocation="http://sumo.dlr.de/xsd/meandata_file.xsd">
    <interval begin="0.00" end="4698.00" id="emissions-detector">
        <edge id=":1092997347_0" sampledSeconds="268.39" CO_abs="34166.538859" CO2_abs="1347567.252412" HC_abs="187.407679" PMx_abs="27.466539" NOx_abs="584.806180" fuel_abs="579.266369" electricity_abs="0"
            CO_normed="59502.854160" CO2_normed="2346860.418690" HC_normed="326.380493" PMx_normed="47.834446" NOx_normed="1018.471229" fuel_normed="1008.823352" electricity_normed="0"
            traveltime="0.08" CO_perVeh="9.608398" CO2_perVeh="378.966157" HC_perVeh="0.052703" PMx_perVeh="0.007724" NOx_perVeh="0.164461" fuel_perVeh="0.162903" electricity_perVeh="0"/>
        <edge id=":1103427051_0" sampledSeconds="11.24" CO_abs="812.620989" CO2_abs="45443.884099" HC_abs="4.774978" PMx_abs="0.871342" NOx_abs="19.267202" fuel_abs="19.534349" electricity_abs="0"
            CO_normed="2147.234745" CO2_normed="120078.964458" HC_normed="12.617195" PMx_normed="2.302398" NOx_normed="50.910827" fuel_normed="51.616724" electricity_normed="0"
            traveltime="0.03" CO_perVeh="2.226569" CO2_perVeh="124.515555" HC_perVeh="0.013083" PMx_perVeh="0.002387" NOx_perVeh="0.052792" fuel_perVeh="0.053524" electricity_perVeh="0"/>
        <edge id=":1105984386_0" sampledSeconds="22.99" CO_abs="418.562428" CO2_abs="31674.164280" HC_abs="2.627019" PMx_abs="0.426651" NOx_abs="12.105279" fuel_abs="13.615511" electricity_abs="0"
            CO_normed="33.031668" CO2_normed="2499.628244" HC_normed="0.207316" PMx_normed="0.033670" NOx_normed="0.955312" fuel_normed="1.074495" electricity_normed="0"
            traveltime="0.96" CO_perVeh="17.566741" CO2_perVeh="1329.340142" HC_perVeh="0.110254" PMx_perVeh="0.017906" NOx_perVeh="0.508049" fuel_perVeh="0.571432" electricity_perVeh="0"/>
        <edge id=":1105984390_0" sampledSeconds="23.71" CO_abs="9.294827" CO2_abs="607.425242" HC_abs="0.055423" PMx_abs="0.004675" NOx_abs="0.210438" fuel_abs="0.261115" electricity_abs="0"
            CO_normed="0.567076" CO2_normed="37.058914" HC_normed="0.003381" PMx_normed="0.000285" NOx_normed="0.012839" fuel_normed="0.015931" electricity_normed="0"
            traveltime="1.08" CO_perVeh="0.421516" CO2_perVeh="27.546436" HC_perVeh="0.002513" PMx_perVeh="0.000212" NOx_perVeh="0.009543" fuel_perVeh="0.011841" electricity_perVeh="0"/>
        <edge id=":1105984390_1" sampledSeconds="645.26" CO_abs="15029.935768" CO2_abs="1875735.229284" HC_abs="113.343736" PMx_abs="33.548629" NOx_abs="706.469180" fuel_abs="806.292341" electricity_abs="0"
            CO_normed="877.166196" CO2_normed="109470.297280" HC_normed="6.614885" PMx_normed="1.957941" NOx_normed="41.230441" fuel_normed="47.056248" electricity_normed="0"
            traveltime="0.64" CO_perVeh="14.819555" CO2_perVeh="1849.479686" HC_perVeh="0.111757" PMx_perVeh="0.033079" NOx_perVeh="0.696580" fuel_perVeh="0.795006" electricity_perVeh="0"/>
        <edge id=":1105984395_0" sampledSeconds="9.11" CO_abs="206.972011" CO2_abs="14621.285498" HC_abs="1.274926" PMx_abs="0.198391" NOx_abs="5.613635" fuel_abs="6.285139" electricity_abs="0"
            CO_normed="172.390481" CO2_normed="12178.315424" HC_normed="1.061908" PMx_normed="0.165243" NOx_normed="4.675691" fuel_normed="5.234998" electricity_normed="0"
            traveltime="0.09" CO_perVeh="2.098923" CO2_perVeh="148.275823" HC_perVeh="0.012929" PMx_perVeh="0.002012" NOx_perVeh="0.056928" fuel_perVeh="0.063738" electricity_perVeh="0"/>
        <edge id=":1105984398_0" sampledSeconds="23.67" CO_abs="1431.478114" CO2_abs="100664.285544" HC_abs="8.884821" PMx_abs="1.764297" NOx_abs="41.165369" fuel_abs="43.271182" electricity_abs="0"
            CO_normed="90.729371" CO2_normed="6380.263322" HC_normed="0.563134" PMx_normed="0.111824" NOx_normed="2.609127" fuel_normed="2.742597" electricity_normed="0"
            traveltime="1.11" CO_perVeh="67.284964" CO2_perVeh="4731.607685" HC_perVeh="0.417621" PMx_perVeh="0.082929" NOx_perVeh="1.934930" fuel_perVeh="2.033912" electricity_perVeh="0"/>
        <edge id=":1105984398_1" sampledSeconds="454.72" CO_abs="7321.878674" CO2_abs="890551.993697" HC_abs="53.695829" PMx_abs="12.352600" NOx_abs="333.859014" fuel_abs="382.810748" electricity_abs="0"
            CO_normed="449.210168" CO2_normed="54636.935215" HC_normed="3.294334" PMx_normed="0.757854" NOx_normed="20.482839" fuel_normed="23.486114" electricity_normed="0"
            traveltime="0.96" CO_perVeh="15.419503" CO2_perVeh="1875.457113" HC_perVeh="0.113081" PMx_perVeh="0.026014" NOx_perVeh="0.703090" fuel_perVeh="0.806180" electricity_perVeh="0"/>
        <edge id=":1106006327_0" sampledSeconds="39.40" CO_abs="5302.211455" CO2_abs="169399.960914" HC_abs="28.127883" PMx_abs="3.532584" NOx_abs="74.139862" fuel_abs="72.819135" electricity_abs="0"
            CO_normed="458.577571" CO2_normed="14651.060854" HC_normed="2.432724" PMx_normed="0.305526" NOx_normed="6.412207" fuel_normed="6.297980" electricity_normed="0"
            traveltime="2.14" CO_perVeh="287.641400" CO2_perVeh="9189.833785" HC_perVeh="1.525919" PMx_perVeh="0.191640" NOx_perVeh="4.022038" fuel_perVeh="3.950389" electricity_perVeh="0"/>
        <edge id=":1106006327_1" sampledSeconds="161.14" CO_abs="21820.678266" CO2_abs="730350.880053" HC_abs="116.572182" PMx_abs="15.238347" NOx_abs="319.655508" fuel_abs="313.951475" electricity_abs="0"
            CO_normed="1645.750616" CO2_normed="55084.236888" HC_normed="8.792061" PMx_normed="1.149301" NOx_normed="24.108932" fuel_normed="23.678725" electricity_normed="0"
            traveltime="2.29" CO_perVeh="309.772651" CO2_perVeh="10368.272051" HC_perVeh="1.654892" PMx_perVeh="0.216328" NOx_perVeh="4.537922" fuel_perVeh="4.456946" electricity_perVeh="0"/>
        <edge id=":1106006327_2" sampledSeconds="0.00" CO_abs="0" CO2_abs="0" HC_abs="0" PMx_abs="0" NOx_abs="0" fuel_abs="0" electricity_abs="0"
            CO_normed="0" CO2_normed="0" HC_normed="0" PMx_normed="0" NOx_normed="0" fuel_normed="0" electricity_normed="0"/>
        <edge id=":1106006327_3" sampledSeconds="0.00" CO_abs="0" CO2_abs="0" HC_abs="0" PMx_abs="0" NOx_abs="0" fuel_abs="0" electricity_abs="0"
            CO_normed="0" CO2_normed="0" HC_normed="0" PMx_normed="0" NOx_normed="0" fuel_normed="0" electricity_normed="0"/>
        <edge id=":1107381198_0" sampledSeconds="0.00" CO_abs="0" CO2_abs="0" HC_abs="0" PMx_abs="0" NOx_abs="0" fuel_abs="0" electricity_abs="0"
            CO_normed="0" CO2_normed="0" HC_normed="0" PMx_normed="0" NOx_normed="0" fuel_normed="0" electricity_normed="0"/>
        <edge id=":1107381198_1" sampledSeconds="36.40" CO_abs="1419.901510" CO2_abs="57623.679850" HC_abs="7.793519" PMx_abs="0.997989" NOx_abs="23.886976" fuel_abs="24.770395" electricity_abs="0"
            CO_normed="118.652905" CO2_normed="4815.275519" HC_normed="0.651259" PMx_normed="0.083396" NOx_normed="1.996096" fuel_normed="2.069918" electricity_normed="0"
            traveltime="1.50" CO_perVeh="58.461283" CO2_perVeh="2372.526689" HC_perVeh="0.320881" PMx_perVeh="0.041090" NOx_perVeh="0.983493" fuel_perVeh="1.019866" electricity_perVeh="0"/>
        <edge id=":1110338277_0" sampledSeconds="96.33" CO_abs="1505.618599" CO2_abs="182469.710855" HC_abs="11.039795" PMx_abs="2.482326" NOx_abs="68.207572" fuel_abs="78.436106" electricity_abs="0"
            CO_normed="4120.466884" CO2_normed="499369.761508" HC_normed="30.212903" PMx_normed="6.793448" NOx_normed="186.665496" fuel_normed="214.658198" electricity_normed="0"
            traveltime="0.02" CO_perVeh="0.340481" CO2_perVeh="41.263707" HC_perVeh="0.002497" PMx_perVeh="0.000561" NOx_perVeh="0.015424" fuel_perVeh="0.017738" electricity_perVeh="0"/>
        <edge id=":1110338293_0" sampledSeconds="123.84" CO_abs="6238.547119" CO2_abs="427909.527620" HC_abs="38.480233" PMx_abs="7.605326" NOx_abs="175.847403" fuel_abs="183.939577" electricity_abs="0"
            CO_normed="15934.986256" CO2_normed="1093000.070550" HC_normed="98.289228" PMx_normed="19.426120" NOx_normed="449.163225" fuel_normed="469.832893" electricity_normed="0"
            traveltime="0.03" CO_perVeh="1.430914" CO2_perVeh="98.148139" HC_perVeh="0.008826" PMx_perVeh="0.001744" NOx_perVeh="0.040334" fuel_perVeh="0.042190" electricity_perVeh="0"/>
        <edge id=":1110338295_0" sampledSeconds="0.00" CO_abs="0" CO2_abs="0" HC_abs="0" PMx_abs="0" NOx_abs="0" fuel_abs="0" electricity_abs="0"
            CO_normed="0" CO2_normed="0" HC_normed="0" PMx_normed="0" NOx_normed="0" fuel_normed="0" electricity_normed="0"/>
        <edge id=":1110673403_0" sampledSeconds="143.61" CO_abs="2134.427972" CO2_abs="263911.864196" HC_abs="15.752378" PMx_abs="3.635755" NOx_abs="98.754319" fuel_abs="113.444592" electricity_abs="0"
            CO_normed="5451.923300" CO2_normed="674104.378535" HC_normed="40.235959" PMx_normed="9.286732" NOx_normed="252.246025" fuel_normed="289.769074" electricity_normed="0"
            traveltime="0.02" CO_perVeh="0.342697" CO2_perVeh="42.372815" HC_perVeh="0.002529" PMx_perVeh="0.000584" NOx_perVeh="0.015856" fuel_perVeh="0.018214" electricity_perVeh="0"/>
        <edge id=":1110673412_0" sampledSeconds="253.22" CO_abs="44196.775247" CO2_abs="3032162.271938" HC_abs="275.436092" PMx_abs="66.458764" NOx_abs="1301.619220" fuel_abs="1303.377312" electricity_abs="0"
            CO_normed="116783.657675" CO2_normed="8012055.151110" HC_normed="727.800482" PMx_normed="175.607780" NOx_normed="3439.342635" fuel_normed="3443.988141" electricity_normed="0"
            traveltime="0.02" CO_perVeh="2.715891" CO2_perVeh="186.326333" HC_perVeh="0.016926" PMx_perVeh="0.004084" NOx_perVeh="0.079984" fuel_perVeh="0.080093" electricity_perVeh="0"/>
        <edge id=":1110673414_0" sampledSeconds="0.00" CO_abs="0" CO2_abs="0" HC_abs="0" PMx_abs="0" NOx_abs="0" fuel_abs="0" electricity_abs="0"
            CO_normed="0" CO2_normed="0" HC_normed="0" PMx_normed="0" NOx_normed="0" fuel_normed="0" electricity_normed="0"/>
        <edge id=":1110673414_1" sampledSeconds="15.02" CO_abs="1250.534035" CO2_abs="44966.375234" HC_abs="6.737561" PMx_abs="0.838643" NOx_abs="19.042321" fuel_abs="19.329493" electricity_abs="0"
            CO_normed="106.120003" CO2_normed="3815.835273" HC_normed="0.571748" PMx_normed="0.071167" NOx_normed="1.615927" fuel_normed="1.640296" electricity_normed="0"
            traveltime="1.64" CO_perVeh="136.578645" CO2_perVeh="4911.059124" HC_perVeh="0.735851" PMx_perVeh="0.091593" NOx_perVeh="2.079731" fuel_perVeh="2.111095" electricity_perVeh="0"/>
        <edge id=":1110673417_0" sampledSeconds="29.91" CO_abs="397.364886" CO2_abs="53956.518288" HC_abs="3.035249" PMx_abs="0.677535" NOx_abs="19.741725" fuel_abs="23.193704" electricity_abs="0"
            CO_normed="1087.479163" CO2_normed="147664.253660" HC_normed="8.306649" PMx_normed="1.854228" NOx_normed="54.027708" fuel_normed="63.474834" electricity_normed="0"
            traveltime="0.02" CO_perVeh="0.294930" CO2_perVeh="40.047250" HC_perVeh="0.002253" PMx_perVeh="0.000503" NOx_perVeh="0.014653" fuel_perVeh="0.017215" electricity_perVeh="0"/>
        <edge id=":1110673446_0" sampledSeconds="333.84" CO_abs="3831.326032" CO2_abs="315160.067621" HC_abs="24.920927" PMx_abs="5.728416" NOx_abs="128.467704" fuel_abs="135.472863" electricity_abs="0"
            CO_normed="9786.273390" CO2_normed="805006.558420" HC_normed="63.654985" PMx_normed="14.631970" NOx_normed="328.142283" fuel_normed="346.035409" electricity_normed="0"
            traveltime="0.02" CO_perVeh="0.261316" CO2_perVeh="21.495553" HC_perVeh="0.001700" PMx_perVeh="0.000391" NOx_perVeh="0.008762" fuel_perVeh="0.009240" electricity_perVeh="0"/>
        <edge id=":1110673451_0" sampledSeconds="37.44" CO_abs="372.583123" CO2_abs="28164.121848" HC_abs="2.340555" PMx_abs="0.393756" NOx_abs="10.853460" fuel_abs="12.106657" electricity_abs="0"
            CO_normed="1057.423366" CO2_normed="79932.231725" HC_normed="6.642700" PMx_normed="1.117514" NOx_normed="30.803066" fuel_normed="34.359748" electricity_normed="0"
            traveltime="0.03" CO_perVeh="0.267191" CO2_perVeh="20.197378" HC_perVeh="0.001678" PMx_perVeh="0.000282" NOx_perVeh="0.007783" fuel_perVeh="0.008682" electricity_perVeh="0"/>
        <edge id=":1110673464_0" sampledSeconds="323.84" CO_abs="820.999978" CO2_abs="61134.054198" HC_abs="5.136035" PMx_abs="0.853435" NOx_abs="23.527806" fuel_abs="26.279160" electricity_abs="0"
            CO_normed="44.555153" CO2_normed="3317.706696" HC_normed="0.278729" PMx_normed="0.046315" NOx_normed="1.276839" fuel_normed="1.426153" electricity_normed="0"
            traveltime="1.17" CO_perVeh="2.967807" CO2_perVeh="220.991540" HC_perVeh="0.018566" PMx_perVeh="0.003085" NOx_perVeh="0.085050" fuel_perVeh="0.094996" electricity_perVeh="0"/>
        <edge id=":1110673464_1" sampledSeconds="709.27" CO_abs="15478.997575" CO2_abs="2015019.403962" HC_abs="118.641618" PMx_abs="35.581390" NOx_abs="754.040488" fuel_abs="866.164527" electricity_abs="0"
            CO_normed="823.129828" CO2_normed="107153.100043" HC_normed="6.309030" PMx_normed="1.892119" NOx_normed="40.097766" fuel_normed="46.060209" electricity_normed="0"
            traveltime="0.70" CO_perVeh="15.281865" CO2_perVeh="1989.357104" HC_perVeh="0.117131" PMx_perVeh="0.035128" NOx_perVeh="0.744437" fuel_perVeh="0.855133" electricity_perVeh="0"/>
        <edge id=":1110673479_0" sampledSeconds="133.12" CO_abs="6938.932738" CO2_abs="476428.942673" HC_abs="42.802707" PMx_abs="8.418252" NOx_abs="195.437713" fuel_abs="204.796023" electricity_abs="0"
            CO_normed="17723.966126" CO2_normed="1216932.165192" HC_normed="109.330031" PMx_normed="21.502559" NOx_normed="499.202332" fuel_normed="523.106061" electricity_normed="0"
            traveltime="0.03" CO_perVeh="1.461751" CO2_perVeh="100.364218" HC_perVeh="0.009017" PMx_perVeh="0.001773" NOx_perVeh="0.041171" fuel_perVeh="0.043142" electricity_perVeh="0"/>
        <edge id=":1110673511_0" sampledSeconds="11.86" CO_abs="152.632751" CO2_abs="20754.659839" HC_abs="1.157332" PMx_abs="0.270512" NOx_abs="7.635478" fuel_abs="8.921566" electricity_abs="0"
            CO_normed="389.866542" CO2_normed="53013.179664" HC_normed="2.956147" PMx_normed="0.690962" NOx_normed="19.503137" fuel_normed="22.788163" electricity_normed="0"
            traveltime="0.02" CO_perVeh="0.302243" CO2_perVeh="41.098336" HC_perVeh="0.002292" PMx_perVeh="0.000536" NOx_perVeh="0.015120" fuel_perVeh="0.017666" electricity_perVeh="0"/>
        <edge id=":1110673517_0" sampledSeconds="17.08" CO_abs="757.652996" CO2_abs="55979.819339" HC_abs="4.759920" PMx_abs="0.938030" NOx_abs="22.546161" fuel_abs="24.063321" electricity_abs="0"
            CO_normed="1935.256696" CO2_normed="142988.044288" HC_normed="12.158162" PMx_normed="2.395990" NOx_normed="57.589174" fuel_normed="61.464420" electricity_normed="0"
            traveltime="0.03" CO_perVeh="1.216462" CO2_perVeh="89.879292" HC_perVeh="0.007642" PMx_perVeh="0.001506" NOx_perVeh="0.036199" fuel_perVeh="0.038635" electricity_perVeh="0"/>
        <edge id=":1110673534_0" sampledSeconds="476.73" CO_abs="2906.007475" CO2_abs="246122.550100" HC_abs="18.877712" PMx_abs="3.435635" NOx_abs="94.301431" fuel_abs="105.798244" electricity_abs="0"
            CO_normed="143.851786" CO2_normed="12183.440262" HC_normed="0.934475" PMx_normed="0.170069" NOx_normed="4.668064" fuel_normed="5.237174" electricity_normed="0"
            traveltime="1.44" CO_perVeh="8.754636" CO2_perVeh="741.468598" HC_perVeh="0.056871" PMx_perVeh="0.010350" NOx_perVeh="0.284092" fuel_perVeh="0.318728" electricity_perVeh="0"/>
        <edge id=":1110673534_1" sampledSeconds="184.46" CO_abs="2719.409670" CO2_abs="356464.169576" HC_abs="20.525765" PMx_abs="4.713656" NOx_abs="131.826247" fuel_abs="153.229125" electricity_abs="0"
            CO_normed="130.894399" CO2_normed="17157.827912" HC_normed="0.987975" PMx_normed="0.226884" NOx_normed="6.345244" fuel_normed="7.375437" electricity_normed="0"
            traveltime="1.22" CO_perVeh="18.055904" CO2_perVeh="2366.794113" HC_perVeh="0.136284" PMx_perVeh="0.031297" NOx_perVeh="0.875279" fuel_perVeh="1.017386" electricity_perVeh="0"/>
        <edge id=":1110673549_0" sampledSeconds="60.09" CO_abs="34.492420" CO2_abs="5062.866205" HC_abs="0.216854" PMx_abs="0.048593" NOx_abs="1.707532" fuel_abs="2.176335" electricity_abs="0"
            CO_normed="1.654003" CO2_normed="242.777907" HC_normed="0.010399" PMx_normed="0.002330" NOx_normed="0.081881" fuel_normed="0.104361" electricity_normed="0"
            traveltime="1.25" CO_perVeh="0.718620" CO2_perVeh="105.480505" HC_perVeh="0.004518" PMx_perVeh="0.001012" NOx_perVeh="0.035575" fuel_perVeh="0.045342" electricity_perVeh="0"/>
        <edge id=":1110673549_1" sampledSeconds="639.52" CO_abs="13174.305565" CO2_abs="1770036.370795" HC_abs="102.143223" PMx_abs="30.937374" NOx_abs="659.174456" fuel_abs="760.857765" electricity_abs="0"
            CO_normed="611.092815" CO2_normed="82103.493306" HC_normed="4.737934" PMx_normed="1.435036" NOx_normed="30.575940" fuel_normed="35.292541" electricity_normed="0"
            traveltime="0.81" CO_perVeh="16.583841" CO2_perVeh="2228.125143" HC_perVeh="0.128578" PMx_perVeh="0.038944" NOx_perVeh="0.829770" fuel_perVeh="0.957769" electricity_perVeh="0"/>
        <edge id=":1110673556_0" sampledSeconds="420.76" CO_abs="52351.117420" CO2_abs="2611359.194781" HC_abs="300.490807" PMx_abs="52.864716" NOx_abs="1126.041620" fuel_abs="1122.510216" electricity_abs="0"
            CO_normed="1861.521986" CO2_normed="92855.755386" HC_normed="10.684972" PMx_normed="1.879785" NOx_normed="40.040239" fuel_normed="39.914668" electricity_normed="0"
            traveltime="2.61" CO_perVeh="324.970210" CO2_perVeh="16210.044546" HC_perVeh="1.865300" PMx_perVeh="0.328158" NOx_perVeh="6.989917" fuel_perVeh="6.967996" electricity_perVeh="0"/>
        <edge id=":1110673556_2" sampledSeconds="244.73" CO_abs="23033.369340" CO2_abs="1000365.081523" HC_abs="128.344812" PMx_abs="19.107977" NOx_abs="425.241894" fuel_abs="430.017786" electricity_abs="0"
            CO_normed="856.384835" CO2_normed="37193.754530" HC_normed="4.771883" PMx_normed="0.710438" NOx_normed="15.810570" fuel_normed="15.988139" electricity_normed="0"
            traveltime="2.97" CO_perVeh="279.390356" CO2_perVeh="12134.236740" HC_perVeh="1.556798" PMx_perVeh="0.231776" NOx_perVeh="5.158103" fuel_perVeh="5.216033" electricity_perVeh="0"/>
        <edge id=":1110673556_3" sampledSeconds="416.23" CO_abs="35384.771445" CO2_abs="1259613.023366" HC_abs="190.424514" PMx_abs="23.963079" NOx_abs="536.727114" fuel_abs="541.463737" electricity_abs="0"
            CO_normed="2992.799933" CO2_normed="106536.501938" HC_normed="16.105868" PMx_normed="2.026767" NOx_normed="45.395711" fuel_normed="45.796329" electricity_normed="0"
            traveltime="1.74" CO_perVeh="147.860191" CO2_perVeh="5263.468267" HC_perVeh="0.795715" PMx_perVeh="0.100133" NOx_perVeh="2.242789" fuel_perVeh="2.262582" electricity_perVeh="0"/>
        <edge id=":1110673556_4" sampledSeconds="200.35" CO_abs="20704.753967" CO2_abs="817191.217665" HC_abs="113.448103" PMx_abs="15.976297" NOx_abs="350.429481" fuel_abs="351.279497" electricity_abs="0"
            CO_normed="1069.838965" CO2_normed="42225.230397" HC_normed="5.861997" PMx_normed="0.825514" NOx_normed="18.107103" fuel_normed="18.151024" electricity_normed="0"
            traveltime="2.45" CO_perVeh="252.933788" CO2_perVeh="9982.986060" HC_perVeh="1.385907" PMx_perVeh="0.195170" NOx_perVeh="4.280923" fuel_perVeh="4.291307" electricity_perVeh="0"/>
        <edge id=":1110673556_5" sampledSeconds="23.82" CO_abs="1557.110689" CO2_abs="66574.090980" HC_abs="8.645956" PMx_abs="1.249004" NOx_abs="28.196906" fuel_abs="28.617646" electricity_abs="0"
            CO_normed="112.141754" CO2_normed="4794.607998" HC_normed="0.622674" PMx_normed="0.089952" NOx_normed="2.030717" fuel_normed="2.061018" electricity_normed="0"
            traveltime="1.65" CO_perVeh="107.652097" CO2_perVeh="4602.653204" HC_perVeh="0.597745" PMx_perVeh="0.086351" NOx_perVeh="1.949416" fuel_perVeh="1.978504" electricity_perVeh="0"/>
        <edge id=":1110673556_6" sampledSeconds="494.46" CO_abs="58590.875578" CO2_abs="2853888.440182" HC_abs="334.596274" PMx_abs="57.617073" NOx_abs="1229.816593" fuel_abs="1226.764432" electricity_abs="0"
            CO_normed="2135.928766" CO2_normed="104038.425006" HC_normed="12.197698" PMx_normed="2.100429" NOx_normed="44.832930" fuel_normed="44.721664" electricity_normed="0"
            traveltime="2.65" CO_perVeh="314.416040" CO2_perVeh="15314.812974" HC_perVeh="1.795543" PMx_perVeh="0.309190" NOx_perVeh="6.599561" fuel_perVeh="6.583182" electricity_perVeh="0"/>
        <edge id=":1110673561_0" sampledSeconds="100.34" CO_abs="9392.957133" CO2_abs="676295.027994" HC_abs="59.064243" PMx_abs="13.681224" NOx_abs="285.886271" fuel_abs="290.706983" electricity_abs="0"
            CO_normed="430.225242" CO2_normed="30976.314281" HC_normed="2.705317" PMx_normed="0.626641" NOx_normed="13.094438" fuel_normed="13.315240" electricity_normed="0"
            traveltime="1.18" CO_perVeh="110.846011" CO2_perVeh="7980.937742" HC_perVeh="0.697015" PMx_perVeh="0.161452" NOx_perVeh="3.373735" fuel_perVeh="3.430625" electricity_perVeh="0"/>
        <edge id=":1110673561_1" sampledSeconds="1314.83" CO_abs="123175.654672" CO2_abs="8562358.245501" HC_abs="768.006790" PMx_abs="178.619021" NOx_abs="3657.987456" fuel_abs="3680.544517" electricity_abs="0"
            CO_normed="5500.435597" CO2_normed="382353.966075" HC_normed="34.295510" PMx_normed="7.976271" NOx_normed="163.348224" fuel_normed="164.355514" electricity_normed="0"
            traveltime="1.19" CO_perVeh="111.631309" CO2_perVeh="7759.871534" HC_perVeh="0.696027" PMx_perVeh="0.161878" NOx_perVeh="3.315151" fuel_perVeh="3.335594" electricity_perVeh="0"/>
        <edge id=":1110673562_0" sampledSeconds="104.24" CO_abs="2188.307414" CO2_abs="175834.958524" HC_abs="13.955816" PMx_abs="2.266682" NOx_abs="66.291392" fuel_abs="75.584787" electricity_abs="0"
            CO_normed="6210.607108" CO2_normed="499034.932664" HC_normed="39.607823" PMx_normed="6.433042" NOx_normed="188.140745" fuel_normed="214.516212" electricity_normed="0"
            traveltime="0.03" CO_perVeh="0.557810" CO2_perVeh="44.821131" HC_perVeh="0.003557" PMx_perVeh="0.000578" NOx_perVeh="0.016898" fuel_perVeh="0.019267" electricity_perVeh="0"/>
        <edge id=":1110673564_0" sampledSeconds="28.75" CO_abs="425.435142" CO2_abs="51308.894440" HC_abs="3.115328" PMx_abs="0.697074" NOx_abs="19.181009" fuel_abs="22.055553" electricity_abs="0"
            CO_normed="3260.039406" CO2_normed="393171.604903" HC_normed="23.872246" PMx_normed="5.341563" NOx_normed="146.980914" fuel_normed="169.008068" electricity_normed="0"
            traveltime="7.904594e-03" CO_perVeh="0.116958" CO2_perVeh="14.105538" HC_perVeh="0.000856" PMx_perVeh="0.000192" NOx_perVeh="0.005273" fuel_perVeh="0.006063" electricity_perVeh="0"/>
        <edge id=":1110673588_0" sampledSeconds="11.74" CO_abs="171.400689" CO2_abs="20345.530276" HC_abs="1.250690" PMx_abs="0.280281" NOx_abs="7.627482" fuel_abs="8.745692" electricity_abs="0"
            CO_normed="525.366095" CO2_normed="62361.778625" HC_normed="3.833531" PMx_normed="0.859098" NOx_normed="23.379255" fuel_normed="26.806718" electricity_normed="0"
            traveltime="0.02" CO_perVeh="0.285668" CO2_perVeh="33.909217" HC_perVeh="0.002084" PMx_perVeh="0.000467" NOx_perVeh="0.012712" fuel_perVeh="0.014576" electricity_perVeh="0"/>
        <edge id=":1110673601_0" sampledSeconds="29.80" CO_abs="508.978729" CO2_abs="60172.776428" HC_abs="3.690345" PMx_abs="0.820505" NOx_abs="22.539127" fuel_abs="25.865766" electricity_abs="0"
            CO_normed="1392.935766" CO2_normed="164676.454374" HC_normed="10.099466" PMx_normed="2.245497" NOx_normed="61.683435" fuel_normed="70.787536" electricity_normed="0"
            traveltime="0.02" CO_perVeh="0.377771" CO2_perVeh="44.661040" HC_perVeh="0.002739" PMx_perVeh="0.000609" NOx_perVeh="0.016729" fuel_perVeh="0.019198" electricity_perVeh="0"/>
        <edge id=":1110673617_0" sampledSeconds="237.91" CO_abs="6013.688537" CO2_abs="743801.464425" HC_abs="45.122391" PMx_abs="13.311001" NOx_abs="280.637920" fuel_abs="319.726031" electricity_abs="0"
            CO_normed="15360.634834" CO2_normed="1899876.026629" HC_normed="115.255149" PMx_normed="34.000002" NOx_normed="716.827382" fuel_normed="816.669300" electricity_normed="0"
            traveltime="0.01" CO_perVeh="0.368755" CO2_perVeh="45.609383" HC_perVeh="0.002767" PMx_perVeh="0.000816" NOx_perVeh="0.017209" fuel_perVeh="0.019605" electricity_perVeh="0"/>
        <edge id=":1110673621_0" sampledSeconds="25.49" CO_abs="618.142812" CO2_abs="66112.906381" HC_abs="4.346388" PMx_abs="0.976127" NOx_abs="25.296136" fuel_abs="28.419113" electricity_abs="0"
            CO_normed="1894.690611" CO2_normed="202644.923774" HC_normed="13.322263" PMx_normed="2.991959" NOx_normed="77.536049" fuel_normed="87.108393" electricity_normed="0"
            traveltime="0.02" CO_perVeh="0.468290" CO2_perVeh="50.085535" HC_perVeh="0.003293" PMx_perVeh="0.000739" NOx_perVeh="0.019164" fuel_perVeh="0.021530" electricity_perVeh="0"/>
        <edge id=":1110673630_0" sampledSeconds="54.30" CO_abs="412.581700" CO2_abs="35305.907377" HC_abs="2.684970" PMx_abs="0.472760" NOx_abs="13.382753" fuel_abs="15.176627" electricity_abs="0"
            CO_normed="22.550254" CO2_normed="1929.695803" HC_normed="0.146751" PMx_normed="0.025839" NOx_normed="0.731454" fuel_normed="0.829501" electricity_normed="0"
            traveltime="1.27" CO_perVeh="9.630387" CO2_perVeh="824.102327" HC_perVeh="0.062672" PMx_perVeh="0.011035" NOx_perVeh="0.312377" fuel_perVeh="0.354249" electricity_perVeh="0"/>
        <edge id=":1110673630_1" sampledSeconds="7.31" CO_abs="24.031915" CO2_abs="2384.663427" HC_abs="0.162312" PMx_abs="0.023035" NOx_abs="0.844900" fuel_abs="1.025084" electricity_abs="0"
            CO_normed="1.601327" CO2_normed="158.898113" HC_normed="0.010815" PMx_normed="0.001535" NOx_normed="0.056298" fuel_normed="0.068305" electricity_normed="0"
            traveltime="1.03" CO_perVeh="3.401440" CO2_perVeh="337.521593" HC_perVeh="0.022973" PMx_perVeh="0.003260" NOx_perVeh="0.119586" fuel_perVeh="0.145089" electricity_perVeh="0"/>
        <edge id=":1110673650_0" sampledSeconds="143.18" CO_abs="2163.723417" CO2_abs="270139.597501" HC_abs="16.010958" PMx_abs="3.690984" NOx_abs="100.829890" fuel_abs="116.121665" electricity_abs="0"
            CO_normed="5526.752024" CO2_normed="690011.743296" HC_normed="40.896446" PMx_normed="9.427800" NOx_normed="257.547612" fuel_normed="296.607062" electricity_normed="0"
            traveltime="0.02" CO_perVeh="0.348191" CO2_perVeh="43.471420" HC_perVeh="0.002577" PMx_perVeh="0.000594" NOx_perVeh="0.016226" fuel_perVeh="0.018687" electricity_perVeh="0"/>
        <edge id=":1110673655_0" sampledSeconds="44.90" CO_abs="818.461651" CO2_abs="87230.123426" HC_abs="5.729764" PMx_abs="1.244827" NOx_abs="33.144411" fuel_abs="37.496564" electricity_abs="0"
            CO_normed="2090.578930" CO2_normed="222810.021522" HC_normed="14.635412" PMx_normed="3.179635" NOx_normed="84.660055" fuel_normed="95.776664" electricity_normed="0"
            traveltime="0.02" CO_perVeh="0.438031" CO2_perVeh="46.684572" HC_perVeh="0.003067" PMx_perVeh="0.000666" NOx_perVeh="0.017739" fuel_perVeh="0.020068" electricity_perVeh="0"/>
        <edge id=":1110673663_0" sampledSeconds="108.18" CO_abs="2004.107394" CO2_abs="229359.096829" HC_abs="14.421582" PMx_abs="3.237986" NOx_abs="86.616032" fuel_abs="98.591800" electricity_abs="0"
            CO_normed="93.755463" CO2_normed="10729.798363" HC_normed="0.674665" PMx_normed="0.151478" NOx_normed="4.052041" fuel_normed="4.612288" electricity_normed="0"
            traveltime="1.27" CO_perVeh="23.539187" CO2_perVeh="2693.930794" HC_perVeh="0.169388" PMx_perVeh="0.038032" NOx_perVeh="1.017346" fuel_perVeh="1.158007" electricity_perVeh="0"/>
        <edge id=":1110673663_1" sampledSeconds="154.21" CO_abs="2913.794816" CO2_abs="327776.610657" HC_abs="20.843667" PMx_abs="4.736061" NOx_abs="124.468327" fuel_abs="140.897214" electricity_abs="0"
            CO_normed="136.478787" CO2_normed="15352.678276" HC_normed="0.976293" PMx_normed="0.221832" NOx_normed="5.829953" fuel_normed="6.599463" electricity_normed="0"
            traveltime="1.25" CO_perVeh="23.568009" CO2_perVeh="2651.196314" HC_perVeh="0.168592" PMx_perVeh="0.038307" NOx_perVeh="1.006753" fuel_perVeh="1.139636" electricity_perVeh="0"/>
        <edge id=":1110673666_0" sampledSeconds="191.50" CO_abs="3991.587214" CO2_abs="325233.561683" HC_abs="25.588011" PMx_abs="4.349943" NOx_abs="123.598525" fuel_abs="139.805301" electricity_abs="0"