<?xml version="1.0" encoding="UTF-8"?>

<!-- generated on Tue Nov 10 13:45:18 2020 by Eclipse SUMO sumo Version 1.7.0
<configuration xmlns:xsi="http://www.w3.org/2001/XMLSchema-instance" xsi:noNamespaceSchemaLocation="http://sumo.dlr.de/xsd/sumoConfiguration.xsd">

    <input>
        <net-file value="../dataSets/Porto/8AM9AM_Routing_SaoBento/Porto.net.xml"/>
        <route-files value="../results/Porto/8AM9AM_Routing_SaoBento/inputdata/cost_hc-length/solution20/Porto.rou.xml"/>
        <additional-files value="moreOutputInfo.xml"/>
    </input>

    <output>
        <emission-output.precision value="6"/>
        <tripinfo-output value="../results/Porto/8AM9AM_Routing_SaoBento/inputdata/cost_hc-length/solution20/Porto-tripinfo"/>
    </output>

    <processing>
        <collision.action value="warn"/>
        <time-to-teleport value="-1"/>
    </processing>

    <emissions>
        <device.emissions.probability value="1"/>
    </emissions>

    <gui_only>
        <quit-on-end value="true"/>
        <start value="true"/>
    </gui_only>

</configuration>
-->

<meandata xmlns:xsi="http://www.w3.org/2001/XMLSchema-instance" xsi:noNamespaceSchemaLocation="http://sumo.dlr.de/xsd/meandata_file.xsd">
    <interval begin="0.00" end="8472.00" id="emissions-detector">
        <edge id=":1092997347_0" sampledSeconds="595.39" CO_abs="72278.030055" CO2_abs="3079667.725988" HC_abs="401.936064" PMx_abs="62.169041" NOx_abs="1331.742670" fuel_abs="1323.824547" electricity_abs="0"
            CO_normed="69802.372574" CO2_normed="2974183.356285" HC_normed="388.169003" PMx_normed="60.039636" NOx_normed="1286.127997" fuel_normed="1278.481084" electricity_normed="0"
            traveltime="0.07" CO_perVeh="8.266447" CO2_perVeh="352.221967" HC_perVeh="0.045969" PMx_perVeh="0.007110" NOx_perVeh="0.152312" fuel_perVeh="0.151406" electricity_perVeh="0"/>
        <edge id=":1103427051_0" sampledSeconds="19.20" CO_abs="1614.071152" CO2_abs="90790.908932" HC_abs="9.504828" PMx_abs="1.780234" NOx_abs="38.738849" fuel_abs="39.026995" electricity_abs="0"
            CO_normed="2365.054926" CO2_normed="133033.470155" HC_normed="13.927168" PMx_normed="2.608529" NOx_normed="56.762990" fuel_normed="57.185204" electricity_normed="0"
            traveltime="0.03" CO_perVeh="2.510085" CO2_perVeh="141.191353" HC_perVeh="0.014781" PMx_perVeh="0.002768" NOx_perVeh="0.060244" fuel_perVeh="0.060692" electricity_perVeh="0"/>
        <edge id=":1105984386_0" sampledSeconds="10.36" CO_abs="218.970039" CO2_abs="16572.085710" HC_abs="1.368304" PMx_abs="0.191524" NOx_abs="6.124789" fuel_abs="7.123754" electricity_abs="0"
            CO_normed="9.582570" CO2_normed="725.227885" HC_normed="0.059880" PMx_normed="0.008381" NOx_normed="0.268033" fuel_normed="0.311750" electricity_normed="0"
            traveltime="0.99" CO_perVeh="21.005721" CO2_perVeh="1589.754517" HC_perVeh="0.131261" PMx_perVeh="0.018373" NOx_perVeh="0.587549" fuel_perVeh="0.683379" electricity_perVeh="0"/>
        <edge id=":1105984390_0" sampledSeconds="11.14" CO_abs="24.642258" CO2_abs="2355.972101" HC_abs="0.165910" PMx_abs="0.029727" NOx_abs="0.870589" fuel_abs="1.012742" electricity_abs="0"
            CO_normed="0.833695" CO2_normed="79.707109" HC_normed="0.005613" PMx_normed="0.001006" NOx_normed="0.029454" fuel_normed="0.034263" electricity_normed="0"
            traveltime="1.15" CO_perVeh="2.554318" CO2_perVeh="244.210692" HC_perVeh="0.017198" PMx_perVeh="0.003081" NOx_perVeh="0.090242" fuel_perVeh="0.104977" electricity_perVeh="0"/>
        <edge id=":1105984390_1" sampledSeconds="2398.21" CO_abs="63908.581491" CO2_abs="7612018.821192" HC_abs="472.898062" PMx_abs="137.351577" NOx_abs="2895.242524" fuel_abs="3272.055424" electricity_abs="0"
            CO_normed="2068.287969" CO2_normed="246349.497653" HC_normed="15.304508" PMx_normed="4.445140" NOx_normed="93.699393" fuel_normed="105.894274" electricity_normed="0"
            traveltime="0.65" CO_perVeh="17.257694" CO2_perVeh="2055.528160" HC_perVeh="0.127700" PMx_perVeh="0.037090" NOx_perVeh="0.781823" fuel_perVeh="0.883577" electricity_perVeh="0"/>
        <edge id=":1105984395_0" sampledSeconds="4.13" CO_abs="104.405935" CO2_abs="7578.040948" HC_abs="0.646926" PMx_abs="0.097794" NOx_abs="2.871958" fuel_abs="3.257520" electricity_abs="0"
            CO_normed="48.222966" CO2_normed="3500.142081" HC_normed="0.298802" PMx_normed="0.045169" NOx_normed="1.326499" fuel_normed="1.504582" electricity_normed="0"
            traveltime="0.10" CO_perVeh="2.420092" CO2_perVeh="175.656278" HC_perVeh="0.014996" PMx_perVeh="0.002267" NOx_perVeh="0.066571" fuel_perVeh="0.075508" electricity_perVeh="0"/>
        <edge id=":1105984398_0" sampledSeconds="10.38" CO_abs="783.212149" CO2_abs="51796.508872" HC_abs="4.788275" PMx_abs="0.941519" NOx_abs="21.457354" fuel_abs="22.265040" electricity_abs="0"
            CO_normed="27.527684" CO2_normed="1820.500245" HC_normed="0.168294" PMx_normed="0.033092" NOx_normed="0.754165" fuel_normed="0.782553" electricity_normed="0"
            traveltime="1.13" CO_perVeh="85.192481" CO2_perVeh="5634.071279" HC_perVeh="0.520836" PMx_perVeh="0.102412" NOx_perVeh="2.333985" fuel_perVeh="2.421839" electricity_perVeh="0"/>
        <edge id=":1105984398_1" sampledSeconds="643.91" CO_abs="11401.456930" CO2_abs="1365690.630109" HC_abs="83.295026" PMx_abs="19.508656" NOx_abs="515.611684" fuel_abs="587.052109" electricity_abs="0"
            CO_normed="387.895254" CO2_normed="46462.914131" HC_normed="2.833826" PMx_normed="0.663715" NOx_normed="17.541909" fuel_normed="19.972424" electricity_normed="0"
            traveltime="0.95" CO_perVeh="16.832179" CO2_perVeh="2016.194025" HC_perVeh="0.122970" PMx_perVeh="0.028801" NOx_perVeh="0.761207" fuel_perVeh="0.866676" electricity_perVeh="0"/>
        <edge id=":1106006327_0" sampledSeconds="390.45" CO_abs="52925.799495" CO2_abs="1715967.062012" HC_abs="281.396439" PMx_abs="35.864139" NOx_abs="751.527531" fuel_abs="737.633601" electricity_abs="0"
            CO_normed="2538.342720" CO2_normed="82298.473357" HC_normed="13.495887" PMx_normed="1.720059" NOx_normed="36.043564" fuel_normed="35.377205" electricity_normed="0"
            traveltime="2.10" CO_perVeh="284.746014" CO2_perVeh="9232.071805" HC_perVeh="1.513941" PMx_perVeh="0.192953" NOx_perVeh="4.043292" fuel_perVeh="3.968541" electricity_perVeh="0"/>
        <edge id=":1106006327_1" sampledSeconds="683.23" CO_abs="92209.675353" CO2_abs="3077231.537197" HC_abs="492.372638" PMx_abs="64.129033" NOx_abs="1346.363451" fuel_abs="1322.791082" electricity_abs="0"
            CO_normed="3856.553307" CO2_normed="128701.325695" HC_normed="20.592864" PMx_normed="2.682116" NOx_normed="56.309952" fuel_normed="55.324068" electricity_normed="0"
            traveltime="2.29" CO_perVeh="309.525561" CO2_perVeh="10329.521437" HC_perVeh="1.652776" PMx_perVeh="0.215266" NOx_perVeh="4.519416" fuel_perVeh="4.440289" electricity_perVeh="0"/>
        <edge id=":1106006327_2" sampledSeconds="0.00" CO_abs="0" CO2_abs="0" HC_abs="0" PMx_abs="0" NOx_abs="0" fuel_abs="0" electricity_abs="0"
            CO_normed="0" CO2_normed="0" HC_normed="0" PMx_normed="0" NOx_normed="0" fuel_normed="0" electricity_normed="0"/>
        <edge id=":1106006327_3" sampledSeconds="0.00" CO_abs="0" CO2_abs="0" HC_abs="0" PMx_abs="0" NOx_abs="0" fuel_abs="0" electricity_abs="0"
            CO_normed="0" CO2_normed="0" HC_normed="0" PMx_normed="0" NOx_normed="0" fuel_normed="0" electricity_normed="0"/>
        <edge id=":1107381198_0" sampledSeconds="0.00" CO_abs="0" CO2_abs="0" HC_abs="0" PMx_abs="0" NOx_abs="0" fuel_abs="0" electricity_abs="0"
            CO_normed="0" CO2_normed="0" HC_normed="0" PMx_normed="0" NOx_normed="0" fuel_normed="0" electricity_normed="0"/>
        <edge id=":1107381198_1" sampledSeconds="104.63" CO_abs="4749.495726" CO2_abs="186276.277525" HC_abs="25.912896" PMx_abs="3.218236" NOx_abs="77.197324" fuel_abs="80.073771" electricity_abs="0"
            CO_normed="220.087166" CO2_normed="8631.867566" HC_normed="1.200779" PMx_normed="0.149130" NOx_normed="3.577251" fuel_normed="3.710543" electricity_normed="0"
            traveltime="1.57" CO_perVeh="71.109058" CO2_perVeh="2788.913050" HC_perVeh="0.387966" PMx_perVeh="0.048183" NOx_perVeh="1.155792" fuel_perVeh="1.198858" electricity_perVeh="0"/>
        <edge id=":1110338277_0" sampledSeconds="160.47" CO_abs="2492.147743" CO2_abs="309931.304788" HC_abs="18.439342" PMx_abs="4.187312" NOx_abs="115.513273" fuel_abs="133.226522" electricity_abs="0"
            CO_normed="3782.093904" CO2_normed="470353.052592" HC_normed="27.983623" PMx_normed="6.354682" NOx_normed="175.303429" fuel_normed="202.185130" electricity_normed="0"
            traveltime="0.02" CO_perVeh="0.337539" CO2_perVeh="41.977436" HC_perVeh="0.002497" PMx_perVeh="0.000567" NOx_perVeh="0.015645" fuel_perVeh="0.018044" electricity_perVeh="0"/>
        <edge id=":1110338293_0" sampledSeconds="6407.60" CO_abs="585969.739947" CO2_abs="10295513.107565" HC_abs="2908.930897" PMx_abs="245.056369" NOx_abs="4650.504407" fuel_abs="4425.866674" electricity_abs="0"
            CO_normed="829985.467347" CO2_normed="14582879.755758" HC_normed="4120.298721" PMx_normed="347.105339" NOx_normed="6587.116724" fuel_normed="6268.932966" electricity_normed="0"
            traveltime="0.43" CO_perVeh="39.156483" CO2_perVeh="687.981061" HC_perVeh="0.194385" PMx_perVeh="0.016375" NOx_perVeh="0.310762" fuel_perVeh="0.295751" electricity_perVeh="0"/>
        <edge id=":1110338295_0" sampledSeconds="0.00" CO_abs="0" CO2_abs="0" HC_abs="0" PMx_abs="0" NOx_abs="0" fuel_abs="0" electricity_abs="0"
            CO_normed="0" CO2_normed="0" HC_normed="0" PMx_normed="0" NOx_normed="0" fuel_normed="0" electricity_normed="0"/>
        <edge id=":1110673403_0" sampledSeconds="200.36" CO_abs="3094.645026" CO2_abs="396029.108518" HC_abs="23.119136" PMx_abs="5.270147" NOx_abs="146.925365" fuel_abs="170.236429" electricity_abs="0"
            CO_normed="4383.349895" CO2_normed="560947.745776" HC_normed="32.746651" PMx_normed="7.464798" NOx_normed="208.109582" fuel_normed="241.128086" electricity_normed="0"
            traveltime="0.02" CO_perVeh="0.357668" CO2_perVeh="45.771596" HC_perVeh="0.002672" PMx_perVeh="0.000609" NOx_perVeh="0.016981" fuel_perVeh="0.019675" electricity_perVeh="0"/>
        <edge id=":1110673412_0" sampledSeconds="940.28" CO_abs="166785.589703" CO2_abs="11387055.083642" HC_abs="1038.105496" PMx_abs="250.176188" NOx_abs="4893.052199" fuel_abs="4894.734152" electricity_abs="0"
            CO_normed="244386.426252" CO2_normed="16685144.696164" HC_normed="1521.107984" PMx_normed="366.576420" NOx_normed="7169.657418" fuel_normed="7172.121939" electricity_normed="0"
            traveltime="0.02" CO_perVeh="2.755352" CO2_perVeh="188.117831" HC_perVeh="0.017150" PMx_perVeh="0.004133" NOx_perVeh="0.080835" fuel_perVeh="0.080863" electricity_perVeh="0"/>
        <edge id=":1110673414_0" sampledSeconds="0.00" CO_abs="0" CO2_abs="0" HC_abs="0" PMx_abs="0" NOx_abs="0" fuel_abs="0" electricity_abs="0"
            CO_normed="0" CO2_normed="0" HC_normed="0" PMx_normed="0" NOx_normed="0" fuel_normed="0" electricity_normed="0"/>
        <edge id=":1110673414_1" sampledSeconds="6.64" CO_abs="381.274460" CO2_abs="16095.295123" HC_abs="2.109244" PMx_abs="0.287607" NOx_abs="6.729186" fuel_abs="6.918775" electricity_abs="0"
            CO_normed="17.941821" CO2_normed="757.404267" HC_normed="0.099256" PMx_normed="0.013534" NOx_normed="0.316659" fuel_normed="0.325580" electricity_normed="0"
            traveltime="1.45" CO_perVeh="83.282738" CO2_perVeh="3515.735727" HC_perVeh="0.460727" PMx_perVeh="0.062823" NOx_perVeh="1.469873" fuel_perVeh="1.511285" electricity_perVeh="0"/>
        <edge id=":1110673417_0" sampledSeconds="29.13" CO_abs="629.438831" CO2_abs="66413.362463" HC_abs="4.401816" PMx_abs="0.997639" NOx_abs="25.508758" fuel_abs="28.548248" electricity_abs="0"
            CO_normed="955.239019" CO2_normed="100789.198396" HC_normed="6.680214" PMx_normed="1.514021" NOx_normed="38.712198" fuel_normed="43.324941" electricity_normed="0"
            traveltime="0.02" CO_perVeh="0.479977" CO2_perVeh="50.643377" HC_perVeh="0.003357" PMx_perVeh="0.000761" NOx_perVeh="0.019452" fuel_perVeh="0.021769" electricity_perVeh="0"/>
        <edge id=":1110673446_0" sampledSeconds="1313.43" CO_abs="13465.316497" CO2_abs="1092819.648171" HC_abs="87.205312" PMx_abs="19.982162" NOx_abs="446.651622" fuel_abs="469.752981" electricity_abs="0"
            CO_normed="19072.686256" CO2_normed="1547903.184378" HC_normed="123.520271" PMx_normed="28.303345" NOx_normed="632.651022" fuel_normed="665.372495" electricity_normed="0"
            traveltime="0.02" CO_perVeh="0.233471" CO2_perVeh="18.948040" HC_perVeh="0.001512" PMx_perVeh="0.000346" NOx_perVeh="0.007744" fuel_perVeh="0.008145" electricity_perVeh="0"/>
        <edge id=":1110673451_0" sampledSeconds="37.04" CO_abs="321.823763" CO2_abs="23863.709090" HC_abs="2.007717" PMx_abs="0.316801" NOx_abs="9.083347" fuel_abs="10.258109" electricity_abs="0"
            CO_normed="506.490027" CO2_normed="37556.986292" HC_normed="3.159769" PMx_normed="0.498586" NOx_normed="14.295479" fuel_normed="16.144332" electricity_normed="0"
            traveltime="0.03" CO_perVeh="0.237113" CO2_perVeh="17.582278" HC_perVeh="0.001479" PMx_perVeh="0.000233" NOx_perVeh="0.006692" fuel_perVeh="0.007558" electricity_perVeh="0"/>
        <edge id=":1110673464_0" sampledSeconds="1027.20" CO_abs="4058.642755" CO2_abs="300288.220738" HC_abs="25.383555" PMx_abs="4.398895" NOx_abs="116.922008" fuel_abs="129.081967" electricity_abs="0"
            CO_normed="122.141341" CO2_normed="9036.914089" HC_normed="0.763896" PMx_normed="0.132381" NOx_normed="3.518667" fuel_normed="3.884610" electricity_normed="0"
            traveltime="1.22" CO_perVeh="4.812983" CO2_perVeh="356.099836" HC_perVeh="0.030101" PMx_perVeh="0.005216" NOx_perVeh="0.138653" fuel_perVeh="0.153073" electricity_perVeh="0"/>
        <edge id=":1110673464_1" sampledSeconds="2604.44" CO_abs="63574.151420" CO2_abs="7778168.210628" HC_abs="474.335723" PMx_abs="138.718438" NOx_abs="2947.559239" fuel_abs="3343.476280" electricity_abs="0"
            CO_normed="1874.705894" CO2_normed="229366.455777" HC_normed="13.987445" PMx_normed="4.090598" NOx_normed="86.919079" fuel_normed="98.594076" electricity_normed="0"
            traveltime="0.72" CO_perVeh="17.525932" CO2_perVeh="2144.262183" HC_perVeh="0.130763" PMx_perVeh="0.038241" NOx_perVeh="0.812574" fuel_perVeh="0.921720" electricity_perVeh="0"/>
        <edge id=":1110673479_0" sampledSeconds="133.57" CO_abs="7176.407175" CO2_abs="492089.683118" HC_abs="44.265050" PMx_abs="8.758570" NOx_abs="202.229483" fuel_abs="211.527808" electricity_abs="0"
            CO_normed="10164.882684" CO2_normed="697010.882603" HC_normed="62.698371" PMx_normed="12.405906" NOx_normed="286.444027" fuel_normed="299.614458" electricity_normed="0"
            traveltime="0.03" CO_perVeh="1.517157" CO2_perVeh="104.032208" HC_perVeh="0.009358" PMx_perVeh="0.001852" NOx_perVeh="0.042753" fuel_perVeh="0.044719" electricity_perVeh="0"/>
        <edge id=":1110673511_0" sampledSeconds="63.27" CO_abs="1311.376112" CO2_abs="139200.538391" HC_abs="9.182658" PMx_abs="1.998250" NOx_abs="52.982727" fuel_abs="59.836449" electricity_abs="0"
            CO_normed="1857.473246" CO2_normed="197167.901404" HC_normed="13.006597" PMx_normed="2.830383" NOx_normed="75.046355" fuel_normed="84.754176" electricity_normed="0"
            traveltime="0.02" CO_perVeh="0.502603" CO2_perVeh="53.350574" HC_perVeh="0.003519" PMx_perVeh="0.000766" NOx_perVeh="0.020306" fuel_perVeh="0.022933" electricity_perVeh="0"/>
        <edge id=":1110673517_0" sampledSeconds="182.44" CO_abs="7882.131151" CO2_abs="558372.524833" HC_abs="49.005937" PMx_abs="9.699793" NOx_abs="227.620527" fuel_abs="240.020072" electricity_abs="0"
            CO_normed="11164.491716" CO2_normed="790895.927525" HC_normed="69.413509" PMx_normed="13.739083" NOx_normed="322.408678" fuel_normed="339.971774" electricity_normed="0"
            traveltime="0.03" CO_perVeh="1.206818" CO2_perVeh="85.491353" HC_perVeh="0.007503" PMx_perVeh="0.001485" NOx_perVeh="0.034851" fuel_perVeh="0.036749" electricity_perVeh="0"/>
        <edge id=":1110673534_0" sampledSeconds="659.06" CO_abs="4664.382341" CO2_abs="378942.091480" HC_abs="29.897373" PMx_abs="5.184541" NOx_abs="144.640336" fuel_abs="162.892363" electricity_abs="0"
            CO_normed="128.038253" CO2_normed="10402.038218" HC_normed="0.820689" PMx_normed="0.142317" NOx_normed="3.970407" fuel_normed="4.471429" electricity_normed="0"
            traveltime="1.45" CO_perVeh="10.256282" CO2_perVeh="833.237251" HC_perVeh="0.065740" PMx_perVeh="0.011400" NOx_perVeh="0.318043" fuel_perVeh="0.358176" electricity_perVeh="0"/>
        <edge id=":1110673534_1" sampledSeconds="264.70" CO_abs="4182.034307" CO2_abs="496357.969104" HC_abs="30.398224" PMx_abs="6.895580" NOx_abs="186.336629" fuel_abs="213.363413" electricity_abs="0"
            CO_normed="111.624900" CO2_normed="13248.554274" HC_normed="0.811375" PMx_normed="0.184054" NOx_normed="4.973610" fuel_normed="5.694996" electricity_normed="0"
            traveltime="1.23" CO_perVeh="19.403590" CO2_perVeh="2302.976454" HC_perVeh="0.141040" PMx_perVeh="0.031994" NOx_perVeh="0.864555" fuel_perVeh="0.989953" electricity_perVeh="0"/>
        <edge id=":1110673549_0" sampledSeconds="649.37" CO_abs="1246.206321" CO2_abs="130774.638737" HC_abs="8.561492" PMx_abs="1.742266" NOx_abs="48.685797" fuel_abs="56.214730" electricity_abs="0"
            CO_normed="33.138262" CO2_normed="3477.469324" HC_normed="0.227661" PMx_normed="0.046329" NOx_normed="1.294619" fuel_normed="1.494823" electricity_normed="0"
            traveltime="1.29" CO_perVeh="2.475917" CO2_perVeh="259.818246" HC_perVeh="0.017010" PMx_perVeh="0.003461" NOx_perVeh="0.096727" fuel_perVeh="0.111685" electricity_perVeh="0"/>
        <edge id=":1110673549_1" sampledSeconds="3198.17" CO_abs="71974.280607" CO2_abs="9291787.224481" HC_abs="549.800779" PMx_abs="164.138519" NOx_abs="3483.944915" fuel_abs="3994.113400" electricity_abs="0"
            CO_normed="1851.330020" CO2_normed="239004.328803" HC_normed="14.142033" PMx_normed="4.221988" NOx_normed="89.614398" fuel_normed="102.737005" electricity_normed="0"
            traveltime="0.81" CO_perVeh="18.154561" CO2_perVeh="2343.730562" HC_perVeh="0.138680" PMx_perVeh="0.041402" NOx_perVeh="0.878779" fuel_perVeh="1.007462" electricity_perVeh="0"/>
        <edge id=":1110673556_0" sampledSeconds="469.52" CO_abs="57976.645474" CO2_abs="2771727.294295" HC_abs="329.826147" PMx_abs="56.077735" NOx_abs="1195.941918" fuel_abs="1191.447530" electricity_abs="0"
            CO_normed="1143.200387" CO2_normed="54653.726316" HC_normed="6.503608" PMx_normed="1.105757" NOx_normed="23.581931" fuel_normed="23.493310" electricity_normed="0"
            traveltime="2.77" CO_perVeh="341.766751" CO2_perVeh="16339.065895" HC_perVeh="1.944293" PMx_perVeh="0.330573" NOx_perVeh="7.049963" fuel_perVeh="7.023469" electricity_perVeh="0"/>
        <edge id=":1110673556_2" sampledSeconds="178.37" CO_abs="18129.009512" CO2_abs="766035.203461" HC_abs="100.535291" PMx_abs="14.821462" NOx_abs="327.061417" fuel_abs="329.288654" electricity_abs="0"
            CO_normed="373.777056" CO2_normed="15793.823857" HC_normed="2.072799" PMx_normed="0.305583" NOx_normed="6.743228" fuel_normed="6.789149" electricity_normed="0"
            traveltime="3.08" CO_perVeh="313.476480" CO2_perVeh="13245.843298" HC_perVeh="1.738399" PMx_perVeh="0.256284" NOx_perVeh="5.655359" fuel_perVeh="5.693871" electricity_perVeh="0"/>
        <edge id=":1110673556_3" sampledSeconds="350.51" CO_abs="34806.281013" CO2_abs="1208748.237464" HC_abs="186.721654" PMx_abs="23.722195" NOx_abs="519.732138" fuel_abs="519.598357" electricity_abs="0"
            CO_normed="1632.472891" CO2_normed="56692.317387" HC_normed="8.757558" PMx_normed="1.112611" NOx_normed="24.376308" fuel_normed="24.370033" electricity_normed="0"
            traveltime="1.81" CO_perVeh="179.799475" CO2_perVeh="6244.054024" HC_perVeh="0.964552" PMx_perVeh="0.122542" NOx_perVeh="2.684790" fuel_perVeh="2.684099" electricity_perVeh="0"/>
        <edge id=":1110673556_4" sampledSeconds="74.77" CO_abs="8460.178444" CO2_abs="322676.891061" HC_abs="46.103059" PMx_abs="6.409120" NOx_abs="139.033211" fuel_abs="138.706640" electricity_abs="0"
            CO_normed="242.412453" CO2_normed="9245.773852" HC_normed="1.321007" PMx_normed="0.183643" NOx_normed="3.983767" fuel_normed="3.974410" electricity_normed="0"
            traveltime="2.57" CO_perVeh="291.262992" CO2_perVeh="11108.966233" HC_perVeh="1.587214" PMx_perVeh="0.220650" NOx_perVeh="4.786569" fuel_perVeh="4.775326" electricity_perVeh="0"/>
        <edge id=":1110673556_5" sampledSeconds="22.61" CO_abs="2006.739967" CO2_abs="88469.835474" HC_abs="11.204315" PMx_abs="1.646523" NOx_abs="37.386460" fuel_abs="38.029753" electricity_abs="0"
            CO_normed="80.143079" CO2_normed="3533.215649" HC_normed="0.447466" PMx_normed="0.065757" NOx_normed="1.493101" fuel_normed="1.518792" electricity_normed="0"
            traveltime="1.56" CO_perVeh="138.737578" CO2_perVeh="6116.433070" HC_perVeh="0.774619" PMx_perVeh="0.113834" NOx_perVeh="2.584743" fuel_perVeh="2.629217" electricity_perVeh="0"/>
        <edge id=":1110673556_6" sampledSeconds="549.12" CO_abs="65166.211461" CO2_abs="3160230.122542" HC_abs="371.759953" PMx_abs="63.613655" NOx_abs="1361.282305" fuel_abs="1358.448065" electricity_abs="0"
            CO_normed="1317.365590" CO2_normed="63885.537096" HC_normed="7.515302" PMx_normed="1.285980" NOx_normed="27.518962" fuel_normed="27.461666" electricity_normed="0"
            traveltime="2.67" CO_perVeh="316.396365" CO2_perVeh="15343.615956" HC_perVeh="1.804977" PMx_perVeh="0.308858" NOx_perVeh="6.609327" fuel_perVeh="6.595566" electricity_perVeh="0"/>
        <edge id=":1110673561_0" sampledSeconds="101.28" CO_abs="10061.039493" CO2_abs="721289.180461" HC_abs="63.176878" PMx_abs="14.587570" NOx_abs="305.185477" fuel_abs="310.047833" electricity_abs="0"
            CO_normed="255.542693" CO2_normed="18320.192402" HC_normed="1.604644" PMx_normed="0.370513" NOx_normed="7.751477" fuel_normed="7.874977" electricity_normed="0"
            traveltime="1.20" CO_perVeh="118.730031" CO2_perVeh="8511.912413" HC_perVeh="0.745548" PMx_perVeh="0.172147" NOx_perVeh="3.601485" fuel_perVeh="3.658865" electricity_perVeh="0"/>
        <edge id=":1110673561_1" sampledSeconds="5192.44" CO_abs="478952.598669" CO2_abs="33224913.460703" HC_abs="2984.632418" PMx_abs="693.820242" NOx_abs="14200.026522" fuel_abs="14281.786193" electricity_abs="0"
            CO_normed="11860.194305" CO2_normed="822740.977949" HC_normed="73.907774" PMx_normed="17.180913" NOx_normed="351.632028" fuel_normed="353.656624" electricity_normed="0"
            traveltime="1.19" CO_perVeh="110.019208" CO2_perVeh="7632.025949" HC_perVeh="0.685594" PMx_perVeh="0.159376" NOx_perVeh="3.261859" fuel_perVeh="3.280639" electricity_perVeh="0"/>
        <edge id=":1110673562_0" sampledSeconds="301.73" CO_abs="6490.638291" CO2_abs="491606.537568" HC_abs="40.772702" PMx_abs="6.740684" NOx_abs="188.480143" fuel_abs="211.322673" electricity_abs="0"
            CO_normed="10215.042952" CO2_normed="773696.156073" HC_normed="64.168558" PMx_normed="10.608568" NOx_normed="296.632267" fuel_normed="332.582110" electricity_normed="0"
            traveltime="0.03" CO_perVeh="0.581830" CO2_perVeh="44.068315" HC_perVeh="0.003655" PMx_perVeh="0.000604" NOx_perVeh="0.016896" fuel_perVeh="0.018943" electricity_perVeh="0"/>
        <edge id=":1110673564_0" sampledSeconds="27.94" CO_abs="412.739140" CO2_abs="49940.231543" HC_abs="3.028859" PMx_abs="0.683561" NOx_abs="18.666857" fuel_abs="21.467217" electricity_abs="0"
            CO_normed="1753.849036" CO2_normed="212210.615624" HC_normed="12.870506" PMx_normed="2.904650" NOx_normed="79.320920" fuel_normed="91.220468" electricity_normed="0"
            traveltime="7.891276e-03" CO_perVeh="0.116578" CO2_perVeh="14.105610" HC_perVeh="0.000856" PMx_perVeh="0.000193" NOx_perVeh="0.005272" fuel_perVeh="0.006063" electricity_perVeh="0"/>
        <edge id=":1110673588_0" sampledSeconds="62.93" CO_abs="1088.441085" CO2_abs="117445.991880" HC_abs="7.647823" PMx_abs="1.630273" NOx_abs="44.317208" fuel_abs="50.485156" electricity_abs="0"
            CO_normed="1850.041504" CO2_normed="199624.915377" HC_normed="12.999133" PMx_normed="2.771002" NOx_normed="75.326700" fuel_normed="85.810464" electricity_normed="0"
            traveltime="0.02" CO_perVeh="0.351115" CO2_perVeh="37.886372" HC_perVeh="0.002467" PMx_perVeh="0.000526" NOx_perVeh="0.014296" fuel_perVeh="0.016286" electricity_perVeh="0"/>
        <edge id=":1110673601_0" sampledSeconds="29.11" CO_abs="484.342392" CO2_abs="55675.802990" HC_abs="3.474329" PMx_abs="0.771364" NOx_abs="20.918330" fuel_abs="23.932698" electricity_abs="0"
            CO_normed="735.040052" CO2_normed="84493.832947" HC_normed="5.272656" PMx_normed="1.170625" NOx_normed="31.745746" fuel_normed="36.320364" electricity_normed="0"
            traveltime="0.02" CO_perVeh="0.369334" CO2_perVeh="42.455472" HC_perVeh="0.002649" PMx_perVeh="0.000588" NOx_perVeh="0.015951" fuel_perVeh="0.018250" electricity_perVeh="0"/>
        <edge id=":1110673617_0" sampledSeconds="852.08" CO_abs="31609.683465" CO2_abs="3213822.521325" HC_abs="220.828846" PMx_abs="60.559127" NOx_abs="1258.913000" fuel_abs="1381.471877" electricity_abs="0"
            CO_normed="44772.922755" CO2_normed="4552156.545787" HC_normed="312.788734" PMx_normed="85.777800" NOx_normed="1783.162889" fuel_normed="1956.759033" electricity_normed="0"
            traveltime="0.02" CO_perVeh="0.560427" CO2_perVeh="56.979763" HC_perVeh="0.003915" PMx_perVeh="0.001074" NOx_perVeh="0.022320" fuel_perVeh="0.024493" electricity_perVeh="0"/>
        <edge id=":1110673621_0" sampledSeconds="25.98" CO_abs="654.202027" CO2_abs="60413.317169" HC_abs="4.373875" PMx_abs="0.962511" NOx_abs="23.703668" fuel_abs="25.969056" electricity_abs="0"
            CO_normed="1111.958119" CO2_normed="102685.524933" HC_normed="7.434348" PMx_normed="1.635995" NOx_normed="40.289521" fuel_normed="44.140038" electricity_normed="0"
            traveltime="0.02" CO_perVeh="0.495608" CO2_perVeh="45.767665" HC_perVeh="0.003314" PMx_perVeh="0.000729" NOx_perVeh="0.017957" fuel_perVeh="0.019674" electricity_perVeh="0"/>
        <edge id=":1110673630_0" sampledSeconds="286.59" CO_abs="1318.861831" CO2_abs="114121.116957" HC_abs="8.608561" PMx_abs="1.510445" NOx_abs="43.149772" fuel_abs="49.056211" electricity_abs="0"
            CO_normed="39.973101" CO2_normed="3458.872502" HC_normed="0.260915" PMx_normed="0.045780" NOx_normed="1.307817" fuel_normed="1.486834" electricity_normed="0"
            traveltime="1.29" CO_perVeh="5.934375" CO2_perVeh="513.501441" HC_perVeh="0.038735" PMx_perVeh="0.006796" NOx_perVeh="0.194157" fuel_perVeh="0.220734" electricity_perVeh="0"/>
        <edge id=":1110673630_1" sampledSeconds="340.00" CO_abs="1334.132376" CO2_abs="106870.929621" HC_abs="8.512382" PMx_abs="1.439733" NOx_abs="40.715596" fuel_abs="45.939670" electricity_abs="0"
            CO_normed="49.296676" CO2_normed="3948.919681" HC_normed="0.314536" PMx_normed="0.053199" NOx_normed="1.504456" fuel_normed="1.697488" electricity_normed="0"
            traveltime="1.08" CO_perVeh="4.252951" CO2_perVeh="340.683490" HC_perVeh="0.027136" PMx_perVeh="0.004590" NOx_perVeh="0.129793" fuel_perVeh="0.146447" electricity_perVeh="0"/>
        <edge id=":1110673650_0" sampledSeconds="199.73" CO_abs="3224.964040" CO2_abs="395959.062692" HC_abs="23.728667" PMx_abs="5.474933" NOx_abs="148.289303" fuel_abs="170.206107" electricity_abs="0"
            CO_normed="4567.937733" CO2_normed="560848.530725" HC_normed="33.610010" PMx_normed="7.754863" NOx_normed="210.041505" fuel_normed="241.085138" electricity_normed="0"
            traveltime="0.02" CO_perVeh="0.372730" CO2_perVeh="45.763538" HC_perVeh="0.002742" PMx_perVeh="0.000633" NOx_perVeh="0.017139" fuel_perVeh="0.019672" electricity_perVeh="0"/>
        <edge id=":1110673655_0" sampledSeconds="20.61" CO_abs="337.197333" CO2_abs="40243.190128" HC_abs="2.463085" PMx_abs="0.562591" NOx_abs="15.122153" fuel_abs="17.298850" electricity_abs="0"
            CO_normed="477.616619" CO2_normed="57001.685734" HC_normed="3.488789" PMx_normed="0.796871" NOx_normed="21.419479" fuel_normed="24.502620" electricity_normed="0"
            traveltime="0.02" CO_perVeh="0.385222" CO2_perVeh="45.974703" HC_perVeh="0.002814" PMx_perVeh="0.000643" NOx_perVeh="0.017276" fuel_perVeh="0.019763" electricity_perVeh="0"/>
        <edge id=":1110673663_0" sampledSeconds="111.23" CO_abs="1991.484406" CO2_abs="220839.699070" HC_abs="14.146992" PMx_abs="3.166533" NOx_abs="83.779578" fuel_abs="94.929637" electricity_abs="0"
            CO_normed="51.662993" CO2_normed="5729.012936" HC_normed="0.367001" PMx_normed="0.082146" NOx_normed="2.173406" fuel_normed="2.462660" electricity_normed="0"
            traveltime="1.31" CO_perVeh="23.390924" CO2_perVeh="2593.866448" HC_perVeh="0.166163" PMx_perVeh="0.037192" NOx_perVeh="0.984031" fuel_perVeh="1.114993" electricity_perVeh="0"/>
        <edge id=":1110673663_1" sampledSeconds="170.41" CO_abs="2673.304653" CO2_abs="335595.212353" HC_abs="19.830306" PMx_abs="4.464688" NOx_abs="124.536737" fuel_abs="144.258456" electricity_abs="0"
            CO_normed="69.435523" CO2_normed="8716.638012" HC_normed="0.515066" PMx_normed="0.115964" NOx_normed="3.234676" fuel_normed="3.746921" electricity_normed="0"
            traveltime="1.28" CO_perVeh="20.005174" CO2_perVeh="2511.363794" HC_perVeh="0.148396" PMx_perVeh="0.033411" NOx_perVeh="0.931947" fuel_perVeh="1.079531" electricity_perVeh="0"/>