<?xml version="1.0" encoding="UTF-8"?>

<!-- generated on Tue Nov 10 13:42:34 2020 by Eclipse SUMO sumo Version 1.7.0
<configuration xmlns:xsi="http://www.w3.org/2001/XMLSchema-instance" xsi:noNamespaceSchemaLocation="http://sumo.dlr.de/xsd/sumoConfiguration.xsd">

    <input>
        <net-file value="../dataSets/Porto/8AM9AM_Routing_SaoBento/Porto.net.xml"/>
        <route-files value="../results/Porto/8AM9AM_Routing_SaoBento/inputdata/cost_hc-length/solution19/Porto.rou.xml"/>
        <additional-files value="moreOutputInfo.xml"/>
    </input>

    <output>
        <emission-output.precision value="6"/>
        <tripinfo-output value="../results/Porto/8AM9AM_Routing_SaoBento/inputdata/cost_hc-length/solution19/Porto-tripinfo"/>
    </output>

    <processing>
        <collision.action value="warn"/>
        <time-to-teleport value="-1"/>
    </processing>

    <emissions>
        <device.emissions.probability value="1"/>
    </emissions>

    <gui_only>
        <quit-on-end value="true"/>
        <start value="true"/>
    </gui_only>

</configuration>
-->

<meandata xmlns:xsi="http://www.w3.org/2001/XMLSchema-instance" xsi:noNamespaceSchemaLocation="http://sumo.dlr.de/xsd/meandata_file.xsd">
    <interval begin="0.00" end="8382.00" id="emissions-detector">
        <edge id=":1092997347_0" sampledSeconds="598.10" CO_abs="72108.092640" CO2_abs="3059339.277380" HC_abs="400.664395" PMx_abs="61.709021" NOx_abs="1322.513395" fuel_abs="1315.086520" electricity_abs="0"
            CO_normed="70385.982274" CO2_normed="2986275.080412" HC_normed="391.095590" PMx_normed="60.235265" NOx_normed="1290.928673" fuel_normed="1283.679170" electricity_normed="0"
            traveltime="0.07" CO_perVeh="8.253332" CO2_perVeh="350.165170" HC_perVeh="0.045859" PMx_perVeh="0.007063" NOx_perVeh="0.151372" fuel_perVeh="0.150522" electricity_perVeh="0"/>
        <edge id=":1103427051_0" sampledSeconds="19.39" CO_abs="1563.372616" CO2_abs="89467.924870" HC_abs="9.235061" PMx_abs="1.708397" NOx_abs="37.843590" fuel_abs="38.458353" electricity_abs="0"
            CO_normed="2315.364377" CO2_normed="132502.542202" HC_normed="13.677181" PMx_normed="2.530147" NOx_normed="56.046587" fuel_normed="56.957056" electricity_normed="0"
            traveltime="0.03" CO_perVeh="2.431242" CO2_perVeh="139.133946" HC_perVeh="0.014362" PMx_perVeh="0.002657" NOx_perVeh="0.058852" fuel_perVeh="0.059808" electricity_perVeh="0"/>
        <edge id=":1105984386_0" sampledSeconds="10.57" CO_abs="121.876165" CO2_abs="10274.343064" HC_abs="0.783304" PMx_abs="0.106058" NOx_abs="3.701243" fuel_abs="4.416586" electricity_abs="0"
            CO_normed="5.390815" CO2_normed="454.453735" HC_normed="0.034647" PMx_normed="0.004691" NOx_normed="0.163713" fuel_normed="0.195354" electricity_normed="0"
            traveltime="1.01" CO_perVeh="11.691539" CO2_perVeh="985.614218" HC_perVeh="0.075142" PMx_perVeh="0.010174" NOx_perVeh="0.355059" fuel_perVeh="0.423682" electricity_perVeh="0"/>
        <edge id=":1105984390_0" sampledSeconds="10.90" CO_abs="6.687590" CO2_abs="473.326333" HC_abs="0.040706" PMx_abs="0.003758" NOx_abs="0.164211" fuel_abs="0.203469" electricity_abs="0"
            CO_normed="0.228684" CO2_normed="16.185491" HC_normed="0.001392" PMx_normed="0.000129" NOx_normed="0.005615" fuel_normed="0.006958" electricity_normed="0"
            traveltime="1.13" CO_perVeh="0.693209" CO2_perVeh="49.063124" HC_perVeh="0.004219" PMx_perVeh="0.000390" NOx_perVeh="0.017021" fuel_perVeh="0.021091" electricity_perVeh="0"/>
        <edge id=":1105984390_1" sampledSeconds="2397.73" CO_abs="60597.357666" CO2_abs="7294333.911362" HC_abs="450.573787" PMx_abs="131.334057" NOx_abs="2769.946561" fuel_abs="3135.497572" electricity_abs="0"
            CO_normed="1982.183266" CO2_normed="238602.922202" HC_normed="14.738593" PMx_normed="4.296032" NOx_normed="90.606949" fuel_normed="102.564387" electricity_normed="0"
            traveltime="0.65" CO_perVeh="16.361162" CO2_perVeh="1969.455114" HC_perVeh="0.121654" PMx_perVeh="0.035460" NOx_perVeh="0.747880" fuel_perVeh="0.846578" electricity_perVeh="0"/>
        <edge id=":1105984395_0" sampledSeconds="4.22" CO_abs="79.705183" CO2_abs="6364.462129" HC_abs="0.507427" PMx_abs="0.082589" NOx_abs="2.407595" fuel_abs="2.735840" electricity_abs="0"
            CO_normed="37.209478" CO2_normed="2971.178361" HC_normed="0.236887" PMx_normed="0.038556" NOx_normed="1.123959" fuel_normed="1.277197" electricity_normed="0"
            traveltime="0.10" CO_perVeh="1.847538" CO2_perVeh="147.525955" HC_perVeh="0.011762" PMx_perVeh="0.001914" NOx_perVeh="0.055807" fuel_perVeh="0.063416" electricity_perVeh="0"/>
        <edge id=":1105984398_0" sampledSeconds="10.72" CO_abs="507.968655" CO2_abs="33668.367599" HC_abs="3.105971" PMx_abs="0.605044" NOx_abs="13.903890" fuel_abs="14.472560" electricity_abs="0"
            CO_normed="18.045356" CO2_normed="1196.053493" HC_normed="0.110338" PMx_normed="0.021494" NOx_normed="0.493929" fuel_normed="0.514131" electricity_normed="0"
            traveltime="1.20" CO_perVeh="56.955768" CO2_perVeh="3775.051274" HC_perVeh="0.348256" PMx_perVeh="0.067840" NOx_perVeh="1.558968" fuel_perVeh="1.622730" electricity_perVeh="0"/>
        <edge id=":1105984398_1" sampledSeconds="646.79" CO_abs="12195.782835" CO2_abs="1396533.038279" HC_abs="87.614725" PMx_abs="20.158454" NOx_abs="529.668068" fuel_abs="600.309970" electricity_abs="0"
            CO_normed="419.374566" CO2_normed="48022.373402" HC_normed="3.012794" PMx_normed="0.693186" NOx_normed="18.213617" fuel_normed="20.642769" electricity_normed="0"
            traveltime="0.95" CO_perVeh="17.982776" CO2_perVeh="2059.198708" HC_perVeh="0.129189" PMx_perVeh="0.029724" NOx_perVeh="0.781000" fuel_perVeh="0.885162" electricity_perVeh="0"/>
        <edge id=":1106006327_0" sampledSeconds="672.98" CO_abs="90665.827225" CO2_abs="2936711.044646" HC_abs="481.952350" PMx_abs="61.227379" NOx_abs="1285.284037" fuel_abs="1262.388597" electricity_abs="0"
            CO_normed="4395.059417" CO2_normed="142358.151116" HC_normed="23.362818" PMx_normed="2.968020" NOx_normed="62.304618" fuel_normed="61.194753" electricity_normed="0"
            traveltime="2.10" CO_perVeh="282.405362" CO2_perVeh="9147.249544" HC_perVeh="1.501182" PMx_perVeh="0.190711" NOx_perVeh="4.003395" fuel_perVeh="3.932080" electricity_perVeh="0"/>
        <edge id=":1106006327_1" sampledSeconds="682.26" CO_abs="92375.371819" CO2_abs="3089337.935701" HC_abs="493.433492" PMx_abs="64.456999" NOx_abs="1352.115193" fuel_abs="1327.994906" electricity_abs="0"
            CO_normed="3904.966710" CO2_normed="130595.001199" HC_normed="20.858821" PMx_normed="2.724779" NOx_normed="57.157711" fuel_normed="56.138079" electricity_normed="0"
            traveltime="2.29" CO_perVeh="310.081764" CO2_perVeh="10370.159686" HC_perVeh="1.656337" PMx_perVeh="0.216367" NOx_perVeh="4.538723" fuel_perVeh="4.457757" electricity_perVeh="0"/>
        <edge id=":1106006327_2" sampledSeconds="0.00" CO_abs="0" CO2_abs="0" HC_abs="0" PMx_abs="0" NOx_abs="0" fuel_abs="0" electricity_abs="0"
            CO_normed="0" CO2_normed="0" HC_normed="0" PMx_normed="0" NOx_normed="0" fuel_normed="0" electricity_normed="0"/>
        <edge id=":1106006327_3" sampledSeconds="0.00" CO_abs="0" CO2_abs="0" HC_abs="0" PMx_abs="0" NOx_abs="0" fuel_abs="0" electricity_abs="0"
            CO_normed="0" CO2_normed="0" HC_normed="0" PMx_normed="0" NOx_normed="0" fuel_normed="0" electricity_normed="0"/>
        <edge id=":1107381198_0" sampledSeconds="0.00" CO_abs="0" CO2_abs="0" HC_abs="0" PMx_abs="0" NOx_abs="0" fuel_abs="0" electricity_abs="0"
            CO_normed="0" CO2_normed="0" HC_normed="0" PMx_normed="0" NOx_normed="0" fuel_normed="0" electricity_normed="0"/>
        <edge id=":1107381198_1" sampledSeconds="103.32" CO_abs="5109.659097" CO2_abs="203610.271133" HC_abs="27.976171" PMx_abs="3.631879" NOx_abs="85.125308" fuel_abs="87.524814" electricity_abs="0"
            CO_normed="239.319141" CO2_normed="9536.416068" HC_normed="1.310309" PMx_normed="0.170105" NOx_normed="3.986981" fuel_normed="4.099366" electricity_normed="0"
            traveltime="1.55" CO_perVeh="76.501394" CO2_perVeh="3048.436171" HC_perVeh="0.418857" PMx_perVeh="0.054376" NOx_perVeh="1.274489" fuel_perVeh="1.310414" electricity_perVeh="0"/>
        <edge id=":1110338277_0" sampledSeconds="161.21" CO_abs="2816.676533" CO2_abs="336429.202093" HC_abs="20.501418" PMx_abs="4.619781" NOx_abs="126.047751" fuel_abs="144.616818" electricity_abs="0"
            CO_normed="4320.497801" CO2_normed="516048.474425" HC_normed="31.447108" PMx_normed="7.086278" NOx_normed="193.344542" fuel_normed="221.827617" electricity_normed="0"
            traveltime="0.02" CO_perVeh="0.381950" CO2_perVeh="45.620890" HC_perVeh="0.002780" PMx_perVeh="0.000626" NOx_perVeh="0.017092" fuel_perVeh="0.019611" electricity_perVeh="0"/>
        <edge id=":1110338293_0" sampledSeconds="6470.37" CO_abs="609304.839346" CO2_abs="10673428.458769" HC_abs="3024.081335" PMx_abs="254.625208" NOx_abs="4824.698542" fuel_abs="4588.326790" electricity_abs="0"
            CO_normed="872304.709157" CO2_normed="15280498.867242" HC_normed="4329.393465" PMx_normed="364.531436" NOx_normed="6907.227691" fuel_normed="6568.828619" electricity_normed="0"
            traveltime="0.43" CO_perVeh="40.730887" CO2_perVeh="713.498702" HC_perVeh="0.202154" PMx_perVeh="0.017021" NOx_perVeh="0.322522" fuel_perVeh="0.306721" electricity_perVeh="0"/>
        <edge id=":1110338295_0" sampledSeconds="0.00" CO_abs="0" CO2_abs="0" HC_abs="0" PMx_abs="0" NOx_abs="0" fuel_abs="0" electricity_abs="0"
            CO_normed="0" CO2_normed="0" HC_normed="0" PMx_normed="0" NOx_normed="0" fuel_normed="0" electricity_normed="0"/>
        <edge id=":1110673403_0" sampledSeconds="200.48" CO_abs="3321.529219" CO2_abs="417794.740548" HC_abs="24.721379" PMx_abs="5.707083" NOx_abs="155.932786" fuel_abs="179.592402" electricity_abs="0"
            CO_normed="4755.231523" CO2_normed="598131.339367" HC_normed="35.392096" PMx_normed="8.170484" NOx_normed="223.239493" fuel_normed="257.111528" electricity_normed="0"
            traveltime="0.02" CO_perVeh="0.383891" CO2_perVeh="48.287259" HC_perVeh="0.002857" PMx_perVeh="0.000660" NOx_perVeh="0.018022" fuel_perVeh="0.020757" electricity_perVeh="0"/>
        <edge id=":1110673412_0" sampledSeconds="950.34" CO_abs="169479.916482" CO2_abs="11563104.257471" HC_abs="1054.708078" PMx_abs="254.185372" NOx_abs="4969.495311" fuel_abs="4970.408917" electricity_abs="0"
            CO_normed="251000.789596" CO2_normed="17125027.903347" HC_normed="1562.029094" PMx_normed="376.450086" NOx_normed="7359.852853" fuel_normed="7361.205910" electricity_normed="0"
            traveltime="0.02" CO_perVeh="2.766003" CO2_perVeh="188.716075" HC_perVeh="0.017213" PMx_perVeh="0.004148" NOx_perVeh="0.081105" fuel_perVeh="0.081120" electricity_perVeh="0"/>
        <edge id=":1110673414_0" sampledSeconds="0.00" CO_abs="0" CO2_abs="0" HC_abs="0" PMx_abs="0" NOx_abs="0" fuel_abs="0" electricity_abs="0"
            CO_normed="0" CO2_normed="0" HC_normed="0" PMx_normed="0" NOx_normed="0" fuel_normed="0" electricity_normed="0"/>
        <edge id=":1110673414_1" sampledSeconds="241.29" CO_abs="16509.995809" CO2_abs="633904.801872" HC_abs="89.904388" PMx_abs="11.739354" NOx_abs="267.850214" fuel_abs="272.492979" electricity_abs="0"
            CO_normed="785.261051" CO2_normed="30150.265133" HC_normed="4.276101" PMx_normed="0.558356" NOx_normed="12.739697" fuel_normed="12.960520" electricity_normed="0"
            traveltime="1.57" CO_perVeh="107.118411" CO2_perVeh="4112.834184" HC_perVeh="0.583308" PMx_perVeh="0.076166" NOx_perVeh="1.737837" fuel_perVeh="1.767960" electricity_perVeh="0"/>
        <edge id=":1110673417_0" sampledSeconds="29.21" CO_abs="425.455848" CO2_abs="48360.508309" HC_abs="3.049567" PMx_abs="0.681652" NOx_abs="18.252599" fuel_abs="20.788146" electricity_abs="0"
            CO_normed="652.606373" CO2_normed="74180.143637" HC_normed="4.677729" PMx_normed="1.045585" NOx_normed="27.997647" fuel_normed="31.886920" electricity_normed="0"
            traveltime="0.02" CO_perVeh="0.324431" CO2_perVeh="36.877209" HC_perVeh="0.002325" PMx_perVeh="0.000520" NOx_perVeh="0.013918" fuel_perVeh="0.015852" electricity_perVeh="0"/>
        <edge id=":1110673446_0" sampledSeconds="1326.83" CO_abs="15010.349347" CO2_abs="1219520.005538" HC_abs="97.226821" PMx_abs="22.329643" NOx_abs="498.526374" fuel_abs="524.215593" electricity_abs="0"
            CO_normed="21489.404934" CO2_normed="1745912.677935" HC_normed="139.193731" PMx_normed="31.967992" NOx_normed="713.709912" fuel_normed="750.487606" electricity_normed="0"
            traveltime="0.02" CO_perVeh="0.257558" CO2_perVeh="20.925332" HC_perVeh="0.001668" PMx_perVeh="0.000383" NOx_perVeh="0.008554" fuel_perVeh="0.008995" electricity_perVeh="0"/>
        <edge id=":1110673451_0" sampledSeconds="36.76" CO_abs="413.278275" CO2_abs="29288.550903" HC_abs="2.552998" PMx_abs="0.422467" NOx_abs="11.389928" fuel_abs="12.590006" electricity_abs="0"
            CO_normed="657.405990" CO2_normed="46589.598191" HC_normed="4.061080" PMx_normed="0.672023" NOx_normed="18.118076" fuel_normed="20.027051" electricity_normed="0"
            traveltime="0.03" CO_perVeh="0.304495" CO2_perVeh="21.579187" HC_perVeh="0.001881" PMx_perVeh="0.000311" NOx_perVeh="0.008392" fuel_perVeh="0.009276" electricity_perVeh="0"/>
        <edge id=":1110673464_0" sampledSeconds="1036.96" CO_abs="4529.014517" CO2_abs="315688.042530" HC_abs="27.865173" PMx_abs="4.619139" NOx_abs="123.318016" fuel_abs="135.701925" electricity_abs="0"
            CO_normed="137.760230" CO2_normed="9602.366540" HC_normed="0.847582" PMx_normed="0.140502" NOx_normed="3.750997" fuel_normed="4.127681" electricity_normed="0"
            traveltime="1.23" CO_perVeh="5.370777" CO2_perVeh="374.361837" HC_perVeh="0.033044" PMx_perVeh="0.005478" NOx_perVeh="0.146238" fuel_perVeh="0.160923" electricity_perVeh="0"/>
        <edge id=":1110673464_1" sampledSeconds="2599.48" CO_abs="62362.781363" CO2_abs="7651435.566650" HC_abs="465.981282" PMx_abs="136.510360" NOx_abs="2896.889202" fuel_abs="3288.999856" electricity_abs="0"
            CO_normed="1858.730134" CO2_normed="228051.949329" HC_normed="13.888628" PMx_normed="4.068708" NOx_normed="86.342128" fuel_normed="98.029033" electricity_normed="0"
            traveltime="0.72" CO_perVeh="17.196880" CO2_perVeh="2109.925481" HC_perVeh="0.128497" PMx_perVeh="0.037643" NOx_perVeh="0.798833" fuel_perVeh="0.906960" electricity_perVeh="0"/>
        <edge id=":1110673479_0" sampledSeconds="133.96" CO_abs="6368.092913" CO2_abs="445015.561976" HC_abs="39.446502" PMx_abs="7.738036" NOx_abs="181.565297" fuel_abs="191.292893" electricity_abs="0"
            CO_normed="9116.811615" CO2_normed="637101.735112" HC_normed="56.473160" PMx_normed="11.078075" NOx_normed="259.936001" fuel_normed="273.862410" electricity_normed="0"
            traveltime="0.03" CO_perVeh="1.346277" CO2_perVeh="94.080603" HC_perVeh="0.008339" PMx_perVeh="0.001636" NOx_perVeh="0.038385" fuel_perVeh="0.040441" electricity_perVeh="0"/>
        <edge id=":1110673511_0" sampledSeconds="63.31" CO_abs="1244.528561" CO2_abs="128169.546425" HC_abs="8.632639" PMx_abs="1.895666" NOx_abs="49.163785" fuel_abs="55.094634" electricity_abs="0"
            CO_normed="1781.715906" CO2_normed="183492.550358" HC_normed="12.358824" PMx_normed="2.713910" NOx_normed="70.384803" fuel_normed="78.875639" electricity_normed="0"
            traveltime="0.02" CO_perVeh="0.476983" CO2_perVeh="49.122790" HC_perVeh="0.003309" PMx_perVeh="0.000727" NOx_perVeh="0.018843" fuel_perVeh="0.021116" electricity_perVeh="0"/>
        <edge id=":1110673517_0" sampledSeconds="183.01" CO_abs="8051.776486" CO2_abs="573992.827644" HC_abs="50.117590" PMx_abs="9.816782" NOx_abs="232.956319" fuel_abs="246.734757" electricity_abs="0"
            CO_normed="11527.239064" CO2_normed="821750.648023" HC_normed="71.750307" PMx_normed="14.054089" NOx_normed="333.509404" fuel_normed="353.235157" electricity_normed="0"
            traveltime="0.03" CO_perVeh="1.232792" CO2_perVeh="87.882948" HC_perVeh="0.007673" PMx_perVeh="0.001503" NOx_perVeh="0.035667" fuel_perVeh="0.037777" electricity_perVeh="0"/>
        <edge id=":1110673534_0" sampledSeconds="736.29" CO_abs="5361.817240" CO2_abs="449437.025426" HC_abs="34.683418" PMx_abs="6.079331" NOx_abs="171.009031" fuel_abs="193.195345" electricity_abs="0"
            CO_normed="148.763331" CO2_normed="12469.606117" HC_normed="0.962290" PMx_normed="0.168671" NOx_normed="4.744636" fuel_normed="5.360194" electricity_normed="0"
            traveltime="1.45" CO_perVeh="10.574391" CO2_perVeh="886.364177" HC_perVeh="0.068401" PMx_perVeh="0.011989" NOx_perVeh="0.337258" fuel_perVeh="0.381013" electricity_perVeh="0"/>
        <edge id=":1110673534_1" sampledSeconds="199.71" CO_abs="2899.815179" CO2_abs="398874.168487" HC_abs="22.311209" PMx_abs="5.149951" NOx_abs="146.445396" fuel_abs="171.459517" electricity_abs="0"
            CO_normed="78.231580" CO2_normed="10760.877630" HC_normed="0.601915" PMx_normed="0.138936" NOx_normed="3.950822" fuel_normed="4.625656" electricity_normed="0"
            traveltime="1.22" CO_perVeh="17.725658" CO2_perVeh="2438.192289" HC_perVeh="0.136381" PMx_perVeh="0.031480" NOx_perVeh="0.895175" fuel_perVeh="1.048078" electricity_perVeh="0"/>
        <edge id=":1110673549_0" sampledSeconds="649.88" CO_abs="1596.033714" CO2_abs="159658.954561" HC_abs="10.948430" PMx_abs="2.371585" NOx_abs="61.027461" fuel_abs="68.630640" electricity_abs="0"
            CO_normed="42.896329" CO2_normed="4291.126826" HC_normed="0.294259" PMx_normed="0.063741" NOx_normed="1.640225" fuel_normed="1.844574" electricity_normed="0"
            traveltime="1.29" CO_perVeh="3.170938" CO2_perVeh="317.204273" HC_perVeh="0.021752" PMx_perVeh="0.004712" NOx_perVeh="0.121247" fuel_perVeh="0.136353" electricity_perVeh="0"/>
        <edge id=":1110673549_1" sampledSeconds="3196.66" CO_abs="70637.193037" CO2_abs="9198045.421266" HC_abs="541.489718" PMx_abs="162.198262" NOx_abs="3443.299291" fuel_abs="3953.818388" electricity_abs="0"
            CO_normed="1836.446303" CO2_normed="239133.461913" HC_normed="14.077807" PMx_normed="4.216878" NOx_normed="89.519897" fuel_normed="102.792521" electricity_normed="0"
            traveltime="0.81" CO_perVeh="17.819415" CO2_perVeh="2320.360983" HC_perVeh="0.136600" PMx_perVeh="0.040917" NOx_perVeh="0.868630" fuel_perVeh="0.997417" electricity_perVeh="0"/>
        <edge id=":1110673556_0" sampledSeconds="466.23" CO_abs="57568.800176" CO2_abs="2772088.688094" HC_abs="327.969130" PMx_abs="55.960454" NOx_abs="1195.103998" fuel_abs="1191.602732" electricity_abs="0"
            CO_normed="1147.346904" CO2_normed="55247.762038" HC_normed="6.536429" PMx_normed="1.115293" NOx_normed="23.818438" fuel_normed="23.748657" electricity_normed="0"
            traveltime="2.75" CO_perVeh="339.362542" CO2_perVeh="16341.196277" HC_perVeh="1.933346" PMx_perVeh="0.329881" NOx_perVeh="7.045023" fuel_perVeh="7.024384" electricity_perVeh="0"/>
        <edge id=":1110673556_2" sampledSeconds="176.70" CO_abs="17643.197126" CO2_abs="748971.032963" HC_abs="97.909694" PMx_abs="14.407554" NOx_abs="319.179809" fuel_abs="321.953496" electricity_abs="0"
            CO_normed="367.666566" CO2_normed="15607.806559" HC_normed="2.040340" PMx_normed="0.300239" NOx_normed="6.651388" fuel_normed="6.709189" electricity_normed="0"
            traveltime="3.06" CO_perVeh="305.076090" CO2_perVeh="12950.779406" HC_perVeh="1.692999" PMx_perVeh="0.249127" NOx_perVeh="5.519075" fuel_perVeh="5.567036" electricity_perVeh="0"/>
        <edge id=":1110673556_3" sampledSeconds="244.74" CO_abs="25802.755268" CO2_abs="884766.192593" HC_abs="138.175164" PMx_abs="17.506929" NOx_abs="381.332983" fuel_abs="380.329932" electricity_abs="0"
            CO_normed="1223.186643" CO2_normed="41942.582383" HC_normed="6.550231" PMx_normed="0.829921" NOx_normed="18.077194" fuel_normed="18.029644" electricity_normed="0"
            traveltime="1.85" CO_perVeh="194.572451" CO2_perVeh="6671.811785" HC_perVeh="1.041946" PMx_perVeh="0.132016" NOx_perVeh="2.875541" fuel_perVeh="2.867978" electricity_perVeh="0"/>
        <edge id=":1110673556_4" sampledSeconds="40.42" CO_abs="4949.648041" CO2_abs="193989.633227" HC_abs="27.112356" PMx_abs="3.920241" NOx_abs="84.005092" fuel_abs="83.388618" electricity_abs="0"
            CO_normed="143.346803" CO2_normed="5618.135574" HC_normed="0.785201" PMx_normed="0.113534" NOx_normed="2.432872" fuel_normed="2.415019" electricity_normed="0"
            traveltime="2.55" CO_perVeh="312.407561" CO2_perVeh="12244.068185" HC_perVeh="1.711254" PMx_perVeh="0.247434" NOx_perVeh="5.302160" fuel_perVeh="5.263250" electricity_perVeh="0"/>
        <edge id=":1110673556_5" sampledSeconds="23.58" CO_abs="1294.446997" CO2_abs="55973.727020" HC_abs="7.204483" PMx_abs="1.059244" NOx_abs="23.762298" fuel_abs="24.060931" electricity_abs="0"
            CO_normed="52.251347" CO2_normed="2259.422461" HC_normed="0.290814" PMx_normed="0.042757" NOx_normed="0.959183" fuel_normed="0.971238" electricity_normed="0"
            traveltime="1.63" CO_perVeh="89.492632" CO2_perVeh="3869.788535" HC_perVeh="0.498088" PMx_perVeh="0.073232" NOx_perVeh="1.642826" fuel_perVeh="1.663472" electricity_perVeh="0"/>
        <edge id=":1110673556_6" sampledSeconds="217.37" CO_abs="26747.879972" CO2_abs="1333414.123046" HC_abs="153.507024" PMx_abs="26.958288" NOx_abs="574.535010" fuel_abs="573.177070" electricity_abs="0"
            CO_normed="546.526844" CO2_normed="27245.023277" HC_normed="3.136537" PMx_normed="0.550826" NOx_normed="11.739203" fuel_normed="11.711457" electricity_normed="0"
            traveltime="2.53" CO_perVeh="311.680491" CO2_perVeh="15537.648909" HC_perVeh="1.788745" PMx_perVeh="0.314132" NOx_perVeh="6.694787" fuel_perVeh="6.678963" electricity_perVeh="0"/>
        <edge id=":1110673561_0" sampledSeconds="102.99" CO_abs="10126.580186" CO2_abs="710900.882501" HC_abs="63.232404" PMx_abs="14.526464" NOx_abs="302.006662" fuel_abs="305.582323" electricity_abs="0"
            CO_normed="259.969087" CO2_normed="18250.213805" HC_normed="1.623299" PMx_normed="0.372923" NOx_normed="7.753101" fuel_normed="7.844895" electricity_normed="0"
            traveltime="1.22" CO_perVeh="119.503475" CO2_perVeh="8389.320414" HC_perVeh="0.746204" PMx_perVeh="0.171426" NOx_perVeh="3.563972" fuel_perVeh="3.606168" electricity_perVeh="0"/>
        <edge id=":1110673561_1" sampledSeconds="5248.82" CO_abs="487830.914989" CO2_abs="33858905.128961" HC_abs="3040.301653" PMx_abs="706.899402" NOx_abs="14469.297460" fuel_abs="14554.308676" electricity_abs="0"
            CO_normed="12209.753042" CO2_normed="847442.950402" HC_normed="76.094670" PMx_normed="17.692743" NOx_normed="362.147095" fuel_normed="364.274812" electricity_normed="0"
            traveltime="1.19" CO_perVeh="110.753482" CO2_perVeh="7687.072556" HC_perVeh="0.690247" PMx_perVeh="0.160489" NOx_perVeh="3.285001" fuel_perVeh="3.304301" electricity_perVeh="0"/>
        <edge id=":1110673562_0" sampledSeconds="302.07" CO_abs="6525.791719" CO2_abs="502510.540368" HC_abs="41.150981" PMx_abs="6.734217" NOx_abs="191.515253" fuel_abs="216.010041" electricity_abs="0"
            CO_normed="10380.643791" CO2_normed="799348.668365" HC_normed="65.459287" PMx_normed="10.712188" NOx_normed="304.645276" fuel_normed="343.609387" electricity_normed="0"
            traveltime="0.03" CO_perVeh="0.584981" CO2_perVeh="45.045766" HC_perVeh="0.003689" PMx_perVeh="0.000604" NOx_perVeh="0.017168" fuel_perVeh="0.019363" electricity_perVeh="0"/>
        <edge id=":1110673564_0" sampledSeconds="27.99" CO_abs="544.284498" CO2_abs="56460.702152" HC_abs="3.769369" PMx_abs="0.809482" NOx_abs="21.499073" fuel_abs="24.270086" electricity_abs="0"
            CO_normed="2337.657114" CO2_normed="242494.067942" HC_normed="16.189132" PMx_normed="3.476661" NOx_normed="92.336748" fuel_normed="104.238023" electricity_normed="0"
            traveltime="7.905037e-03" CO_perVeh="0.153731" CO2_perVeh="15.947098" HC_perVeh="0.001065" PMx_perVeh="0.000229" NOx_perVeh="0.006072" fuel_perVeh="0.006855" electricity_perVeh="0"/>
        <edge id=":1110673588_0" sampledSeconds="63.09" CO_abs="1016.745485" CO2_abs="117271.162575" HC_abs="7.320948" PMx_abs="1.578037" NOx_abs="43.850061" fuel_abs="50.410031" electricity_abs="0"
            CO_normed="1746.735265" CO2_normed="201467.995834" HC_normed="12.577148" PMx_normed="2.711016" NOx_normed="75.332961" fuel_normed="86.602773" electricity_normed="0"
            traveltime="0.02" CO_perVeh="0.327982" CO2_perVeh="37.829407" HC_perVeh="0.002362" PMx_perVeh="0.000509" NOx_perVeh="0.014145" fuel_perVeh="0.016261" electricity_perVeh="0"/>
        <edge id=":1110673601_0" sampledSeconds="29.22" CO_abs="420.128934" CO2_abs="49728.810653" HC_abs="3.047944" PMx_abs="0.679900" NOx_abs="18.607755" fuel_abs="21.376341" electricity_abs="0"
            CO_normed="644.435423" CO2_normed="76278.981470" HC_normed="4.675238" PMx_normed="1.042898" NOx_normed="28.542419" fuel_normed="32.789151" electricity_normed="0"
            traveltime="0.02" CO_perVeh="0.320379" CO2_perVeh="37.921796" HC_perVeh="0.002324" PMx_perVeh="0.000518" NOx_perVeh="0.014190" fuel_perVeh="0.016301" electricity_perVeh="0"/>
        <edge id=":1110673617_0" sampledSeconds="853.13" CO_abs="32550.677173" CO2_abs="3269643.481481" HC_abs="226.738269" PMx_abs="61.930413" NOx_abs="1284.662204" fuel_abs="1405.466404" electricity_abs="0"
            CO_normed="46600.826304" CO2_normed="4680949.866115" HC_normed="324.607400" PMx_normed="88.662008" NOx_normed="1839.172804" fuel_normed="2012.120836" electricity_normed="0"
            traveltime="0.02" CO_perVeh="0.576248" CO2_perVeh="57.882876" HC_perVeh="0.004014" PMx_perVeh="0.001096" NOx_perVeh="0.022743" fuel_perVeh="0.024881" electricity_perVeh="0"/>
        <edge id=":1110673621_0" sampledSeconds="26.25" CO_abs="580.771517" CO2_abs="61677.357474" HC_abs="4.068702" PMx_abs="0.909427" NOx_abs="23.611754" fuel_abs="26.512463" electricity_abs="0"
            CO_normed="997.746343" CO2_normed="105959.669247" HC_normed="6.989896" PMx_normed="1.562366" NOx_normed="40.564217" fuel_normed="45.547538" electricity_normed="0"
            traveltime="0.02" CO_perVeh="0.439978" CO2_perVeh="46.725271" HC_perVeh="0.003082" PMx_perVeh="0.000689" NOx_perVeh="0.017888" fuel_perVeh="0.020085" electricity_perVeh="0"/>
        <edge id=":1110673630_0" sampledSeconds="285.87" CO_abs="1776.290027" CO2_abs="156983.836128" HC_abs="11.672373" PMx_abs="2.107721" NOx_abs="59.499130" fuel_abs="67.481147" electricity_abs="0"
            CO_normed="54.415260" CO2_normed="4809.077414" HC_normed="0.357574" PMx_normed="0.064568" NOx_normed="1.822709" fuel_normed="2.067232" electricity_normed="0"
            traveltime="1.29" CO_perVeh="7.992657" CO2_perVeh="706.369949" HC_perVeh="0.052521" PMx_perVeh="0.009484" NOx_perVeh="0.267724" fuel_perVeh="0.303641" electricity_perVeh="0"/>
        <edge id=":1110673630_1" sampledSeconds="337.08" CO_abs="1368.750605" CO2_abs="110247.625563" HC_abs="8.742508" PMx_abs="1.462704" NOx_abs="41.849739" fuel_abs="47.391209" electricity_abs="0"
            CO_normed="51.118880" CO2_normed="4117.430229" HC_normed="0.326507" PMx_normed="0.054628" NOx_normed="1.562967" fuel_normed="1.769925" electricity_normed="0"
            traveltime="1.07" CO_perVeh="4.363308" CO2_perVeh="351.447732" HC_perVeh="0.027869" PMx_perVeh="0.004663" NOx_perVeh="0.133409" fuel_perVeh="0.151074" electricity_perVeh="0"/>
        <edge id=":1110673650_0" sampledSeconds="200.41" CO_abs="2697.771202" CO2_abs="340546.932697" HC_abs="20.075007" PMx_abs="4.602656" NOx_abs="126.788572" fuel_abs="146.386878" electricity_abs="0"
            CO_normed="3862.235078" CO2_normed="487540.347455" HC_normed="28.740168" PMx_normed="6.589343" NOx_normed="181.515493" fuel_normed="209.573197" electricity_normed="0"
            traveltime="0.02" CO_perVeh="0.311797" CO2_perVeh="39.358971" HC_perVeh="0.002320" PMx_perVeh="0.000532" NOx_perVeh="0.014654" fuel_perVeh="0.016919" electricity_perVeh="0"/>
        <edge id=":1110673655_0" sampledSeconds="20.87" CO_abs="387.833683" CO2_abs="45222.833455" HC_abs="2.810691" PMx_abs="0.624159" NOx_abs="16.994164" fuel_abs="19.439404" electricity_abs="0"
            CO_normed="555.237915" CO2_normed="64742.782326" HC_normed="4.023896" PMx_normed="0.893570" NOx_normed="24.329512" fuel_normed="27.830213" electricity_normed="0"
            traveltime="0.02" CO_perVeh="0.443070" CO2_perVeh="51.663557" HC_perVeh="0.003211" PMx_perVeh="0.000713" NOx_perVeh="0.019415" fuel_perVeh="0.022208" electricity_perVeh="0"/>
        <edge id=":1110673663_0" sampledSeconds="110.43" CO_abs="1911.186537" CO2_abs="223442.606953" HC_abs="13.833335" PMx_abs="3.065190" NOx_abs="83.763426" fuel_abs="96.048654" electricity_abs="0"
            CO_normed="50.112264" CO2_normed="5858.776577" HC_normed="0.362717" PMx_normed="0.080371" NOx_normed="2.196319" fuel_normed="2.518444" electricity_normed="0"
            traveltime="1.30" CO_perVeh="22.447787" CO2_perVeh="2624.438829" HC_perVeh="0.162479" PMx_perVeh="0.036002" NOx_perVeh="0.983841" fuel_perVeh="1.128137" electricity_perVeh="0"/>
        <edge id=":1110673663_1" sampledSeconds="169.81" CO_abs="2615.928901" CO2_abs="318601.023819" HC_abs="19.177810" PMx_abs="4.308446" NOx_abs="118.823476" fuel_abs="136.953302" electricity_abs="0"
            CO_normed="68.674812" CO2_normed="8364.090283" HC_normed="0.503466" PMx_normed="0.113108" NOx_normed="3.119420" fuel_normed="3.595374" electricity_normed="0"
            traveltime="1.27" CO_perVeh="19.628282" CO2_perVeh="2390.581340" HC_perVeh="0.143898" PMx_perVeh="0.032328" NOx_perVeh="0.891576" fuel_perVeh="1.027611" electricity_perVeh="0"/>