<?xml version="1.0" encoding="UTF-8"?>

<!-- generated on Tue Nov 10 15:27:24 2020 by Eclipse SUMO sumo Version 1.7.0
<configuration xmlns:xsi="http://www.w3.org/2001/XMLSchema-instance" xsi:noNamespaceSchemaLocation="http://sumo.dlr.de/xsd/sumoConfiguration.xsd">

    <input>
        <net-file value="../dataSets/Porto/8AM9AM_Routing_SaoBento/Porto.net.xml"/>
        <route-files value="../results/Porto/8AM9AM_Routing_SaoBento/cost_nox-length/solution10/Porto.rou.xml"/>
        <additional-files value="moreOutputInfo.xml"/>
    </input>

    <output>
        <emission-output.precision value="6"/>
        <tripinfo-output value="../results/Porto/8AM9AM_Routing_SaoBento/cost_nox-length/solution10/Porto-tripinfo"/>
    </output>

    <processing>
        <collision.action value="warn"/>
        <time-to-teleport value="-1"/>
    </processing>

    <emissions>
        <device.emissions.probability value="1"/>
    </emissions>

    <gui_only>
        <quit-on-end value="true"/>
        <start value="true"/>
    </gui_only>

</configuration>
-->

<meandata xmlns:xsi="http://www.w3.org/2001/XMLSchema-instance" xsi:noNamespaceSchemaLocation="http://sumo.dlr.de/xsd/meandata_file.xsd">
    <interval begin="0.00" end="8561.00" id="emissions-detector">
        <edge id=":1092997347_0" sampledSeconds="593.78" CO_abs="71674.815532" CO2_abs="3081215.539280" HC_abs="399.304437" PMx_abs="62.485053" NOx_abs="1333.986931" fuel_abs="1324.488934" electricity_abs="0"
            CO_normed="68500.211295" CO2_normed="2944743.058216" HC_normed="381.618538" PMx_normed="59.717480" NOx_normed="1274.902293" fuel_normed="1265.824979" electricity_normed="0"
            traveltime="0.07" CO_perVeh="8.192159" CO2_perVeh="352.171239" HC_perVeh="0.045639" PMx_perVeh="0.007142" NOx_perVeh="0.152470" fuel_perVeh="0.151384" electricity_perVeh="0"/>
        <edge id=":1103427051_0" sampledSeconds="19.20" CO_abs="1666.927594" CO2_abs="93586.949380" HC_abs="9.815664" PMx_abs="1.855250" NOx_abs="40.063397" fuel_abs="40.228861" electricity_abs="0"
            CO_normed="2417.111818" CO2_normed="135704.827332" HC_normed="14.233106" PMx_normed="2.690187" NOx_normed="58.093531" fuel_normed="58.333461" electricity_normed="0"
            traveltime="0.03" CO_perVeh="2.592283" CO2_perVeh="145.539550" HC_perVeh="0.015265" PMx_perVeh="0.002885" NOx_perVeh="0.062304" fuel_perVeh="0.062561" electricity_perVeh="0"/>
        <edge id=":1105984386_0" sampledSeconds="10.60" CO_abs="158.802133" CO2_abs="12722.514413" HC_abs="1.009709" PMx_abs="0.153205" NOx_abs="4.732842" fuel_abs="5.468943" electricity_abs="0"
            CO_normed="6.877255" CO2_normed="550.974787" HC_normed="0.043728" PMx_normed="0.006635" NOx_normed="0.204966" fuel_normed="0.236844" electricity_normed="0"
            traveltime="1.02" CO_perVeh="15.233834" CO2_perVeh="1220.466459" HC_perVeh="0.096861" PMx_perVeh="0.014697" NOx_perVeh="0.454020" fuel_perVeh="0.524634" electricity_perVeh="0"/>
        <edge id=":1105984390_0" sampledSeconds="10.39" CO_abs="0" CO2_abs="0" HC_abs="0" PMx_abs="0" NOx_abs="0" fuel_abs="0" electricity_abs="0"
            CO_normed="0" CO2_normed="0" HC_normed="0" PMx_normed="0" NOx_normed="0" fuel_normed="0" electricity_normed="0"
            traveltime="1.08" CO_perVeh="0" CO2_perVeh="0" HC_perVeh="0" PMx_perVeh="0" NOx_perVeh="0" fuel_perVeh="0" electricity_perVeh="0"/>
        <edge id=":1105984390_1" sampledSeconds="2398.19" CO_abs="64573.825962" CO2_abs="7651000.617273" HC_abs="476.509137" PMx_abs="138.270665" NOx_abs="2912.142684" fuel_abs="3288.811717" electricity_abs="0"
            CO_normed="2068.091723" CO2_normed="245036.914175" HC_normed="15.261053" PMx_normed="4.428364" NOx_normed="93.266553" fuel_normed="105.330050" electricity_normed="0"
            traveltime="0.65" CO_perVeh="17.435735" CO2_perVeh="2065.865137" HC_perVeh="0.128663" PMx_perVeh="0.037335" NOx_perVeh="0.786315" fuel_perVeh="0.888020" electricity_perVeh="0"/>
        <edge id=":1105984395_0" sampledSeconds="4.17" CO_abs="108.937879" CO2_abs="7560.150035" HC_abs="0.667473" PMx_abs="0.100135" NOx_abs="2.884047" fuel_abs="3.249829" electricity_abs="0"
            CO_normed="49.793092" CO2_normed="3455.577128" HC_normed="0.305087" PMx_normed="0.045769" NOx_normed="1.318234" fuel_normed="1.485425" electricity_normed="0"
            traveltime="0.10" CO_perVeh="2.525141" CO2_perVeh="175.241573" HC_perVeh="0.015472" PMx_perVeh="0.002321" NOx_perVeh="0.066851" fuel_perVeh="0.075330" electricity_perVeh="0"/>
        <edge id=":1105984398_0" sampledSeconds="10.44" CO_abs="681.097721" CO2_abs="46442.535080" HC_abs="4.188517" PMx_abs="0.795522" NOx_abs="18.907078" fuel_abs="19.963661" electricity_abs="0"
            CO_normed="23.689786" CO2_normed="1615.353662" HC_normed="0.145684" PMx_normed="0.027670" NOx_normed="0.657622" fuel_normed="0.694371" electricity_normed="0"
            traveltime="1.15" CO_perVeh="75.054740" CO2_perVeh="5117.815375" HC_perVeh="0.461561" PMx_perVeh="0.087664" NOx_perVeh="2.083498" fuel_perVeh="2.199930" electricity_perVeh="0"/>
        <edge id=":1105984398_1" sampledSeconds="646.57" CO_abs="12179.025877" CO2_abs="1422431.811337" HC_abs="88.072047" PMx_abs="20.363505" NOx_abs="537.931767" fuel_abs="611.442839" electricity_abs="0"
            CO_normed="410.041788" CO2_normed="47890.240900" HC_normed="2.965198" PMx_normed="0.685596" NOx_normed="18.111014" fuel_normed="20.585974" electricity_normed="0"
            traveltime="0.95" CO_perVeh="17.917566" CO2_perVeh="2092.656407" HC_perVeh="0.129570" PMx_perVeh="0.029958" NOx_perVeh="0.791396" fuel_perVeh="0.899544" electricity_perVeh="0"/>
        <edge id=":1106006327_0" sampledSeconds="707.13" CO_abs="95261.260276" CO2_abs="3082776.839581" HC_abs="506.327441" PMx_abs="64.348306" NOx_abs="1349.655813" fuel_abs="1325.177098" electricity_abs="0"
            CO_normed="4521.271684" CO2_normed="146314.163718" HC_normed="24.031216" PMx_normed="3.054087" NOx_normed="64.057106" fuel_normed="62.895302" electricity_normed="0"
            traveltime="2.10" CO_perVeh="283.170711" CO2_perVeh="9163.768233" HC_perVeh="1.505093" PMx_perVeh="0.191280" NOx_perVeh="4.011946" fuel_perVeh="3.939181" electricity_perVeh="0"/>
        <edge id=":1106006327_1" sampledSeconds="686.81" CO_abs="92402.160386" CO2_abs="3069089.627475" HC_abs="493.030974" PMx_abs="63.893356" NOx_abs="1342.390805" fuel_abs="1319.291640" electricity_abs="0"
            CO_normed="3824.427400" CO2_normed="127026.364052" HC_normed="20.406029" PMx_normed="2.644478" NOx_normed="55.560131" fuel_normed="54.604082" electricity_normed="0"
            traveltime="2.31" CO_perVeh="310.171687" CO2_perVeh="10302.191016" HC_perVeh="1.654986" PMx_perVeh="0.214475" NOx_perVeh="4.506081" fuel_perVeh="4.428543" electricity_perVeh="0"/>
        <edge id=":1106006327_2" sampledSeconds="0.00" CO_abs="0" CO2_abs="0" HC_abs="0" PMx_abs="0" NOx_abs="0" fuel_abs="0" electricity_abs="0"
            CO_normed="0" CO2_normed="0" HC_normed="0" PMx_normed="0" NOx_normed="0" fuel_normed="0" electricity_normed="0"/>
        <edge id=":1106006327_3" sampledSeconds="0.00" CO_abs="0" CO2_abs="0" HC_abs="0" PMx_abs="0" NOx_abs="0" fuel_abs="0" electricity_abs="0"
            CO_normed="0" CO2_normed="0" HC_normed="0" PMx_normed="0" NOx_normed="0" fuel_normed="0" electricity_normed="0"/>
        <edge id=":1107381198_0" sampledSeconds="0.00" CO_abs="0" CO2_abs="0" HC_abs="0" PMx_abs="0" NOx_abs="0" fuel_abs="0" electricity_abs="0"
            CO_normed="0" CO2_normed="0" HC_normed="0" PMx_normed="0" NOx_normed="0" fuel_normed="0" electricity_normed="0"/>
        <edge id=":1107381198_1" sampledSeconds="103.66" CO_abs="4374.791414" CO2_abs="174436.257707" HC_abs="23.936748" PMx_abs="3.014303" NOx_abs="72.284680" fuel_abs="74.984091" electricity_abs="0"
            CO_normed="200.616209" CO2_normed="7999.179253" HC_normed="1.097675" PMx_normed="0.138228" NOx_normed="3.314782" fuel_normed="3.438569" electricity_normed="0"
            traveltime="1.55" CO_perVeh="65.499016" CO2_perVeh="2611.645251" HC_perVeh="0.358379" PMx_perVeh="0.045130" NOx_perVeh="1.082240" fuel_perVeh="1.122656" electricity_perVeh="0"/>
        <edge id=":1110338277_0" sampledSeconds="159.98" CO_abs="2537.829421" CO2_abs="306577.510432" HC_abs="18.559675" PMx_abs="4.275722" NOx_abs="115.128722" fuel_abs="131.784717" electricity_abs="0"
            CO_normed="3811.381312" CO2_normed="460426.451163" HC_normed="27.873425" PMx_normed="6.421395" NOx_normed="172.903449" fuel_normed="197.917875" electricity_normed="0"
            traveltime="0.02" CO_perVeh="0.343755" CO2_perVeh="41.526692" HC_perVeh="0.002514" PMx_perVeh="0.000579" NOx_perVeh="0.015594" fuel_perVeh="0.017851" electricity_perVeh="0"/>
        <edge id=":1110338293_0" sampledSeconds="6338.61" CO_abs="592943.757549" CO2_abs="10441917.269613" HC_abs="2944.220631" PMx_abs="248.844451" NOx_abs="4717.906814" fuel_abs="4488.801789" electricity_abs="0"
            CO_normed="831132.471742" CO2_normed="14636491.909281" HC_normed="4126.929981" PMx_normed="348.806613" NOx_normed="6613.115496" fuel_normed="6291.977744" electricity_normed="0"
            traveltime="0.42" CO_perVeh="39.623487" CO2_perVeh="697.781488" HC_perVeh="0.196748" PMx_perVeh="0.016629" NOx_perVeh="0.315274" fuel_perVeh="0.299964" electricity_perVeh="0"/>
        <edge id=":1110338295_0" sampledSeconds="0.00" CO_abs="0" CO2_abs="0" HC_abs="0" PMx_abs="0" NOx_abs="0" fuel_abs="0" electricity_abs="0"
            CO_normed="0" CO2_normed="0" HC_normed="0" PMx_normed="0" NOx_normed="0" fuel_normed="0" electricity_normed="0"/>
        <edge id=":1110673403_0" sampledSeconds="200.28" CO_abs="3055.174777" CO2_abs="388259.121466" HC_abs="22.759867" PMx_abs="5.211575" NOx_abs="144.317412" fuel_abs="166.896384" electricity_abs="0"
            CO_normed="4282.455008" CO2_normed="544224.910360" HC_normed="31.902629" PMx_normed="7.305093" NOx_normed="202.290497" fuel_normed="233.939564" electricity_normed="0"
            traveltime="0.02" CO_perVeh="0.353104" CO2_perVeh="44.873343" HC_perVeh="0.002630" PMx_perVeh="0.000602" NOx_perVeh="0.016680" fuel_perVeh="0.019289" electricity_perVeh="0"/>
        <edge id=":1110673412_0" sampledSeconds="938.73" CO_abs="167313.823977" CO2_abs="11411251.895782" HC_abs="1041.124081" PMx_abs="250.881176" NOx_abs="4904.677508" fuel_abs="4905.135042" electricity_abs="0"
            CO_normed="242611.750285" CO2_normed="16546772.583293" HC_normed="1509.671643" PMx_normed="363.787759" NOx_normed="7111.978954" fuel_normed="7112.642396" electricity_normed="0"
            traveltime="0.02" CO_perVeh="2.764657" CO2_perVeh="188.557025" HC_perVeh="0.017203" PMx_perVeh="0.004146" NOx_perVeh="0.081044" fuel_perVeh="0.081051" electricity_perVeh="0"/>
        <edge id=":1110673414_0" sampledSeconds="0.00" CO_abs="0" CO2_abs="0" HC_abs="0" PMx_abs="0" NOx_abs="0" fuel_abs="0" electricity_abs="0"
            CO_normed="0" CO2_normed="0" HC_normed="0" PMx_normed="0" NOx_normed="0" fuel_normed="0" electricity_normed="0"/>
        <edge id=":1110673414_1" sampledSeconds="239.64" CO_abs="15674.347299" CO2_abs="608570.627841" HC_abs="85.500725" PMx_abs="11.186838" NOx_abs="256.560716" fuel_abs="261.602707" electricity_abs="0"
            CO_normed="729.927488" CO2_normed="28340.091041" HC_normed="3.981622" PMx_normed="0.520952" NOx_normed="11.947593" fuel_normed="12.182390" electricity_normed="0"
            traveltime="1.55" CO_perVeh="101.696645" CO2_perVeh="3948.463672" HC_perVeh="0.554737" PMx_perVeh="0.072581" NOx_perVeh="1.664590" fuel_perVeh="1.697303" electricity_perVeh="0"/>
        <edge id=":1110673417_0" sampledSeconds="29.13" CO_abs="429.672680" CO2_abs="51305.631148" HC_abs="3.116927" PMx_abs="0.696648" NOx_abs="19.157732" fuel_abs="22.054153" electricity_abs="0"
            CO_normed="645.294128" CO2_normed="77052.193558" HC_normed="4.681086" PMx_normed="1.046245" NOx_normed="28.771603" fuel_normed="33.121528" electricity_normed="0"
            traveltime="0.02" CO_perVeh="0.327646" CO2_perVeh="39.123006" HC_perVeh="0.002377" PMx_perVeh="0.000531" NOx_perVeh="0.014609" fuel_perVeh="0.016817" electricity_perVeh="0"/>
        <edge id=":1110673446_0" sampledSeconds="1313.07" CO_abs="13232.262678" CO2_abs="1059001.405754" HC_abs="85.363942" PMx_abs="19.699241" NOx_abs="434.946197" fuel_abs="455.215715" electricity_abs="0"
            CO_normed="18547.734159" CO2_normed="1484407.997786" HC_normed="119.655099" PMx_normed="27.612533" NOx_normed="609.666437" fuel_normed="638.078329" electricity_normed="0"
            traveltime="0.02" CO_perVeh="0.229508" CO2_perVeh="18.367895" HC_perVeh="0.001481" PMx_perVeh="0.000342" NOx_perVeh="0.007544" fuel_perVeh="0.007896" electricity_perVeh="0"/>
        <edge id=":1110673451_0" sampledSeconds="36.90" CO_abs="406.478998" CO2_abs="25518.858160" HC_abs="2.431871" PMx_abs="0.359573" NOx_abs="9.916697" fuel_abs="10.969609" electricity_abs="0"
            CO_normed="633.070900" CO2_normed="39744.357217" HC_normed="3.787519" PMx_normed="0.560018" NOx_normed="15.444765" fuel_normed="17.084623" electricity_normed="0"
            traveltime="0.03" CO_perVeh="0.299485" CO2_perVeh="18.801757" HC_perVeh="0.001792" PMx_perVeh="0.000265" NOx_perVeh="0.007306" fuel_perVeh="0.008082" electricity_perVeh="0"/>
        <edge id=":1110673464_0" sampledSeconds="1021.94" CO_abs="3765.338263" CO2_abs="272003.419932" HC_abs="23.386490" PMx_abs="4.014395" NOx_abs="106.224523" fuel_abs="116.923471" electricity_abs="0"
            CO_normed="112.136579" CO2_normed="8100.609025" HC_normed="0.696480" PMx_normed="0.119554" NOx_normed="3.163502" fuel_normed="3.482130" electricity_normed="0"
            traveltime="1.21" CO_perVeh="4.465164" CO2_perVeh="322.557988" HC_perVeh="0.027733" PMx_perVeh="0.004761" NOx_perVeh="0.125967" fuel_perVeh="0.138655" electricity_perVeh="0"/>
        <edge id=":1110673464_1" sampledSeconds="2603.42" CO_abs="63384.059299" CO2_abs="7713566.403795" HC_abs="472.355796" PMx_abs="137.895571" NOx_abs="2925.416139" fuel_abs="3315.706773" electricity_abs="0"
            CO_normed="1849.669231" CO2_normed="225096.760827" HC_normed="13.784254" PMx_normed="4.024059" NOx_normed="85.369291" fuel_normed="96.758726" electricity_normed="0"
            traveltime="0.72" CO_perVeh="17.472096" CO2_perVeh="2126.278634" HC_perVeh="0.130207" PMx_perVeh="0.038012" NOx_perVeh="0.806404" fuel_perVeh="0.913989" electricity_perVeh="0"/>
        <edge id=":1110673479_0" sampledSeconds="134.68" CO_abs="6292.679181" CO2_abs="433420.552095" HC_abs="38.822714" PMx_abs="7.520521" NOx_abs="176.883679" fuel_abs="186.308787" electricity_abs="0"
            CO_normed="8820.482441" CO2_normed="607527.931917" HC_normed="54.418008" PMx_normed="10.541555" NOx_normed="247.938809" fuel_normed="261.150035" electricity_normed="0"
            traveltime="0.03" CO_perVeh="1.330329" CO2_perVeh="91.629023" HC_perVeh="0.008207" PMx_perVeh="0.001590" NOx_perVeh="0.037395" fuel_perVeh="0.039387" electricity_perVeh="0"/>
        <edge id=":1110673511_0" sampledSeconds="63.67" CO_abs="1153.791954" CO2_abs="126435.625345" HC_abs="8.152907" PMx_abs="1.762179" NOx_abs="47.722977" fuel_abs="54.349403" electricity_abs="0"
            CO_normed="1617.276422" CO2_normed="177225.499841" HC_normed="11.427974" PMx_normed="2.470055" NOx_normed="66.893555" fuel_normed="76.181853" electricity_normed="0"
            traveltime="0.02" CO_perVeh="0.442207" CO2_perVeh="48.458240" HC_perVeh="0.003125" PMx_perVeh="0.000675" NOx_perVeh="0.018291" fuel_perVeh="0.020830" electricity_perVeh="0"/>
        <edge id=":1110673517_0" sampledSeconds="181.14" CO_abs="8609.500416" CO2_abs="616961.687221" HC_abs="53.674150" PMx_abs="10.603921" NOx_abs="250.626547" fuel_abs="265.205109" electricity_abs="0"
            CO_normed="12067.983295" CO2_normed="864798.533659" HC_normed="75.235347" PMx_normed="14.863573" NOx_normed="351.304587" fuel_normed="371.739435" electricity_normed="0"
            traveltime="0.03" CO_perVeh="1.318195" CO2_perVeh="94.462576" HC_perVeh="0.008218" PMx_perVeh="0.001624" NOx_perVeh="0.038373" fuel_perVeh="0.040605" electricity_perVeh="0"/>
        <edge id=":1110673534_0" sampledSeconds="659.79" CO_abs="3747.844055" CO2_abs="312516.816188" HC_abs="24.208856" PMx_abs="4.246391" NOx_abs="119.047028" fuel_abs="134.338705" electricity_abs="0"
            CO_normed="101.809560" CO2_normed="8489.467276" HC_normed="0.657630" PMx_normed="0.115353" NOx_normed="3.233893" fuel_normed="3.649289" electricity_normed="0"
            traveltime="1.45" CO_perVeh="8.240958" CO2_perVeh="687.178540" HC_perVeh="0.053232" PMx_perVeh="0.009337" NOx_perVeh="0.261767" fuel_perVeh="0.295391" electricity_perVeh="0"/>
        <edge id=":1110673534_1" sampledSeconds="263.97" CO_abs="4509.102812" CO2_abs="553413.901375" HC_abs="33.201579" PMx_abs="7.681881" NOx_abs="207.365885" fuel_abs="237.889273" electricity_abs="0"
            CO_normed="119.103652" CO2_normed="14617.900601" HC_normed="0.876988" PMx_normed="0.202910" NOx_normed="5.477372" fuel_normed="6.283618" electricity_normed="0"
            traveltime="1.22" CO_perVeh="20.921106" CO2_perVeh="2567.701666" HC_perVeh="0.154047" PMx_perVeh="0.035642" NOx_perVeh="0.962126" fuel_perVeh="1.103747" electricity_perVeh="0"/>
        <edge id=":1110673549_0" sampledSeconds="650.46" CO_abs="985.153054" CO2_abs="115036.207788" HC_abs="7.039729" PMx_abs="1.514114" NOx_abs="42.442602" fuel_abs="49.449378" electricity_abs="0"
            CO_normed="25.924175" CO2_normed="3027.162852" HC_normed="0.185250" PMx_normed="0.039844" NOx_normed="1.116872" fuel_normed="1.301254" electricity_normed="0"
            traveltime="1.29" CO_perVeh="1.957264" CO2_perVeh="228.549515" HC_perVeh="0.013986" PMx_perVeh="0.003008" NOx_perVeh="0.084323" fuel_perVeh="0.098244" electricity_perVeh="0"/>
        <edge id=":1110673549_1" sampledSeconds="3196.75" CO_abs="68996.752483" CO2_abs="9072995.496716" HC_abs="530.485291" PMx_abs="159.460700" NOx_abs="3390.875403" fuel_abs="3900.065518" electricity_abs="0"
            CO_normed="1756.291546" CO2_normed="230950.366648" HC_normed="13.503343" PMx_normed="4.059024" NOx_normed="86.313712" fuel_normed="99.274993" electricity_normed="0"
            traveltime="0.81" CO_perVeh="17.402399" CO2_perVeh="2288.395977" HC_perVeh="0.133799" PMx_perVeh="0.040219" NOx_perVeh="0.855248" fuel_perVeh="0.983677" electricity_perVeh="0"/>
        <edge id=":1110673556_0" sampledSeconds="455.84" CO_abs="55948.601519" CO2_abs="2732426.332398" HC_abs="319.675164" PMx_abs="55.134299" NOx_abs="1177.440852" fuel_abs="1174.552975" electricity_abs="0"
            CO_normed="1091.741865" CO2_normed="53318.655700" HC_normed="6.237917" PMx_normed="1.075852" NOx_normed="22.975757" fuel_normed="22.919405" electricity_normed="0"
            traveltime="2.69" CO_perVeh="329.811626" CO2_perVeh="16107.390503" HC_perVeh="1.884454" PMx_perVeh="0.325011" NOx_perVeh="6.940901" fuel_perVeh="6.923877" electricity_perVeh="0"/>
        <edge id=":1110673556_2" sampledSeconds="173.02" CO_abs="16759.676394" CO2_abs="719405.905030" HC_abs="93.214901" PMx_abs="13.916912" NOx_abs="307.008883" fuel_abs="309.244327" electricity_abs="0"
            CO_normed="341.952388" CO2_normed="14678.240871" HC_normed="1.901890" PMx_normed="0.283951" NOx_normed="6.263989" fuel_normed="6.309599" electricity_normed="0"
            traveltime="2.99" CO_perVeh="289.798754" CO2_perVeh="12439.556097" HC_perVeh="1.611819" PMx_perVeh="0.240643" NOx_perVeh="5.308622" fuel_perVeh="5.347276" electricity_perVeh="0"/>
        <edge id=":1110673556_3" sampledSeconds="339.71" CO_abs="34114.107162" CO2_abs="1188846.191178" HC_abs="183.148983" PMx_abs="23.537666" NOx_abs="512.468420" fuel_abs="511.042755" electricity_abs="0"
            CO_normed="1583.375116" CO2_normed="55179.209793" HC_normed="8.500693" PMx_normed="1.092479" NOx_normed="23.785753" fuel_normed="23.719583" electricity_normed="0"
            traveltime="1.83" CO_perVeh="183.446191" CO2_perVeh="6392.936036" HC_perVeh="0.984871" PMx_perVeh="0.126572" NOx_perVeh="2.755763" fuel_perVeh="2.748096" electricity_perVeh="0"/>
        <edge id=":1110673556_4" sampledSeconds="89.46" CO_abs="10090.997237" CO2_abs="391948.504794" HC_abs="55.162972" PMx_abs="7.789644" NOx_abs="168.894953" fuel_abs="168.483734" electricity_abs="0"
            CO_normed="286.134971" CO2_normed="11113.884132" HC_normed="1.564172" PMx_normed="0.220879" NOx_normed="4.789096" fuel_normed="4.777435" electricity_normed="0"
            traveltime="2.51" CO_perVeh="283.073221" CO2_perVeh="10994.961461" HC_perVeh="1.547435" PMx_perVeh="0.218516" NOx_perVeh="4.737851" fuel_perVeh="4.726315" electricity_perVeh="0"/>
        <edge id=":1110673556_5" sampledSeconds="23.00" CO_abs="1132.542361" CO2_abs="49884.536102" HC_abs="6.308656" PMx_abs="0.856511" NOx_abs="20.600157" fuel_abs="21.443541" electricity_abs="0"
            CO_normed="44.760078" CO2_normed="1971.525114" HC_normed="0.249329" PMx_normed="0.033851" NOx_normed="0.814155" fuel_normed="0.847487" electricity_normed="0"
            traveltime="1.59" CO_perVeh="78.299225" CO2_perVeh="3448.807434" HC_perVeh="0.436154" PMx_perVeh="0.059216" NOx_perVeh="1.424208" fuel_perVeh="1.482516" electricity_perVeh="0"/>
        <edge id=":1110673556_6" sampledSeconds="212.88" CO_abs="25539.384078" CO2_abs="1289637.405667" HC_abs="146.957026" PMx_abs="25.964093" NOx_abs="554.642271" fuel_abs="554.359270" electricity_abs="0"
            CO_normed="510.923303" CO2_normed="25799.596473" HC_normed="2.939921" PMx_normed="0.519420" NOx_normed="11.095791" fuel_normed="11.090129" electricity_normed="0"
            traveltime="2.48" CO_perVeh="297.598455" CO2_perVeh="15027.539369" HC_perVeh="1.712421" PMx_perVeh="0.302547" NOx_perVeh="6.462986" fuel_perVeh="6.459688" electricity_perVeh="0"/>
        <edge id=":1110673561_0" sampledSeconds="101.40" CO_abs="9700.254860" CO2_abs="705153.057993" HC_abs="61.107323" PMx_abs="14.069603" NOx_abs="297.003157" fuel_abs="303.111871" electricity_abs="0"
            CO_normed="243.817687" CO2_normed="17724.151614" HC_normed="1.535944" PMx_normed="0.353642" NOx_normed="7.465229" fuel_normed="7.618773" electricity_normed="0"
            traveltime="1.20" CO_perVeh="114.472422" CO2_perVeh="8321.490506" HC_perVeh="0.721126" PMx_perVeh="0.166035" NOx_perVeh="3.504926" fuel_perVeh="3.577014" electricity_perVeh="0"/>
        <edge id=":1110673561_1" sampledSeconds="5189.38" CO_abs="482759.852940" CO2_abs="33425248.446242" HC_abs="3006.937010" PMx_abs="699.228030" NOx_abs="14293.692404" fuel_abs="14367.899417" electricity_abs="0"
            CO_normed="11830.193999" CO2_normed="819097.054529" HC_normed="73.686012" PMx_normed="17.134820" NOx_normed="350.271782" fuel_normed="352.090250" electricity_normed="0"
            traveltime="1.19" CO_perVeh="110.849767" CO2_perVeh="7674.998168" HC_perVeh="0.690443" PMx_perVeh="0.160554" NOx_perVeh="3.282072" fuel_perVeh="3.299111" electricity_perVeh="0"/>
        <edge id=":1110673562_0" sampledSeconds="301.12" CO_abs="6898.974330" CO2_abs="523635.157724" HC_abs="43.376040" PMx_abs="7.246704" NOx_abs="201.201306" fuel_abs="225.090425" electricity_abs="0"
            CO_normed="10744.810699" CO2_normed="815535.813922" HC_normed="67.556032" PMx_normed="11.286382" NOx_normed="313.361065" fuel_normed="350.567184" electricity_normed="0"
            traveltime="0.03" CO_perVeh="0.618436" CO2_perVeh="46.939540" HC_perVeh="0.003888" PMx_perVeh="0.000650" NOx_perVeh="0.018036" fuel_perVeh="0.020177" electricity_perVeh="0"/>
        <edge id=":1110673564_0" sampledSeconds="27.82" CO_abs="539.858604" CO2_abs="60781.933713" HC_abs="3.853513" PMx_abs="0.853998" NOx_abs="22.931809" fuel_abs="26.127601" electricity_abs="0"
            CO_normed="2270.168175" CO2_normed="255595.095626" HC_normed="16.204472" PMx_normed="3.591159" NOx_normed="96.430924" fuel_normed="109.869600" electricity_normed="0"
            traveltime="7.858296e-03" CO_perVeh="0.152481" CO2_perVeh="17.167613" HC_perVeh="0.001088" PMx_perVeh="0.000241" NOx_perVeh="0.006477" fuel_perVeh="0.007380" electricity_perVeh="0"/>
        <edge id=":1110673588_0" sampledSeconds="63.23" CO_abs="960.631206" CO2_abs="105093.877770" HC_abs="6.788109" PMx_abs="1.445564" NOx_abs="39.580656" fuel_abs="45.175504" electricity_abs="0"
            CO_normed="1615.826349" CO2_normed="176772.788212" HC_normed="11.417914" PMx_normed="2.431505" NOx_normed="66.576503" fuel_normed="75.987298" electricity_normed="0"
            traveltime="0.02" CO_perVeh="0.309881" CO2_perVeh="33.901251" HC_perVeh="0.002190" PMx_perVeh="0.000466" NOx_perVeh="0.012768" fuel_perVeh="0.014573" electricity_perVeh="0"/>
        <edge id=":1110673601_0" sampledSeconds="28.97" CO_abs="469.755884" CO2_abs="56354.720344" HC_abs="3.432188" PMx_abs="0.764003" NOx_abs="21.055465" fuel_abs="24.224548" electricity_abs="0"
            CO_normed="705.492175" CO2_normed="84635.053164" HC_normed="5.154553" PMx_normed="1.147400" NOx_normed="31.621671" fuel_normed="36.381085" electricity_normed="0"
            traveltime="0.02" CO_perVeh="0.358211" CO2_perVeh="42.973179" HC_perVeh="0.002617" PMx_perVeh="0.000583" NOx_perVeh="0.016056" fuel_perVeh="0.018472" electricity_perVeh="0"/>
        <edge id=":1110673617_0" sampledSeconds="850.79" CO_abs="32137.922281" CO2_abs="3255139.797429" HC_abs="224.383919" PMx_abs="61.496820" NOx_abs="1276.348942" fuel_abs="1399.232105" electricity_abs="0"
            CO_normed="45047.899471" CO2_normed="4562747.058655" HC_normed="314.520152" PMx_normed="86.200426" NOx_normed="1789.065214" fuel_normed="1961.311208" electricity_normed="0"
            traveltime="0.02" CO_perVeh="0.569985" CO2_perVeh="57.731852" HC_perVeh="0.003980" PMx_perVeh="0.001091" NOx_perVeh="0.022637" fuel_perVeh="0.024816" electricity_perVeh="0"/>
        <edge id=":1110673621_0" sampledSeconds="26.15" CO_abs="594.706519" CO2_abs="62655.174431" HC_abs="4.147828" PMx_abs="0.911179" NOx_abs="23.931036" fuel_abs="26.932804" electricity_abs="0"
            CO_normed="1000.324013" CO2_normed="105388.916226" HC_normed="6.976839" PMx_normed="1.532645" NOx_normed="40.253115" fuel_normed="45.302229" electricity_normed="0"
            traveltime="0.02" CO_perVeh="0.450535" CO2_perVeh="47.466041" HC_perVeh="0.003142" PMx_perVeh="0.000690" NOx_perVeh="0.018130" fuel_perVeh="0.020404" electricity_perVeh="0"/>
        <edge id=":1110673630_0" sampledSeconds="284.82" CO_abs="1337.180454" CO2_abs="126469.412708" HC_abs="8.968660" PMx_abs="1.615212" NOx_abs="47.272048" fuel_abs="54.364262" electricity_abs="0"
            CO_normed="40.106984" CO2_normed="3793.285159" HC_normed="0.269003" PMx_normed="0.048446" NOx_normed="1.417863" fuel_normed="1.630585" electricity_normed="0"
            traveltime="1.28" CO_perVeh="6.016801" CO2_perVeh="569.064056" HC_perVeh="0.040356" PMx_perVeh="0.007268" NOx_perVeh="0.212706" fuel_perVeh="0.244618" electricity_perVeh="0"/>
        <edge id=":1110673630_1" sampledSeconds="337.57" CO_abs="1321.074098" CO2_abs="106755.090961" HC_abs="8.455538" PMx_abs="1.463186" NOx_abs="40.827966" fuel_abs="45.889828" electricity_abs="0"
            CO_normed="48.306697" CO2_normed="3903.631001" HC_normed="0.309187" PMx_normed="0.053503" NOx_normed="1.492925" fuel_normed="1.678018" electricity_normed="0"
            traveltime="1.08" CO_perVeh="4.211330" CO2_perVeh="340.314683" HC_perVeh="0.026955" PMx_perVeh="0.004664" NOx_perVeh="0.130152" fuel_perVeh="0.146288" electricity_perVeh="0"/>
        <edge id=":1110673650_0" sampledSeconds="199.88" CO_abs="2829.914731" CO2_abs="358928.968040" HC_abs="21.111833" PMx_abs="4.925355" NOx_abs="134.016022" fuel_abs="154.288431" electricity_abs="0"
            CO_normed="3966.706783" CO2_normed="503112.675677" HC_normed="29.592570" PMx_normed="6.903896" NOx_normed="187.850983" fuel_normed="216.266928" electricity_normed="0"
            traveltime="0.02" CO_perVeh="0.327070" CO2_perVeh="41.483488" HC_perVeh="0.002440" PMx_perVeh="0.000569" NOx_perVeh="0.015489" fuel_perVeh="0.017832" electricity_perVeh="0"/>
        <edge id=":1110673655_0" sampledSeconds="20.81" CO_abs="381.761076" CO2_abs="43284.110476" HC_abs="2.735729" PMx_abs="0.633409" NOx_abs="16.463930" fuel_abs="18.605984" electricity_abs="0"
            CO_normed="535.116565" CO2_normed="60671.571746" HC_normed="3.834686" PMx_normed="0.887853" NOx_normed="23.077580" fuel_normed="26.080108" electricity_normed="0"
            traveltime="0.02" CO_perVeh="0.436132" CO2_perVeh="49.448717" HC_perVeh="0.003125" PMx_perVeh="0.000724" NOx_perVeh="0.018809" fuel_perVeh="0.021256" electricity_perVeh="0"/>
        <edge id=":1110673663_0" sampledSeconds="110.83" CO_abs="1624.788068" CO2_abs="194739.497894" HC_abs="11.845659" PMx_abs="2.676259" NOx_abs="72.952938" fuel_abs="83.710346" electricity_abs="0"
            CO_normed="41.711982" CO2_normed="4999.403066" HC_normed="0.304105" PMx_normed="0.068706" NOx_normed="1.872867" fuel_normed="2.149034" electricity_normed="0"
            traveltime="1.30" CO_perVeh="19.083902" CO2_perVeh="2287.307272" HC_perVeh="0.139133" PMx_perVeh="0.031434" NOx_perVeh="0.856867" fuel_perVeh="0.983218" electricity_perVeh="0"/>
        <edge id=":1110673663_1" sampledSeconds="170.46" CO_abs="2640.991927" CO2_abs="341035.726290" HC_abs="19.809086" PMx_abs="4.546856" NOx_abs="126.477204" fuel_abs="146.597041" electricity_abs="0"
            CO_normed="67.883117" CO2_normed="8765.861038" HC_normed="0.509166" PMx_normed="0.116871" NOx_normed="3.250925" fuel_normed="3.768078" electricity_normed="0"
            traveltime="1.27" CO_perVeh="19.723019" CO2_perVeh="2546.866586" HC_perVeh="0.147935" PMx_perVeh="0.033956" NOx_perVeh="0.944536" fuel_perVeh="1.094792" electricity_perVeh="0"/>
        <edge id=":1110673666_0" sampledSeconds="275.31" CO_abs="6212.477529" CO2_abs="493527.227606" HC_abs="39.546834" PMx_abs="6.671312" NOx_abs="188.194984" fuel_abs="212.148232" electricity_abs="0"