<?xml version="1.0" encoding="UTF-8"?>

<!-- generated on Mon Nov  9 21:50:51 2020 by Eclipse SUMO sumo Version 1.7.0
<configuration xmlns:xsi="http://www.w3.org/2001/XMLSchema-instance" xsi:noNamespaceSchemaLocation="http://sumo.dlr.de/xsd/sumoConfiguration.xsd">

    <input>
        <net-file value="../dataSets/Porto/6AM7AM_Routing_SaoBento/Porto.net.xml"/>
        <route-files value="../results/Porto/6AM7AM_Routing_SaoBento/cost_PMx-ttime/solution1/Porto.rou.xml"/>
        <additional-files value="moreOutputInfo.xml"/>
    </input>

    <output>
        <emission-output.precision value="6"/>
        <tripinfo-output value="../results/Porto/6AM7AM_Routing_SaoBento/cost_PMx-ttime/solution1/Porto-tripinfo"/>
    </output>

    <processing>
        <collision.action value="warn"/>
        <time-to-teleport value="-1"/>
    </processing>

    <emissions>
        <device.emissions.probability value="1"/>
    </emissions>

    <gui_only>
        <quit-on-end value="true"/>
        <start value="true"/>
    </gui_only>

</configuration>
-->

<meandata xmlns:xsi="http://www.w3.org/2001/XMLSchema-instance" xsi:noNamespaceSchemaLocation="http://sumo.dlr.de/xsd/meandata_file.xsd">
    <interval begin="0.00" end="4703.00" id="emissions-detector">
        <edge id=":1092997347_0" sampledSeconds="326.97" CO_abs="42055.233883" CO2_abs="1699664.475547" HC_abs="231.692413" PMx_abs="34.708088" NOx_abs="737.860677" fuel_abs="730.618201" electricity_abs="0"
            CO_normed="73163.571598" CO2_normed="2956909.570278" HC_normed="403.075738" PMx_normed="60.381728" NOx_normed="1283.657645" fuel_normed="1271.057894" electricity_normed="0"
            traveltime="0.07" CO_perVeh="9.382829" CO2_perVeh="379.207510" HC_perVeh="0.051692" PMx_perVeh="0.007744" NOx_perVeh="0.164622" fuel_perVeh="0.163006" electricity_perVeh="0"/>
        <edge id=":1103427051_0" sampledSeconds="11.05" CO_abs="875.846209" CO2_abs="49418.618287" HC_abs="5.158943" PMx_abs="0.956241" NOx_abs="20.998309" fuel_abs="21.242896" electricity_abs="0"
            CO_normed="2311.837897" CO2_normed="130442.803077" HC_normed="13.617277" PMx_normed="2.524045" NOx_normed="55.426039" fuel_normed="56.071637" electricity_normed="0"
            traveltime="0.03" CO_perVeh="2.399805" CO2_perVeh="135.406267" HC_perVeh="0.014135" PMx_perVeh="0.002620" NOx_perVeh="0.057535" fuel_perVeh="0.058205" electricity_perVeh="0"/>
        <edge id=":1105984386_0" sampledSeconds="76.32" CO_abs="1586.515556" CO2_abs="127784.050798" HC_abs="10.132890" PMx_abs="1.690079" NOx_abs="48.473314" fuel_abs="54.929452" electricity_abs="0"
            CO_normed="125.069849" CO2_normed="10073.605599" HC_normed="0.798807" PMx_normed="0.133234" NOx_normed="3.821299" fuel_normed="4.330256" electricity_normed="0"
            traveltime="0.95" CO_perVeh="19.728838" CO2_perVeh="1589.036337" HC_perVeh="0.126006" PMx_perVeh="0.021017" NOx_perVeh="0.602781" fuel_perVeh="0.683066" electricity_perVeh="0"/>
        <edge id=":1105984390_0" sampledSeconds="78.79" CO_abs="113.860954" CO2_abs="9814.255723" HC_abs="0.739873" PMx_abs="0.117366" NOx_abs="3.631610" fuel_abs="4.218785" electricity_abs="0"
            CO_normed="6.939253" CO2_normed="598.129541" HC_normed="0.045092" PMx_normed="0.007153" NOx_normed="0.221328" fuel_normed="0.257114" electricity_normed="0"
            traveltime="1.06" CO_perVeh="1.529937" CO2_perVeh="131.873090" HC_perVeh="0.009942" PMx_perVeh="0.001577" NOx_perVeh="0.048798" fuel_perVeh="0.056687" electricity_perVeh="0"/>
        <edge id=":1105984390_1" sampledSeconds="647.14" CO_abs="14009.962389" CO2_abs="1849745.207564" HC_abs="107.783620" PMx_abs="32.521805" NOx_abs="690.229855" fuel_abs="795.120836" electricity_abs="0"
            CO_normed="816.769977" CO2_normed="107838.715630" HC_normed="6.283702" PMx_normed="1.895996" NOx_normed="40.239867" fuel_normed="46.354930" electricity_normed="0"
            traveltime="0.64" CO_perVeh="13.787285" CO2_perVeh="1820.344974" HC_perVeh="0.106070" PMx_perVeh="0.032005" NOx_perVeh="0.679259" fuel_perVeh="0.782483" electricity_perVeh="0"/>
        <edge id=":1105984395_0" sampledSeconds="30.08" CO_abs="526.868860" CO2_abs="42849.721420" HC_abs="3.377129" PMx_abs="0.579446" NOx_abs="16.333209" fuel_abs="18.419425" electricity_abs="0"
            CO_normed="438.371413" CO2_normed="35652.311917" HC_normed="2.809877" PMx_normed="0.482118" NOx_normed="13.589742" fuel_normed="15.325539" electricity_normed="0"
            traveltime="0.09" CO_perVeh="1.583119" CO2_perVeh="128.753490" HC_perVeh="0.010147" PMx_perVeh="0.001741" NOx_perVeh="0.049078" fuel_perVeh="0.055346" electricity_perVeh="0"/>
        <edge id=":1105984398_0" sampledSeconds="75.27" CO_abs="5318.076537" CO2_abs="371845.084704" HC_abs="33.007242" PMx_abs="6.774028" NOx_abs="153.668981" fuel_abs="159.839608" electricity_abs="0"
            CO_normed="336.709837" CO2_normed="23543.079342" HC_normed="2.089828" PMx_normed="0.428892" NOx_normed="9.729431" fuel_normed="10.120119" electricity_normed="0"
            traveltime="1.08" CO_perVeh="76.156555" CO2_perVeh="5324.940377" HC_perVeh="0.472674" PMx_perVeh="0.097006" NOx_perVeh="2.200589" fuel_perVeh="2.288954" electricity_perVeh="0"/>
        <edge id=":1105984398_1" sampledSeconds="452.82" CO_abs="8760.529936" CO2_abs="991588.346142" HC_abs="62.612866" PMx_abs="14.405367" NOx_abs="376.746662" fuel_abs="426.241449" electricity_abs="0"
            CO_normed="536.902544" CO2_normed="60771.016066" HC_normed="3.837326" PMx_normed="0.882855" NOx_normed="23.089498" fuel_normed="26.122862" electricity_normed="0"
            traveltime="0.96" CO_perVeh="18.497280" CO2_perVeh="2093.673257" HC_perVeh="0.132203" PMx_perVeh="0.030416" NOx_perVeh="0.795476" fuel_perVeh="0.899981" electricity_perVeh="0"/>
        <edge id=":1106006327_0" sampledSeconds="37.96" CO_abs="5107.220818" CO2_abs="167294.848859" HC_abs="27.193513" PMx_abs="3.484440" NOx_abs="73.197665" fuel_abs="71.914116" electricity_abs="0"
            CO_normed="441.243617" CO2_normed="14453.611232" HC_normed="2.349412" PMx_normed="0.301042" NOx_normed="6.323988" fuel_normed="6.213094" electricity_normed="0"
            traveltime="2.06" CO_perVeh="277.063290" CO2_perVeh="9075.632873" HC_perVeh="1.475230" PMx_perVeh="0.189029" NOx_perVeh="3.970924" fuel_perVeh="3.901292" electricity_perVeh="0"/>
        <edge id=":1106006327_1" sampledSeconds="161.43" CO_abs="21846.990868" CO2_abs="730113.366793" HC_abs="116.685008" PMx_abs="15.231182" NOx_abs="319.533502" fuel_abs="313.849409" electricity_abs="0"
            CO_normed="1645.983363" CO2_normed="55007.779430" HC_normed="8.791214" PMx_normed="1.147539" NOx_normed="24.074108" fuel_normed="23.645861" electricity_normed="0"
            traveltime="2.29" CO_perVeh="310.146193" CO2_perVeh="10364.900244" HC_perVeh="1.656494" PMx_perVeh="0.216226" NOx_perVeh="4.536190" fuel_perVeh="4.455497" electricity_perVeh="0"/>
        <edge id=":1106006327_2" sampledSeconds="0.00" CO_abs="0" CO2_abs="0" HC_abs="0" PMx_abs="0" NOx_abs="0" fuel_abs="0" electricity_abs="0"
            CO_normed="0" CO2_normed="0" HC_normed="0" PMx_normed="0" NOx_normed="0" fuel_normed="0" electricity_normed="0"/>
        <edge id=":1106006327_3" sampledSeconds="0.00" CO_abs="0" CO2_abs="0" HC_abs="0" PMx_abs="0" NOx_abs="0" fuel_abs="0" electricity_abs="0"
            CO_normed="0" CO2_normed="0" HC_normed="0" PMx_normed="0" NOx_normed="0" fuel_normed="0" electricity_normed="0"/>
        <edge id=":1107381198_0" sampledSeconds="0.00" CO_abs="0" CO2_abs="0" HC_abs="0" PMx_abs="0" NOx_abs="0" fuel_abs="0" electricity_abs="0"
            CO_normed="0" CO2_normed="0" HC_normed="0" PMx_normed="0" NOx_normed="0" fuel_normed="0" electricity_normed="0"/>
        <edge id=":1107381198_1" sampledSeconds="35.80" CO_abs="1488.776573" CO2_abs="62047.594332" HC_abs="8.210460" PMx_abs="1.074667" NOx_abs="25.712943" fuel_abs="26.672047" electricity_abs="0"
            CO_normed="124.276128" CO2_normed="5179.443910" HC_normed="0.685371" PMx_normed="0.089708" NOx_normed="2.146397" fuel_normed="2.226458" electricity_normed="0"
            traveltime="1.47" CO_perVeh="61.297060" CO2_perVeh="2554.671516" HC_perVeh="0.338047" PMx_perVeh="0.044247" NOx_perVeh="1.058673" fuel_perVeh="1.098162" electricity_perVeh="0"/>
        <edge id=":1110338277_0" sampledSeconds="96.43" CO_abs="1681.706687" CO2_abs="202367.428764" HC_abs="12.284502" PMx_abs="2.761027" NOx_abs="75.669401" fuel_abs="86.989301" electricity_abs="0"
            CO_normed="4597.478870" CO2_normed="553235.581809" HC_normed="33.583585" PMx_normed="7.548144" NOx_normed="206.866320" fuel_normed="237.812858" electricity_normed="0"
            traveltime="0.02" CO_perVeh="0.379004" CO2_perVeh="45.607284" HC_perVeh="0.002769" PMx_perVeh="0.000622" NOx_perVeh="0.017054" fuel_perVeh="0.019605" electricity_perVeh="0"/>
        <edge id=":1110338293_0" sampledSeconds="123.97" CO_abs="6105.537467" CO2_abs="419325.642676" HC_abs="37.662384" PMx_abs="7.398773" NOx_abs="171.967579" fuel_abs="180.249817" electricity_abs="0"
            CO_normed="15578.662471" CO2_normed="1069935.724455" HC_normed="96.097940" PMx_normed="18.878433" NOx_normed="438.786083" fuel_normed="459.918734" electricity_normed="0"
            traveltime="0.03" CO_perVeh="1.400406" CO2_perVeh="96.179283" HC_perVeh="0.008638" PMx_perVeh="0.001697" NOx_perVeh="0.039444" fuel_perVeh="0.041343" electricity_perVeh="0"/>
        <edge id=":1110338295_0" sampledSeconds="0.00" CO_abs="0" CO2_abs="0" HC_abs="0" PMx_abs="0" NOx_abs="0" fuel_abs="0" electricity_abs="0"
            CO_normed="0" CO2_normed="0" HC_normed="0" PMx_normed="0" NOx_normed="0" fuel_normed="0" electricity_normed="0"/>
        <edge id=":1110673403_0" sampledSeconds="158.87" CO_abs="2471.095836" CO2_abs="296889.972685" HC_abs="18.058256" PMx_abs="4.134970" NOx_abs="111.487044" fuel_abs="127.620475" electricity_abs="0"
            CO_normed="6305.156289" CO2_normed="757533.419566" HC_normed="46.076775" PMx_normed="10.550636" NOx_normed="284.466198" fuel_normed="325.631661" electricity_normed="0"
            traveltime="0.02" CO_perVeh="0.359798" CO2_perVeh="43.228010" HC_perVeh="0.002629" PMx_perVeh="0.000602" NOx_perVeh="0.016233" fuel_perVeh="0.018582" electricity_perVeh="0"/>
        <edge id=":1110673412_0" sampledSeconds="252.10" CO_abs="45185.017910" CO2_abs="3076125.826747" HC_abs="281.046014" PMx_abs="67.688595" NOx_abs="1322.828115" fuel_abs="1322.274907" electricity_abs="0"
            CO_normed="119268.012697" CO2_normed="8119581.027730" HC_normed="741.834376" PMx_normed="178.667279" NOx_normed="3491.667986" fuel_normed="3490.207765" electricity_normed="0"
            traveltime="0.02" CO_perVeh="2.785245" CO2_perVeh="189.615157" HC_perVeh="0.017324" PMx_perVeh="0.004172" NOx_perVeh="0.081540" fuel_perVeh="0.081506" electricity_perVeh="0"/>
        <edge id=":1110673414_0" sampledSeconds="0.00" CO_abs="0" CO2_abs="0" HC_abs="0" PMx_abs="0" NOx_abs="0" fuel_abs="0" electricity_abs="0"
            CO_normed="0" CO2_normed="0" HC_normed="0" PMx_normed="0" NOx_normed="0" fuel_normed="0" electricity_normed="0"/>
        <edge id=":1110673414_1" sampledSeconds="328.52" CO_abs="23216.250871" CO2_abs="864179.673298" HC_abs="125.762649" PMx_abs="15.979020" NOx_abs="365.100747" fuel_abs="371.480535" electricity_abs="0"
            CO_normed="1968.030659" CO2_normed="73256.104145" HC_normed="10.660841" PMx_normed="1.354534" NOx_normed="30.949418" fuel_normed="31.490230" electricity_normed="0"
            traveltime="1.62" CO_perVeh="114.387608" CO2_perVeh="4257.855697" HC_perVeh="0.619639" PMx_perVeh="0.078729" NOx_perVeh="1.798869" fuel_perVeh="1.830303" electricity_perVeh="0"/>
        <edge id=":1110673417_0" sampledSeconds="29.68" CO_abs="594.364463" CO2_abs="63862.729451" HC_abs="4.181065" PMx_abs="0.936614" NOx_abs="24.410255" fuel_abs="27.451863" electricity_abs="0"
            CO_normed="1624.883862" CO2_normed="174589.035890" HC_normed="11.430269" PMx_normed="2.560532" NOx_normed="66.733177" fuel_normed="75.048379" electricity_normed="0"
            traveltime="0.02" CO_perVeh="0.441145" CO2_perVeh="47.399773" HC_perVeh="0.003103" PMx_perVeh="0.000695" NOx_perVeh="0.018118" fuel_perVeh="0.020375" electricity_perVeh="0"/>
        <edge id=":1110673446_0" sampledSeconds="334.26" CO_abs="3415.350306" CO2_abs="277996.956151" HC_abs="22.129783" PMx_abs="5.077820" NOx_abs="113.559382" fuel_abs="119.498126" electricity_abs="0"
            CO_normed="8714.480901" CO2_normed="709326.700789" HC_normed="56.465532" PMx_normed="12.956376" NOx_normed="289.753898" fuel_normed="304.906977" electricity_normed="0"
            traveltime="0.02" CO_perVeh="0.233129" CO2_perVeh="18.975865" HC_perVeh="0.001511" PMx_perVeh="0.000347" NOx_perVeh="0.007751" fuel_perVeh="0.008157" electricity_perVeh="0"/>
        <edge id=":1110673451_0" sampledSeconds="37.87" CO_abs="461.905930" CO2_abs="32143.245323" HC_abs="2.841469" PMx_abs="0.475019" NOx_abs="12.594014" fuel_abs="13.817115" electricity_abs="0"
            CO_normed="1309.535560" CO2_normed="91128.344526" HC_normed="8.055762" PMx_normed="1.346713" NOx_normed="35.704908" fuel_normed="39.172486" electricity_normed="0"
            traveltime="0.03" CO_perVeh="0.331247" CO2_perVeh="23.050933" HC_perVeh="0.002038" PMx_perVeh="0.000341" NOx_perVeh="0.009032" fuel_perVeh="0.009909" electricity_perVeh="0"/>
        <edge id=":1110673464_0" sampledSeconds="324.23" CO_abs="591.767865" CO2_abs="56084.372065" HC_abs="3.942845" PMx_abs="0.700028" NOx_abs="20.803524" fuel_abs="24.108506" electricity_abs="0"
            CO_normed="32.080727" CO2_normed="3040.427746" HC_normed="0.213748" PMx_normed="0.037950" NOx_normed="1.127794" fuel_normed="1.306962" electricity_normed="0"
            traveltime="1.17" CO_perVeh="2.139163" CO2_perVeh="202.737606" HC_perVeh="0.014253" PMx_perVeh="0.002531" NOx_perVeh="0.075202" fuel_perVeh="0.087149" electricity_perVeh="0"/>
        <edge id=":1110673464_1" sampledSeconds="746.36" CO_abs="15704.001402" CO2_abs="2100738.405205" HC_abs="121.311247" PMx_abs="36.725019" NOx_abs="782.931307" fuel_abs="903.011408" electricity_abs="0"
            CO_normed="834.207071" CO2_normed="111592.630846" HC_normed="6.444135" PMx_normed="1.950858" NOx_normed="41.589835" fuel_normed="47.968571" electricity_normed="0"
            traveltime="0.70" CO_perVeh="14.771552" CO2_perVeh="1976.003769" HC_perVeh="0.114108" PMx_perVeh="0.034544" NOx_perVeh="0.736444" fuel_perVeh="0.849394" electricity_perVeh="0"/>
        <edge id=":1110673479_0" sampledSeconds="133.32" CO_abs="6803.086022" CO2_abs="470384.998870" HC_abs="42.042084" PMx_abs="8.301521" NOx_abs="192.856376" fuel_abs="202.197973" electricity_abs="0"
            CO_normed="17358.501437" CO2_normed="1200216.879959" HC_normed="107.273020" PMx_normed="21.181854" NOx_normed="492.085161" fuel_normed="515.920834" electricity_normed="0"
            traveltime="0.03" CO_perVeh="1.433134" CO2_perVeh="99.091005" HC_perVeh="0.008857" PMx_perVeh="0.001749" NOx_perVeh="0.040627" fuel_perVeh="0.042595" electricity_perVeh="0"/>
        <edge id=":1110673511_0" sampledSeconds="11.80" CO_abs="166.383591" CO2_abs="21637.091412" HC_abs="1.249475" PMx_abs="0.295367" NOx_abs="8.062733" fuel_abs="9.300872" electricity_abs="0"
            CO_normed="424.538186" CO2_normed="55208.398244" HC_normed="3.188115" PMx_normed="0.753647" NOx_normed="20.572569" fuel_normed="23.731759" electricity_normed="0"
            traveltime="0.02" CO_perVeh="0.329472" CO2_perVeh="42.845726" HC_perVeh="0.002474" PMx_perVeh="0.000585" NOx_perVeh="0.015966" fuel_perVeh="0.018418" electricity_perVeh="0"/>
        <edge id=":1110673517_0" sampledSeconds="16.97" CO_abs="871.477377" CO2_abs="60645.385655" HC_abs="5.402522" PMx_abs="1.107909" NOx_abs="25.084974" fuel_abs="26.068743" electricity_abs="0"
            CO_normed="2223.629283" CO2_normed="154740.511984" HC_normed="13.784874" PMx_normed="2.826900" NOx_normed="64.005888" fuel_normed="66.516037" electricity_normed="0"
            traveltime="0.03" CO_perVeh="1.399214" CO2_perVeh="97.370167" HC_perVeh="0.008674" PMx_perVeh="0.001779" NOx_perVeh="0.040276" fuel_perVeh="0.041855" electricity_perVeh="0"/>
        <edge id=":1110673534_0" sampledSeconds="475.11" CO_abs="3109.800477" CO2_abs="266182.882693" HC_abs="20.226245" PMx_abs="3.619532" NOx_abs="101.287837" fuel_abs="114.421501" electricity_abs="0"
            CO_normed="153.776188" CO2_normed="13162.448645" HC_normed="1.000165" PMx_normed="0.178982" NOx_normed="5.008571" fuel_normed="5.658016" electricity_normed="0"
            traveltime="1.43" CO_perVeh="9.368582" CO2_perVeh="801.902340" HC_perVeh="0.060934" PMx_perVeh="0.010904" NOx_perVeh="0.305140" fuel_perVeh="0.344706" electricity_perVeh="0"/>
        <edge id=":1110673534_1" sampledSeconds="245.54" CO_abs="3328.241426" CO2_abs="422219.684130" HC_abs="24.816346" PMx_abs="5.654221" NOx_abs="156.880183" fuel_abs="181.494642" electricity_abs="0"
            CO_normed="160.029217" CO2_normed="20301.257281" HC_normed="1.193225" PMx_normed="0.271867" NOx_normed="7.543147" fuel_normed="8.726664" electricity_normed="0"
            traveltime="1.23" CO_perVeh="16.645494" CO2_perVeh="2111.642248" HC_perVeh="0.124114" PMx_perVeh="0.028278" NOx_perVeh="0.784603" fuel_perVeh="0.907707" electricity_perVeh="0"/>
        <edge id=":1110673549_0" sampledSeconds="59.19" CO_abs="24.177034" CO2_abs="4343.338271" HC_abs="0.206158" PMx_abs="0.035099" NOx_abs="1.463206" fuel_abs="1.867047" electricity_abs="0"
            CO_normed="1.158121" CO2_normed="208.053201" HC_normed="0.009875" PMx_normed="0.001681" NOx_normed="0.070090" fuel_normed="0.089435" electricity_normed="0"
            traveltime="1.23" CO_perVeh="0.503708" CO2_perVeh="90.489753" HC_perVeh="0.004295" PMx_perVeh="0.000731" NOx_perVeh="0.030485" fuel_perVeh="0.038898" electricity_perVeh="0"/>
        <edge id=":1110673549_1" sampledSeconds="639.54" CO_abs="13006.854015" CO2_abs="1800725.850183" HC_abs="102.121126" PMx_abs="31.242925" NOx_abs="667.418317" fuel_abs="774.049963" electricity_abs="0"
            CO_normed="602.684115" CO2_normed="83438.229123" HC_normed="4.731873" PMx_normed="1.447669" NOx_normed="30.925420" fuel_normed="35.866291" electricity_normed="0"
            traveltime="0.81" CO_perVeh="16.373053" CO2_perVeh="2266.757118" HC_perVeh="0.128550" PMx_perVeh="0.039329" NOx_perVeh="0.840147" fuel_perVeh="0.974376" electricity_perVeh="0"/>
        <edge id=":1110673556_0" sampledSeconds="414.30" CO_abs="50879.181512" CO2_abs="2564636.975903" HC_abs="292.677100" PMx_abs="51.808759" NOx_abs="1104.859636" fuel_abs="1102.426102" electricity_abs="0"
            CO_normed="1807.258865" CO2_normed="91097.434606" HC_normed="10.396065" PMx_normed="1.840278" NOx_normed="39.245273" fuel_normed="39.158832" electricity_normed="0"
            traveltime="2.57" CO_perVeh="315.833149" CO2_perVeh="15920.015794" HC_perVeh="1.816797" PMx_perVeh="0.321604" NOx_perVeh="6.858430" fuel_perVeh="6.843324" electricity_perVeh="0"/>
        <edge id=":1110673556_2" sampledSeconds="246.80" CO_abs="23764.775279" CO2_abs="1027723.158742" HC_abs="132.375878" PMx_abs="19.964314" NOx_abs="439.182539" fuel_abs="441.777513" electricity_abs="0"
            CO_normed="882.639262" CO2_normed="38170.308787" HC_normed="4.916526" PMx_normed="0.741488" NOx_normed="16.311526" fuel_normed="16.407905" electricity_normed="0"
            traveltime="2.99" CO_perVeh="288.262170" CO2_perVeh="12466.084974" HC_perVeh="1.605694" PMx_perVeh="0.242163" NOx_perVeh="5.327200" fuel_perVeh="5.358677" electricity_perVeh="0"/>
        <edge id=":1110673556_3" sampledSeconds="371.81" CO_abs="31910.745290" CO2_abs="1145817.059407" HC_abs="172.020079" PMx_abs="22.068536" NOx_abs="489.923992" fuel_abs="492.546174" electricity_abs="0"
            CO_normed="2696.101710" CO2_normed="96808.749050" HC_normed="14.533776" PMx_normed="1.864545" NOx_normed="41.393108" fuel_normed="41.614653" electricity_normed="0"
            traveltime="1.74" CO_perVeh="149.535523" CO2_perVeh="5369.362327" HC_perVeh="0.806096" PMx_perVeh="0.103414" NOx_perVeh="2.295811" fuel_perVeh="2.308099" electricity_perVeh="0"/>
        <edge id=":1110673556_4" sampledSeconds="171.46" CO_abs="18224.474275" CO2_abs="735271.530696" HC_abs="100.248116" PMx_abs="14.389975" NOx_abs="315.382232" fuel_abs="316.064964" electricity_abs="0"
            CO_normed="940.678851" CO2_normed="37951.952313" HC_normed="5.174431" PMx_normed="0.742756" NOx_normed="16.278845" fuel_normed="16.314085" electricity_normed="0"
            traveltime="2.40" CO_perVeh="255.616988" CO2_perVeh="10312.939129" HC_perVeh="1.406083" PMx_perVeh="0.201834" NOx_perVeh="4.423560" fuel_perVeh="4.433136" electricity_perVeh="0"/>
        <edge id=":1110673556_5" sampledSeconds="24.67" CO_abs="1769.101114" CO2_abs="72324.721106" HC_abs="9.747898" PMx_abs="1.381876" NOx_abs="30.806071" fuel_abs="31.089648" electricity_abs="0"
            CO_normed="127.273665" CO2_normed="5203.225664" HC_normed="0.701289" PMx_normed="0.099416" NOx_normed="2.216268" fuel_normed="2.236669" electricity_normed="0"
            traveltime="1.71" CO_perVeh="122.308225" CO2_perVeh="5000.227632" HC_perVeh="0.673929" PMx_perVeh="0.095537" NOx_perVeh="2.129802" fuel_perVeh="2.149408" electricity_perVeh="0"/>
        <edge id=":1110673556_6" sampledSeconds="303.67" CO_abs="36124.236512" CO2_abs="1869784.120784" HC_abs="208.967901" PMx_abs="37.567800" NOx_abs="803.273667" fuel_abs="803.738602" electricity_abs="0"
            CO_normed="1315.507981" CO2_normed="68090.461469" HC_normed="7.609820" PMx_normed="1.368077" NOx_normed="29.252187" fuel_normed="29.269118" electricity_normed="0"
            traveltime="2.40" CO_perVeh="286.074894" CO2_perVeh="14807.186131" HC_perVeh="1.654858" PMx_perVeh="0.297507" NOx_perVeh="6.361281" fuel_perVeh="6.364963" electricity_perVeh="0"/>
        <edge id=":1110673561_0" sampledSeconds="100.18" CO_abs="9573.145057" CO2_abs="692610.562821" HC_abs="60.241940" PMx_abs="13.925180" NOx_abs="292.258814" fuel_abs="297.720338" electricity_abs="0"
            CO_normed="438.012214" CO2_normed="31689.887077" HC_normed="2.756326" PMx_normed="0.637136" NOx_normed="13.372087" fuel_normed="13.621975" electricity_normed="0"
            traveltime="1.18" CO_perVeh="112.972403" CO2_perVeh="8173.476889" HC_perVeh="0.710913" PMx_perVeh="0.164331" NOx_perVeh="3.448938" fuel_perVeh="3.513389" electricity_perVeh="0"/>
        <edge id=":1110673561_1" sampledSeconds="1315.21" CO_abs="122380.572780" CO2_abs="8451620.327038" HC_abs="761.749283" PMx_abs="176.956976" NOx_abs="3616.159332" fuel_abs="3632.943181" electricity_abs="0"
            CO_normed="5459.120995" CO2_normed="377007.697529" HC_normed="33.979915" PMx_normed="7.893651" NOx_normed="161.308702" fuel_normed="162.057391" electricity_normed="0"
            traveltime="1.19" CO_perVeh="111.097528" CO2_perVeh="7672.411595" HC_perVeh="0.691519" PMx_perVeh="0.160642" NOx_perVeh="3.282763" fuel_perVeh="3.297999" electricity_perVeh="0"/>
        <edge id=":1110673562_0" sampledSeconds="104.14" CO_abs="2116.538239" CO2_abs="169963.365344" HC_abs="13.502815" PMx_abs="2.242458" NOx_abs="64.432988" fuel_abs="73.060731" electricity_abs="0"
            CO_normed="6000.533671" CO2_normed="481858.006503" HC_normed="38.281423" PMx_normed="6.357524" NOx_normed="182.672021" fuel_normed="207.132274" electricity_normed="0"
            traveltime="0.03" CO_perVeh="0.539515" CO2_perVeh="43.324436" HC_perVeh="0.003442" PMx_perVeh="0.000572" NOx_perVeh="0.016424" fuel_perVeh="0.018624" electricity_perVeh="0"/>
        <edge id=":1110673564_0" sampledSeconds="29.03" CO_abs="469.595775" CO2_abs="56883.826118" HC_abs="3.421955" PMx_abs="0.765546" NOx_abs="21.192684" fuel_abs="24.451991" electricity_abs="0"
            CO_normed="3594.609376" CO2_normed="435427.969432" HC_normed="26.194002" PMx_normed="5.860013" NOx_normed="162.223397" fuel_normed="187.172377" electricity_normed="0"
            traveltime="7.981514e-03" CO_perVeh="0.129098" CO2_perVeh="15.638165" HC_perVeh="0.000941" PMx_perVeh="0.000210" NOx_perVeh="0.005826" fuel_perVeh="0.006722" electricity_perVeh="0"/>
        <edge id=":1110673588_0" sampledSeconds="11.50" CO_abs="244.169293" CO2_abs="26425.816292" HC_abs="1.719794" PMx_abs="0.388047" NOx_abs="10.084175" fuel_abs="11.359330" electricity_abs="0"
            CO_normed="747.615951" CO2_normed="80912.556794" HC_normed="5.265796" PMx_normed="1.188152" NOx_normed="30.876489" fuel_normed="34.780854" electricity_normed="0"
            traveltime="0.02" CO_perVeh="0.406949" CO2_perVeh="44.043027" HC_perVeh="0.002866" PMx_perVeh="0.000647" NOx_perVeh="0.016807" fuel_perVeh="0.018932" electricity_perVeh="0"/>
        <edge id=":1110673601_0" sampledSeconds="30.03" CO_abs="455.184973" CO2_abs="51463.164482" HC_abs="3.257625" PMx_abs="0.700262" NOx_abs="19.312495" fuel_abs="22.121884" electricity_abs="0"
            CO_normed="1244.392562" CO2_normed="140690.890417" HC_normed="8.905751" PMx_normed="1.914387" NOx_normed="52.796835" fuel_normed="60.477189" electricity_normed="0"
            traveltime="0.02" CO_perVeh="0.337844" CO2_perVeh="38.196650" HC_perVeh="0.002418" PMx_perVeh="0.000520" NOx_perVeh="0.014334" fuel_perVeh="0.016419" electricity_perVeh="0"/>
        <edge id=":1110673617_0" sampledSeconds="248.24" CO_abs="6536.878690" CO2_abs="793800.527606" HC_abs="48.729730" PMx_abs="14.278813" NOx_abs="300.491652" fuel_abs="341.218270" electricity_abs="0"
            CO_normed="16679.256704" CO2_normed="2025431.922448" HC_normed="124.336967" PMx_normed="36.433289" NOx_normed="766.723331" fuel_normed="870.639855" electricity_normed="0"
            traveltime="0.01" CO_perVeh="0.385248" CO2_perVeh="46.782307" HC_perVeh="0.002872" PMx_perVeh="0.000842" NOx_perVeh="0.017709" fuel_perVeh="0.020110" electricity_perVeh="0"/>
        <edge id=":1110673621_0" sampledSeconds="25.83" CO_abs="548.723914" CO2_abs="56273.798934" HC_abs="3.798060" PMx_abs="0.834594" NOx_abs="21.607267" fuel_abs="24.189709" electricity_abs="0"
            CO_normed="1680.124252" CO2_normed="172303.360548" HC_normed="11.629185" PMx_normed="2.555423" NOx_normed="66.158760" fuel_normed="74.065874" electricity_normed="0"
            traveltime="0.02" CO_perVeh="0.415700" CO2_perVeh="42.631666" HC_perVeh="0.002877" PMx_perVeh="0.000632" NOx_perVeh="0.016369" fuel_perVeh="0.018326" electricity_perVeh="0"/>
        <edge id=":1110673630_0" sampledSeconds="54.14" CO_abs="97.910349" CO2_abs="11174.266917" HC_abs="0.699360" PMx_abs="0.132069" NOx_abs="4.074024" fuel_abs="4.803383" electricity_abs="0"
            CO_normed="5.345743" CO2_normed="610.096522" HC_normed="0.038184" PMx_normed="0.007211" NOx_normed="0.222435" fuel_normed="0.262257" electricity_normed="0"
            traveltime="1.26" CO_perVeh="2.285401" CO2_perVeh="260.827155" HC_perVeh="0.016324" PMx_perVeh="0.003083" NOx_perVeh="0.095095" fuel_perVeh="0.112119" electricity_perVeh="0"/>
        <edge id=":1110673630_1" sampledSeconds="7.17" CO_abs="22.063793" CO2_abs="2717.231617" HC_abs="0.161131" PMx_abs="0.026906" NOx_abs="0.959261" fuel_abs="1.168039" electricity_abs="0"
            CO_normed="1.468621" CO2_normed="180.865753" HC_normed="0.010725" PMx_normed="0.001791" NOx_normed="0.063851" fuel_normed="0.077748" electricity_normed="0"
            traveltime="1.01" CO_perVeh="3.122875" CO2_perVeh="384.592783" HC_perVeh="0.022806" PMx_perVeh="0.003808" NOx_perVeh="0.135772" fuel_perVeh="0.165322" electricity_perVeh="0"/>
        <edge id=":1110673650_0" sampledSeconds="158.67" CO_abs="2396.157098" CO2_abs="297986.206030" HC_abs="17.720558" PMx_abs="4.079998" NOx_abs="111.335476" fuel_abs="128.091744" electricity_abs="0"
            CO_normed="6113.945392" CO2_normed="760330.527825" HC_normed="45.215118" PMx_normed="10.410372" NOx_normed="284.079463" fuel_normed="326.834133" electricity_normed="0"
            traveltime="0.02" CO_perVeh="0.348887" CO2_perVeh="43.387625" HC_perVeh="0.002580" PMx_perVeh="0.000594" NOx_perVeh="0.016211" fuel_perVeh="0.018651" electricity_perVeh="0"/>
        <edge id=":1110673655_0" sampledSeconds="45.03" CO_abs="708.904941" CO2_abs="82953.356916" HC_abs="5.102291" PMx_abs="1.116640" NOx_abs="30.979737" fuel_abs="35.658212" electricity_abs="0"
            CO_normed="1808.815500" CO2_normed="211660.702317" HC_normed="13.018815" PMx_normed="2.849178" NOx_normed="79.046744" fuel_normed="90.984168" electricity_normed="0"
            traveltime="0.02" CO_perVeh="0.379398" CO2_perVeh="44.395695" HC_perVeh="0.002731" PMx_perVeh="0.000598" NOx_perVeh="0.016580" fuel_perVeh="0.019084" electricity_perVeh="0"/>
        <edge id=":1110673663_0" sampledSeconds="109.30" CO_abs="1895.399359" CO2_abs="222588.519818" HC_abs="13.699357" PMx_abs="3.066271" NOx_abs="83.433260" fuel_abs="95.681491" electricity_abs="0"
            CO_normed="88.575651" CO2_normed="10401.988902" HC_normed="0.640197" PMx_normed="0.143293" NOx_normed="3.898996" fuel_normed="4.471380" electricity_normed="0"
            traveltime="1.28" CO_perVeh="22.262360" CO2_perVeh="2614.407223" HC_perVeh="0.160905" PMx_perVeh="0.036015" NOx_perVeh="0.979963" fuel_perVeh="1.123824" electricity_perVeh="0"/>
        <edge id=":1110673663_1" sampledSeconds="154.16" CO_abs="2488.196431" CO2_abs="304711.998335" HC_abs="18.307632" PMx_abs="4.293096" NOx_abs="114.500760" fuel_abs="130.982739" electricity_abs="0"
            CO_normed="116.420346" CO2_normed="14257.184771" HC_normed="0.856597" PMx_normed="0.200870" NOx_normed="5.357382" fuel_normed="6.128558" electricity_normed="0"
            traveltime="1.25" CO_perVeh="20.163775" CO2_perVeh="2469.316374" HC_perVeh="0.148361" PMx_perVeh="0.034790" NOx_perVeh="0.927888" fuel_perVeh="1.061454" electricity_perVeh="0"/>
        <edge id=":1110673666_0" sampledSeconds="254.66" CO_abs="5150.084384" CO2_abs="411936.299034" HC_abs="32.839346" PMx_abs="5.514726" NOx_abs="156.692983" fuel_abs="177.075509" electricity_abs="0"