<?xml version="1.0" encoding="UTF-8"?>

<!-- generated on Mon Nov  9 21:23:19 2020 by Eclipse SUMO sumo Version 1.7.0
<configuration xmlns:xsi="http://www.w3.org/2001/XMLSchema-instance" xsi:noNamespaceSchemaLocation="http://sumo.dlr.de/xsd/sumoConfiguration.xsd">

    <input>
        <net-file value="../dataSets/Porto/6AM7AM_Routing_SaoBento/Porto.net.xml"/>
        <route-files value="../results/Porto/6AM7AM_Routing_SaoBento/length-ttime/solution11/Porto.rou.xml"/>
        <additional-files value="moreOutputInfo.xml"/>
    </input>

    <output>
        <emission-output.precision value="6"/>
        <tripinfo-output value="../results/Porto/6AM7AM_Routing_SaoBento/length-ttime/solution11/Porto-tripinfo"/>
    </output>

    <processing>
        <collision.action value="warn"/>
        <time-to-teleport value="-1"/>
    </processing>

    <emissions>
        <device.emissions.probability value="1"/>
    </emissions>

    <gui_only>
        <quit-on-end value="true"/>
        <start value="true"/>
    </gui_only>

</configuration>
-->

<meandata xmlns:xsi="http://www.w3.org/2001/XMLSchema-instance" xsi:noNamespaceSchemaLocation="http://sumo.dlr.de/xsd/meandata_file.xsd">
    <interval begin="0.00" end="4698.00" id="emissions-detector">
        <edge id=":1092997347_0" sampledSeconds="270.05" CO_abs="34761.472851" CO2_abs="1370550.190091" HC_abs="190.680414" PMx_abs="28.048871" NOx_abs="595.566721" fuel_abs="589.145665" electricity_abs="0"
            CO_normed="60538.963516" CO2_normed="2386886.433456" HC_normed="332.080136" PMx_normed="48.848608" NOx_normed="1037.211287" fuel_normed="1026.028674" electricity_normed="0"
            traveltime="0.08" CO_perVeh="9.758380" CO2_perVeh="384.746335" HC_perVeh="0.053529" PMx_perVeh="0.007874" NOx_perVeh="0.167190" fuel_perVeh="0.165387" electricity_perVeh="0"/>
        <edge id=":1103427051_0" sampledSeconds="11.01" CO_abs="861.675984" CO2_abs="48362.418118" HC_abs="5.073021" PMx_abs="0.955874" NOx_abs="20.686433" fuel_abs="20.788854" electricity_abs="0"
            CO_normed="2276.855554" CO2_normed="127790.773202" HC_normed="13.404732" PMx_normed="2.525761" NOx_normed="54.660941" fuel_normed="54.931573" electricity_normed="0"
            traveltime="0.03" CO_perVeh="2.360979" CO2_perVeh="132.512295" HC_perVeh="0.013900" PMx_perVeh="0.002619" NOx_perVeh="0.056681" fuel_perVeh="0.056961" electricity_perVeh="0"/>
        <edge id=":1105984386_0" sampledSeconds="22.70" CO_abs="497.159920" CO2_abs="39357.550450" HC_abs="3.153867" PMx_abs="0.493365" NOx_abs="14.775634" fuel_abs="16.918345" electricity_abs="0"
            CO_normed="39.234342" CO2_normed="3105.977599" HC_normed="0.248894" PMx_normed="0.038935" NOx_normed="1.166048" fuel_normed="1.335144" electricity_normed="0"
            traveltime="0.95" CO_perVeh="20.865417" CO2_perVeh="1651.805908" HC_perVeh="0.132365" PMx_perVeh="0.020706" NOx_perVeh="0.620122" fuel_perVeh="0.710050" electricity_perVeh="0"/>
        <edge id=":1105984390_0" sampledSeconds="23.29" CO_abs="32.541153" CO2_abs="3186.131324" HC_abs="0.219440" PMx_abs="0.033947" NOx_abs="1.148702" fuel_abs="1.369603" electricity_abs="0"
            CO_normed="1.985330" CO2_normed="194.385346" HC_normed="0.013388" PMx_normed="0.002071" NOx_normed="0.070082" fuel_normed="0.083559" electricity_normed="0"
            traveltime="1.06" CO_perVeh="1.475725" CO2_perVeh="144.489491" HC_perVeh="0.009951" PMx_perVeh="0.001539" NOx_perVeh="0.052093" fuel_perVeh="0.062111" electricity_perVeh="0"/>
        <edge id=":1105984390_1" sampledSeconds="645.97" CO_abs="13912.472132" CO2_abs="1862342.482505" HC_abs="107.778282" PMx_abs="32.675125" NOx_abs="693.200421" fuel_abs="800.535925" electricity_abs="0"
            CO_normed="811.949595" CO2_normed="108688.679518" HC_normed="6.290078" PMx_normed="1.906962" NOx_normed="40.456060" fuel_normed="46.720296" electricity_normed="0"
            traveltime="0.64" CO_perVeh="13.696961" CO2_perVeh="1833.493825" HC_perVeh="0.106109" PMx_perVeh="0.032169" NOx_perVeh="0.682462" fuel_perVeh="0.788135" electricity_perVeh="0"/>
        <edge id=":1105984395_0" sampledSeconds="8.82" CO_abs="345.164081" CO2_abs="25949.621263" HC_abs="2.168015" PMx_abs="0.378413" NOx_abs="10.101445" fuel_abs="11.154707" electricity_abs="0"
            CO_normed="287.492988" CO2_normed="21613.877447" HC_normed="1.805776" PMx_normed="0.315186" NOx_normed="8.413664" fuel_normed="9.290944" electricity_normed="0"
            traveltime="0.09" CO_perVeh="3.500341" CO2_perVeh="263.157535" HC_perVeh="0.021986" PMx_perVeh="0.003838" NOx_perVeh="0.102440" fuel_perVeh="0.113121" electricity_perVeh="0"/>
        <edge id=":1105984398_0" sampledSeconds="22.82" CO_abs="1239.547934" CO2_abs="90575.925304" HC_abs="7.769445" PMx_abs="1.553196" NOx_abs="36.759799" fuel_abs="38.934653" electricity_abs="0"
            CO_normed="78.564529" CO2_normed="5740.846924" HC_normed="0.492440" PMx_normed="0.098444" NOx_normed="2.329895" fuel_normed="2.467741" electricity_normed="0"
            traveltime="1.11" CO_perVeh="60.094642" CO2_perVeh="4391.220137" HC_perVeh="0.376671" PMx_perVeh="0.075301" NOx_perVeh="1.782155" fuel_perVeh="1.887595" electricity_perVeh="0"/>
        <edge id=":1105984398_1" sampledSeconds="450.10" CO_abs="7680.633906" CO2_abs="939452.135976" HC_abs="56.552931" PMx_abs="13.251843" NOx_abs="353.352973" fuel_abs="403.830521" electricity_abs="0"
            CO_normed="471.220434" CO2_normed="57637.045175" HC_normed="3.469622" PMx_normed="0.813024" NOx_normed="21.678828" fuel_normed="24.775715" electricity_normed="0"
            traveltime="0.95" CO_perVeh="16.247686" CO2_perVeh="1987.325965" HC_perVeh="0.119633" PMx_perVeh="0.028033" NOx_perVeh="0.747486" fuel_perVeh="0.854267" electricity_perVeh="0"/>
        <edge id=":1106006327_0" sampledSeconds="39.59" CO_abs="5364.815528" CO2_abs="171244.945305" HC_abs="28.458362" PMx_abs="3.581495" NOx_abs="75.004639" fuel_abs="73.612219" electricity_abs="0"
            CO_normed="463.992071" CO2_normed="14810.629832" HC_normed="2.461306" PMx_normed="0.309756" NOx_normed="6.487000" fuel_normed="6.366572" electricity_normed="0"
            traveltime="2.15" CO_perVeh="291.037629" CO2_perVeh="9289.922945" HC_perVeh="1.543847" PMx_perVeh="0.194294" NOx_perVeh="4.068951" fuel_perVeh="3.993413" electricity_perVeh="0"/>
        <edge id=":1106006327_1" sampledSeconds="160.36" CO_abs="21711.844278" CO2_abs="729068.943501" HC_abs="116.047971" PMx_abs="15.208774" NOx_abs="319.078658" fuel_abs="313.400360" electricity_abs="0"
            CO_normed="1637.542182" CO2_normed="54987.551174" HC_normed="8.752524" PMx_normed="1.147070" NOx_normed="24.065425" fuel_normed="23.637159" electricity_normed="0"
            traveltime="2.28" CO_perVeh="308.227613" CO2_perVeh="10350.073309" HC_perVeh="1.647451" PMx_perVeh="0.215908" NOx_perVeh="4.529733" fuel_perVeh="4.449122" electricity_perVeh="0"/>
        <edge id=":1106006327_2" sampledSeconds="0.00" CO_abs="0" CO2_abs="0" HC_abs="0" PMx_abs="0" NOx_abs="0" fuel_abs="0" electricity_abs="0"
            CO_normed="0" CO2_normed="0" HC_normed="0" PMx_normed="0" NOx_normed="0" fuel_normed="0" electricity_normed="0"/>
        <edge id=":1106006327_3" sampledSeconds="0.00" CO_abs="0" CO2_abs="0" HC_abs="0" PMx_abs="0" NOx_abs="0" fuel_abs="0" electricity_abs="0"
            CO_normed="0" CO2_normed="0" HC_normed="0" PMx_normed="0" NOx_normed="0" fuel_normed="0" electricity_normed="0"/>
        <edge id=":1107381198_0" sampledSeconds="0.00" CO_abs="0" CO2_abs="0" HC_abs="0" PMx_abs="0" NOx_abs="0" fuel_abs="0" electricity_abs="0"
            CO_normed="0" CO2_normed="0" HC_normed="0" PMx_normed="0" NOx_normed="0" fuel_normed="0" electricity_normed="0"/>
        <edge id=":1107381198_1" sampledSeconds="35.17" CO_abs="1375.540276" CO2_abs="60164.737280" HC_abs="7.657950" PMx_abs="1.063969" NOx_abs="25.058708" fuel_abs="25.862584" electricity_abs="0"
            CO_normed="114.945894" CO2_normed="5027.616898" HC_normed="0.639930" PMx_normed="0.088910" NOx_normed="2.094010" fuel_normed="2.161186" electricity_normed="0"
            traveltime="1.45" CO_perVeh="56.634808" CO2_perVeh="2477.149070" HC_perVeh="0.315299" PMx_perVeh="0.043807" NOx_perVeh="1.031736" fuel_perVeh="1.064834" electricity_perVeh="0"/>
        <edge id=":1110338277_0" sampledSeconds="96.91" CO_abs="1405.947563" CO2_abs="188509.797786" HC_abs="10.698721" PMx_abs="2.473079" NOx_abs="69.574273" fuel_abs="81.032526" electricity_abs="0"
            CO_normed="3847.694481" CO2_normed="515899.829736" HC_normed="29.279477" PMx_normed="6.768140" NOx_normed="190.405783" fuel_normed="221.763893" electricity_normed="0"
            traveltime="0.02" CO_perVeh="0.316856" CO2_perVeh="42.484159" HC_perVeh="0.002411" PMx_perVeh="0.000557" NOx_perVeh="0.015680" fuel_perVeh="0.018262" electricity_perVeh="0"/>
        <edge id=":1110338293_0" sampledSeconds="122.99" CO_abs="6525.390643" CO2_abs="445265.578616" HC_abs="40.204684" PMx_abs="7.970189" NOx_abs="183.350674" fuel_abs="191.400126" electricity_abs="0"
            CO_normed="16667.664479" CO2_normed="1137332.257002" HC_normed="102.693956" PMx_normed="20.358081" NOx_normed="468.328670" fuel_normed="488.889211" electricity_normed="0"
            traveltime="0.03" CO_perVeh="1.496709" CO2_perVeh="102.129216" HC_perVeh="0.009222" PMx_perVeh="0.001828" NOx_perVeh="0.042055" fuel_perVeh="0.043901" electricity_perVeh="0"/>
        <edge id=":1110338295_0" sampledSeconds="0.00" CO_abs="0" CO2_abs="0" HC_abs="0" PMx_abs="0" NOx_abs="0" fuel_abs="0" electricity_abs="0"
            CO_normed="0" CO2_normed="0" HC_normed="0" PMx_normed="0" NOx_normed="0" fuel_normed="0" electricity_normed="0"/>
        <edge id=":1110673403_0" sampledSeconds="143.50" CO_abs="2319.795189" CO2_abs="283702.552602" HC_abs="17.022487" PMx_abs="3.971828" NOx_abs="106.524078" fuel_abs="121.951698" electricity_abs="0"
            CO_normed="5925.402781" CO2_normed="724655.306775" HC_normed="43.480172" PMx_normed="10.145153" NOx_normed="272.092154" fuel_normed="311.498589" electricity_normed="0"
            traveltime="0.02" CO_perVeh="0.372458" CO2_perVeh="45.550316" HC_perVeh="0.002733" PMx_perVeh="0.000638" NOx_perVeh="0.017103" fuel_perVeh="0.019580" electricity_perVeh="0"/>
        <edge id=":1110673412_0" sampledSeconds="252.50" CO_abs="45167.790738" CO2_abs="3078916.683523" HC_abs="281.030201" PMx_abs="67.687831" NOx_abs="1323.359154" fuel_abs="1323.474632" electricity_abs="0"
            CO_normed="119349.427238" CO2_normed="8135596.997022" HC_normed="742.582113" PMx_normed="178.855413" NOx_normed="3496.787302" fuel_normed="3497.092434" electricity_normed="0"
            traveltime="0.02" CO_perVeh="2.777767" CO2_perVeh="189.349856" HC_perVeh="0.017283" PMx_perVeh="0.004163" NOx_perVeh="0.081385" fuel_perVeh="0.081392" electricity_perVeh="0"/>
        <edge id=":1110673414_0" sampledSeconds="0.00" CO_abs="0" CO2_abs="0" HC_abs="0" PMx_abs="0" NOx_abs="0" fuel_abs="0" electricity_abs="0"
            CO_normed="0" CO2_normed="0" HC_normed="0" PMx_normed="0" NOx_normed="0" fuel_normed="0" electricity_normed="0"/>
        <edge id=":1110673414_1" sampledSeconds="14.19" CO_abs="914.149163" CO2_abs="34753.062289" HC_abs="4.974449" PMx_abs="0.667648" NOx_abs="14.829125" fuel_abs="14.939069" electricity_abs="0"
            CO_normed="77.574468" CO2_normed="2949.136110" HC_normed="0.422130" PMx_normed="0.056656" NOx_normed="1.258396" fuel_normed="1.267726" electricity_normed="0"
            traveltime="1.55" CO_perVeh="99.839949" CO2_perVeh="3795.599328" HC_perVeh="0.543291" PMx_perVeh="0.072918" NOx_perVeh="1.619581" fuel_perVeh="1.631589" electricity_perVeh="0"/>
        <edge id=":1110673417_0" sampledSeconds="29.71" CO_abs="405.013437" CO2_abs="47810.441166" HC_abs="2.935717" PMx_abs="0.636350" NOx_abs="17.812088" fuel_abs="20.551738" electricity_abs="0"
            CO_normed="1108.411157" CO2_normed="130844.119228" HC_normed="8.034256" PMx_normed="1.741515" NOx_normed="48.746820" fuel_normed="56.244494" electricity_normed="0"
            traveltime="0.02" CO_perVeh="0.300606" CO2_perVeh="35.485549" HC_perVeh="0.002179" PMx_perVeh="0.000472" NOx_perVeh="0.013220" fuel_perVeh="0.015254" electricity_perVeh="0"/>
        <edge id=":1110673446_0" sampledSeconds="333.92" CO_abs="3106.252371" CO2_abs="251430.510045" HC_abs="20.103729" PMx_abs="4.646045" NOx_abs="103.031692" fuel_abs="108.078366" electricity_abs="0"
            CO_normed="7934.233388" CO2_normed="642223.525018" HC_normed="51.350521" PMx_normed="11.867292" NOx_normed="263.171626" fuel_normed="276.062238" electricity_normed="0"
            traveltime="0.02" CO_perVeh="0.211860" CO2_perVeh="17.148677" HC_perVeh="0.001371" PMx_perVeh="0.000317" NOx_perVeh="0.007027" fuel_perVeh="0.007371" electricity_perVeh="0"/>
        <edge id=":1110673451_0" sampledSeconds="37.64" CO_abs="327.466775" CO2_abs="24811.953588" HC_abs="2.056528" PMx_abs="0.336616" NOx_abs="9.494030" fuel_abs="10.665706" electricity_abs="0"
            CO_normed="929.379240" CO2_normed="70418.486129" HC_normed="5.836605" PMx_normed="0.955347" NOx_normed="26.944885" fuel_normed="30.270203" electricity_normed="0"
            traveltime="0.03" CO_perVeh="0.234837" CO2_perVeh="17.793433" HC_perVeh="0.001475" PMx_perVeh="0.000241" NOx_perVeh="0.006808" fuel_perVeh="0.007649" electricity_perVeh="0"/>
        <edge id=":1110673464_0" sampledSeconds="322.56" CO_abs="649.811509" CO2_abs="51570.357510" HC_abs="4.140108" PMx_abs="0.720316" NOx_abs="19.794395" fuel_abs="22.168066" electricity_abs="0"
            CO_normed="35.264862" CO2_normed="2798.690888" HC_normed="0.224681" PMx_normed="0.039091" NOx_normed="1.074229" fuel_normed="1.203047" electricity_normed="0"
            traveltime="1.17" CO_perVeh="2.348983" CO2_perVeh="186.420038" HC_perVeh="0.014966" PMx_perVeh="0.002604" NOx_perVeh="0.071554" fuel_perVeh="0.080135" electricity_perVeh="0"/>
        <edge id=":1110673464_1" sampledSeconds="709.17" CO_abs="16526.477173" CO2_abs="2050330.429285" HC_abs="124.384329" PMx_abs="36.740361" NOx_abs="772.917125" fuel_abs="881.342751" electricity_abs="0"
            CO_normed="878.831866" CO2_normed="109030.841677" HC_normed="6.614411" PMx_normed="1.953750" NOx_normed="41.101572" fuel_normed="46.867344" electricity_normed="0"
            traveltime="0.70" CO_perVeh="16.308986" CO2_perVeh="2023.347777" HC_perVeh="0.122747" PMx_perVeh="0.036257" NOx_perVeh="0.762745" fuel_perVeh="0.869744" electricity_perVeh="0"/>
        <edge id=":1110673479_0" sampledSeconds="133.21" CO_abs="6822.038249" CO2_abs="473488.586570" HC_abs="42.196205" PMx_abs="8.321150" NOx_abs="193.848280" fuel_abs="203.532107" electricity_abs="0"
            CO_normed="17425.385055" CO2_normed="1209421.677064" HC_normed="107.780857" PMx_normed="21.254533" NOx_normed="495.142477" fuel_normed="519.877669" electricity_normed="0"
            traveltime="0.03" CO_perVeh="1.437126" CO2_perVeh="99.744804" HC_perVeh="0.008889" PMx_perVeh="0.001753" NOx_perVeh="0.040836" fuel_perVeh="0.042876" electricity_perVeh="0"/>
        <edge id=":1110673511_0" sampledSeconds="11.79" CO_abs="105.140812" CO2_abs="15153.827955" HC_abs="0.826132" PMx_abs="0.190414" NOx_abs="5.539426" fuel_abs="6.514007" electricity_abs="0"
            CO_normed="268.558906" CO2_normed="38707.095670" HC_normed="2.110172" PMx_normed="0.486371" NOx_normed="14.149235" fuel_normed="16.638588" electricity_normed="0"
            traveltime="0.02" CO_perVeh="0.208200" CO2_perVeh="30.007580" HC_perVeh="0.001636" PMx_perVeh="0.000377" NOx_perVeh="0.010969" fuel_perVeh="0.012899" electricity_perVeh="0"/>
        <edge id=":1110673517_0" sampledSeconds="17.03" CO_abs="793.103012" CO2_abs="56898.159131" HC_abs="4.945384" PMx_abs="0.972813" NOx_abs="23.073483" fuel_abs="24.458062" electricity_abs="0"
            CO_normed="2025.805905" CO2_normed="145333.739797" HC_normed="12.631887" PMx_normed="2.484836" NOx_normed="58.936100" fuel_normed="62.472700" electricity_normed="0"
            traveltime="0.03" CO_perVeh="1.273379" CO2_perVeh="91.353748" HC_perVeh="0.007940" PMx_perVeh="0.001562" NOx_perVeh="0.037046" fuel_perVeh="0.039269" electricity_perVeh="0"/>
        <edge id=":1110673534_0" sampledSeconds="475.84" CO_abs="2673.152045" CO2_abs="225611.729335" HC_abs="17.327474" PMx_abs="3.050960" NOx_abs="85.821733" fuel_abs="96.981619" electricity_abs="0"
            CO_normed="132.325089" CO2_normed="11168.123463" HC_normed="0.857736" PMx_normed="0.151027" NOx_normed="4.248306" fuel_normed="4.800737" electricity_normed="0"
            traveltime="1.43" CO_perVeh="8.053136" CO2_perVeh="679.677716" HC_perVeh="0.052201" PMx_perVeh="0.009191" NOx_perVeh="0.258546" fuel_perVeh="0.292167" electricity_perVeh="0"/>
        <edge id=":1110673534_1" sampledSeconds="184.52" CO_abs="2479.158029" CO2_abs="328934.938717" HC_abs="18.720980" PMx_abs="4.344582" NOx_abs="121.550725" fuel_abs="141.395426" electricity_abs="0"
            CO_normed="119.330273" CO2_normed="15832.752783" HC_normed="0.901104" PMx_normed="0.209119" NOx_normed="5.850648" fuel_normed="6.805841" electricity_normed="0"
            traveltime="1.23" CO_perVeh="16.460731" CO2_perVeh="2184.011464" HC_perVeh="0.124301" PMx_perVeh="0.028846" NOx_perVeh="0.807054" fuel_perVeh="0.938816" electricity_perVeh="0"/>
        <edge id=":1110673549_0" sampledSeconds="58.88" CO_abs="11.460557" CO2_abs="3513.905765" HC_abs="0.132667" PMx_abs="0.038648" NOx_abs="1.214752" fuel_abs="1.510484" electricity_abs="0"
            CO_normed="0.549564" CO2_normed="168.501132" HC_normed="0.006362" PMx_normed="0.001853" NOx_normed="0.058251" fuel_normed="0.072432" electricity_normed="0"
            traveltime="1.23" CO_perVeh="0.238771" CO2_perVeh="73.209233" HC_perVeh="0.002764" PMx_perVeh="0.000805" NOx_perVeh="0.025308" fuel_perVeh="0.031470" electricity_perVeh="0"/>
        <edge id=":1110673549_1" sampledSeconds="638.66" CO_abs="14040.395984" CO2_abs="1867808.134408" HC_abs="108.581383" PMx_abs="32.743765" NOx_abs="696.771927" fuel_abs="802.885321" electricity_abs="0"
            CO_normed="651.266594" CO2_normed="86638.656240" HC_normed="5.036569" PMx_normed="1.518826" NOx_normed="32.319906" fuel_normed="37.241997" electricity_normed="0"
            traveltime="0.80" CO_perVeh="17.674095" CO2_perVeh="2351.202831" HC_perVeh="0.136683" PMx_perVeh="0.041218" NOx_perVeh="0.877099" fuel_perVeh="1.010675" electricity_perVeh="0"/>
        <edge id=":1110673556_0" sampledSeconds="419.62" CO_abs="51800.117487" CO2_abs="2591245.489549" HC_abs="297.488233" PMx_abs="52.359714" NOx_abs="1116.792519" fuel_abs="1113.864223" electricity_abs="0"
            CO_normed="1841.929309" CO2_normed="92140.544205" HC_normed="10.578206" PMx_normed="1.861828" NOx_normed="39.711355" fuel_normed="39.607230" electricity_normed="0"
            traveltime="2.60" CO_perVeh="321.549871" CO2_perVeh="16085.188472" HC_perVeh="1.846662" PMx_perVeh="0.325024" NOx_perVeh="6.932503" fuel_perVeh="6.914326" electricity_perVeh="0"/>
        <edge id=":1110673556_2" sampledSeconds="249.52" CO_abs="24390.662214" CO2_abs="1045684.356362" HC_abs="135.614837" PMx_abs="20.179905" NOx_abs="446.072158" fuel_abs="449.498697" electricity_abs="0"
            CO_normed="906.849229" CO2_normed="38878.733359" HC_normed="5.042184" PMx_normed="0.750293" NOx_normed="16.585043" fuel_normed="16.712443" electricity_normed="0"
            traveltime="3.03" CO_perVeh="295.854059" CO2_perVeh="12683.950860" HC_perVeh="1.644982" PMx_perVeh="0.244778" NOx_perVeh="5.410770" fuel_perVeh="5.452333" electricity_perVeh="0"/>
        <edge id=":1110673556_3" sampledSeconds="416.19" CO_abs="34966.903134" CO2_abs="1247251.868199" HC_abs="188.253343" PMx_abs="23.815069" NOx_abs="532.013058" fuel_abs="536.149914" electricity_abs="0"
            CO_normed="2957.457151" CO2_normed="105491.010818" HC_normed="15.922233" PMx_normed="2.014249" NOx_normed="44.997002" fuel_normed="45.346893" electricity_normed="0"
            traveltime="1.74" CO_perVeh="146.114070" CO2_perVeh="5211.815460" HC_perVeh="0.786643" PMx_perVeh="0.099515" NOx_perVeh="2.223091" fuel_perVeh="2.240377" electricity_perVeh="0"/>
        <edge id=":1110673556_4" sampledSeconds="200.43" CO_abs="20972.177472" CO2_abs="830620.275766" HC_abs="114.974074" PMx_abs="16.194609" NOx_abs="355.931731" fuel_abs="357.052142" electricity_abs="0"
            CO_normed="1083.657052" CO2_normed="42919.125608" HC_normed="5.940846" PMx_normed="0.836794" NOx_normed="18.391411" fuel_normed="18.449304" electricity_normed="0"
            traveltime="2.45" CO_perVeh="256.200692" CO2_perVeh="10147.038362" HC_perVeh="1.404548" PMx_perVeh="0.197837" NOx_perVeh="4.348140" fuel_perVeh="4.361827" electricity_perVeh="0"/>
        <edge id=":1110673556_5" sampledSeconds="22.54" CO_abs="1570.653294" CO2_abs="71156.361364" HC_abs="8.813017" PMx_abs="1.309840" NOx_abs="29.955210" fuel_abs="30.587349" electricity_abs="0"
            CO_normed="113.117081" CO2_normed="5124.619117" HC_normed="0.634706" PMx_normed="0.094334" NOx_normed="2.157348" fuel_normed="2.202874" electricity_normed="0"
            traveltime="1.56" CO_perVeh="108.588376" CO2_perVeh="4919.452144" HC_perVeh="0.609295" PMx_perVeh="0.090557" NOx_perVeh="2.070978" fuel_perVeh="2.114681" electricity_perVeh="0"/>
        <edge id=":1110673556_6" sampledSeconds="466.65" CO_abs="54873.969077" CO2_abs="2761554.568523" HC_abs="315.513414" PMx_abs="55.583347" NOx_abs="1188.088005" fuel_abs="1187.072843" electricity_abs="0"
            CO_normed="2000.429041" CO2_normed="100672.396241" HC_normed="11.502033" PMx_normed="2.026289" NOx_normed="43.311716" fuel_normed="43.274708" electricity_normed="0"
            traveltime="2.50" CO_perVeh="294.470016" CO2_perVeh="14819.321996" HC_perVeh="1.693139" PMx_perVeh="0.298277" NOx_perVeh="6.375633" fuel_perVeh="6.370185" electricity_perVeh="0"/>
        <edge id=":1110673561_0" sampledSeconds="102.86" CO_abs="9513.386416" CO2_abs="682702.785659" HC_abs="59.748121" PMx_abs="13.734703" NOx_abs="288.233965" fuel_abs="293.461502" electricity_abs="0"
            CO_normed="435.741260" CO2_normed="31269.808551" HC_normed="2.736641" PMx_normed="0.629090" NOx_normed="13.201969" fuel_normed="13.441406" electricity_normed="0"
            traveltime="1.21" CO_perVeh="112.267193" CO2_perVeh="8056.555502" HC_perVeh="0.705086" PMx_perVeh="0.162083" NOx_perVeh="3.401441" fuel_perVeh="3.463131" electricity_perVeh="0"/>
        <edge id=":1110673561_1" sampledSeconds="1315.13" CO_abs="122403.265167" CO2_abs="8448102.399753" HC_abs="761.806981" PMx_abs="177.110831" NOx_abs="3615.776457" fuel_abs="3631.430745" electricity_abs="0"
            CO_normed="5465.944376" CO2_normed="377251.846482" HC_normed="34.018656" PMx_normed="7.908923" NOx_normed="161.463283" fuel_normed="162.162328" electricity_normed="0"
            traveltime="1.19" CO_perVeh="110.912587" CO2_perVeh="7655.031842" HC_perVeh="0.690292" PMx_perVeh="0.160484" NOx_perVeh="3.276343" fuel_perVeh="3.290528" electricity_perVeh="0"/>
        <edge id=":1110673562_0" sampledSeconds="103.72" CO_abs="2163.110054" CO2_abs="172035.218376" HC_abs="13.771157" PMx_abs="2.308562" NOx_abs="65.480804" fuel_abs="73.951299" electricity_abs="0"
            CO_normed="6139.094804" CO2_normed="488250.939055" HC_normed="39.083743" PMx_normed="6.551901" NOx_normed="185.840227" fuel_normed="209.880231" electricity_normed="0"
            traveltime="0.03" CO_perVeh="0.551387" CO2_perVeh="43.852560" HC_perVeh="0.003510" PMx_perVeh="0.000588" NOx_perVeh="0.016691" fuel_perVeh="0.018851" electricity_perVeh="0"/>
        <edge id=":1110673564_0" sampledSeconds="28.44" CO_abs="504.775166" CO2_abs="52241.014714" HC_abs="3.510520" PMx_abs="0.771190" NOx_abs="20.043338" fuel_abs="22.456189" electricity_abs="0"
            CO_normed="3868.008933" CO2_normed="400314.288994" HC_normed="26.900535" PMx_normed="5.909504" NOx_normed="153.588799" fuel_normed="172.078074" electricity_normed="0"
            traveltime="7.819313e-03" CO_perVeh="0.138770" CO2_perVeh="14.361791" HC_perVeh="0.000965" PMx_perVeh="0.000212" NOx_perVeh="0.005510" fuel_perVeh="0.006174" electricity_perVeh="0"/>
        <edge id=":1110673588_0" sampledSeconds="11.61" CO_abs="174.454211" CO2_abs="22660.316800" HC_abs="1.299415" PMx_abs="0.310929" NOx_abs="8.442438" fuel_abs="9.740710" electricity_abs="0"
            CO_normed="534.725550" CO2_normed="69456.909733" HC_normed="3.982881" PMx_normed="0.953040" NOx_normed="25.877204" fuel_normed="29.856584" electricity_normed="0"
            traveltime="0.02" CO_perVeh="0.290757" CO2_perVeh="37.767195" HC_perVeh="0.002166" PMx_perVeh="0.000518" NOx_perVeh="0.014071" fuel_perVeh="0.016235" electricity_perVeh="0"/>
        <edge id=":1110673601_0" sampledSeconds="29.72" CO_abs="508.118402" CO2_abs="61152.073391" HC_abs="3.714294" PMx_abs="0.827954" NOx_abs="22.832701" fuel_abs="26.286731" electricity_abs="0"
            CO_normed="1390.581287" CO2_normed="167356.522690" HC_normed="10.165009" PMx_normed="2.265885" NOx_normed="62.486866" fuel_normed="71.939602" electricity_normed="0"
            traveltime="0.02" CO_perVeh="0.377132" CO2_perVeh="45.387887" HC_perVeh="0.002757" PMx_perVeh="0.000615" NOx_perVeh="0.016947" fuel_perVeh="0.019510" electricity_perVeh="0"/>
        <edge id=":1110673617_0" sampledSeconds="238.49" CO_abs="5577.403596" CO2_abs="699051.298450" HC_abs="42.124230" PMx_abs="12.471992" NOx_abs="263.199869" fuel_abs="300.490030" electricity_abs="0"
            CO_normed="14246.241623" CO2_normed="1785571.643549" HC_normed="107.597012" PMx_normed="31.856941" NOx_normed="672.285744" fuel_normed="767.535199" electricity_normed="0"
            traveltime="0.01" CO_perVeh="0.341782" CO2_perVeh="42.837737" HC_perVeh="0.002581" PMx_perVeh="0.000764" NOx_perVeh="0.016129" fuel_perVeh="0.018414" electricity_perVeh="0"/>
        <edge id=":1110673621_0" sampledSeconds="25.88" CO_abs="543.139640" CO2_abs="56954.041186" HC_abs="3.793076" PMx_abs="0.847471" NOx_abs="21.846685" fuel_abs="24.482106" electricity_abs="0"
            CO_normed="1664.795832" CO2_normed="174571.773750" HC_normed="11.626288" PMx_normed="2.597613" NOx_normed="66.963019" fuel_normed="75.040938" electricity_normed="0"
            traveltime="0.02" CO_perVeh="0.411469" CO2_perVeh="43.147001" HC_perVeh="0.002874" PMx_perVeh="0.000642" NOx_perVeh="0.016551" fuel_perVeh="0.018547" electricity_perVeh="0"/>
        <edge id=":1110673630_0" sampledSeconds="54.66" CO_abs="122.895422" CO2_abs="12378.506094" HC_abs="0.838310" PMx_abs="0.140094" NOx_abs="4.506190" fuel_abs="5.321058" electricity_abs="0"
            CO_normed="6.717028" CO2_normed="676.565284" HC_normed="0.045819" PMx_normed="0.007657" NOx_normed="0.246292" fuel_normed="0.290830" electricity_normed="0"
            traveltime="1.28" CO_perVeh="2.868597" CO2_perVeh="288.936227" HC_perVeh="0.019568" PMx_perVeh="0.003270" NOx_perVeh="0.105182" fuel_perVeh="0.124203" electricity_perVeh="0"/>
        <edge id=":1110673630_1" sampledSeconds="7.63" CO_abs="22.826861" CO2_abs="2204.919290" HC_abs="0.154931" PMx_abs="0.032005" NOx_abs="0.847375" fuel_abs="0.947803" electricity_abs="0"
            CO_normed="1.521030" CO2_normed="146.921159" HC_normed="0.010324" PMx_normed="0.002133" NOx_normed="0.056463" fuel_normed="0.063155" electricity_normed="0"
            traveltime="1.08" CO_perVeh="3.230879" CO2_perVeh="312.080884" HC_perVeh="0.021929" PMx_perVeh="0.004530" NOx_perVeh="0.119936" fuel_perVeh="0.134151" electricity_perVeh="0"/>
        <edge id=":1110673650_0" sampledSeconds="143.57" CO_abs="2016.118610" CO2_abs="270957.509435" HC_abs="15.346131" PMx_abs="3.580288" NOx_abs="100.095703" fuel_abs="116.473332" electricity_abs="0"
            CO_normed="5149.728251" CO2_normed="692100.918098" HC_normed="39.198292" PMx_normed="9.145051" NOx_normed="255.672295" fuel_normed="297.505318" electricity_normed="0"
            traveltime="0.02" CO_perVeh="0.324190" CO2_perVeh="43.569772" HC_perVeh="0.002468" PMx_perVeh="0.000576" NOx_perVeh="0.016095" fuel_perVeh="0.018729" electricity_perVeh="0"/>
        <edge id=":1110673655_0" sampledSeconds="44.90" CO_abs="778.569201" CO2_abs="84753.732632" HC_abs="5.481405" PMx_abs="1.150158" NOx_abs="31.845329" fuel_abs="36.432142" electricity_abs="0"
            CO_normed="1988.682507" CO2_normed="216484.629967" HC_normed="14.001035" PMx_normed="2.937823" NOx_normed="81.341837" fuel_normed="93.057833" electricity_normed="0"
            traveltime="0.02" CO_perVeh="0.416681" CO2_perVeh="45.359236" HC_perVeh="0.002934" PMx_perVeh="0.000616" NOx_perVeh="0.017043" fuel_perVeh="0.019498" electricity_perVeh="0"/>
        <edge id=":1110673663_0" sampledSeconds="109.50" CO_abs="1545.502801" CO2_abs="197666.598626" HC_abs="11.442700" PMx_abs="2.614099" NOx_abs="73.157047" fuel_abs="84.968657" electricity_abs="0"
            CO_normed="72.301180" CO2_normed="9247.170815" HC_normed="0.535308" PMx_normed="0.122292" NOx_normed="3.422408" fuel_normed="3.974974" electricity_normed="0"
            traveltime="1.29" CO_perVeh="18.152659" CO2_perVeh="2321.687451" HC_perVeh="0.134400" PMx_perVeh="0.030704" NOx_perVeh="0.859264" fuel_perVeh="0.997997" electricity_perVeh="0"/>
        <edge id=":1110673663_1" sampledSeconds="153.71" CO_abs="2639.015548" CO2_abs="301462.795383" HC_abs="18.938739" PMx_abs="4.425718" NOx_abs="114.675747" fuel_abs="129.585897" electricity_abs="0"
            CO_normed="123.608444" CO2_normed="14120.169528" HC_normed="0.887069" PMx_normed="0.207296" NOx_normed="5.371280" fuel_normed="6.069654" electricity_normed="0"
            traveltime="1.25" CO_perVeh="21.435745" CO2_perVeh="2448.670550" HC_perVeh="0.153832" PMx_perVeh="0.035948" NOx_perVeh="0.931469" fuel_perVeh="1.052578" electricity_perVeh="0"/>
        <edge id=":1110673666_0" sampledSeconds="192.27" CO_abs="3757.201765" CO2_abs="305546.707029" HC_abs="24.071692" PMx_abs="4.072750" NOx_abs="116.040037" fuel_abs="131.342712" electricity_abs="0"