<?xml version="1.0" encoding="UTF-8"?>

<!-- generated on Mon Nov  9 21:14:36 2020 by Eclipse SUMO sumo Version 1.7.0
<configuration xmlns:xsi="http://www.w3.org/2001/XMLSchema-instance" xsi:noNamespaceSchemaLocation="http://sumo.dlr.de/xsd/sumoConfiguration.xsd">

    <input>
        <net-file value="../dataSets/Porto/6AM7AM_Routing_SaoBento/Porto.net.xml"/>
        <route-files value="../results/Porto/6AM7AM_Routing_SaoBento/length-ttime/solution3/Porto.rou.xml"/>
        <additional-files value="moreOutputInfo.xml"/>
    </input>

    <output>
        <emission-output.precision value="6"/>
        <tripinfo-output value="../results/Porto/6AM7AM_Routing_SaoBento/length-ttime/solution3/Porto-tripinfo"/>
    </output>

    <processing>
        <collision.action value="warn"/>
        <time-to-teleport value="-1"/>
    </processing>

    <emissions>
        <device.emissions.probability value="1"/>
    </emissions>

    <gui_only>
        <quit-on-end value="true"/>
        <start value="true"/>
    </gui_only>

</configuration>
-->

<meandata xmlns:xsi="http://www.w3.org/2001/XMLSchema-instance" xsi:noNamespaceSchemaLocation="http://sumo.dlr.de/xsd/meandata_file.xsd">
    <interval begin="0.00" end="4704.00" id="emissions-detector">
        <edge id=":1092997347_0" sampledSeconds="266.26" CO_abs="34334.294342" CO2_abs="1365836.135478" HC_abs="188.630131" PMx_abs="27.931649" NOx_abs="593.325534" fuel_abs="587.119052" electricity_abs="0"
            CO_normed="59718.740159" CO2_normed="2375642.628963" HC_normed="328.090442" PMx_normed="48.582413" NOx_normed="1031.990146" fuel_normed="1021.195012" electricity_normed="0"
            traveltime="0.07" CO_perVeh="9.641186" CO2_perVeh="383.531412" HC_perVeh="0.052968" PMx_perVeh="0.007843" NOx_perVeh="0.166608" fuel_perVeh="0.164865" electricity_perVeh="0"/>
        <edge id=":1103427051_0" sampledSeconds="11.04" CO_abs="869.488114" CO2_abs="48968.060382" HC_abs="5.121740" PMx_abs="0.960798" NOx_abs="20.898525" fuel_abs="21.049201" electricity_abs="0"
            CO_normed="2294.567506" CO2_normed="129226.056604" HC_normed="13.516204" PMx_normed="2.535534" NOx_normed="55.150929" fuel_normed="55.548560" electricity_normed="0"
            traveltime="0.03" CO_perVeh="2.382384" CO2_perVeh="134.171745" HC_perVeh="0.014033" PMx_perVeh="0.002633" NOx_perVeh="0.057262" fuel_perVeh="0.057674" electricity_perVeh="0"/>
        <edge id=":1105984386_0" sampledSeconds="23.00" CO_abs="477.332705" CO2_abs="38124.508065" HC_abs="3.037213" PMx_abs="0.484472" NOx_abs="14.347389" fuel_abs="16.388293" electricity_abs="0"
            CO_normed="37.621590" CO2_normed="3004.832074" HC_normed="0.239382" PMx_normed="0.038184" NOx_normed="1.130808" fuel_normed="1.291664" electricity_normed="0"
            traveltime="0.97" CO_perVeh="20.033284" CO2_perVeh="1600.056074" HC_perVeh="0.127469" PMx_perVeh="0.020333" NOx_perVeh="0.602149" fuel_perVeh="0.687804" electricity_perVeh="0"/>
        <edge id=":1105984390_0" sampledSeconds="23.79" CO_abs="64.879746" CO2_abs="4768.264992" HC_abs="0.406384" PMx_abs="0.076907" NOx_abs="1.903553" fuel_abs="2.049677" electricity_abs="0"
            CO_normed="3.953254" CO2_normed="290.539999" HC_normed="0.024762" PMx_normed="0.004686" NOx_normed="0.115987" fuel_normed="0.124891" electricity_normed="0"
            traveltime="1.08" CO_perVeh="2.942265" CO2_perVeh="216.238476" HC_perVeh="0.018429" PMx_perVeh="0.003488" NOx_perVeh="0.086325" fuel_perVeh="0.092952" electricity_perVeh="0"/>
        <edge id=":1105984390_1" sampledSeconds="645.88" CO_abs="15383.480678" CO2_abs="1962428.910980" HC_abs="116.941271" PMx_abs="34.845363" NOx_abs="736.615433" fuel_abs="843.558144" electricity_abs="0"
            CO_normed="896.654375" CO2_normed="114383.766980" HC_normed="6.816136" PMx_normed="2.031026" NOx_normed="42.934981" fuel_normed="49.168333" electricity_normed="0"
            traveltime="0.64" CO_perVeh="15.146147" CO2_perVeh="1932.152868" HC_perVeh="0.115137" PMx_perVeh="0.034308" NOx_perVeh="0.725251" fuel_perVeh="0.830544" electricity_perVeh="0"/>
        <edge id=":1105984395_0" sampledSeconds="8.92" CO_abs="188.787326" CO2_abs="16325.220380" HC_abs="1.226321" PMx_abs="0.187576" NOx_abs="6.001879" fuel_abs="7.017617" electricity_abs="0"
            CO_normed="157.043583" CO2_normed="13580.207725" HC_normed="1.020121" PMx_normed="0.156036" NOx_normed="4.992690" fuel_normed="5.837636" electricity_normed="0"
            traveltime="0.09" CO_perVeh="1.914510" CO2_perVeh="165.555586" HC_perVeh="0.012436" PMx_perVeh="0.001902" NOx_perVeh="0.060866" fuel_perVeh="0.071166" electricity_perVeh="0"/>
        <edge id=":1105984398_0" sampledSeconds="23.35" CO_abs="1485.188849" CO2_abs="104450.864392" HC_abs="9.229354" PMx_abs="1.886022" NOx_abs="43.054728" fuel_abs="44.898784" electricity_abs="0"
            CO_normed="94.013575" CO2_normed="6611.818529" HC_normed="0.584225" PMx_normed="0.119387" NOx_normed="2.725397" fuel_normed="2.842127" electricity_normed="0"
            traveltime="1.09" CO_perVeh="69.614284" CO2_perVeh="4895.856975" HC_perVeh="0.432601" PMx_perVeh="0.088402" NOx_perVeh="2.018076" fuel_perVeh="2.104511" electricity_perVeh="0"/>
        <edge id=":1105984398_1" sampledSeconds="451.82" CO_abs="8235.176209" CO2_abs="938914.805704" HC_abs="59.140011" PMx_abs="13.574735" NOx_abs="356.328822" fuel_abs="403.599418" electricity_abs="0"
            CO_normed="504.598140" CO2_normed="57530.604425" HC_normed="3.623716" PMx_normed="0.831772" NOx_normed="21.833517" fuel_normed="24.729952" electricity_normed="0"
            traveltime="0.96" CO_perVeh="17.449311" CO2_perVeh="1989.443307" HC_perVeh="0.125310" PMx_perVeh="0.028763" NOx_perVeh="0.755016" fuel_perVeh="0.855177" electricity_perVeh="0"/>
        <edge id=":1106006327_0" sampledSeconds="39.02" CO_abs="5241.052947" CO2_abs="168361.474688" HC_abs="27.825103" PMx_abs="3.507206" NOx_abs="73.663176" fuel_abs="72.372707" electricity_abs="0"
            CO_normed="452.709922" CO2_normed="14542.671260" HC_normed="2.403467" PMx_normed="0.302944" NOx_normed="6.362853" fuel_normed="6.251386" electricity_normed="0"
            traveltime="2.12" CO_perVeh="284.323592" CO2_perVeh="9133.496606" HC_perVeh="1.509493" PMx_perVeh="0.190264" NOx_perVeh="3.996178" fuel_perVeh="3.926171" electricity_perVeh="0"/>
        <edge id=":1106006327_1" sampledSeconds="161.72" CO_abs="21985.396630" CO2_abs="735094.765357" HC_abs="117.438316" PMx_abs="15.361975" NOx_abs="321.875137" fuel_abs="315.990683" electricity_abs="0"
            CO_normed="1656.058922" CO2_normed="55371.311467" HC_normed="8.846089" PMx_normed="1.157147" NOx_normed="24.245375" fuel_normed="23.802126" electricity_normed="0"
            traveltime="2.30" CO_perVeh="312.111041" CO2_perVeh="10435.617617" HC_perVeh="1.667188" PMx_perVeh="0.218083" NOx_perVeh="4.569432" fuel_perVeh="4.485895" electricity_perVeh="0"/>
        <edge id=":1106006327_2" sampledSeconds="0.00" CO_abs="0" CO2_abs="0" HC_abs="0" PMx_abs="0" NOx_abs="0" fuel_abs="0" electricity_abs="0"
            CO_normed="0" CO2_normed="0" HC_normed="0" PMx_normed="0" NOx_normed="0" fuel_normed="0" electricity_normed="0"/>
        <edge id=":1106006327_3" sampledSeconds="0.00" CO_abs="0" CO2_abs="0" HC_abs="0" PMx_abs="0" NOx_abs="0" fuel_abs="0" electricity_abs="0"
            CO_normed="0" CO2_normed="0" HC_normed="0" PMx_normed="0" NOx_normed="0" fuel_normed="0" electricity_normed="0"/>
        <edge id=":1107381198_0" sampledSeconds="0.00" CO_abs="0" CO2_abs="0" HC_abs="0" PMx_abs="0" NOx_abs="0" fuel_abs="0" electricity_abs="0"
            CO_normed="0" CO2_normed="0" HC_normed="0" PMx_normed="0" NOx_normed="0" fuel_normed="0" electricity_normed="0"/>
        <edge id=":1107381198_1" sampledSeconds="35.66" CO_abs="1612.838055" CO2_abs="68037.183258" HC_abs="8.919045" PMx_abs="1.204003" NOx_abs="28.362906" fuel_abs="29.246701" electricity_abs="0"
            CO_normed="134.603581" CO2_normed="5678.219509" HC_normed="0.744362" PMx_normed="0.100483" NOx_normed="2.367100" fuel_normed="2.440859" electricity_normed="0"
            traveltime="1.47" CO_perVeh="66.405015" CO2_perVeh="2801.279501" HC_perVeh="0.367222" PMx_perVeh="0.049572" NOx_perVeh="1.167779" fuel_perVeh="1.204168" electricity_perVeh="0"/>
        <edge id=":1110338277_0" sampledSeconds="96.76" CO_abs="1530.479453" CO2_abs="184523.641725" HC_abs="11.185889" PMx_abs="2.513575" NOx_abs="68.990681" fuel_abs="79.319004" electricity_abs="0"
            CO_normed="4183.161771" CO2_normed="504346.688387" HC_normed="30.573676" PMx_normed="6.870193" NOx_normed="188.567822" fuel_normed="216.797570" electricity_normed="0"
            traveltime="0.02" CO_perVeh="0.344922" CO2_perVeh="41.585805" HC_perVeh="0.002521" PMx_perVeh="0.000566" NOx_perVeh="0.015548" fuel_perVeh="0.017876" electricity_perVeh="0"/>
        <edge id=":1110338293_0" sampledSeconds="123.93" CO_abs="6349.250248" CO2_abs="441766.090299" HC_abs="39.277341" PMx_abs="7.657561" NOx_abs="180.189828" fuel_abs="189.896136" electricity_abs="0"
            CO_normed="16197.066958" CO2_normed="1126954.311987" HC_normed="100.197298" PMx_normed="19.534594" NOx_normed="459.667930" fuel_normed="484.428918" electricity_normed="0"
            traveltime="0.03" CO_perVeh="1.456306" CO2_perVeh="101.326371" HC_perVeh="0.009009" PMx_perVeh="0.001756" NOx_perVeh="0.041330" fuel_perVeh="0.043556" electricity_perVeh="0"/>
        <edge id=":1110338295_0" sampledSeconds="0.00" CO_abs="0" CO2_abs="0" HC_abs="0" PMx_abs="0" NOx_abs="0" fuel_abs="0" electricity_abs="0"
            CO_normed="0" CO2_normed="0" HC_normed="0" PMx_normed="0" NOx_normed="0" fuel_normed="0" electricity_normed="0"/>
        <edge id=":1110673403_0" sampledSeconds="143.83" CO_abs="2210.082380" CO2_abs="268528.201683" HC_abs="16.213137" PMx_abs="3.711003" NOx_abs="100.647782" fuel_abs="115.428969" electricity_abs="0"
            CO_normed="5637.965256" CO2_normed="685020.922660" HC_normed="41.360042" PMx_normed="9.466846" NOx_normed="256.754546" fuel_normed="294.461655" electricity_normed="0"
            traveltime="0.02" CO_perVeh="0.354845" CO2_perVeh="43.114192" HC_perVeh="0.002603" PMx_perVeh="0.000596" NOx_perVeh="0.016160" fuel_perVeh="0.018533" electricity_perVeh="0"/>
        <edge id=":1110673412_0" sampledSeconds="258.17" CO_abs="45942.127752" CO2_abs="3132644.424429" HC_abs="285.853820" PMx_abs="68.838109" NOx_abs="1346.570454" fuel_abs="1346.569542" electricity_abs="0"
            CO_normed="121240.660851" CO2_normed="8267006.749902" HC_normed="754.364410" PMx_normed="181.662850" NOx_normed="3553.581422" fuel_normed="3553.579017" electricity_normed="0"
            traveltime="0.02" CO_perVeh="2.772373" CO2_perVeh="189.039137" HC_perVeh="0.017250" PMx_perVeh="0.004154" NOx_perVeh="0.081259" fuel_perVeh="0.081259" electricity_perVeh="0"/>
        <edge id=":1110673414_0" sampledSeconds="0.00" CO_abs="0" CO2_abs="0" HC_abs="0" PMx_abs="0" NOx_abs="0" fuel_abs="0" electricity_abs="0"
            CO_normed="0" CO2_normed="0" HC_normed="0" PMx_normed="0" NOx_normed="0" fuel_normed="0" electricity_normed="0"/>
        <edge id=":1110673414_1" sampledSeconds="14.35" CO_abs="942.911370" CO2_abs="34387.434847" HC_abs="5.095460" PMx_abs="0.659503" NOx_abs="14.667549" fuel_abs="14.781934" electricity_abs="0"
            CO_normed="79.913161" CO2_normed="2914.386979" HC_normed="0.431848" PMx_normed="0.055894" NOx_normed="1.243097" fuel_normed="1.252791" electricity_normed="0"
            traveltime="1.57" CO_perVeh="102.981249" CO2_perVeh="3755.666868" HC_perVeh="0.556507" PMx_perVeh="0.072028" NOx_perVeh="1.601935" fuel_perVeh="1.614427" electricity_perVeh="0"/>
        <edge id=":1110673417_0" sampledSeconds="29.97" CO_abs="518.589694" CO2_abs="58044.464073" HC_abs="3.693749" PMx_abs="0.802561" NOx_abs="21.861029" fuel_abs="24.950896" electricity_abs="0"
            CO_normed="1417.428100" CO2_normed="158649.227604" HC_normed="10.095890" PMx_normed="2.193590" NOx_normed="59.751355" fuel_normed="68.196692" electricity_normed="0"
            traveltime="0.02" CO_perVeh="0.384904" CO2_perVeh="43.081378" HC_perVeh="0.002742" PMx_perVeh="0.000596" NOx_perVeh="0.016226" fuel_perVeh="0.018519" electricity_perVeh="0"/>
        <edge id=":1110673446_0" sampledSeconds="342.90" CO_abs="3498.801928" CO2_abs="281225.861899" HC_abs="22.601688" PMx_abs="5.193396" NOx_abs="115.230818" fuel_abs="120.886038" electricity_abs="0"
            CO_normed="8925.515122" CO2_normed="717412.913008" HC_normed="57.657366" PMx_normed="13.248459" NOx_normed="293.956169" fuel_normed="308.382749" electricity_normed="0"
            traveltime="0.02" CO_perVeh="0.233278" CO2_perVeh="18.750354" HC_perVeh="0.001507" PMx_perVeh="0.000346" NOx_perVeh="0.007683" fuel_perVeh="0.008060" electricity_perVeh="0"/>
        <edge id=":1110673451_0" sampledSeconds="37.81" CO_abs="473.080194" CO2_abs="32384.364877" HC_abs="2.898754" PMx_abs="0.484537" NOx_abs="12.730081" fuel_abs="13.920760" electricity_abs="0"
            CO_normed="1340.930254" CO2_normed="91792.417451" HC_normed="8.216422" PMx_normed="1.373403" NOx_normed="36.082997" fuel_normed="39.457936" electricity_normed="0"
            traveltime="0.03" CO_perVeh="0.339261" CO2_perVeh="23.223847" HC_perVeh="0.002079" PMx_perVeh="0.000347" NOx_perVeh="0.009129" fuel_perVeh="0.009983" electricity_perVeh="0"/>
        <edge id=":1110673464_0" sampledSeconds="324.53" CO_abs="628.647427" CO2_abs="47352.322218" HC_abs="3.941929" PMx_abs="0.643481" NOx_abs="18.109950" fuel_abs="20.354948" electricity_abs="0"
            CO_normed="34.072785" CO2_normed="2566.502982" HC_normed="0.213653" PMx_normed="0.034877" NOx_normed="0.981562" fuel_normed="1.103241" electricity_normed="0"
            traveltime="1.17" CO_perVeh="2.272478" CO2_perVeh="171.172397" HC_perVeh="0.014250" PMx_perVeh="0.002326" NOx_perVeh="0.065465" fuel_perVeh="0.073580" electricity_perVeh="0"/>
        <edge id=":1110673464_1" sampledSeconds="709.66" CO_abs="15514.132629" CO2_abs="1993677.681963" HC_abs="118.433583" PMx_abs="35.322393" NOx_abs="748.006684" fuel_abs="856.990592" electricity_abs="0"
            CO_normed="823.945919" CO2_normed="105882.979611" HC_normed="6.289934" PMx_normed="1.875950" NOx_normed="39.726169" fuel_normed="45.514236" electricity_normed="0"
            traveltime="0.70" CO_perVeh="15.318685" CO2_perVeh="1968.561245" HC_perVeh="0.116942" PMx_perVeh="0.034877" NOx_perVeh="0.738583" fuel_perVeh="0.846194" electricity_perVeh="0"/>
        <edge id=":1110673479_0" sampledSeconds="133.53" CO_abs="6910.870356" CO2_abs="481048.608727" HC_abs="42.776340" PMx_abs="8.439985" NOx_abs="196.846791" fuel_abs="206.781836" electricity_abs="0"
            CO_normed="17629.771317" CO2_normed="1227164.818182" HC_normed="109.123316" PMx_normed="21.530574" NOx_normed="502.160181" fuel_normed="527.504684" electricity_normed="0"
            traveltime="0.03" CO_perVeh="1.455840" CO2_perVeh="101.337394" HC_perVeh="0.009011" PMx_perVeh="0.001778" NOx_perVeh="0.041468" fuel_perVeh="0.043561" electricity_perVeh="0"/>
        <edge id=":1110673511_0" sampledSeconds="11.73" CO_abs="235.077881" CO2_abs="27045.729422" HC_abs="1.696530" PMx_abs="0.379824" NOx_abs="10.195529" fuel_abs="11.625821" electricity_abs="0"
            CO_normed="599.688472" CO2_normed="68994.207709" HC_normed="4.327882" PMx_normed="0.968939" NOx_normed="26.009003" fuel_normed="29.657707" electricity_normed="0"
            traveltime="0.02" CO_perVeh="0.465501" CO2_perVeh="53.555900" HC_perVeh="0.003359" PMx_perVeh="0.000752" NOx_perVeh="0.020189" fuel_perVeh="0.023021" electricity_perVeh="0"/>
        <edge id=":1110673517_0" sampledSeconds="17.20" CO_abs="834.738101" CO2_abs="58692.018265" HC_abs="5.179080" PMx_abs="1.017236" NOx_abs="23.895815" fuel_abs="25.229157" electricity_abs="0"
            CO_normed="2129.433932" CO2_normed="149724.536391" HC_normed="13.211939" PMx_normed="2.594990" NOx_normed="60.958711" fuel_normed="64.360095" electricity_normed="0"
            traveltime="0.03" CO_perVeh="1.340227" CO2_perVeh="94.233907" HC_perVeh="0.008315" PMx_perVeh="0.001633" NOx_perVeh="0.038366" fuel_perVeh="0.040507" electricity_perVeh="0"/>
        <edge id=":1110673534_0" sampledSeconds="513.45" CO_abs="3409.069467" CO2_abs="299460.685037" HC_abs="22.348468" PMx_abs="3.924102" NOx_abs="112.937509" fuel_abs="128.726473" electricity_abs="0"
            CO_normed="168.538872" CO2_normed="14804.851143" HC_normed="1.104872" PMx_normed="0.194001" NOx_normed="5.583447" fuel_normed="6.364028" electricity_normed="0"
            traveltime="1.43" CO_perVeh="9.520523" CO2_perVeh="836.305111" HC_perVeh="0.062413" PMx_perVeh="0.010959" NOx_perVeh="0.315401" fuel_perVeh="0.359495" electricity_perVeh="0"/>
        <edge id=":1110673534_1" sampledSeconds="151.44" CO_abs="2203.441061" CO2_abs="289358.647807" HC_abs="16.661998" PMx_abs="3.914374" NOx_abs="107.524575" fuel_abs="124.383119" electricity_abs="0"
            CO_normed="105.923802" CO2_normed="13910.046781" HC_normed="0.800975" PMx_normed="0.188172" NOx_normed="5.168921" fuel_normed="5.979344" electricity_normed="0"
            traveltime="1.22" CO_perVeh="17.677986" CO2_perVeh="2321.495360" HC_perVeh="0.133678" PMx_perVeh="0.031405" NOx_perVeh="0.862659" fuel_perVeh="0.997913" electricity_perVeh="0"/>
        <edge id=":1110673549_0" sampledSeconds="60.10" CO_abs="29.206706" CO2_abs="2432.606638" HC_abs="0.189418" PMx_abs="0.037328" NOx_abs="0.954221" fuel_abs="1.045676" electricity_abs="0"
            CO_normed="1.398753" CO2_normed="116.501174" HC_normed="0.009072" PMx_normed="0.001788" NOx_normed="0.045699" fuel_normed="0.050079" electricity_normed="0"
            traveltime="1.25" CO_perVeh="0.608497" CO2_perVeh="50.681287" HC_perVeh="0.003946" PMx_perVeh="0.000778" NOx_perVeh="0.019880" fuel_perVeh="0.021786" electricity_perVeh="0"/>
        <edge id=":1110673549_1" sampledSeconds="638.74" CO_abs="15155.400165" CO2_abs="1873113.075685" HC_abs="114.078222" PMx_abs="33.611249" NOx_abs="706.893191" fuel_abs="805.165124" electricity_abs="0"
            CO_normed="702.089621" CO2_normed="86773.904653" HC_normed="5.284792" PMx_normed="1.557076" NOx_normed="32.747560" fuel_normed="37.300109" electricity_normed="0"
            traveltime="0.80" CO_perVeh="19.078495" CO2_perVeh="2357.983196" HC_perVeh="0.143608" PMx_perVeh="0.042312" NOx_perVeh="0.889878" fuel_perVeh="1.013588" electricity_perVeh="0"/>
        <edge id=":1110673556_0" sampledSeconds="415.63" CO_abs="51004.467465" CO2_abs="2567969.761467" HC_abs="293.321075" PMx_abs="51.868105" NOx_abs="1106.404937" fuel_abs="1103.858768" electricity_abs="0"
            CO_normed="1811.323955" CO2_normed="91196.426019" HC_normed="10.416725" PMx_normed="1.841994" NOx_normed="39.291808" fuel_normed="39.201386" electricity_normed="0"
            traveltime="2.58" CO_perVeh="316.610864" CO2_perVeh="15940.704102" HC_perVeh="1.820794" PMx_perVeh="0.321972" NOx_perVeh="6.868022" fuel_perVeh="6.852217" electricity_perVeh="0"/>
        <edge id=":1110673556_2" sampledSeconds="247.97" CO_abs="23808.122053" CO2_abs="1031628.992820" HC_abs="132.625133" PMx_abs="19.827894" NOx_abs="439.508560" fuel_abs="443.456757" electricity_abs="0"
            CO_normed="884.061212" CO2_normed="38307.228739" HC_normed="4.924737" PMx_normed="0.736264" NOx_normed="16.320165" fuel_normed="16.466772" electricity_normed="0"
            traveltime="3.01" CO_perVeh="288.787958" CO2_perVeh="12513.461993" HC_perVeh="1.608717" PMx_perVeh="0.240509" NOx_perVeh="5.331155" fuel_perVeh="5.379045" electricity_perVeh="0"/>
        <edge id=":1110673556_3" sampledSeconds="409.93" CO_abs="35056.448799" CO2_abs="1250455.081039" HC_abs="188.747966" PMx_abs="23.938892" NOx_abs="533.769742" fuel_abs="537.526769" electricity_abs="0"
            CO_normed="2961.248885" CO2_normed="105627.034146" HC_normed="15.943706" PMx_normed="2.022139" NOx_normed="45.087997" fuel_normed="45.405356" electricity_normed="0"
            traveltime="1.75" CO_perVeh="149.342239" CO2_perVeh="5327.001673" HC_perVeh="0.804076" PMx_perVeh="0.101981" NOx_perVeh="2.273886" fuel_perVeh="2.289891" electricity_perVeh="0"/>
        <edge id=":1110673556_4" sampledSeconds="205.52" CO_abs="21510.636828" CO2_abs="866750.579779" HC_abs="118.282163" PMx_abs="16.880780" NOx_abs="371.224579" fuel_abs="372.582904" electricity_abs="0"
            CO_normed="1110.062175" CO2_normed="44728.895842" HC_normed="6.103983" PMx_normed="0.871137" NOx_normed="19.157144" fuel_normed="19.227241" electricity_normed="0"
            traveltime="2.39" CO_perVeh="250.650384" CO2_perVeh="10099.718000" HC_perVeh="1.378270" PMx_perVeh="0.196701" NOx_perVeh="4.325655" fuel_perVeh="4.341482" electricity_perVeh="0"/>
        <edge id=":1110673556_5" sampledSeconds="23.48" CO_abs="1910.916458" CO2_abs="79588.241580" HC_abs="10.547097" PMx_abs="1.427459" NOx_abs="33.273153" fuel_abs="34.212074" electricity_abs="0"
            CO_normed="137.446999" CO2_normed="5724.564714" HC_normed="0.758624" PMx_normed="0.102673" NOx_normed="2.393247" fuel_normed="2.460781" electricity_normed="0"
            traveltime="1.62" CO_perVeh="132.112743" CO2_perVeh="5502.396949" HC_perVeh="0.729182" PMx_perVeh="0.098689" NOx_perVeh="2.300366" fuel_perVeh="2.365279" electricity_perVeh="0"/>
        <edge id=":1110673556_6" sampledSeconds="494.07" CO_abs="58843.973243" CO2_abs="2862500.636002" HC_abs="335.958818" PMx_abs="57.834511" NOx_abs="1233.850157" fuel_abs="1230.466440" electricity_abs="0"
            CO_normed="2142.419267" CO2_normed="104219.279840" HC_normed="12.231748" PMx_normed="2.105666" NOx_normed="44.922601" fuel_normed="44.799405" electricity_normed="0"
            traveltime="2.65" CO_perVeh="315.774237" CO2_perVeh="15361.028575" HC_perVeh="1.802855" PMx_perVeh="0.310357" NOx_perVeh="6.621206" fuel_perVeh="6.603048" electricity_perVeh="0"/>
        <edge id=":1110673561_0" sampledSeconds="99.10" CO_abs="10194.149924" CO2_abs="730561.599753" HC_abs="64.004802" PMx_abs="14.837870" NOx_abs="309.188543" fuel_abs="314.033542" electricity_abs="0"
            CO_normed="466.326680" CO2_normed="33419.202936" HC_normed="2.927870" PMx_normed="0.678751" NOx_normed="14.143687" fuel_normed="14.365319" electricity_normed="0"
            traveltime="1.17" CO_perVeh="120.300864" CO2_perVeh="8621.335960" HC_perVeh="0.755319" PMx_perVeh="0.175101" NOx_perVeh="3.648725" fuel_perVeh="3.705901" electricity_perVeh="0"/>
        <edge id=":1110673561_1" sampledSeconds="1348.35" CO_abs="124012.747426" CO2_abs="8593210.578736" HC_abs="772.561506" PMx_abs="179.471096" NOx_abs="3673.215237" fuel_abs="3693.806387" electricity_abs="0"
            CO_normed="5530.752615" CO2_normed="383242.230035" HC_normed="34.454898" PMx_normed="8.004098" NOx_normed="163.819004" fuel_normed="164.737334" electricity_normed="0"
            traveltime="1.20" CO_perVeh="110.118855" CO2_perVeh="7630.461620" HC_perVeh="0.686007" PMx_perVeh="0.159364" NOx_perVeh="3.261683" fuel_perVeh="3.279967" electricity_perVeh="0"/>
        <edge id=":1110673562_0" sampledSeconds="104.40" CO_abs="2252.519253" CO2_abs="180410.854843" HC_abs="14.355361" PMx_abs="2.346691" NOx_abs="68.188637" fuel_abs="77.551762" electricity_abs="0"
            CO_normed="6384.691759" CO2_normed="511368.636175" HC_normed="40.689799" PMx_normed="6.651617" NOx_normed="193.278449" fuel_normed="219.817920" electricity_normed="0"
            traveltime="0.03" CO_perVeh="0.574177" CO2_perVeh="45.987548" HC_perVeh="0.003659" PMx_perVeh="0.000598" NOx_perVeh="0.017382" fuel_perVeh="0.019768" electricity_perVeh="0"/>
        <edge id=":1110673564_0" sampledSeconds="28.78" CO_abs="436.575793" CO2_abs="49442.003744" HC_abs="3.111132" PMx_abs="0.699520" NOx_abs="18.669012" fuel_abs="21.253031" electricity_abs="0"
            CO_normed="3341.141276" CO2_normed="378382.681716" HC_normed="23.809682" PMx_normed="5.353470" NOx_normed="142.875089" fuel_normed="162.650748" electricity_normed="0"
            traveltime="7.911946e-03" CO_perVeh="0.120021" CO2_perVeh="13.592303" HC_perVeh="0.000855" PMx_perVeh="0.000192" NOx_perVeh="0.005132" fuel_perVeh="0.005843" electricity_perVeh="0"/>
        <edge id=":1110673588_0" sampledSeconds="11.61" CO_abs="277.413091" CO2_abs="30845.947770" HC_abs="1.979142" PMx_abs="0.447030" NOx_abs="11.730094" fuel_abs="13.259360" electricity_abs="0"
            CO_normed="849.223748" CO2_normed="94426.370724" HC_normed="6.058598" PMx_normed="1.368458" NOx_normed="35.908451" fuel_normed="40.589879" electricity_normed="0"
            traveltime="0.02" CO_perVeh="0.462355" CO2_perVeh="51.409913" HC_perVeh="0.003299" PMx_perVeh="0.000745" NOx_perVeh="0.019550" fuel_perVeh="0.022099" electricity_perVeh="0"/>
        <edge id=":1110673601_0" sampledSeconds="29.75" CO_abs="683.158510" CO2_abs="72798.034711" HC_abs="4.794587" PMx_abs="1.064432" NOx_abs="27.808597" fuel_abs="31.292780" electricity_abs="0"
            CO_normed="1867.233537" CO2_normed="198974.220237" HC_normed="13.104737" PMx_normed="2.909344" NOx_normed="76.007463" fuel_normed="85.530557" electricity_normed="0"
            traveltime="0.02" CO_perVeh="0.507049" CO2_perVeh="54.031676" HC_perVeh="0.003559" PMx_perVeh="0.000790" NOx_perVeh="0.020640" fuel_perVeh="0.023226" electricity_perVeh="0"/>
        <edge id=":1110673617_0" sampledSeconds="238.60" CO_abs="6144.870347" CO2_abs="751300.710314" HC_abs="45.985107" PMx_abs="13.493795" NOx_abs="284.112741" fuel_abs="322.949579" electricity_abs="0"
            CO_normed="15675.689662" CO2_normed="1916583.444679" HC_normed="117.308946" PMx_normed="34.422947" NOx_normed="724.777401" fuel_normed="823.850967" electricity_normed="0"
            traveltime="0.01" CO_perVeh="0.376569" CO2_perVeh="46.041107" HC_perVeh="0.002818" PMx_perVeh="0.000827" NOx_perVeh="0.017411" fuel_perVeh="0.019791" electricity_perVeh="0"/>
        <edge id=":1110673621_0" sampledSeconds="25.64" CO_abs="458.100335" CO2_abs="56053.992419" HC_abs="3.362715" PMx_abs="0.764925" NOx_abs="20.934793" fuel_abs="24.095264" electricity_abs="0"
            CO_normed="1402.347965" CO2_normed="171593.854343" HC_normed="10.294024" PMx_normed="2.341606" NOx_normed="64.086100" fuel_normed="73.761012" electricity_normed="0"
            traveltime="0.02" CO_perVeh="0.347046" CO2_perVeh="42.465146" HC_perVeh="0.002548" PMx_perVeh="0.000579" NOx_perVeh="0.015860" fuel_perVeh="0.018254" electricity_perVeh="0"/>
        <edge id=":1110673630_0" sampledSeconds="53.80" CO_abs="297.751025" CO2_abs="26454.955560" HC_abs="1.964070" PMx_abs="0.373141" NOx_abs="10.142304" fuel_abs="11.371911" electricity_abs="0"
            CO_normed="16.253258" CO2_normed="1444.089833" HC_normed="0.107212" PMx_normed="0.020369" NOx_normed="0.553635" fuel_normed="0.620756" electricity_normed="0"
            traveltime="1.26" CO_perVeh="6.950036" CO2_perVeh="617.505456" HC_perVeh="0.045845" PMx_perVeh="0.008710" NOx_perVeh="0.236739" fuel_perVeh="0.265441" electricity_perVeh="0"/>
        <edge id=":1110673630_1" sampledSeconds="7.33" CO_abs="8.413410" CO2_abs="652.975236" HC_abs="0.053542" PMx_abs="0.010619" NOx_abs="0.260837" fuel_abs="0.280686" electricity_abs="0"
            CO_normed="0.559899" CO2_normed="43.454430" HC_normed="0.003563" PMx_normed="0.000707" NOx_normed="0.017358" fuel_normed="0.018679" electricity_normed="0"
            traveltime="1.04" CO_perVeh="1.190821" CO2_perVeh="92.421110" HC_perVeh="0.007578" PMx_perVeh="0.001503" NOx_perVeh="0.036919" fuel_perVeh="0.039728" electricity_perVeh="0"/>
        <edge id=":1110673650_0" sampledSeconds="143.36" CO_abs="2308.844067" CO2_abs="283882.054173" HC_abs="17.027145" PMx_abs="3.937173" NOx_abs="106.390689" fuel_abs="122.028911" electricity_abs="0"
            CO_normed="5889.908335" CO2_normed="724188.913707" HC_normed="43.436594" PMx_normed="10.043810" NOx_normed="271.404818" fuel_normed="311.298242" electricity_normed="0"
            traveltime="0.02" CO_perVeh="0.370700" CO2_perVeh="45.579136" HC_perVeh="0.002734" PMx_perVeh="0.000632" NOx_perVeh="0.017082" fuel_perVeh="0.019593" electricity_perVeh="0"/>
        <edge id=":1110673655_0" sampledSeconds="44.88" CO_abs="729.756746" CO2_abs="85118.344945" HC_abs="5.257945" PMx_abs="1.143315" NOx_abs="31.780092" fuel_abs="36.588858" electricity_abs="0"
            CO_normed="1861.624352" CO2_normed="217138.635064" HC_normed="13.413124" PMx_normed="2.916621" NOx_normed="81.071663" fuel_normed="93.338923" electricity_normed="0"
            traveltime="0.02" CO_perVeh="0.390558" CO2_perVeh="45.554372" HC_perVeh="0.002814" PMx_perVeh="0.000612" NOx_perVeh="0.017008" fuel_perVeh="0.019582" electricity_perVeh="0"/>
        <edge id=":1110673663_0" sampledSeconds="109.16" CO_abs="1633.048757" CO2_abs="185694.557685" HC_abs="11.661744" PMx_abs="2.623942" NOx_abs="70.109522" fuel_abs="79.822254" electricity_abs="0"
            CO_normed="76.299280" CO2_normed="8676.018431" HC_normed="0.544860" PMx_normed="0.122596" NOx_normed="3.275656" fuel_normed="3.729454" electricity_normed="0"
            traveltime="1.28" CO_perVeh="19.180928" CO2_perVeh="2181.070182" HC_perVeh="0.136973" PMx_perVeh="0.030819" NOx_perVeh="0.823469" fuel_perVeh="0.937550" electricity_perVeh="0"/>
        <edge id=":1110673663_1" sampledSeconds="153.75" CO_abs="2524.316746" CO2_abs="316511.914134" HC_abs="18.735287" PMx_abs="4.384021" NOx_abs="118.395780" fuel_abs="136.055091" electricity_abs="0"
            CO_normed="118.085273" CO2_normed="14806.143381" HC_normed="0.876420" PMx_normed="0.205081" NOx_normed="5.538448" fuel_normed="6.364535" electricity_normed="0"
            traveltime="1.24" CO_perVeh="20.427490" CO2_perVeh="2561.304522" HC_perVeh="0.151611" PMx_perVeh="0.035477" NOx_perVeh="0.958092" fuel_perVeh="1.100997" electricity_perVeh="0"/>
        <edge id=":1110673666_0" sampledSeconds="157.51" CO_abs="3324.153124" CO2_abs="268933.110941" HC_abs="21.272107" PMx_abs="3.623305" NOx_abs="102.398282" fuel_abs="115.603898" electricity_abs="0"