<?xml version="1.0" encoding="UTF-8"?>

<!-- generated on Tue Nov 10 06:14:14 2020 by Eclipse SUMO sumo Version 1.7.0
<configuration xmlns:xsi="http://www.w3.org/2001/XMLSchema-instance" xsi:noNamespaceSchemaLocation="http://sumo.dlr.de/xsd/sumoConfiguration.xsd">

    <input>
        <net-file value="../dataSets/Porto/8AM9AM_Routing_SaoBento/Porto.net.xml"/>
        <route-files value="../results/Porto/8AM9AM_Routing_SaoBento/cost_co-length/solution2/Porto.rou.xml"/>
        <additional-files value="moreOutputInfo.xml"/>
    </input>

    <output>
        <emission-output.precision value="6"/>
        <tripinfo-output value="../results/Porto/8AM9AM_Routing_SaoBento/cost_co-length/solution2/Porto-tripinfo"/>
    </output>

    <processing>
        <collision.action value="warn"/>
        <time-to-teleport value="-1"/>
    </processing>

    <emissions>
        <device.emissions.probability value="1"/>
    </emissions>

    <gui_only>
        <quit-on-end value="true"/>
        <start value="true"/>
    </gui_only>

</configuration>
-->

<meandata xmlns:xsi="http://www.w3.org/2001/XMLSchema-instance" xsi:noNamespaceSchemaLocation="http://sumo.dlr.de/xsd/meandata_file.xsd">
    <interval begin="0.00" end="8562.00" id="emissions-detector">
        <edge id=":1092997347_0" sampledSeconds="606.20" CO_abs="71927.216251" CO2_abs="3056801.186749" HC_abs="399.806766" PMx_abs="61.793178" NOx_abs="1322.544171" fuel_abs="1313.995161" electricity_abs="0"
            CO_normed="68733.404075" CO2_normed="2921068.854000" HC_normed="382.053991" PMx_normed="59.049352" NOx_normed="1263.818727" fuel_normed="1255.649322" electricity_normed="0"
            traveltime="0.07" CO_perVeh="8.232695" CO2_perVeh="349.877469" HC_perVeh="0.045761" PMx_perVeh="0.007073" NOx_perVeh="0.151377" fuel_perVeh="0.150398" electricity_perVeh="0"/>
        <edge id=":1103427051_0" sampledSeconds="19.22" CO_abs="1548.017892" CO2_abs="87551.106134" HC_abs="9.129891" PMx_abs="1.728823" NOx_abs="37.425140" fuel_abs="37.634323" electricity_abs="0"
            CO_normed="2244.425816" CO2_normed="126937.785275" HC_normed="13.237161" PMx_normed="2.506569" NOx_normed="54.261615" fuel_normed="54.564903" electricity_normed="0"
            traveltime="0.03" CO_perVeh="2.407364" CO2_perVeh="136.153050" HC_perVeh="0.014198" PMx_perVeh="0.002689" NOx_perVeh="0.058201" fuel_perVeh="0.058526" electricity_perVeh="0"/>
        <edge id=":1105984386_0" sampledSeconds="10.44" CO_abs="127.238283" CO2_abs="10231.410893" HC_abs="0.811960" PMx_abs="0.134005" NOx_abs="3.876135" fuel_abs="4.398092" electricity_abs="0"
            CO_normed="5.509673" CO2_normed="443.040648" HC_normed="0.035159" PMx_normed="0.005803" NOx_normed="0.167844" fuel_normed="0.190446" electricity_normed="0"
            traveltime="1.00" CO_perVeh="12.205925" CO2_perVeh="981.495750" HC_perVeh="0.077891" PMx_perVeh="0.012855" NOx_perVeh="0.371836" fuel_perVeh="0.421907" electricity_perVeh="0"/>
        <edge id=":1105984390_0" sampledSeconds="10.84" CO_abs="0" CO2_abs="0" HC_abs="0" PMx_abs="0" NOx_abs="0" fuel_abs="0" electricity_abs="0"
            CO_normed="0" CO2_normed="0" HC_normed="0" PMx_normed="0" NOx_normed="0" fuel_normed="0" electricity_normed="0"
            traveltime="1.12" CO_perVeh="0" CO2_perVeh="0" HC_perVeh="0" PMx_perVeh="0" NOx_perVeh="0" fuel_perVeh="0" electricity_perVeh="0"/>
        <edge id=":1105984390_1" sampledSeconds="2400.96" CO_abs="63672.799079" CO2_abs="7504201.437002" HC_abs="468.839812" PMx_abs="135.821844" NOx_abs="2858.524636" fuel_abs="3225.709395" electricity_abs="0"
            CO_normed="2038.996561" CO2_normed="240307.339104" HC_normed="15.013676" PMx_normed="4.349428" NOx_normed="91.538647" fuel_normed="103.297019" electricity_normed="0"
            traveltime="0.65" CO_perVeh="17.189615" CO2_perVeh="2025.893837" HC_perVeh="0.126572" PMx_perVeh="0.036668" NOx_perVeh="0.771710" fuel_perVeh="0.870838" electricity_perVeh="0"/>
        <edge id=":1105984395_0" sampledSeconds="4.11" CO_abs="185.871076" CO2_abs="13053.550638" HC_abs="1.143034" PMx_abs="0.176188" NOx_abs="5.002170" fuel_abs="5.611232" electricity_abs="0"
            CO_normed="84.947629" CO2_normed="5965.792010" HC_normed="0.522395" PMx_normed="0.080522" NOx_normed="2.286114" fuel_normed="2.564470" electricity_normed="0"
            traveltime="0.10" CO_perVeh="4.308425" CO2_perVeh="302.576634" HC_perVeh="0.026495" PMx_perVeh="0.004084" NOx_perVeh="0.115949" fuel_perVeh="0.130066" electricity_perVeh="0"/>
        <edge id=":1105984398_0" sampledSeconds="11.08" CO_abs="684.535330" CO2_abs="46029.148700" HC_abs="4.195581" PMx_abs="0.796476" NOx_abs="18.802105" fuel_abs="19.785958" electricity_abs="0"
            CO_normed="23.806571" CO2_normed="1600.788365" HC_normed="0.145913" PMx_normed="0.027700" NOx_normed="0.653894" fuel_normed="0.688110" electricity_normed="0"
            traveltime="1.20" CO_perVeh="74.075952" CO2_perVeh="4980.974455" HC_perVeh="0.454018" PMx_perVeh="0.086189" NOx_perVeh="2.034641" fuel_perVeh="2.141107" electricity_perVeh="0"/>
        <edge id=":1105984398_1" sampledSeconds="647.07" CO_abs="11366.100806" CO2_abs="1339392.603966" HC_abs="82.516038" PMx_abs="19.181247" NOx_abs="506.202336" fuel_abs="575.747770" electricity_abs="0"
            CO_normed="382.627643" CO2_normed="45089.221335" HC_normed="2.777814" PMx_normed="0.645716" NOx_normed="17.040761" fuel_normed="19.381934" electricity_normed="0"
            traveltime="0.95" CO_perVeh="16.743608" CO2_perVeh="1973.083353" HC_perVeh="0.121556" PMx_perVeh="0.028256" NOx_perVeh="0.745696" fuel_perVeh="0.848144" electricity_perVeh="0"/>
        <edge id=":1106006327_0" sampledSeconds="67.08" CO_abs="9161.263373" CO2_abs="299942.786856" HC_abs="48.783219" PMx_abs="6.284747" NOx_abs="131.460886" fuel_abs="128.934704" electricity_abs="0"
            CO_normed="434.759343" CO2_normed="14234.164407" HC_normed="2.315069" PMx_normed="0.298251" NOx_normed="6.238643" fuel_normed="6.118759" electricity_normed="0"
            traveltime="2.08" CO_perVeh="283.995639" CO2_perVeh="9298.110953" HC_perVeh="1.512261" PMx_perVeh="0.194825" NOx_perVeh="4.075237" fuel_perVeh="3.996926" electricity_perVeh="0"/>
        <edge id=":1106006327_1" sampledSeconds="685.33" CO_abs="92665.320604" CO2_abs="3088205.144405" HC_abs="494.712472" PMx_abs="64.409407" NOx_abs="1351.469732" fuel_abs="1327.508273" electricity_abs="0"
            CO_normed="3834.871376" CO2_normed="127802.606553" HC_normed="20.473233" PMx_normed="2.665526" NOx_normed="55.929366" fuel_normed="54.937742" electricity_normed="0"
            traveltime="2.30" CO_perVeh="311.055052" CO2_perVeh="10366.357180" HC_perVeh="1.660630" PMx_perVeh="0.216207" NOx_perVeh="4.536557" fuel_perVeh="4.456124" electricity_perVeh="0"/>
        <edge id=":1106006327_2" sampledSeconds="0.00" CO_abs="0" CO2_abs="0" HC_abs="0" PMx_abs="0" NOx_abs="0" fuel_abs="0" electricity_abs="0"
            CO_normed="0" CO2_normed="0" HC_normed="0" PMx_normed="0" NOx_normed="0" fuel_normed="0" electricity_normed="0"/>
        <edge id=":1106006327_3" sampledSeconds="0.00" CO_abs="0" CO2_abs="0" HC_abs="0" PMx_abs="0" NOx_abs="0" fuel_abs="0" electricity_abs="0"
            CO_normed="0" CO2_normed="0" HC_normed="0" PMx_normed="0" NOx_normed="0" fuel_normed="0" electricity_normed="0"/>
        <edge id=":1107381198_0" sampledSeconds="0.00" CO_abs="0" CO2_abs="0" HC_abs="0" PMx_abs="0" NOx_abs="0" fuel_abs="0" electricity_abs="0"
            CO_normed="0" CO2_normed="0" HC_normed="0" PMx_normed="0" NOx_normed="0" fuel_normed="0" electricity_normed="0"/>
        <edge id=":1107381198_1" sampledSeconds="103.71" CO_abs="5187.588472" CO2_abs="205448.644376" HC_abs="28.360274" PMx_abs="3.600830" NOx_abs="85.479906" fuel_abs="88.315190" electricity_abs="0"
            CO_normed="237.861119" CO2_normed="9420.223821" HC_normed="1.300374" PMx_normed="0.165105" NOx_normed="3.919422" fuel_normed="4.049425" electricity_normed="0"
            traveltime="1.55" CO_perVeh="77.668146" CO2_perVeh="3075.960144" HC_perVeh="0.424608" PMx_perVeh="0.053911" NOx_perVeh="1.279798" fuel_perVeh="1.322248" electricity_perVeh="0"/>
        <edge id=":1110338277_0" sampledSeconds="159.98" CO_abs="2864.692812" CO2_abs="341030.688922" HC_abs="20.863286" PMx_abs="4.811969" NOx_abs="128.508859" fuel_abs="146.594628" electricity_abs="0"
            CO_normed="4301.771166" CO2_normed="512109.353672" HC_normed="31.329391" PMx_normed="7.225902" NOx_normed="192.975562" fuel_normed="220.134089" electricity_normed="0"
            traveltime="0.02" CO_perVeh="0.387995" CO2_perVeh="46.189333" HC_perVeh="0.002826" PMx_perVeh="0.000652" NOx_perVeh="0.017405" fuel_perVeh="0.019855" electricity_perVeh="0"/>
        <edge id=":1110338293_0" sampledSeconds="6530.27" CO_abs="633552.741212" CO2_abs="11084846.167966" HC_abs="3144.167173" PMx_abs="264.760788" NOx_abs="5011.890556" fuel_abs="4765.188572" electricity_abs="0"
            CO_normed="887950.583338" CO2_normed="15535874.096659" HC_normed="4406.681391" PMx_normed="371.073284" NOx_normed="7024.373589" fuel_normed="6678.610472" electricity_normed="0"
            traveltime="0.44" CO_perVeh="42.337431" CO2_perVeh="740.749557" HC_perVeh="0.210110" PMx_perVeh="0.017693" NOx_perVeh="0.334922" fuel_perVeh="0.318436" electricity_perVeh="0"/>
        <edge id=":1110338295_0" sampledSeconds="0.00" CO_abs="0" CO2_abs="0" HC_abs="0" PMx_abs="0" NOx_abs="0" fuel_abs="0" electricity_abs="0"
            CO_normed="0" CO2_normed="0" HC_normed="0" PMx_normed="0" NOx_normed="0" fuel_normed="0" electricity_normed="0"/>
        <edge id=":1110673403_0" sampledSeconds="200.12" CO_abs="3061.968007" CO2_abs="391837.746376" HC_abs="22.869152" PMx_abs="5.303434" NOx_abs="145.794244" fuel_abs="168.434612" electricity_abs="0"
            CO_normed="4291.475833" CO2_normed="549176.939560" HC_normed="32.052070" PMx_normed="7.432984" NOx_normed="204.336712" fuel_normed="236.068131" electricity_normed="0"
            traveltime="0.02" CO_perVeh="0.353892" CO2_perVeh="45.287251" HC_perVeh="0.002643" PMx_perVeh="0.000613" NOx_perVeh="0.016850" fuel_perVeh="0.019467" electricity_perVeh="0"/>
        <edge id=":1110673412_0" sampledSeconds="939.78" CO_abs="165355.794137" CO2_abs="11310667.668971" HC_abs="1029.727976" PMx_abs="248.332421" NOx_abs="4858.114381" fuel_abs="4861.899062" electricity_abs="0"
            CO_normed="239744.524279" CO2_normed="16399005.875317" HC_normed="1492.972442" PMx_normed="360.049906" NOx_normed="7043.637794" fuel_normed="7049.125093" electricity_normed="0"
            traveltime="0.02" CO_perVeh="2.730515" CO2_perVeh="186.772712" HC_perVeh="0.017004" PMx_perVeh="0.004101" NOx_perVeh="0.080222" fuel_perVeh="0.080284" electricity_perVeh="0"/>
        <edge id=":1110673414_0" sampledSeconds="0.00" CO_abs="0" CO2_abs="0" HC_abs="0" PMx_abs="0" NOx_abs="0" fuel_abs="0" electricity_abs="0"
            CO_normed="0" CO2_normed="0" HC_normed="0" PMx_normed="0" NOx_normed="0" fuel_normed="0" electricity_normed="0"/>
        <edge id=":1110673414_1" sampledSeconds="6.90" CO_abs="498.498351" CO2_abs="19400.171525" HC_abs="2.718464" PMx_abs="0.347286" NOx_abs="8.121487" fuel_abs="8.339452" electricity_abs="0"
            CO_normed="23.211502" CO2_normed="903.327219" HC_normed="0.126579" PMx_normed="0.016171" NOx_normed="0.378160" fuel_normed="0.388309" electricity_normed="0"
            traveltime="1.51" CO_perVeh="108.888246" CO2_perVeh="4237.628178" HC_perVeh="0.593801" PMx_perVeh="0.075859" NOx_perVeh="1.773997" fuel_perVeh="1.821607" electricity_perVeh="0"/>
        <edge id=":1110673417_0" sampledSeconds="29.43" CO_abs="370.110802" CO2_abs="47799.467130" HC_abs="2.743114" PMx_abs="0.589315" NOx_abs="17.417949" fuel_abs="20.547067" electricity_abs="0"
            CO_normed="555.777559" CO2_normed="71778.156667" HC_normed="4.119203" PMx_normed="0.884946" NOx_normed="26.155695" fuel_normed="30.854540" electricity_normed="0"
            traveltime="0.02" CO_perVeh="0.282227" CO2_perVeh="36.449388" HC_perVeh="0.002092" PMx_perVeh="0.000449" NOx_perVeh="0.013282" fuel_perVeh="0.015668" electricity_perVeh="0"/>
        <edge id=":1110673446_0" sampledSeconds="1313.38" CO_abs="13547.894730" CO2_abs="1107099.553185" HC_abs="87.936454" PMx_abs="20.213342" NOx_abs="452.065882" fuel_abs="475.891250" electricity_abs="0"
            CO_normed="18987.939355" CO2_normed="1551646.185263" HC_normed="123.246607" PMx_normed="28.329842" NOx_normed="633.589183" fuel_normed="666.981429" electricity_normed="0"
            traveltime="0.02" CO_perVeh="0.234989" CO2_perVeh="19.202716" HC_perVeh="0.001525" PMx_perVeh="0.000351" NOx_perVeh="0.007841" fuel_perVeh="0.008254" electricity_perVeh="0"/>
        <edge id=":1110673451_0" sampledSeconds="37.11" CO_abs="256.079233" CO2_abs="17796.084107" HC_abs="1.576002" PMx_abs="0.268542" NOx_abs="6.995802" fuel_abs="7.649829" electricity_abs="0"
            CO_normed="398.784136" CO2_normed="27713.282110" HC_normed="2.454258" PMx_normed="0.418192" NOx_normed="10.894342" fuel_normed="11.912838" electricity_normed="0"
            traveltime="0.03" CO_perVeh="0.188674" CO2_perVeh="13.111779" HC_perVeh="0.001161" PMx_perVeh="0.000198" NOx_perVeh="0.005154" fuel_perVeh="0.005636" electricity_perVeh="0"/>
        <edge id=":1110673464_0" sampledSeconds="1034.17" CO_abs="3607.321048" CO2_abs="267283.681962" HC_abs="22.519895" PMx_abs="3.652587" NOx_abs="102.409902" fuel_abs="114.895021" electricity_abs="0"
            CO_normed="107.418078" CO2_normed="7959.119509" HC_normed="0.670593" PMx_normed="0.108766" NOx_normed="3.049541" fuel_normed="3.421321" electricity_normed="0"
            traveltime="1.23" CO_perVeh="4.277778" CO2_perVeh="316.961040" HC_perVeh="0.026705" PMx_perVeh="0.004331" NOx_perVeh="0.121444" fuel_perVeh="0.136249" electricity_perVeh="0"/>
        <edge id=":1110673464_1" sampledSeconds="2610.61" CO_abs="65548.748956" CO2_abs="7957697.950393" HC_abs="488.263512" PMx_abs="142.336730" NOx_abs="3019.226458" fuel_abs="3420.647664" electricity_abs="0"
            CO_normed="1912.615644" CO2_normed="232193.868437" HC_normed="14.246808" PMx_normed="4.153175" NOx_normed="88.096567" fuel_normed="99.809445" electricity_normed="0"
            traveltime="0.72" CO_perVeh="18.066080" CO2_perVeh="2193.244103" HC_perVeh="0.134572" PMx_perVeh="0.039230" NOx_perVeh="0.832138" fuel_perVeh="0.942775" electricity_perVeh="0"/>
        <edge id=":1110673479_0" sampledSeconds="135.44" CO_abs="6045.973921" CO2_abs="420324.358494" HC_abs="37.384066" PMx_abs="7.235753" NOx_abs="171.077295" fuel_abs="180.679348" electricity_abs="0"
            CO_normed="8473.684542" CO2_normed="589102.114217" HC_normed="52.395327" PMx_normed="10.141209" NOx_normed="239.771962" fuel_normed="253.229640" electricity_normed="0"
            traveltime="0.03" CO_perVeh="1.278174" CO2_perVeh="88.860370" HC_perVeh="0.007903" PMx_perVeh="0.001530" NOx_perVeh="0.036167" fuel_perVeh="0.038197" electricity_perVeh="0"/>
        <edge id=":1110673511_0" sampledSeconds="63.48" CO_abs="1292.955569" CO2_abs="134209.592622" HC_abs="8.993613" PMx_abs="1.937925" NOx_abs="51.224149" fuel_abs="57.691053" electricity_abs="0"
            CO_normed="1812.131140" CO2_normed="188100.340045" HC_normed="12.604924" PMx_normed="2.716083" NOx_normed="71.792781" fuel_normed="80.856416" electricity_normed="0"
            traveltime="0.02" CO_perVeh="0.495543" CO2_perVeh="51.437723" HC_perVeh="0.003447" PMx_perVeh="0.000743" NOx_perVeh="0.019632" fuel_perVeh="0.022111" electricity_perVeh="0"/>
        <edge id=":1110673517_0" sampledSeconds="182.46" CO_abs="8050.617854" CO2_abs="574616.072035" HC_abs="50.147523" PMx_abs="9.932878" NOx_abs="233.893530" fuel_abs="247.002493" electricity_abs="0"
            CO_normed="11283.276599" CO2_normed="805348.384071" HC_normed="70.283844" PMx_normed="13.921343" NOx_normed="327.811535" fuel_normed="346.184293" electricity_normed="0"
            traveltime="0.03" CO_perVeh="1.232620" CO2_perVeh="87.978726" HC_perVeh="0.007678" PMx_perVeh="0.001521" NOx_perVeh="0.035811" fuel_perVeh="0.037818" electricity_perVeh="0"/>
        <edge id=":1110673534_0" sampledSeconds="657.29" CO_abs="4486.660949" CO2_abs="376499.477385" HC_abs="29.026272" PMx_abs="5.060781" NOx_abs="143.029554" fuel_abs="161.842401" electricity_abs="0"
            CO_normed="121.865163" CO2_normed="10226.351086" HC_normed="0.788402" PMx_normed="0.137459" NOx_normed="3.884920" fuel_normed="4.395908" electricity_normed="0"
            traveltime="1.45" CO_perVeh="9.865500" CO2_perVeh="827.866306" HC_perVeh="0.063824" PMx_perVeh="0.011128" NOx_perVeh="0.314501" fuel_perVeh="0.355867" electricity_perVeh="0"/>
        <edge id=":1110673534_1" sampledSeconds="263.40" CO_abs="4400.276558" CO2_abs="548234.394427" HC_abs="32.556814" PMx_abs="7.519587" NOx_abs="204.751954" fuel_abs="235.662909" electricity_abs="0"
            CO_normed="116.215535" CO2_normed="14479.397542" HC_normed="0.859857" PMx_normed="0.198600" NOx_normed="5.407696" fuel_normed="6.224084" electricity_normed="0"
            traveltime="1.22" CO_perVeh="20.416179" CO2_perVeh="2543.670053" HC_perVeh="0.151055" PMx_perVeh="0.034889" NOx_perVeh="0.949998" fuel_perVeh="1.093417" electricity_perVeh="0"/>
        <edge id=":1110673549_0" sampledSeconds="652.11" CO_abs="1540.387129" CO2_abs="141428.078792" HC_abs="10.281957" PMx_abs="2.032125" NOx_abs="53.980240" fuel_abs="60.794138" electricity_abs="0"
            CO_normed="40.530353" CO2_normed="3721.226835" HC_normed="0.270537" PMx_normed="0.053469" NOx_normed="1.420317" fuel_normed="1.599603" electricity_normed="0"
            traveltime="1.30" CO_perVeh="3.060382" CO2_perVeh="280.983870" HC_perVeh="0.020428" PMx_perVeh="0.004037" NOx_perVeh="0.107246" fuel_perVeh="0.120783" electricity_perVeh="0"/>
        <edge id=":1110673549_1" sampledSeconds="3200.99" CO_abs="67812.984558" CO2_abs="8982605.426247" HC_abs="522.759470" PMx_abs="157.505055" NOx_abs="3353.390146" fuel_abs="3861.211211" electricity_abs="0"
            CO_normed="1725.957483" CO2_normed="228622.809487" HC_normed="13.305131" PMx_normed="4.008775" NOx_normed="85.349566" fuel_normed="98.274489" electricity_normed="0"
            traveltime="0.81" CO_perVeh="17.102576" CO2_perVeh="2265.431864" HC_perVeh="0.131841" PMx_perVeh="0.039723" NOx_perVeh="0.845732" fuel_perVeh="0.973806" electricity_perVeh="0"/>
        <edge id=":1110673556_0" sampledSeconds="464.40" CO_abs="57802.736501" CO2_abs="2789449.666466" HC_abs="329.482613" PMx_abs="56.476376" NOx_abs="1203.645715" fuel_abs="1199.065117" electricity_abs="0"
            CO_normed="1127.790422" CO2_normed="54425.011825" HC_normed="6.428542" PMx_normed="1.101912" NOx_normed="23.484357" fuel_normed="23.394985" electricity_normed="0"
            traveltime="2.74" CO_perVeh="340.741615" CO2_perVeh="16443.539542" HC_perVeh="1.942269" PMx_perVeh="0.332923" NOx_perVeh="7.095377" fuel_perVeh="7.068374" electricity_perVeh="0"/>
        <edge id=":1110673556_2" sampledSeconds="171.92" CO_abs="16877.396701" CO2_abs="733461.018882" HC_abs="94.084174" PMx_abs="14.169104" NOx_abs="312.850053" fuel_abs="315.285922" electricity_abs="0"
            CO_normed="344.314049" CO2_normed="14963.263468" HC_normed="1.919402" PMx_normed="0.289062" NOx_normed="6.382422" fuel_normed="6.432116" electricity_normed="0"
            traveltime="2.97" CO_perVeh="291.834306" CO2_perVeh="12682.589099" HC_perVeh="1.626850" PMx_perVeh="0.245004" NOx_perVeh="5.409624" fuel_perVeh="5.451744" electricity_perVeh="0"/>
        <edge id=":1110673556_3" sampledSeconds="180.98" CO_abs="18624.465101" CO2_abs="641632.559802" HC_abs="99.848322" PMx_abs="12.904424" NOx_abs="277.882013" fuel_abs="275.814924" electricity_abs="0"
            CO_normed="864.336570" CO2_normed="29777.310794" HC_normed="4.633827" PMx_normed="0.598877" NOx_normed="12.896133" fuel_normed="12.800203" electricity_normed="0"
            traveltime="1.88" CO_perVeh="193.944638" CO2_perVeh="6681.598326" HC_perVeh="1.039764" PMx_perVeh="0.134379" NOx_perVeh="2.893706" fuel_perVeh="2.872181" electricity_perVeh="0"/>
        <edge id=":1110673556_4" sampledSeconds="34.94" CO_abs="3305.765104" CO2_abs="138678.998041" HC_abs="18.308976" PMx_abs="2.688805" NOx_abs="59.249751" fuel_abs="59.612703" electricity_abs="0"
            CO_normed="93.725576" CO2_normed="3931.848916" HC_normed="0.519099" PMx_normed="0.076233" NOx_normed="1.679858" fuel_normed="1.690149" electricity_normed="0"
            traveltime="2.21" CO_perVeh="208.650394" CO2_perVeh="8753.019837" HC_perVeh="1.155610" PMx_perVeh="0.169710" NOx_perVeh="3.739674" fuel_perVeh="3.762583" electricity_perVeh="0"/>
        <edge id=":1110673556_5" sampledSeconds="22.59" CO_abs="1442.673208" CO2_abs="63606.179268" HC_abs="8.036453" PMx_abs="1.085985" NOx_abs="26.228366" fuel_abs="27.341982" electricity_abs="0"
            CO_normed="57.010338" CO2_normed="2513.535123" HC_normed="0.317578" PMx_normed="0.042915" NOx_normed="1.036470" fuel_normed="1.080477" electricity_normed="0"
            traveltime="1.56" CO_perVeh="99.740370" CO2_perVeh="4397.464246" HC_perVeh="0.555607" PMx_perVeh="0.075080" NOx_perVeh="1.813319" fuel_perVeh="1.890310" electricity_perVeh="0"/>
        <edge id=":1110673556_6" sampledSeconds="552.27" CO_abs="66023.009460" CO2_abs="3174468.058936" HC_abs="376.022937" PMx_abs="64.127060" NOx_abs="1369.078791" fuel_abs="1364.568461" electricity_abs="0"
            CO_normed="1320.656527" CO2_normed="63498.801334" HC_normed="7.521577" PMx_normed="1.282732" NOx_normed="27.385647" fuel_normed="27.295427" electricity_normed="0"
            traveltime="2.68" CO_perVeh="320.556308" CO2_perVeh="15412.744285" HC_perVeh="1.825674" PMx_perVeh="0.311351" NOx_perVeh="6.647180" fuel_perVeh="6.625282" electricity_perVeh="0"/>
        <edge id=":1110673561_0" sampledSeconds="102.20" CO_abs="9933.412857" CO2_abs="716609.514784" HC_abs="62.461527" PMx_abs="14.366370" NOx_abs="302.401233" fuel_abs="308.036407" electricity_abs="0"
            CO_normed="249.648995" CO2_normed="18010.008033" HC_normed="1.569799" PMx_normed="0.361059" NOx_normed="7.600023" fuel_normed="7.741647" electricity_normed="0"
            traveltime="1.21" CO_perVeh="117.223913" CO2_perVeh="8456.687816" HC_perVeh="0.737107" PMx_perVeh="0.169537" NOx_perVeh="3.568628" fuel_perVeh="3.635129" electricity_perVeh="0"/>
        <edge id=":1110673561_1" sampledSeconds="5187.41" CO_abs="483744.842359" CO2_abs="33549036.676413" HC_abs="3014.433932" PMx_abs="700.880453" NOx_abs="14339.980705" fuel_abs="14421.110834" electricity_abs="0"
            CO_normed="11852.946971" CO2_normed="822034.506261" HC_normed="73.861099" PMx_normed="17.173307" NOx_normed="351.365050" fuel_normed="353.352939" electricity_normed="0"
            traveltime="1.19" CO_perVeh="111.111318" CO2_perVeh="7705.875823" HC_perVeh="0.692385" PMx_perVeh="0.160985" NOx_perVeh="3.293749" fuel_perVeh="3.312384" electricity_perVeh="0"/>
        <edge id=":1110673562_0" sampledSeconds="300.77" CO_abs="7320.450971" CO2_abs="561793.021992" HC_abs="46.134398" PMx_abs="7.602250" NOx_abs="214.629573" fuel_abs="241.493215" electricity_abs="0"
            CO_normed="11399.908076" CO2_normed="874862.605299" HC_normed="71.843647" PMx_normed="11.838745" NOx_normed="334.235884" fuel_normed="376.069789" electricity_normed="0"
            traveltime="0.03" CO_perVeh="0.656219" CO2_perVeh="50.360146" HC_perVeh="0.004136" PMx_perVeh="0.000681" NOx_perVeh="0.019240" fuel_perVeh="0.021648" electricity_perVeh="0"/>
        <edge id=":1110673564_0" sampledSeconds="27.92" CO_abs="394.697205" CO2_abs="45978.465585" HC_abs="2.835725" PMx_abs="0.635353" NOx_abs="17.256633" fuel_abs="19.764216" electricity_abs="0"
            CO_normed="1659.553769" CO2_normed="193322.209887" HC_normed="11.923162" PMx_normed="2.671423" NOx_normed="72.557674" fuel_normed="83.101117" electricity_normed="0"
            traveltime="7.886790e-03" CO_perVeh="0.111481" CO2_perVeh="12.986433" HC_perVeh="0.000801" PMx_perVeh="0.000179" NOx_perVeh="0.004874" fuel_perVeh="0.005582" electricity_perVeh="0"/>
        <edge id=":1110673588_0" sampledSeconds="62.77" CO_abs="1211.470626" CO2_abs="131074.189088" HC_abs="8.521231" PMx_abs="1.816420" NOx_abs="49.481097" fuel_abs="56.343350" electricity_abs="0"
            CO_normed="2037.511914" CO2_normed="220447.129510" HC_normed="14.331432" PMx_normed="3.054946" NOx_normed="83.219785" fuel_normed="94.761066" electricity_normed="0"
            traveltime="0.02" CO_perVeh="0.390797" CO2_perVeh="42.281996" HC_perVeh="0.002749" PMx_perVeh="0.000586" NOx_perVeh="0.015962" fuel_perVeh="0.018175" electricity_perVeh="0"/>
        <edge id=":1110673601_0" sampledSeconds="28.99" CO_abs="523.079513" CO2_abs="60242.762329" HC_abs="3.743244" PMx_abs="0.837264" NOx_abs="22.653131" fuel_abs="25.895836" electricity_abs="0"
            CO_normed="785.483300" CO2_normed="90463.653513" HC_normed="5.621049" PMx_normed="1.257279" NOx_normed="34.017115" fuel_normed="38.886529" electricity_normed="0"
            traveltime="0.02" CO_perVeh="0.398873" CO2_perVeh="45.937998" HC_perVeh="0.002854" PMx_perVeh="0.000638" NOx_perVeh="0.017274" fuel_perVeh="0.019747" electricity_perVeh="0"/>
        <edge id=":1110673617_0" sampledSeconds="855.59" CO_abs="30990.486641" CO2_abs="3162050.612158" HC_abs="216.818545" PMx_abs="59.368730" NOx_abs="1238.168322" fuel_abs="1359.217714" electricity_abs="0"
            CO_normed="43434.459202" CO2_normed="4431745.777377" HC_normed="303.880231" PMx_normed="83.207751" NOx_normed="1735.344529" fuel_normed="1905.000300" electricity_normed="0"
            traveltime="0.02" CO_perVeh="0.549930" CO2_perVeh="56.111019" HC_perVeh="0.003847" PMx_perVeh="0.001054" NOx_perVeh="0.021971" fuel_perVeh="0.024120" electricity_perVeh="0"/>
        <edge id=":1110673621_0" sampledSeconds="26.39" CO_abs="539.890645" CO2_abs="57815.563007" HC_abs="3.782892" PMx_abs="0.810516" NOx_abs="21.876916" fuel_abs="24.852500" electricity_abs="0"
            CO_normed="908.015100" CO2_normed="97237.106669" HC_normed="6.362256" PMx_normed="1.363166" NOx_normed="36.793691" fuel_normed="41.798179" electricity_normed="0"
            traveltime="0.02" CO_perVeh="0.409008" CO2_perVeh="43.799669" HC_perVeh="0.002866" PMx_perVeh="0.000614" NOx_perVeh="0.016573" fuel_perVeh="0.018828" electricity_perVeh="0"/>
        <edge id=":1110673630_0" sampledSeconds="286.07" CO_abs="1312.510461" CO2_abs="123534.274306" HC_abs="8.778696" PMx_abs="1.564245" NOx_abs="46.122178" fuel_abs="53.102582" electricity_abs="0"
            CO_normed="39.362442" CO2_normed="3704.816754" HC_normed="0.263275" PMx_normed="0.046912" NOx_normed="1.383213" fuel_normed="1.592557" electricity_normed="0"
            traveltime="1.29" CO_perVeh="5.905796" CO2_perVeh="555.857054" HC_perVeh="0.039501" PMx_perVeh="0.007039" NOx_perVeh="0.207532" fuel_perVeh="0.238941" electricity_perVeh="0"/>
        <edge id=":1110673630_1" sampledSeconds="338.32" CO_abs="1493.043702" CO2_abs="124927.749617" HC_abs="9.631134" PMx_abs="1.615972" NOx_abs="47.079158" fuel_abs="53.701650" electricity_abs="0"
            CO_normed="54.588600" CO2_normed="4567.603045" HC_normed="0.352133" PMx_normed="0.059083" NOx_normed="1.721306" fuel_normed="1.963437" electricity_normed="0"
            traveltime="1.08" CO_perVeh="4.759529" CO2_perVeh="398.245078" HC_perVeh="0.030702" PMx_perVeh="0.005151" NOx_perVeh="0.150079" fuel_perVeh="0.171190" electricity_perVeh="0"/>
        <edge id=":1110673650_0" sampledSeconds="199.50" CO_abs="3110.788908" CO2_abs="389301.045508" HC_abs="23.053593" PMx_abs="5.368536" NOx_abs="145.559782" fuel_abs="167.344091" electricity_abs="0"
            CO_normed="4359.900361" CO2_normed="545621.647524" HC_normed="32.310572" PMx_normed="7.524227" NOx_normed="204.008104" fuel_normed="234.539721" electricity_normed="0"
            traveltime="0.02" CO_perVeh="0.359534" CO2_perVeh="44.994076" HC_perVeh="0.002664" PMx_perVeh="0.000620" NOx_perVeh="0.016823" fuel_perVeh="0.019341" electricity_perVeh="0"/>
        <edge id=":1110673655_0" sampledSeconds="20.63" CO_abs="390.489956" CO2_abs="43745.411549" HC_abs="2.777945" PMx_abs="0.621135" NOx_abs="16.548206" fuel_abs="18.804306" electricity_abs="0"
            CO_normed="547.287954" CO2_normed="61311.018288" HC_normed="3.893406" PMx_normed="0.870547" NOx_normed="23.193000" fuel_normed="26.355019" electricity_normed="0"
            traveltime="0.02" CO_perVeh="0.446104" CO2_perVeh="49.975718" HC_perVeh="0.003174" PMx_perVeh="0.000710" NOx_perVeh="0.018905" fuel_perVeh="0.021482" electricity_perVeh="0"/>
        <edge id=":1110673663_0" sampledSeconds="111.09" CO_abs="1957.174430" CO2_abs="220753.205575" HC_abs="13.971726" PMx_abs="3.117256" NOx_abs="83.418413" fuel_abs="94.892502" electricity_abs="0"
            CO_normed="50.239223" CO2_normed="5666.571834" HC_normed="0.358644" PMx_normed="0.080018" NOx_normed="2.141289" fuel_normed="2.435820" electricity_normed="0"
            traveltime="1.30" CO_perVeh="22.987937" CO2_perVeh="2592.850541" HC_perVeh="0.164105" PMx_perVeh="0.036614" NOx_perVeh="0.979789" fuel_perVeh="1.114557" electricity_perVeh="0"/>
        <edge id=":1110673663_1" sampledSeconds="170.14" CO_abs="2529.713000" CO2_abs="296180.882430" HC_abs="18.235273" PMx_abs="4.155946" NOx_abs="111.434949" fuel_abs="127.315659" electricity_abs="0"
            CO_normed="65.015249" CO2_normed="7612.038929" HC_normed="0.468658" PMx_normed="0.106810" NOx_normed="2.863950" fuel_normed="3.272094" electricity_normed="0"
            traveltime="1.27" CO_perVeh="18.911909" CO2_perVeh="2214.221944" HC_perVeh="0.136325" PMx_perVeh="0.031069" NOx_perVeh="0.833078" fuel_perVeh="0.951801" electricity_perVeh="0"/>
        <edge id=":1110673666_0" sampledSeconds="271.74" CO_abs="6012.117456" CO2_abs="484373.073740" HC_abs="38.401903" PMx_abs="6.404044" NOx_abs="183.689500" fuel_abs="208.213371" electricity_abs="0"