<?xml version="1.0" encoding="UTF-8"?>

<!-- generated on Tue Nov 10 02:48:07 2020 by Eclipse SUMO sumo Version 1.7.0
<configuration xmlns:xsi="http://www.w3.org/2001/XMLSchema-instance" xsi:noNamespaceSchemaLocation="http://sumo.dlr.de/xsd/sumoConfiguration.xsd">

    <input>
        <net-file value="../dataSets/Porto/6AM7AM_Routing_SaoBento/Porto.net.xml"/>
        <route-files value="../results/Porto/6AM7AM_Routing_SaoBento/cost_hc-cost_nox/solution5/Porto.rou.xml"/>
        <additional-files value="moreOutputInfo.xml"/>
    </input>

    <output>
        <emission-output.precision value="6"/>
        <tripinfo-output value="../results/Porto/6AM7AM_Routing_SaoBento/cost_hc-cost_nox/solution5/Porto-tripinfo"/>
    </output>

    <processing>
        <collision.action value="warn"/>
        <time-to-teleport value="-1"/>
    </processing>

    <emissions>
        <device.emissions.probability value="1"/>
    </emissions>

    <gui_only>
        <quit-on-end value="true"/>
        <start value="true"/>
    </gui_only>

</configuration>
-->

<meandata xmlns:xsi="http://www.w3.org/2001/XMLSchema-instance" xsi:noNamespaceSchemaLocation="http://sumo.dlr.de/xsd/meandata_file.xsd">
    <interval begin="0.00" end="4702.00" id="emissions-detector">
        <edge id=":1092997347_0" sampledSeconds="274.33" CO_abs="35220.298250" CO2_abs="1374086.007782" HC_abs="192.833654" PMx_abs="28.082726" NOx_abs="596.912035" fuel_abs="590.665942" electricity_abs="0"
            CO_normed="61285.852104" CO2_normed="2391008.481892" HC_normed="335.544426" PMx_normed="48.865963" NOx_normed="1038.669873" fuel_normed="1027.801222" electricity_normed="0"
            traveltime="0.08" CO_perVeh="9.888712" CO2_perVeh="385.798589" HC_perVeh="0.054141" PMx_perVeh="0.007885" NOx_perVeh="0.167593" fuel_perVeh="0.165840" electricity_perVeh="0"/>
        <edge id=":1103427051_0" sampledSeconds="11.14" CO_abs="821.281862" CO2_abs="46082.292262" HC_abs="4.828634" PMx_abs="0.878142" NOx_abs="19.496992" fuel_abs="19.808780" electricity_abs="0"
            CO_normed="2168.273739" CO2_normed="121662.280278" HC_normed="12.748120" PMx_normed="2.318391" NOx_normed="51.474186" fuel_normed="52.297340" electricity_normed="0"
            traveltime="0.03" CO_perVeh="2.250300" CO2_perVeh="126.264784" HC_perVeh="0.013230" PMx_perVeh="0.002406" NOx_perVeh="0.053421" fuel_perVeh="0.054276" electricity_perVeh="0"/>
        <edge id=":1105984386_0" sampledSeconds="23.10" CO_abs="466.677032" CO2_abs="37698.365364" HC_abs="2.981836" PMx_abs="0.492537" NOx_abs="14.271855" fuel_abs="16.205085" electricity_abs="0"
            CO_normed="36.797395" CO2_normed="2972.508911" HC_normed="0.235117" PMx_normed="0.038836" NOx_normed="1.125333" fuel_normed="1.277768" electricity_normed="0"
            traveltime="0.97" CO_perVeh="19.586074" CO2_perVeh="1582.171195" HC_perVeh="0.125145" PMx_perVeh="0.020671" NOx_perVeh="0.598979" fuel_perVeh="0.680115" electricity_perVeh="0"/>
        <edge id=":1105984390_0" sampledSeconds="23.09" CO_abs="19.364941" CO2_abs="1589.471152" HC_abs="0.124014" PMx_abs="0.019218" NOx_abs="0.591848" fuel_abs="0.683255" electricity_abs="0"
            CO_normed="1.180447" CO2_normed="96.890877" HC_normed="0.007560" PMx_normed="0.001172" NOx_normed="0.036078" fuel_normed="0.041650" electricity_normed="0"
            traveltime="1.05" CO_perVeh="0.878191" CO2_perVeh="72.081736" HC_perVeh="0.005624" PMx_perVeh="0.000872" NOx_perVeh="0.026840" fuel_perVeh="0.030985" electricity_perVeh="0"/>
        <edge id=":1105984390_1" sampledSeconds="645.65" CO_abs="15662.790738" CO2_abs="1985022.114871" HC_abs="118.893489" PMx_abs="35.366233" NOx_abs="745.607556" fuel_abs="853.269879" electricity_abs="0"
            CO_normed="913.322792" CO2_normed="115749.866669" HC_normed="6.932873" PMx_normed="2.062263" NOx_normed="43.477589" fuel_normed="49.755554" electricity_normed="0"
            traveltime="0.64" CO_perVeh="15.411805" CO2_perVeh="1953.213426" HC_perVeh="0.116988" PMx_perVeh="0.034800" NOx_perVeh="0.733660" fuel_perVeh="0.839597" electricity_perVeh="0"/>
        <edge id=":1105984395_0" sampledSeconds="9.07" CO_abs="141.405222" CO2_abs="11591.407978" HC_abs="0.905525" PMx_abs="0.141370" NOx_abs="4.319066" fuel_abs="4.982717" electricity_abs="0"
            CO_normed="117.678601" CO2_normed="9646.466055" HC_normed="0.753585" PMx_normed="0.117649" NOx_normed="3.594363" fuel_normed="4.146658" electricity_normed="0"
            traveltime="0.09" CO_perVeh="1.434004" CO2_perVeh="117.549552" HC_perVeh="0.009183" PMx_perVeh="0.001434" NOx_perVeh="0.043800" fuel_perVeh="0.050530" electricity_perVeh="0"/>
        <edge id=":1105984398_0" sampledSeconds="22.45" CO_abs="1570.988518" CO2_abs="107889.801821" HC_abs="9.706534" PMx_abs="1.985306" NOx_abs="44.763054" fuel_abs="46.377000" electricity_abs="0"
            CO_normed="99.487058" CO2_normed="6832.410800" HC_normed="0.614692" PMx_normed="0.125725" NOx_normed="2.834740" fuel_normed="2.936948" electricity_normed="0"
            traveltime="1.08" CO_perVeh="75.905361" CO2_perVeh="5212.905294" HC_perVeh="0.468990" PMx_perVeh="0.095924" NOx_perVeh="2.162814" fuel_perVeh="2.240795" electricity_perVeh="0"/>
        <edge id=":1105984398_1" sampledSeconds="449.69" CO_abs="7702.316829" CO2_abs="934848.899742" HC_abs="56.372041" PMx_abs="13.074739" NOx_abs="351.056745" fuel_abs="401.851963" electricity_abs="0"
            CO_normed="472.148720" CO2_normed="57305.836827" HC_normed="3.455582" PMx_normed="0.801476" NOx_normed="21.519628" fuel_normed="24.633353" electricity_normed="0"
            traveltime="0.96" CO_perVeh="16.362268" CO2_perVeh="1985.928219" HC_perVeh="0.119753" PMx_perVeh="0.027775" NOx_perVeh="0.745761" fuel_perVeh="0.853666" electricity_perVeh="0"/>
        <edge id=":1106006327_0" sampledSeconds="523.51" CO_abs="70570.702706" CO2_abs="2300164.647046" HC_abs="375.482728" PMx_abs="47.953190" NOx_abs="1006.708201" fuel_abs="988.759352" electricity_abs="0"
            CO_normed="6098.325427" CO2_normed="198767.364000" HC_normed="32.447117" PMx_normed="4.143846" NOx_normed="86.994092" fuel_normed="85.443053" electricity_normed="0"
            traveltime="2.08" CO_perVeh="280.127787" CO2_perVeh="9130.418260" HC_perVeh="1.490465" PMx_perVeh="0.190348" NOx_perVeh="3.996091" fuel_perVeh="3.924844" electricity_perVeh="0"/>
        <edge id=":1106006327_1" sampledSeconds="161.41" CO_abs="21578.286374" CO2_abs="718329.221155" HC_abs="115.166772" PMx_abs="14.914440" NOx_abs="313.967939" fuel_abs="308.784004" electricity_abs="0"
            CO_normed="1626.084539" CO2_normed="54131.455122" HC_normed="8.678674" PMx_normed="1.123914" NOx_normed="23.659822" fuel_normed="23.269174" electricity_normed="0"
            traveltime="2.29" CO_perVeh="306.331586" CO2_perVeh="10197.609109" HC_perVeh="1.634941" PMx_perVeh="0.211730" NOx_perVeh="4.457180" fuel_perVeh="4.383587" electricity_perVeh="0"/>
        <edge id=":1106006327_2" sampledSeconds="0.00" CO_abs="0" CO2_abs="0" HC_abs="0" PMx_abs="0" NOx_abs="0" fuel_abs="0" electricity_abs="0"
            CO_normed="0" CO2_normed="0" HC_normed="0" PMx_normed="0" NOx_normed="0" fuel_normed="0" electricity_normed="0"/>
        <edge id=":1106006327_3" sampledSeconds="0.00" CO_abs="0" CO2_abs="0" HC_abs="0" PMx_abs="0" NOx_abs="0" fuel_abs="0" electricity_abs="0"
            CO_normed="0" CO2_normed="0" HC_normed="0" PMx_normed="0" NOx_normed="0" fuel_normed="0" electricity_normed="0"/>
        <edge id=":1107381198_0" sampledSeconds="0.00" CO_abs="0" CO2_abs="0" HC_abs="0" PMx_abs="0" NOx_abs="0" fuel_abs="0" electricity_abs="0"
            CO_normed="0" CO2_normed="0" HC_normed="0" PMx_normed="0" NOx_normed="0" fuel_normed="0" electricity_normed="0"/>
        <edge id=":1107381198_1" sampledSeconds="36.30" CO_abs="1390.872303" CO2_abs="58261.384412" HC_abs="7.676589" PMx_abs="1.004243" NOx_abs="24.112904" fuel_abs="25.044491" electricity_abs="0"
            CO_normed="116.128228" CO2_normed="4864.423081" HC_normed="0.640942" PMx_normed="0.083847" NOx_normed="2.013261" fuel_normed="2.091042" electricity_normed="0"
            traveltime="1.49" CO_perVeh="57.266070" CO2_perVeh="2398.782754" HC_perVeh="0.316066" PMx_perVeh="0.041347" NOx_perVeh="0.992795" fuel_perVeh="1.031151" electricity_perVeh="0"/>
        <edge id=":1110338277_0" sampledSeconds="96.88" CO_abs="1336.430752" CO2_abs="177764.209537" HC_abs="10.137825" PMx_abs="2.265588" NOx_abs="65.293067" fuel_abs="76.413546" electricity_abs="0"
            CO_normed="3654.334558" CO2_normed="486078.229883" HC_normed="27.720855" PMx_normed="6.195020" NOx_normed="178.537279" fuel_normed="208.945105" electricity_normed="0"
            traveltime="0.02" CO_perVeh="0.301189" CO2_perVeh="40.062442" HC_perVeh="0.002285" PMx_perVeh="0.000511" NOx_perVeh="0.014715" fuel_perVeh="0.017221" electricity_perVeh="0"/>
        <edge id=":1110338293_0" sampledSeconds="124.24" CO_abs="5954.145977" CO2_abs="405525.867257" HC_abs="36.658563" PMx_abs="7.218711" NOx_abs="166.762268" fuel_abs="174.317836" electricity_abs="0"
            CO_normed="15195.608619" CO2_normed="1034944.790957" HC_normed="93.556520" PMx_normed="18.422912" NOx_normed="425.594900" fuel_normed="444.877506" electricity_normed="0"
            traveltime="0.03" CO_perVeh="1.365682" CO2_perVeh="93.014076" HC_perVeh="0.008408" PMx_perVeh="0.001656" NOx_perVeh="0.038250" fuel_perVeh="0.039983" electricity_perVeh="0"/>
        <edge id=":1110338295_0" sampledSeconds="0.00" CO_abs="0" CO2_abs="0" HC_abs="0" PMx_abs="0" NOx_abs="0" fuel_abs="0" electricity_abs="0"
            CO_normed="0" CO2_normed="0" HC_normed="0" PMx_normed="0" NOx_normed="0" fuel_normed="0" electricity_normed="0"/>
        <edge id=":1110673403_0" sampledSeconds="143.64" CO_abs="2147.718404" CO2_abs="273992.462707" HC_abs="15.966344" PMx_abs="3.686914" NOx_abs="101.838082" fuel_abs="117.777893" electricity_abs="0"
            CO_normed="5481.203923" CO2_normed="699257.667479" HC_normed="40.747795" PMx_normed="9.409394" NOx_normed="259.901528" fuel_normed="300.581607" electricity_normed="0"
            traveltime="0.02" CO_perVeh="0.344830" CO2_perVeh="43.991297" HC_perVeh="0.002564" PMx_perVeh="0.000592" NOx_perVeh="0.016351" fuel_perVeh="0.018910" electricity_perVeh="0"/>
        <edge id=":1110673412_0" sampledSeconds="252.98" CO_abs="44687.603903" CO2_abs="3055482.003044" HC_abs="278.258562" PMx_abs="67.090453" NOx_abs="1312.559438" fuel_abs="1313.401246" electricity_abs="0"
            CO_normed="117980.150817" CO2_normed="8066805.916013" HC_normed="734.632969" PMx_normed="177.126117" NOx_normed="3465.300148" fuel_normed="3467.522613" electricity_normed="0"
            traveltime="0.02" CO_perVeh="2.745767" CO2_perVeh="187.739788" HC_perVeh="0.017097" PMx_perVeh="0.004122" NOx_perVeh="0.080648" fuel_perVeh="0.080700" electricity_perVeh="0"/>
        <edge id=":1110673414_0" sampledSeconds="0.00" CO_abs="0" CO2_abs="0" HC_abs="0" PMx_abs="0" NOx_abs="0" fuel_abs="0" electricity_abs="0"
            CO_normed="0" CO2_normed="0" HC_normed="0" PMx_normed="0" NOx_normed="0" fuel_normed="0" electricity_normed="0"/>
        <edge id=":1110673414_1" sampledSeconds="133.71" CO_abs="8400.748776" CO2_abs="322701.268241" HC_abs="45.763993" PMx_abs="6.051309" NOx_abs="136.843411" fuel_abs="138.717603" electricity_abs="0"
            CO_normed="712.278972" CO2_normed="27361.052404" HC_normed="3.880217" PMx_normed="0.513076" NOx_normed="11.602619" fuel_normed="11.761527" electricity_normed="0"
            traveltime="1.59" CO_perVeh="100.090726" CO2_perVeh="3844.824452" HC_perVeh="0.545255" PMx_perVeh="0.072098" NOx_perVeh="1.630421" fuel_perVeh="1.652751" electricity_perVeh="0"/>
        <edge id=":1110673417_0" sampledSeconds="29.84" CO_abs="476.679153" CO2_abs="54083.182076" HC_abs="3.416327" PMx_abs="0.749855" NOx_abs="20.360589" fuel_abs="23.248100" electricity_abs="0"
            CO_normed="1303.430873" CO2_normed="147884.984712" HC_normed="9.341599" PMx_normed="2.050404" NOx_normed="55.673970" fuel_normed="63.569576" electricity_normed="0"
            traveltime="0.02" CO_perVeh="0.353798" CO2_perVeh="40.141262" HC_perVeh="0.002536" PMx_perVeh="0.000557" NOx_perVeh="0.015112" fuel_perVeh="0.017255" electricity_perVeh="0"/>
        <edge id=":1110673446_0" sampledSeconds="333.83" CO_abs="3313.180996" CO2_abs="267768.734153" HC_abs="21.442802" PMx_abs="4.893351" NOx_abs="109.448153" fuel_abs="115.101498" electricity_abs="0"
            CO_normed="8455.587399" CO2_normed="683374.055687" HC_normed="54.724292" PMx_normed="12.488348" NOx_normed="279.323232" fuel_normed="293.751165" electricity_normed="0"
            traveltime="0.02" CO_perVeh="0.225973" CO2_perVeh="18.262997" HC_perVeh="0.001462" PMx_perVeh="0.000334" NOx_perVeh="0.007465" fuel_perVeh="0.007850" electricity_perVeh="0"/>
        <edge id=":1110673451_0" sampledSeconds="37.32" CO_abs="290.237147" CO2_abs="20376.205171" HC_abs="1.786300" PMx_abs="0.283628" NOx_abs="7.866817" fuel_abs="8.758953" electricity_abs="0"
            CO_normed="823.017574" CO2_normed="57780.250024" HC_normed="5.065363" PMx_normed="0.804276" NOx_normed="22.307718" fuel_normed="24.837524" electricity_normed="0"
            traveltime="0.03" CO_perVeh="0.208138" CO2_perVeh="14.612418" HC_perVeh="0.001281" PMx_perVeh="0.000203" NOx_perVeh="0.005642" fuel_perVeh="0.006281" electricity_perVeh="0"/>
        <edge id=":1110673464_0" sampledSeconds="328.35" CO_abs="772.592950" CO2_abs="59017.565407" HC_abs="4.865280" PMx_abs="0.808512" NOx_abs="22.586971" fuel_abs="25.369372" electricity_abs="0"
            CO_normed="41.892465" CO2_normed="3200.121512" HC_normed="0.263811" PMx_normed="0.043840" NOx_normed="1.224738" fuel_normed="1.375609" electricity_normed="0"
            traveltime="1.19" CO_perVeh="2.792830" CO2_perVeh="213.341317" HC_perVeh="0.017587" PMx_perVeh="0.002923" NOx_perVeh="0.081649" fuel_perVeh="0.091707" electricity_perVeh="0"/>
        <edge id=":1110673464_1" sampledSeconds="708.21" CO_abs="17470.198262" CO2_abs="2160550.101642" HC_abs="131.607259" PMx_abs="38.804996" NOx_abs="815.341149" fuel_abs="928.721050" electricity_abs="0"
            CO_normed="928.226000" CO2_normed="114794.276948" HC_normed="6.992553" PMx_normed="2.061786" NOx_normed="43.320679" fuel_normed="49.344776" electricity_normed="0"
            traveltime="0.70" CO_perVeh="17.265846" CO2_perVeh="2135.277711" HC_perVeh="0.130068" PMx_perVeh="0.038351" NOx_perVeh="0.805804" fuel_perVeh="0.917858" electricity_perVeh="0"/>
        <edge id=":1110673479_0" sampledSeconds="133.51" CO_abs="6817.265899" CO2_abs="461887.560394" HC_abs="41.912183" PMx_abs="8.214258" NOx_abs="189.943058" fuel_abs="198.545300" electricity_abs="0"
            CO_normed="17398.381707" CO2_normed="1178785.777271" HC_normed="106.964312" PMx_normed="20.963652" NOx_normed="484.754721" fuel_normed="506.708549" electricity_normed="0"
            traveltime="0.03" CO_perVeh="1.436121" CO2_perVeh="97.300940" HC_perVeh="0.008829" PMx_perVeh="0.001730" NOx_perVeh="0.040013" fuel_perVeh="0.041825" electricity_perVeh="0"/>
        <edge id=":1110673511_0" sampledSeconds="11.85" CO_abs="184.829764" CO2_abs="23633.713866" HC_abs="1.379272" PMx_abs="0.307547" NOx_abs="8.727165" fuel_abs="10.159160" electricity_abs="0"
            CO_normed="471.705055" CO2_normed="60315.730836" HC_normed="3.520047" PMx_normed="0.784893" NOx_normed="22.272646" fuel_normed="25.927249" electricity_normed="0"
            traveltime="0.02" CO_perVeh="0.366000" CO2_perVeh="46.799433" HC_perVeh="0.002731" PMx_perVeh="0.000609" NOx_perVeh="0.017282" fuel_perVeh="0.020117" electricity_perVeh="0"/>
        <edge id=":1110673517_0" sampledSeconds="17.11" CO_abs="776.372823" CO2_abs="55578.668756" HC_abs="4.841304" PMx_abs="0.965431" NOx_abs="22.625927" fuel_abs="23.890850" electricity_abs="0"
            CO_normed="1981.385341" CO2_normed="141842.625494" HC_normed="12.355518" PMx_normed="2.463883" NOx_normed="57.743752" fuel_normed="60.971968" electricity_normed="0"
            traveltime="0.03" CO_perVeh="1.246518" CO2_perVeh="89.235219" HC_perVeh="0.007773" PMx_perVeh="0.001550" NOx_perVeh="0.036327" fuel_perVeh="0.038358" electricity_perVeh="0"/>
        <edge id=":1110673534_0" sampledSeconds="473.60" CO_abs="2620.146566" CO2_abs="242611.178942" HC_abs="17.445818" PMx_abs="3.170682" NOx_abs="91.199799" fuel_abs="104.289000" electricity_abs="0"
            CO_normed="129.590900" CO2_normed="11999.405446" HC_normed="0.862860" PMx_normed="0.156820" NOx_normed="4.510688" fuel_normed="5.158072" electricity_normed="0"
            traveltime="1.43" CO_perVeh="7.893451" CO2_perVeh="730.890244" HC_perVeh="0.052557" PMx_perVeh="0.009552" NOx_perVeh="0.274748" fuel_perVeh="0.314181" electricity_perVeh="0"/>
        <edge id=":1110673534_1" sampledSeconds="184.48" CO_abs="2685.853431" CO2_abs="363343.752116" HC_abs="20.348856" PMx_abs="4.722483" NOx_abs="133.674179" fuel_abs="156.186408" electricity_abs="0"
            CO_normed="129.169245" CO2_normed="17474.087628" HC_normed="0.978626" PMx_normed="0.227116" NOx_normed="6.428717" fuel_normed="7.511385" electricity_normed="0"
            traveltime="1.22" CO_perVeh="17.833103" CO2_perVeh="2412.472071" HC_perVeh="0.135109" PMx_perVeh="0.031356" NOx_perVeh="0.887549" fuel_perVeh="1.037022" electricity_perVeh="0"/>
        <edge id=":1110673549_0" sampledSeconds="60.12" CO_abs="17.919668" CO2_abs="1446.877632" HC_abs="0.114294" PMx_abs="0.017880" NOx_abs="0.540538" fuel_abs="0.621959" electricity_abs="0"
            CO_normed="0.858565" CO2_normed="69.322610" HC_normed="0.005476" PMx_normed="0.000857" NOx_normed="0.025898" fuel_normed="0.029799" electricity_normed="0"
            traveltime="1.25" CO_perVeh="0.373341" CO2_perVeh="30.144463" HC_perVeh="0.002381" PMx_perVeh="0.000373" NOx_perVeh="0.011262" fuel_perVeh="0.012958" electricity_perVeh="0"/>
        <edge id=":1110673549_1" sampledSeconds="639.93" CO_abs="13178.658471" CO2_abs="1734156.565869" HC_abs="101.457868" PMx_abs="30.485646" NOx_abs="648.015475" fuel_abs="745.434555" electricity_abs="0"
            CO_normed="610.774696" CO2_normed="80370.771558" HC_normed="4.702140" PMx_normed="1.412880" NOx_normed="30.032758" fuel_normed="34.547717" electricity_normed="0"
            traveltime="0.81" CO_perVeh="16.591675" CO2_perVeh="2183.269419" HC_perVeh="0.127733" PMx_perVeh="0.038381" NOx_perVeh="0.815839" fuel_perVeh="0.938488" electricity_perVeh="0"/>
        <edge id=":1110673556_0" sampledSeconds="414.99" CO_abs="50694.870099" CO2_abs="2554975.190086" HC_abs="291.576492" PMx_abs="51.442741" NOx_abs="1099.484760" fuel_abs="1098.273198" electricity_abs="0"
            CO_normed="1801.094981" CO2_normed="90773.543413" HC_normed="10.359174" PMx_normed="1.827665" NOx_normed="39.062660" fuel_normed="39.019616" electricity_normed="0"
            traveltime="2.58" CO_perVeh="314.689034" CO2_perVeh="15860.040139" HC_perVeh="1.809965" PMx_perVeh="0.319331" NOx_perVeh="6.825065" fuel_perVeh="6.817544" electricity_perVeh="0"/>
        <edge id=":1110673556_2" sampledSeconds="244.75" CO_abs="23492.196445" CO2_abs="1024078.936349" HC_abs="130.988155" PMx_abs="19.538110" NOx_abs="435.199323" fuel_abs="440.211401" electricity_abs="0"
            CO_normed="872.701069" CO2_normed="38043.049092" HC_normed="4.866020" PMx_normed="0.725812" NOx_normed="16.167024" fuel_normed="16.353216" electricity_normed="0"
            traveltime="2.97" CO_perVeh="284.955841" CO2_perVeh="12421.881255" HC_perVeh="1.588861" PMx_perVeh="0.236994" NOx_perVeh="5.278884" fuel_perVeh="5.339680" electricity_perVeh="0"/>
        <edge id=":1110673556_3" sampledSeconds="412.00" CO_abs="35161.327075" CO2_abs="1261288.921249" HC_abs="189.467349" PMx_abs="24.060283" NOx_abs="537.835083" fuel_abs="542.183819" electricity_abs="0"
            CO_normed="2971.371383" CO2_normed="106587.495915" HC_normed="16.011280" PMx_normed="2.033258" NOx_normed="45.450724" fuel_normed="45.818222" electricity_normed="0"
            traveltime="1.72" CO_perVeh="146.926497" CO2_perVeh="5270.471239" HC_perVeh="0.791716" PMx_perVeh="0.100539" NOx_perVeh="2.247419" fuel_perVeh="2.265591" electricity_perVeh="0"/>
        <edge id=":1110673556_4" sampledSeconds="195.22" CO_abs="20483.522226" CO2_abs="825755.233659" HC_abs="112.653560" PMx_abs="16.130813" NOx_abs="353.950101" fuel_abs="354.960494" electricity_abs="0"
            CO_normed="1057.507272" CO2_normed="42631.445639" HC_normed="5.815990" PMx_normed="0.832789" NOx_normed="18.273459" fuel_normed="18.325623" electricity_normed="0"
            traveltime="2.38" CO_perVeh="250.232698" CO2_perVeh="10087.667413" HC_perVeh="1.376209" PMx_perVeh="0.197059" NOx_perVeh="4.323958" fuel_perVeh="4.336301" electricity_perVeh="0"/>
        <edge id=":1110673556_5" sampledSeconds="22.95" CO_abs="1273.839369" CO2_abs="56778.030041" HC_abs="7.124174" PMx_abs="1.040172" NOx_abs="23.874348" fuel_abs="24.406689" electricity_abs="0"
            CO_normed="91.662757" CO2_normed="4085.625621" HC_normed="0.512640" PMx_normed="0.074849" NOx_normed="1.717947" fuel_normed="1.756253" electricity_normed="0"
            traveltime="1.59" CO_perVeh="88.067907" CO2_perVeh="3925.394670" HC_perVeh="0.492535" PMx_perVeh="0.071913" NOx_perVeh="1.650572" fuel_perVeh="1.687376" electricity_perVeh="0"/>
        <edge id=":1110673556_6" sampledSeconds="310.93" CO_abs="37445.563773" CO2_abs="1901869.996480" HC_abs="215.769911" PMx_abs="38.478887" NOx_abs="819.296800" fuel_abs="817.531059" electricity_abs="0"
            CO_normed="1363.915729" CO2_normed="69273.637302" HC_normed="7.859195" PMx_normed="1.401553" NOx_normed="29.842034" fuel_normed="29.777719" electricity_normed="0"
            traveltime="2.46" CO_perVeh="296.538743" CO2_perVeh="15061.280456" HC_perVeh="1.708724" PMx_perVeh="0.304722" NOx_perVeh="6.488172" fuel_perVeh="6.474188" electricity_perVeh="0"/>
        <edge id=":1110673561_0" sampledSeconds="101.74" CO_abs="9629.127007" CO2_abs="694723.814611" HC_abs="60.526276" PMx_abs="13.956176" NOx_abs="293.111699" fuel_abs="298.628758" electricity_abs="0"
            CO_normed="440.667326" CO2_normed="31793.337583" HC_normed="2.769924" PMx_normed="0.638690" NOx_normed="13.413963" fuel_normed="13.666445" electricity_normed="0"
            traveltime="1.20" CO_perVeh="113.633045" CO2_perVeh="8198.415311" HC_perVeh="0.714269" PMx_perVeh="0.164696" NOx_perVeh="3.459003" fuel_perVeh="3.524109" electricity_perVeh="0"/>
        <edge id=":1110673561_1" sampledSeconds="1314.52" CO_abs="122527.917159" CO2_abs="8472215.819591" HC_abs="763.008432" PMx_abs="177.360334" NOx_abs="3624.356702" fuel_abs="3641.796163" electricity_abs="0"
            CO_normed="5466.856114" CO2_normed="378006.791616" HC_normed="34.043322" PMx_normed="7.913327" NOx_normed="161.708752" fuel_normed="162.486853" electricity_normed="0"
            traveltime="1.19" CO_perVeh="111.013154" CO2_perVeh="7676.025342" HC_perVeh="0.691303" PMx_perVeh="0.160693" NOx_perVeh="3.283752" fuel_perVeh="3.299552" electricity_perVeh="0"/>
        <edge id=":1110673562_0" sampledSeconds="103.79" CO_abs="2310.608114" CO2_abs="181375.635278" HC_abs="14.659187" PMx_abs="2.459482" NOx_abs="69.236137" fuel_abs="77.966367" electricity_abs="0"
            CO_normed="6552.128496" CO2_normed="514321.948897" HC_normed="41.568657" PMx_normed="6.974285" NOx_normed="196.331029" fuel_normed="221.087103" electricity_normed="0"
            traveltime="0.03" CO_perVeh="0.588985" CO2_perVeh="46.233475" HC_perVeh="0.003737" PMx_perVeh="0.000627" NOx_perVeh="0.017649" fuel_perVeh="0.019874" electricity_perVeh="0"/>
        <edge id=":1110673564_0" sampledSeconds="28.82" CO_abs="491.771068" CO2_abs="56467.736153" HC_abs="3.535416" PMx_abs="0.789062" NOx_abs="21.278964" fuel_abs="24.273107" electricity_abs="0"
            CO_normed="3765.154920" CO2_normed="432334.857829" HC_normed="27.068264" PMx_normed="6.041306" NOx_normed="162.918482" fuel_normed="185.842588" electricity_normed="0"
            traveltime="7.922773e-03" CO_perVeh="0.135195" CO2_perVeh="15.523776" HC_perVeh="0.000972" PMx_perVeh="0.000217" NOx_perVeh="0.005850" fuel_perVeh="0.006673" electricity_perVeh="0"/>
        <edge id=":1110673588_0" sampledSeconds="11.74" CO_abs="177.557606" CO2_abs="23598.593129" HC_abs="1.349612" PMx_abs="0.305475" NOx_abs="8.679647" fuel_abs="10.144063" electricity_abs="0"
            CO_normed="543.774890" CO2_normed="72271.318811" HC_normed="4.133224" PMx_normed="0.935526" NOx_normed="26.581651" fuel_normed="31.066463" electricity_normed="0"
            traveltime="0.02" CO_perVeh="0.295929" CO2_perVeh="39.330989" HC_perVeh="0.002249" PMx_perVeh="0.000509" NOx_perVeh="0.014466" fuel_perVeh="0.016907" electricity_perVeh="0"/>
        <edge id=":1110673601_0" sampledSeconds="29.74" CO_abs="463.895858" CO2_abs="55016.153060" HC_abs="3.375493" PMx_abs="0.737733" NOx_abs="20.530494" fuel_abs="23.649168" electricity_abs="0"
            CO_normed="1268.476248" CO2_normed="150436.099393" HC_normed="9.229945" PMx_normed="2.017255" NOx_normed="56.138556" fuel_normed="64.666255" electricity_normed="0"
            traveltime="0.02" CO_perVeh="0.344310" CO2_perVeh="40.833725" HC_perVeh="0.002505" PMx_perVeh="0.000548" NOx_perVeh="0.015238" fuel_perVeh="0.017553" electricity_perVeh="0"/>
        <edge id=":1110673617_0" sampledSeconds="238.67" CO_abs="5443.498833" CO2_abs="706892.992707" HC_abs="41.697385" PMx_abs="12.478914" NOx_abs="264.785283" fuel_abs="303.860904" electricity_abs="0"
            CO_normed="13892.383239" CO2_normed="1804065.485429" HC_normed="106.416126" PMx_normed="31.847506" NOx_normed="675.759973" fuel_normed="775.485080" electricity_normed="0"
            traveltime="0.01" CO_perVeh="0.333731" CO2_perVeh="43.338378" HC_perVeh="0.002556" PMx_perVeh="0.000765" NOx_perVeh="0.016234" fuel_perVeh="0.018629" electricity_perVeh="0"/>
        <edge id=":1110673621_0" sampledSeconds="26.01" CO_abs="498.143685" CO2_abs="54504.625613" HC_abs="3.503087" PMx_abs="0.776998" NOx_abs="20.666565" fuel_abs="23.429238" electricity_abs="0"
            CO_normed="1525.578278" CO2_normed="166921.864914" HC_normed="10.728297" PMx_normed="2.379578" NOx_normed="63.291905" fuel_normed="71.752665" electricity_normed="0"
            traveltime="0.02" CO_perVeh="0.377382" CO2_perVeh="41.291383" HC_perVeh="0.002654" PMx_perVeh="0.000589" NOx_perVeh="0.015656" fuel_perVeh="0.017749" electricity_perVeh="0"/>
        <edge id=":1110673630_0" sampledSeconds="54.87" CO_abs="232.404746" CO2_abs="20469.919299" HC_abs="1.524623" PMx_abs="0.266901" NOx_abs="7.707484" fuel_abs="8.799222" electricity_abs="0"
            CO_normed="12.691614" CO2_normed="1117.861484" HC_normed="0.083260" PMx_normed="0.014575" NOx_normed="0.420905" fuel_normed="0.480525" electricity_normed="0"
            traveltime="1.28" CO_perVeh="5.424738" CO2_perVeh="477.804123" HC_perVeh="0.035587" PMx_perVeh="0.006230" NOx_perVeh="0.179906" fuel_perVeh="0.205389" electricity_perVeh="0"/>
        <edge id=":1110673630_1" sampledSeconds="7.24" CO_abs="9.787169" CO2_abs="716.804364" HC_abs="0.060413" PMx_abs="0.007294" NOx_abs="0.259085" fuel_abs="0.308131" electricity_abs="0"
            CO_normed="0.651597" CO2_normed="47.722444" HC_normed="0.004022" PMx_normed="0.000486" NOx_normed="0.017249" fuel_normed="0.020514" electricity_normed="0"
            traveltime="1.02" CO_perVeh="1.385261" CO2_perVeh="101.455387" HC_perVeh="0.008551" PMx_perVeh="0.001032" NOx_perVeh="0.036670" fuel_perVeh="0.043612" electricity_perVeh="0"/>
        <edge id=":1110673650_0" sampledSeconds="143.11" CO_abs="2242.573518" CO2_abs="281091.046494" HC_abs="16.632234" PMx_abs="3.839434" NOx_abs="104.886984" fuel_abs="120.829231" electricity_abs="0"
            CO_normed="5723.284180" CO2_normed="717374.002112" HC_normed="42.447215" PMx_normed="9.798641" NOx_normed="267.682648" fuel_normed="308.368945" electricity_normed="0"
            traveltime="0.02" CO_perVeh="0.360385" CO2_perVeh="45.171769" HC_perVeh="0.002673" PMx_perVeh="0.000617" NOx_perVeh="0.016856" fuel_perVeh="0.019417" electricity_perVeh="0"/>
        <edge id=":1110673655_0" sampledSeconds="45.14" CO_abs="795.461164" CO2_abs="88067.483344" HC_abs="5.645998" PMx_abs="1.226920" NOx_abs="33.238217" fuel_abs="37.856533" electricity_abs="0"
            CO_normed="2030.100802" CO2_normed="224757.507471" HC_normed="14.409181" PMx_normed="3.131231" NOx_normed="84.827435" fuel_normed="96.613867" electricity_normed="0"
            traveltime="0.02" CO_perVeh="0.425722" CO2_perVeh="47.132718" HC_perVeh="0.003022" PMx_perVeh="0.000657" NOx_perVeh="0.017789" fuel_perVeh="0.020260" electricity_perVeh="0"/>
        <edge id=":1110673663_0" sampledSeconds="107.38" CO_abs="1707.002788" CO2_abs="215976.598628" HC_abs="12.654738" PMx_abs="2.937524" NOx_abs="80.437521" fuel_abs="92.839269" electricity_abs="0"
            CO_normed="79.788483" CO2_normed="10095.147664" HC_normed="0.591506" PMx_normed="0.137305" NOx_normed="3.759799" fuel_normed="4.339480" electricity_normed="0"
            traveltime="1.26" CO_perVeh="20.049553" CO2_perVeh="2536.747039" HC_perVeh="0.148636" PMx_perVeh="0.034503" NOx_perVeh="0.944777" fuel_perVeh="1.090441" electricity_perVeh="0"/>
        <edge id=":1110673663_1" sampledSeconds="154.58" CO_abs="2474.501623" CO2_abs="300773.060073" HC_abs="18.202905" PMx_abs="4.251317" NOx_abs="113.145173" fuel_abs="129.289556" electricity_abs="0"
            CO_normed="115.804202" CO2_normed="14075.878551" HC_normed="0.851878" PMx_normed="0.198957" NOx_normed="5.295081" fuel_normed="6.050622" electricity_normed="0"
            traveltime="1.25" CO_perVeh="20.055044" CO2_perVeh="2437.669423" HC_perVeh="0.147529" PMx_perVeh="0.034456" NOx_perVeh="0.917005" fuel_perVeh="1.047850" electricity_perVeh="0"/>
        <edge id=":1110673666_0" sampledSeconds="191.73" CO_abs="4244.711930" CO2_abs="338133.253357" HC_abs="27.033986" PMx_abs="4.527721" NOx_abs="128.650648" fuel_abs="145.350440" electricity_abs="0"