<?xml version="1.0" encoding="UTF-8"?>

<!-- generated on Tue Nov 10 00:33:22 2020 by Eclipse SUMO sumo Version 1.7.0
<configuration xmlns:xsi="http://www.w3.org/2001/XMLSchema-instance" xsi:noNamespaceSchemaLocation="http://sumo.dlr.de/xsd/sumoConfiguration.xsd">

    <input>
        <net-file value="../dataSets/Porto/6AM7AM_Routing_SaoBento/Porto.net.xml"/>
        <route-files value="../results/Porto/6AM7AM_Routing_SaoBento/cost_nox-length/solution12/Porto.rou.xml"/>
        <additional-files value="moreOutputInfo.xml"/>
    </input>

    <output>
        <emission-output.precision value="6"/>
        <tripinfo-output value="../results/Porto/6AM7AM_Routing_SaoBento/cost_nox-length/solution12/Porto-tripinfo"/>
    </output>

    <processing>
        <collision.action value="warn"/>
        <time-to-teleport value="-1"/>
    </processing>

    <emissions>
        <device.emissions.probability value="1"/>
    </emissions>

    <gui_only>
        <quit-on-end value="true"/>
        <start value="true"/>
    </gui_only>

</configuration>
-->

<meandata xmlns:xsi="http://www.w3.org/2001/XMLSchema-instance" xsi:noNamespaceSchemaLocation="http://sumo.dlr.de/xsd/meandata_file.xsd">
    <interval begin="0.00" end="4700.00" id="emissions-detector">
        <edge id=":1092997347_0" sampledSeconds="275.69" CO_abs="34905.758320" CO2_abs="1356291.355663" HC_abs="190.961009" PMx_abs="27.636075" NOx_abs="588.626585" fuel_abs="583.016966" electricity_abs="0"
            CO_normed="60764.376186" CO2_normed="2361048.781618" HC_normed="332.427288" PMx_normed="48.109222" NOx_normed="1024.688445" fuel_normed="1014.923151" electricity_normed="0"
            traveltime="0.08" CO_perVeh="9.798905" CO2_perVeh="380.744353" HC_perVeh="0.053607" PMx_perVeh="0.007758" NOx_perVeh="0.165242" fuel_perVeh="0.163667" electricity_perVeh="0"/>
        <edge id=":1103427051_0" sampledSeconds="10.70" CO_abs="909.034926" CO2_abs="51963.240920" HC_abs="5.376678" PMx_abs="1.035814" NOx_abs="22.268366" fuel_abs="22.336661" electricity_abs="0"
            CO_normed="2400.972658" CO2_normed="137247.004631" HC_normed="14.201058" PMx_normed="2.735827" NOx_normed="58.815933" fuel_normed="58.996318" electricity_normed="0"
            traveltime="0.03" CO_perVeh="2.490742" CO2_perVeh="142.378495" HC_perVeh="0.014732" PMx_perVeh="0.002838" NOx_perVeh="0.061015" fuel_perVeh="0.061202" electricity_perVeh="0"/>
        <edge id=":1105984386_0" sampledSeconds="23.10" CO_abs="402.256934" CO2_abs="34075.991757" HC_abs="2.595078" PMx_abs="0.383059" NOx_abs="12.478975" fuel_abs="14.648046" electricity_abs="0"
            CO_normed="31.731379" CO2_normed="2688.028800" HC_normed="0.204708" PMx_normed="0.030217" NOx_normed="0.984383" fuel_normed="1.155487" electricity_normed="0"
            traveltime="0.97" CO_perVeh="16.882412" CO2_perVeh="1430.142980" HC_perVeh="0.108913" PMx_perVeh="0.016077" NOx_perVeh="0.523733" fuel_perVeh="0.614767" electricity_perVeh="0"/>
        <edge id=":1105984390_0" sampledSeconds="22.87" CO_abs="29.380379" CO2_abs="2729.101679" HC_abs="0.194927" PMx_abs="0.029978" NOx_abs="0.991436" fuel_abs="1.173142" electricity_abs="0"
            CO_normed="1.791729" CO2_normed="166.431191" HC_normed="0.011887" PMx_normed="0.001828" NOx_normed="0.060462" fuel_normed="0.071543" electricity_normed="0"
            traveltime="1.04" CO_perVeh="1.332386" CO2_perVeh="123.763421" HC_perVeh="0.008840" PMx_perVeh="0.001359" NOx_perVeh="0.044961" fuel_perVeh="0.053201" electricity_perVeh="0"/>
        <edge id=":1105984390_1" sampledSeconds="646.31" CO_abs="13588.892456" CO2_abs="1844205.489003" HC_abs="105.887080" PMx_abs="32.177026" NOx_abs="685.743085" fuel_abs="792.739737" electricity_abs="0"
            CO_normed="792.727599" CO2_normed="107584.381397" HC_normed="6.177075" PMx_normed="1.877093" NOx_normed="40.003810" fuel_normed="46.245613" electricity_normed="0"
            traveltime="0.64" CO_perVeh="13.379258" CO2_perVeh="1815.755161" HC_perVeh="0.104254" PMx_perVeh="0.031681" NOx_perVeh="0.675164" fuel_perVeh="0.780510" electricity_perVeh="0"/>
        <edge id=":1105984395_0" sampledSeconds="9.00" CO_abs="164.600974" CO2_abs="12720.308946" HC_abs="1.042587" PMx_abs="0.188065" NOx_abs="4.959445" fuel_abs="5.467947" electricity_abs="0"
            CO_normed="137.040589" CO2_normed="10590.451481" HC_normed="0.868019" PMx_normed="0.156576" NOx_normed="4.129047" fuel_normed="4.552407" electricity_normed="0"
            traveltime="0.09" CO_perVeh="1.669234" CO2_perVeh="128.997842" HC_perVeh="0.010573" PMx_perVeh="0.001907" NOx_perVeh="0.050294" fuel_perVeh="0.055451" electricity_perVeh="0"/>
        <edge id=":1105984398_0" sampledSeconds="22.86" CO_abs="1393.301257" CO2_abs="98911.980030" HC_abs="8.668390" PMx_abs="1.722823" NOx_abs="40.361135" fuel_abs="42.517949" electricity_abs="0"
            CO_normed="88.272082" CO2_normed="6266.531653" HC_normed="0.549183" PMx_normed="0.109149" NOx_normed="2.557065" fuel_normed="2.693709" electricity_normed="0"
            traveltime="1.11" CO_perVeh="67.347521" CO2_perVeh="4781.074158" HC_perVeh="0.419001" PMx_perVeh="0.083276" NOx_perVeh="1.950922" fuel_perVeh="2.055175" electricity_perVeh="0"/>
        <edge id=":1105984398_1" sampledSeconds="453.96" CO_abs="8050.875589" CO2_abs="962516.968121" HC_abs="58.593084" PMx_abs="13.544075" NOx_abs="362.232169" fuel_abs="413.745244" electricity_abs="0"
            CO_normed="493.725229" CO2_normed="59026.984741" HC_normed="3.593259" PMx_normed="0.830599" NOx_normed="22.214125" fuel_normed="25.373199" electricity_normed="0"
            traveltime="0.96" CO_perVeh="16.941146" CO2_perVeh="2025.387164" HC_perVeh="0.123295" PMx_perVeh="0.028500" NOx_perVeh="0.762231" fuel_perVeh="0.870628" electricity_perVeh="0"/>
        <edge id=":1106006327_0" sampledSeconds="38.03" CO_abs="5185.085220" CO2_abs="170648.558553" HC_abs="27.631211" PMx_abs="3.572039" NOx_abs="74.777783" fuel_abs="73.355709" electricity_abs="0"
            CO_normed="448.256731" CO2_normed="14752.769098" HC_normed="2.388751" PMx_normed="0.308807" NOx_normed="6.464628" fuel_normed="6.341688" electricity_normed="0"
            traveltime="2.06" CO_perVeh="281.287381" CO2_perVeh="9257.569366" HC_perVeh="1.498975" PMx_perVeh="0.193781" NOx_perVeh="4.056644" fuel_perVeh="3.979498" electricity_perVeh="0"/>
        <edge id=":1106006327_1" sampledSeconds="162.05" CO_abs="21860.921296" CO2_abs="727957.564466" HC_abs="116.691794" PMx_abs="15.169280" NOx_abs="318.492550" fuel_abs="312.922799" electricity_abs="0"
            CO_normed="1648.084199" CO2_normed="54880.365892" HC_normed="8.797337" PMx_normed="1.143605" NOx_normed="24.010998" fuel_normed="23.591097" electricity_normed="0"
            traveltime="2.30" CO_perVeh="310.343953" CO2_perVeh="10334.295851" HC_perVeh="1.656590" PMx_perVeh="0.215347" NOx_perVeh="4.521412" fuel_perVeh="4.442342" electricity_perVeh="0"/>
        <edge id=":1106006327_2" sampledSeconds="0.00" CO_abs="0" CO2_abs="0" HC_abs="0" PMx_abs="0" NOx_abs="0" fuel_abs="0" electricity_abs="0"
            CO_normed="0" CO2_normed="0" HC_normed="0" PMx_normed="0" NOx_normed="0" fuel_normed="0" electricity_normed="0"/>
        <edge id=":1106006327_3" sampledSeconds="0.00" CO_abs="0" CO2_abs="0" HC_abs="0" PMx_abs="0" NOx_abs="0" fuel_abs="0" electricity_abs="0"
            CO_normed="0" CO2_normed="0" HC_normed="0" PMx_normed="0" NOx_normed="0" fuel_normed="0" electricity_normed="0"/>
        <edge id=":1107381198_0" sampledSeconds="0.00" CO_abs="0" CO2_abs="0" HC_abs="0" PMx_abs="0" NOx_abs="0" fuel_abs="0" electricity_abs="0"
            CO_normed="0" CO2_normed="0" HC_normed="0" PMx_normed="0" NOx_normed="0" fuel_normed="0" electricity_normed="0"/>
        <edge id=":1107381198_1" sampledSeconds="35.76" CO_abs="1371.476675" CO2_abs="56736.649776" HC_abs="7.549729" PMx_abs="0.963241" NOx_abs="23.388543" fuel_abs="24.389099" electricity_abs="0"
            CO_normed="114.557554" CO2_normed="4739.134068" HC_normed="0.630618" PMx_normed="0.080458" NOx_normed="1.953613" fuel_normed="2.037188" electricity_normed="0"
            traveltime="1.47" CO_perVeh="56.467498" CO2_perVeh="2336.005201" HC_perVeh="0.310843" PMx_perVeh="0.039659" NOx_perVeh="0.962971" fuel_perVeh="1.004167" electricity_perVeh="0"/>
        <edge id=":1110338277_0" sampledSeconds="96.92" CO_abs="1560.739967" CO2_abs="183519.069784" HC_abs="11.308934" PMx_abs="2.557502" NOx_abs="69.024094" fuel_abs="78.887122" electricity_abs="0"
            CO_normed="4269.501429" CO2_normed="502027.850473" HC_normed="30.936293" PMx_normed="6.996206" NOx_normed="188.819711" fuel_normed="215.800637" electricity_normed="0"
            traveltime="0.02" CO_perVeh="0.351742" CO2_perVeh="41.359406" HC_perVeh="0.002549" PMx_perVeh="0.000576" NOx_perVeh="0.015556" fuel_perVeh="0.017779" electricity_perVeh="0"/>
        <edge id=":1110338293_0" sampledSeconds="124.39" CO_abs="5756.240063" CO2_abs="400847.086648" HC_abs="35.611975" PMx_abs="6.921248" NOx_abs="163.316128" fuel_abs="172.306864" electricity_abs="0"
            CO_normed="14696.783139" CO2_normed="1023439.370165" HC_normed="90.924193" PMx_normed="17.671273" NOx_normed="416.977347" fuel_normed="439.932419" electricity_normed="0"
            traveltime="0.03" CO_perVeh="1.320296" CO2_perVeh="91.941402" HC_perVeh="0.008168" PMx_perVeh="0.001588" NOx_perVeh="0.037459" fuel_perVeh="0.039522" electricity_perVeh="0"/>
        <edge id=":1110338295_0" sampledSeconds="0.00" CO_abs="0" CO2_abs="0" HC_abs="0" PMx_abs="0" NOx_abs="0" fuel_abs="0" electricity_abs="0"
            CO_normed="0" CO2_normed="0" HC_normed="0" PMx_normed="0" NOx_normed="0" fuel_normed="0" electricity_normed="0"/>
        <edge id=":1110673403_0" sampledSeconds="143.63" CO_abs="2197.098324" CO2_abs="275701.413625" HC_abs="16.296235" PMx_abs="3.733333" NOx_abs="102.722734" fuel_abs="118.512497" electricity_abs="0"
            CO_normed="5609.612742" CO2_normed="703918.502874" HC_normed="41.607409" PMx_normed="9.531914" NOx_normed="262.270809" fuel_normed="302.585098" electricity_normed="0"
            traveltime="0.02" CO_perVeh="0.352759" CO2_perVeh="44.265681" HC_perVeh="0.002616" PMx_perVeh="0.000599" NOx_perVeh="0.016493" fuel_perVeh="0.019028" electricity_perVeh="0"/>
        <edge id=":1110673412_0" sampledSeconds="252.56" CO_abs="44589.942033" CO2_abs="3050627.119887" HC_abs="277.694840" PMx_abs="66.964776" NOx_abs="1310.302747" fuel_abs="1311.314382" electricity_abs="0"
            CO_normed="117772.407423" CO2_normed="8057415.723841" HC_normed="733.456658" PMx_normed="176.869547" NOx_normed="3460.814298" fuel_normed="3463.486263" electricity_normed="0"
            traveltime="0.02" CO_perVeh="2.743456" CO2_perVeh="187.693916" HC_perVeh="0.017086" PMx_perVeh="0.004120" NOx_perVeh="0.080618" fuel_perVeh="0.080680" electricity_perVeh="0"/>
        <edge id=":1110673414_0" sampledSeconds="0.00" CO_abs="0" CO2_abs="0" HC_abs="0" PMx_abs="0" NOx_abs="0" fuel_abs="0" electricity_abs="0"
            CO_normed="0" CO2_normed="0" HC_normed="0" PMx_normed="0" NOx_normed="0" fuel_normed="0" electricity_normed="0"/>
        <edge id=":1110673414_1" sampledSeconds="14.68" CO_abs="982.684063" CO2_abs="38426.937248" HC_abs="5.378041" PMx_abs="0.764141" NOx_abs="16.575228" fuel_abs="16.518269" electricity_abs="0"
            CO_normed="83.354837" CO2_normed="3259.512596" HC_normed="0.456185" PMx_normed="0.064817" NOx_normed="1.405971" fuel_normed="1.401140" electricity_normed="0"
            traveltime="1.60" CO_perVeh="107.325074" CO2_perVeh="4196.846194" HC_perVeh="0.587370" PMx_perVeh="0.083457" NOx_perVeh="1.810284" fuel_perVeh="1.804063" electricity_perVeh="0"/>
        <edge id=":1110673417_0" sampledSeconds="30.02" CO_abs="437.755248" CO2_abs="54931.065083" HC_abs="3.239625" PMx_abs="0.725756" NOx_abs="20.353909" fuel_abs="23.612592" electricity_abs="0"
            CO_normed="1197.506758" CO2_normed="150267.351290" HC_normed="8.862195" PMx_normed="1.985352" NOx_normed="55.679387" fuel_normed="64.593716" electricity_normed="0"
            traveltime="0.02" CO_perVeh="0.324908" CO2_perVeh="40.770572" HC_perVeh="0.002404" PMx_perVeh="0.000539" NOx_perVeh="0.015107" fuel_perVeh="0.017526" electricity_perVeh="0"/>
        <edge id=":1110673446_0" sampledSeconds="334.39" CO_abs="2616.555048" CO2_abs="211718.187579" HC_abs="16.911167" PMx_abs="3.861385" NOx_abs="86.450728" fuel_abs="91.007946" electricity_abs="0"
            CO_normed="6680.566079" CO2_normed="540557.074670" HC_normed="43.177448" PMx_normed="9.858855" NOx_normed="220.725262" fuel_normed="232.360714" electricity_normed="0"
            traveltime="0.02" CO_perVeh="0.178462" CO2_perVeh="14.440225" HC_perVeh="0.001153" PMx_perVeh="0.000263" NOx_perVeh="0.005896" fuel_perVeh="0.006207" electricity_perVeh="0"/>
        <edge id=":1110673451_0" sampledSeconds="37.32" CO_abs="342.601546" CO2_abs="25695.157973" HC_abs="2.142600" PMx_abs="0.333822" NOx_abs="9.737349" fuel_abs="11.045387" electricity_abs="0"
            CO_normed="971.919280" CO2_normed="72894.065172" HC_normed="6.078297" PMx_normed="0.947013" NOx_normed="27.623686" fuel_normed="31.334431" electricity_normed="0"
            traveltime="0.03" CO_perVeh="0.245690" CO2_perVeh="18.426807" HC_perVeh="0.001537" PMx_perVeh="0.000239" NOx_perVeh="0.006983" fuel_perVeh="0.007921" electricity_perVeh="0"/>
        <edge id=":1110673464_0" sampledSeconds="322.39" CO_abs="594.737881" CO2_abs="50218.445495" HC_abs="3.852562" PMx_abs="0.661707" NOx_abs="18.972595" fuel_abs="21.586965" electricity_abs="0"
            CO_normed="32.262316" CO2_normed="2724.163760" HC_normed="0.208987" PMx_normed="0.035895" NOx_normed="1.029193" fuel_normed="1.171013" electricity_normed="0"
            traveltime="1.17" CO_perVeh="2.149899" CO2_perVeh="181.533055" HC_perVeh="0.013927" PMx_perVeh="0.002392" NOx_perVeh="0.068583" fuel_perVeh="0.078034" electricity_perVeh="0"/>
        <edge id=":1110673464_1" sampledSeconds="708.57" CO_abs="16681.638646" CO2_abs="2167919.817211" HC_abs="127.499794" PMx_abs="38.213666" NOx_abs="811.260618" fuel_abs="931.889444" electricity_abs="0"
            CO_normed="886.705437" CO2_normed="115234.859686" HC_normed="6.777198" PMx_normed="2.031231" NOx_normed="43.122215" fuel_normed="49.534189" electricity_normed="0"
            traveltime="0.70" CO_perVeh="16.471618" CO2_perVeh="2140.625921" HC_perVeh="0.125895" PMx_perVeh="0.037733" NOx_perVeh="0.801047" fuel_perVeh="0.920157" electricity_perVeh="0"/>
        <edge id=":1110673479_0" sampledSeconds="133.43" CO_abs="6593.563246" CO2_abs="455970.380715" HC_abs="40.746874" PMx_abs="8.035606" NOx_abs="186.865510" fuel_abs="196.001776" electricity_abs="0"
            CO_normed="16834.629563" CO2_normed="1164179.695442" HC_normed="104.034571" PMx_normed="20.516441" NOx_normed="477.103429" fuel_normed="500.430066" electricity_normed="0"
            traveltime="0.03" CO_perVeh="1.389008" CO2_perVeh="96.055245" HC_perVeh="0.008584" PMx_perVeh="0.001693" NOx_perVeh="0.039365" fuel_perVeh="0.041290" electricity_perVeh="0"/>
        <edge id=":1110673511_0" sampledSeconds="11.81" CO_abs="198.881331" CO2_abs="23806.089514" HC_abs="1.451849" PMx_abs="0.323098" NOx_abs="8.907875" fuel_abs="10.233245" electricity_abs="0"
            CO_normed="507.782121" CO2_normed="60781.505142" HC_normed="3.706849" PMx_normed="0.824930" NOx_normed="22.743509" fuel_normed="26.127435" electricity_normed="0"
            traveltime="0.02" CO_perVeh="0.393824" CO2_perVeh="47.140771" HC_perVeh="0.002875" PMx_perVeh="0.000640" NOx_perVeh="0.017639" fuel_perVeh="0.020264" electricity_perVeh="0"/>
        <edge id=":1110673517_0" sampledSeconds="16.98" CO_abs="906.668125" CO2_abs="64628.517938" HC_abs="5.649898" PMx_abs="1.137682" NOx_abs="26.417954" fuel_abs="27.780965" electricity_abs="0"
            CO_normed="2314.897341" CO2_normed="165008.981970" HC_normed="14.425272" PMx_normed="2.904719" NOx_normed="67.450095" fuel_normed="70.930123" electricity_normed="0"
            traveltime="0.03" CO_perVeh="1.455715" CO2_perVeh="103.765349" HC_perVeh="0.009071" PMx_perVeh="0.001827" NOx_perVeh="0.042416" fuel_perVeh="0.044604" electricity_perVeh="0"/>
        <edge id=":1110673534_0" sampledSeconds="474.76" CO_abs="2472.908435" CO2_abs="236867.176508" HC_abs="16.647673" PMx_abs="3.002976" NOx_abs="88.336886" fuel_abs="101.819962" electricity_abs="0"
            CO_normed="122.360635" CO2_normed="11720.295720" HC_normed="0.823734" PMx_normed="0.148589" NOx_normed="4.370949" fuel_normed="5.038098" electricity_normed="0"
            traveltime="1.43" CO_perVeh="7.449882" CO2_perVeh="713.585867" HC_perVeh="0.050153" PMx_perVeh="0.009047" NOx_perVeh="0.266124" fuel_perVeh="0.306743" electricity_perVeh="0"/>
        <edge id=":1110673534_1" sampledSeconds="184.86" CO_abs="3014.123674" CO2_abs="361585.614053" HC_abs="22.035973" PMx_abs="5.059965" NOx_abs="135.877332" fuel_abs="155.430379" electricity_abs="0"
            CO_normed="145.018246" CO2_normed="17396.934280" HC_normed="1.060215" PMx_normed="0.243450" NOx_normed="6.537453" fuel_normed="7.478207" electricity_normed="0"
            traveltime="1.23" CO_perVeh="20.012699" CO2_perVeh="2400.798665" HC_perVeh="0.146311" PMx_perVeh="0.033596" NOx_perVeh="0.902177" fuel_perVeh="1.032002" electricity_perVeh="0"/>
        <edge id=":1110673549_0" sampledSeconds="60.42" CO_abs="14.052204" CO2_abs="4035.791957" HC_abs="0.156060" PMx_abs="0.042818" NOx_abs="1.387057" fuel_abs="1.734825" electricity_abs="0"
            CO_normed="0.673554" CO2_normed="193.444612" HC_normed="0.007480" PMx_normed="0.002052" NOx_normed="0.066485" fuel_normed="0.083154" electricity_normed="0"
            traveltime="1.26" CO_perVeh="0.292766" CO2_perVeh="84.082288" HC_perVeh="0.003251" PMx_perVeh="0.000892" NOx_perVeh="0.028898" fuel_perVeh="0.036144" electricity_perVeh="0"/>
        <edge id=":1110673549_1" sampledSeconds="639.59" CO_abs="12786.519654" CO2_abs="1727091.939411" HC_abs="99.369265" PMx_abs="30.149292" NOx_abs="642.658547" fuel_abs="742.397947" electricity_abs="0"
            CO_normed="592.852902" CO2_normed="80077.417210" HC_normed="4.607302" PMx_normed="1.397886" NOx_normed="29.797161" fuel_normed="34.421624" electricity_normed="0"
            traveltime="0.81" CO_perVeh="16.095711" CO2_perVeh="2174.068767" HC_perVeh="0.125086" PMx_perVeh="0.037952" NOx_perVeh="0.808981" fuel_perVeh="0.934533" electricity_perVeh="0"/>
        <edge id=":1110673556_0" sampledSeconds="416.40" CO_abs="50792.946740" CO2_abs="2554573.898040" HC_abs="292.014843" PMx_abs="51.468110" NOx_abs="1099.654668" fuel_abs="1098.100726" electricity_abs="0"
            CO_normed="1805.347369" CO2_normed="90797.907222" HC_normed="10.379162" PMx_normed="1.829345" NOx_normed="39.085322" fuel_normed="39.030090" electricity_normed="0"
            traveltime="2.58" CO_perVeh="315.297846" CO2_perVeh="15857.549114" HC_perVeh="1.812686" PMx_perVeh="0.319489" NOx_perVeh="6.826120" fuel_perVeh="6.816474" electricity_perVeh="0"/>
        <edge id=":1110673556_2" sampledSeconds="251.20" CO_abs="24557.116582" CO2_abs="1051299.763921" HC_abs="136.515668" PMx_abs="20.345320" NOx_abs="448.762466" fuel_abs="451.912491" electricity_abs="0"
            CO_normed="912.649506" CO2_normed="39070.882242" HC_normed="5.073517" PMx_normed="0.756121" NOx_normed="16.677970" fuel_normed="16.795038" electricity_normed="0"
            traveltime="3.05" CO_perVeh="297.873118" CO2_perVeh="12752.064677" HC_perVeh="1.655909" PMx_perVeh="0.246785" NOx_perVeh="5.443403" fuel_perVeh="5.481612" electricity_perVeh="0"/>
        <edge id=":1110673556_3" sampledSeconds="417.92" CO_abs="35092.206347" CO2_abs="1253042.373296" HC_abs="188.966546" PMx_abs="23.961612" NOx_abs="534.730220" fuel_abs="538.638962" electricity_abs="0"
            CO_normed="2966.792139" CO2_normed="105935.666335" HC_normed="15.975754" PMx_normed="2.025781" NOx_normed="45.207571" fuel_normed="45.538027" electricity_normed="0"
            traveltime="1.74" CO_perVeh="145.709580" CO2_perVeh="5202.872575" HC_perVeh="0.784625" PMx_perVeh="0.099493" NOx_perVeh="2.220303" fuel_perVeh="2.236532" electricity_perVeh="0"/>
        <edge id=":1110673556_4" sampledSeconds="194.21" CO_abs="20121.056184" CO2_abs="804275.541917" HC_abs="110.494537" PMx_abs="15.720225" NOx_abs="344.860629" fuel_abs="345.727325" electricity_abs="0"
            CO_normed="1039.236198" CO2_normed="41540.178059" HC_normed="5.706953" PMx_normed="0.811937" NOx_normed="17.811771" fuel_normed="17.856535" electricity_normed="0"
            traveltime="2.41" CO_perVeh="249.832769" CO2_perVeh="9986.274290" HC_perVeh="1.371954" PMx_perVeh="0.195190" NOx_perVeh="4.281956" fuel_perVeh="4.292718" electricity_perVeh="0"/>
        <edge id=":1110673556_5" sampledSeconds="24.17" CO_abs="1875.607002" CO2_abs="76949.718099" HC_abs="10.341314" PMx_abs="1.470245" NOx_abs="32.774728" fuel_abs="33.077753" electricity_abs="0"
            CO_normed="135.022101" CO2_normed="5539.493384" HC_normed="0.744455" PMx_normed="0.105841" NOx_normed="2.359403" fuel_normed="2.381217" electricity_normed="0"
            traveltime="1.67" CO_perVeh="129.671595" CO2_perVeh="5319.980511" HC_perVeh="0.714955" PMx_perVeh="0.101647" NOx_perVeh="2.265907" fuel_perVeh="2.286857" electricity_perVeh="0"/>
        <edge id=":1110673556_6" sampledSeconds="486.88" CO_abs="57962.601043" CO2_abs="2836925.411801" HC_abs="331.346734" PMx_abs="57.294311" NOx_abs="1222.505221" fuel_abs="1219.472496" electricity_abs="0"
            CO_normed="2112.125876" CO2_normed="103376.029744" HC_normed="12.074096" PMx_normed="2.087774" NOx_normed="44.547430" fuel_normed="44.436919" electricity_normed="0"
            traveltime="2.61" CO_perVeh="311.044532" CO2_perVeh="15223.784326" HC_perVeh="1.778105" PMx_perVeh="0.307458" NOx_perVeh="6.560326" fuel_perVeh="6.544052" electricity_perVeh="0"/>
        <edge id=":1110673561_0" sampledSeconds="100.25" CO_abs="10234.482338" CO2_abs="724393.222022" HC_abs="64.022034" PMx_abs="14.769520" NOx_abs="307.279164" fuel_abs="311.382034" electricity_abs="0"
            CO_normed="468.570111" CO2_normed="33165.235076" HC_normed="2.931151" PMx_normed="0.676200" NOx_normed="14.068306" fuel_normed="14.256150" electricity_normed="0"
            traveltime="1.18" CO_perVeh="120.776825" CO2_perVeh="8548.543116" HC_perVeh="0.755522" PMx_perVeh="0.174295" NOx_perVeh="3.626192" fuel_perVeh="3.674610" electricity_perVeh="0"/>
        <edge id=":1110673561_1" sampledSeconds="1320.43" CO_abs="120149.573070" CO2_abs="8294420.135381" HC_abs="747.809117" PMx_abs="173.790110" NOx_abs="3549.589202" fuel_abs="3565.370275" electricity_abs="0"
            CO_normed="5363.022158" CO2_normed="370231.519211" HC_normed="33.379368" PMx_normed="7.757333" NOx_normed="158.440226" fuel_normed="159.144634" electricity_normed="0"
            traveltime="1.19" CO_perVeh="108.699906" CO2_perVeh="7504.002426" HC_perVeh="0.676547" PMx_perVeh="0.157229" NOx_perVeh="3.211331" fuel_perVeh="3.225608" electricity_perVeh="0"/>
        <edge id=":1110673562_0" sampledSeconds="104.65" CO_abs="2070.641520" CO2_abs="166722.264551" HC_abs="13.223938" PMx_abs="2.226914" NOx_abs="63.362607" fuel_abs="71.667462" electricity_abs="0"
            CO_normed="5874.160340" CO2_normed="472970.963265" HC_normed="37.514718" PMx_normed="6.317486" NOx_normed="179.752077" fuel_normed="203.311948" electricity_normed="0"
            traveltime="0.03" CO_perVeh="0.527818" CO2_perVeh="42.498404" HC_perVeh="0.003371" PMx_perVeh="0.000568" NOx_perVeh="0.016151" fuel_perVeh="0.018268" electricity_perVeh="0"/>
        <edge id=":1110673564_0" sampledSeconds="28.45" CO_abs="451.109155" CO2_abs="48149.496689" HC_abs="3.171678" PMx_abs="0.724949" NOx_abs="18.499770" fuel_abs="20.697392" electricity_abs="0"
            CO_normed="3455.304165" CO2_normed="368804.655488" HC_normed="24.293706" PMx_normed="5.552803" NOx_normed="141.700362" fuel_normed="158.533212" electricity_normed="0"
            traveltime="7.822317e-03" CO_perVeh="0.124016" CO2_perVeh="13.236975" HC_perVeh="0.000872" PMx_perVeh="0.000199" NOx_perVeh="0.005086" fuel_perVeh="0.005690" electricity_perVeh="0"/>
        <edge id=":1110673588_0" sampledSeconds="11.75" CO_abs="168.363750" CO2_abs="21851.426880" HC_abs="1.251003" PMx_abs="0.268236" NOx_abs="7.966194" fuel_abs="9.393049" electricity_abs="0"
            CO_normed="515.837872" CO2_normed="66949.052567" HC_normed="3.832860" PMx_normed="0.821828" NOx_normed="24.407061" fuel_normed="28.778703" electricity_normed="0"
            traveltime="0.02" CO_perVeh="0.280606" CO2_perVeh="36.419045" HC_perVeh="0.002085" PMx_perVeh="0.000447" NOx_perVeh="0.013277" fuel_perVeh="0.015655" electricity_perVeh="0"/>
        <edge id=":1110673601_0" sampledSeconds="29.79" CO_abs="618.357143" CO2_abs="68616.212026" HC_abs="4.401428" PMx_abs="0.981831" NOx_abs="26.033558" fuel_abs="29.495207" electricity_abs="0"
            CO_normed="1691.554494" CO2_normed="187703.923476" HC_normed="12.040381" PMx_normed="2.685861" NOx_normed="71.216421" fuel_normed="80.685977" electricity_normed="0"
            traveltime="0.02" CO_perVeh="0.458953" CO2_perVeh="50.927871" HC_perVeh="0.003267" PMx_perVeh="0.000729" NOx_perVeh="0.019322" fuel_perVeh="0.021892" electricity_perVeh="0"/>
        <edge id=":1110673617_0" sampledSeconds="238.79" CO_abs="6115.294787" CO2_abs="749888.098596" HC_abs="45.801403" PMx_abs="13.466092" NOx_abs="283.357754" fuel_abs="322.342369" electricity_abs="0"
            CO_normed="15613.518604" CO2_normed="1914607.911308" HC_normed="116.939753" PMx_normed="34.381511" NOx_normed="723.466606" fuel_normed="823.001792" electricity_normed="0"
            traveltime="0.01" CO_perVeh="0.374535" CO2_perVeh="45.927381" HC_perVeh="0.002805" PMx_perVeh="0.000825" NOx_perVeh="0.017354" fuel_perVeh="0.019742" electricity_perVeh="0"/>
        <edge id=":1110673621_0" sampledSeconds="25.89" CO_abs="421.413877" CO2_abs="48970.487284" HC_abs="3.028773" PMx_abs="0.677108" NOx_abs="18.395515" fuel_abs="21.050360" electricity_abs="0"
            CO_normed="1291.140389" CO2_normed="150037.237637" HC_normed="9.279646" PMx_normed="2.074543" NOx_normed="56.360726" fuel_normed="64.494720" electricity_normed="0"
            traveltime="0.02" CO_perVeh="0.319253" CO2_perVeh="37.098854" HC_perVeh="0.002295" PMx_perVeh="0.000513" NOx_perVeh="0.013936" fuel_perVeh="0.015947" electricity_perVeh="0"/>
        <edge id=":1110673630_0" sampledSeconds="54.50" CO_abs="229.010947" CO2_abs="19384.965840" HC_abs="1.482177" PMx_abs="0.243273" NOx_abs="7.249039" fuel_abs="8.332864" electricity_abs="0"
            CO_normed="12.511601" CO2_normed="1059.062692" HC_normed="0.080976" PMx_normed="0.013291" NOx_normed="0.396038" fuel_normed="0.455251" electricity_normed="0"
            traveltime="1.27" CO_perVeh="5.345521" CO2_perVeh="452.479390" HC_perVeh="0.034597" PMx_perVeh="0.005678" NOx_perVeh="0.169205" fuel_perVeh="0.194504" electricity_perVeh="0"/>
        <edge id=":1110673630_1" sampledSeconds="7.16" CO_abs="30.801903" CO2_abs="2943.062412" HC_abs="0.206322" PMx_abs="0.032821" NOx_abs="1.071964" fuel_abs="1.265114" electricity_abs="0"
            CO_normed="2.051561" CO2_normed="196.022658" HC_normed="0.013742" PMx_normed="0.002186" NOx_normed="0.071398" fuel_normed="0.084263" electricity_normed="0"
            traveltime="1.01" CO_perVeh="4.359654" CO2_perVeh="416.556526" HC_perVeh="0.029202" PMx_perVeh="0.004645" NOx_perVeh="0.151724" fuel_perVeh="0.179062" electricity_perVeh="0"/>
        <edge id=":1110673650_0" sampledSeconds="143.59" CO_abs="2253.567364" CO2_abs="286106.699767" HC_abs="16.745114" PMx_abs="3.830717" NOx_abs="106.250385" fuel_abs="122.985337" electricity_abs="0"
            CO_normed="5753.789014" CO2_normed="730485.190894" HC_normed="42.753483" PMx_normed="9.780555" NOx_normed="271.277578" fuel_normed="314.005116" electricity_normed="0"
            traveltime="0.02" CO_perVeh="0.361825" CO2_perVeh="45.936328" HC_perVeh="0.002689" PMx_perVeh="0.000615" NOx_perVeh="0.017059" fuel_perVeh="0.019746" electricity_perVeh="0"/>
        <edge id=":1110673655_0" sampledSeconds="44.86" CO_abs="979.588946" CO2_abs="103454.807034" HC_abs="6.841363" PMx_abs="1.476515" NOx_abs="39.342208" fuel_abs="44.470879" electricity_abs="0"
            CO_normed="2501.078161" CO2_normed="264139.932854" HC_normed="17.467309" PMx_normed="3.769826" NOx_normed="100.448190" fuel_normed="113.542669" electricity_normed="0"
            traveltime="0.02" CO_perVeh="0.524268" CO2_perVeh="55.368189" HC_perVeh="0.003661" PMx_perVeh="0.000790" NOx_perVeh="0.021056" fuel_perVeh="0.023800" electricity_perVeh="0"/>
        <edge id=":1110673663_0" sampledSeconds="108.96" CO_abs="1698.923286" CO2_abs="190138.109202" HC_abs="12.131636" PMx_abs="2.704594" NOx_abs="71.920497" fuel_abs="81.732355" electricity_abs="0"
            CO_normed="79.444624" CO2_normed="8891.190517" HC_normed="0.567297" PMx_normed="0.126472" NOx_normed="3.363128" fuel_normed="3.821948" electricity_normed="0"
            traveltime="1.28" CO_perVeh="19.954655" CO2_perVeh="2233.261791" HC_perVeh="0.142492" PMx_perVeh="0.031767" NOx_perVeh="0.844740" fuel_perVeh="0.959985" electricity_perVeh="0"/>
        <edge id=":1110673663_1" sampledSeconds="154.31" CO_abs="2136.142187" CO2_abs="279643.183116" HC_abs="16.142418" PMx_abs="3.800652" NOx_abs="103.964821" fuel_abs="120.206835" electricity_abs="0"
            CO_normed="100.011859" CO2_normed="13092.590376" HC_normed="0.755770" PMx_normed="0.177942" NOx_normed="4.867520" fuel_normed="5.627954" electricity_normed="0"
            traveltime="1.25" CO_perVeh="17.260947" CO2_perVeh="2259.637080" HC_perVeh="0.130438" PMx_perVeh="0.030711" NOx_perVeh="0.840080" fuel_perVeh="0.971323" electricity_perVeh="0"/>
        <edge id=":1110673666_0" sampledSeconds="192.26" CO_abs="4175.740799" CO2_abs="328624.754464" HC_abs="26.519628" PMx_abs="4.497041" NOx_abs="125.704615" fuel_abs="141.262994" electricity_abs="0"