<?xml version="1.0" encoding="UTF-8"?>

<!-- generated on Tue Nov 10 02:25:02 2020 by Eclipse SUMO sumo Version 1.7.0
<configuration xmlns:xsi="http://www.w3.org/2001/XMLSchema-instance" xsi:noNamespaceSchemaLocation="http://sumo.dlr.de/xsd/sumoConfiguration.xsd">

    <input>
        <net-file value="../dataSets/Porto/6AM7AM_Routing_SaoBento/Porto.net.xml"/>
        <route-files value="../results/Porto/6AM7AM_Routing_SaoBento/cost_PMx-cost_nox/solution1/Porto.rou.xml"/>
        <additional-files value="moreOutputInfo.xml"/>
    </input>

    <output>
        <emission-output.precision value="6"/>
        <tripinfo-output value="../results/Porto/6AM7AM_Routing_SaoBento/cost_PMx-cost_nox/solution1/Porto-tripinfo"/>
    </output>

    <processing>
        <collision.action value="warn"/>
        <time-to-teleport value="-1"/>
    </processing>

    <emissions>
        <device.emissions.probability value="1"/>
    </emissions>

    <gui_only>
        <quit-on-end value="true"/>
        <start value="true"/>
    </gui_only>

</configuration>
-->

<meandata xmlns:xsi="http://www.w3.org/2001/XMLSchema-instance" xsi:noNamespaceSchemaLocation="http://sumo.dlr.de/xsd/meandata_file.xsd">
    <interval begin="0.00" end="4704.00" id="emissions-detector">
        <edge id=":1092997347_0" sampledSeconds="327.73" CO_abs="41693.880644" CO2_abs="1681550.028375" HC_abs="229.601720" PMx_abs="34.251900" NOx_abs="729.279989" fuel_abs="722.831742" electricity_abs="0"
            CO_normed="72519.504831" CO2_normed="2924773.936182" HC_normed="399.353642" PMx_normed="59.575428" NOx_normed="1268.460091" fuel_normed="1257.244450" electricity_normed="0"
            traveltime="0.07" CO_perVeh="9.301994" CO2_perVeh="375.157393" HC_perVeh="0.051225" PMx_perVeh="0.007642" NOx_perVeh="0.162704" fuel_perVeh="0.161265" electricity_perVeh="0"/>
        <edge id=":1103427051_0" sampledSeconds="11.02" CO_abs="859.421071" CO2_abs="48379.209900" HC_abs="5.058720" PMx_abs="0.932355" NOx_abs="20.533457" fuel_abs="20.796107" electricity_abs="0"
            CO_normed="2268.000715" CO2_normed="127672.088054" HC_normed="13.349894" PMx_normed="2.460473" NOx_normed="54.187519" fuel_normed="54.880648" electricity_normed="0"
            traveltime="0.03" CO_perVeh="2.354801" CO2_perVeh="132.558304" HC_perVeh="0.013861" PMx_perVeh="0.002555" NOx_perVeh="0.056261" fuel_perVeh="0.056981" electricity_perVeh="0"/>
        <edge id=":1105984386_0" sampledSeconds="76.89" CO_abs="1378.387343" CO2_abs="114016.658328" HC_abs="8.859647" PMx_abs="1.437086" NOx_abs="42.766729" fuel_abs="49.011458" electricity_abs="0"
            CO_normed="108.639369" CO2_normed="8986.369380" HC_normed="0.698284" PMx_normed="0.113266" NOx_normed="3.370715" fuel_normed="3.862901" electricity_normed="0"
            traveltime="0.96" CO_perVeh="17.140696" CO2_perVeh="1417.834322" HC_perVeh="0.110173" PMx_perVeh="0.017871" NOx_perVeh="0.531818" fuel_perVeh="0.609473" electricity_perVeh="0"/>
        <edge id=":1105984390_0" sampledSeconds="79.30" CO_abs="89.902741" CO2_abs="8073.223509" HC_abs="0.591562" PMx_abs="0.095861" NOx_abs="2.977834" fuel_abs="3.470378" electricity_abs="0"
            CO_normed="5.477955" CO2_normed="491.917785" HC_normed="0.036045" PMx_normed="0.005841" NOx_normed="0.181445" fuel_normed="0.211457" electricity_normed="0"
            traveltime="1.07" CO_perVeh="1.208013" CO2_perVeh="108.479029" HC_perVeh="0.007949" PMx_perVeh="0.001288" NOx_perVeh="0.040013" fuel_perVeh="0.046631" electricity_perVeh="0"/>
        <edge id=":1105984390_1" sampledSeconds="646.57" CO_abs="15429.534918" CO2_abs="1936751.525526" HC_abs="116.770885" PMx_abs="34.607180" NOx_abs="728.834773" fuel_abs="832.520485" electricity_abs="0"
            CO_normed="899.338731" CO2_normed="112887.113492" HC_normed="6.806205" PMx_normed="2.017143" NOx_normed="42.481471" fuel_normed="48.524983" electricity_normed="0"
            traveltime="0.64" CO_perVeh="15.183743" CO2_perVeh="1905.899123" HC_perVeh="0.114911" PMx_perVeh="0.034056" NOx_perVeh="0.717224" fuel_perVeh="0.819258" electricity_perVeh="0"/>
        <edge id=":1105984395_0" sampledSeconds="29.89" CO_abs="651.544831" CO2_abs="52730.039160" HC_abs="4.159398" PMx_abs="0.657264" NOx_abs="19.745194" fuel_abs="22.666675" electricity_abs="0"
            CO_normed="541.990487" CO2_normed="43863.719355" HC_normed="3.460014" PMx_normed="0.546748" NOx_normed="16.425128" fuel_normed="18.855375" electricity_normed="0"
            traveltime="0.09" CO_perVeh="1.957741" CO2_perVeh="158.441557" HC_perVeh="0.012498" PMx_perVeh="0.001975" NOx_perVeh="0.059330" fuel_perVeh="0.068108" electricity_perVeh="0"/>
        <edge id=":1105984398_0" sampledSeconds="75.98" CO_abs="4826.945150" CO2_abs="342480.865965" HC_abs="30.046907" PMx_abs="6.069745" NOx_abs="140.388427" fuel_abs="147.217444" electricity_abs="0"
            CO_normed="305.549270" CO2_normed="21679.297233" HC_normed="1.901992" PMx_normed="0.384219" NOx_normed="8.886693" fuel_normed="9.318975" electricity_normed="0"
            traveltime="1.09" CO_perVeh="69.100714" CO2_perVeh="4902.826043" HC_perVeh="0.430140" PMx_perVeh="0.086892" NOx_perVeh="2.009747" fuel_perVeh="2.107509" electricity_perVeh="0"/>
        <edge id=":1105984398_1" sampledSeconds="455.14" CO_abs="8332.730444" CO2_abs="945511.883212" HC_abs="59.644417" PMx_abs="13.752628" NOx_abs="359.382210" fuel_abs="406.435107" electricity_abs="0"
            CO_normed="510.575631" CO2_normed="57934.830510" HC_normed="3.654623" PMx_normed="0.842672" NOx_normed="22.020609" fuel_normed="24.903705" electricity_normed="0"
            traveltime="0.96" CO_perVeh="17.495909" CO2_perVeh="1985.254400" HC_perVeh="0.125233" PMx_perVeh="0.028876" NOx_perVeh="0.754581" fuel_perVeh="0.853376" electricity_perVeh="0"/>
        <edge id=":1106006327_0" sampledSeconds="38.97" CO_abs="5226.634546" CO2_abs="167967.312434" HC_abs="27.749759" PMx_abs="3.496698" NOx_abs="73.478636" fuel_abs="72.203272" electricity_abs="0"
            CO_normed="451.464494" CO2_normed="14508.624444" HC_normed="2.396959" PMx_normed="0.302037" NOx_normed="6.346913" fuel_normed="6.236750" electricity_normed="0"
            traveltime="2.11" CO_perVeh="283.541404" CO2_perVeh="9112.113569" HC_perVeh="1.505406" PMx_perVeh="0.189694" NOx_perVeh="3.986167" fuel_perVeh="3.916979" electricity_perVeh="0"/>
        <edge id=":1106006327_1" sampledSeconds="159.85" CO_abs="21596.162585" CO2_abs="726417.880172" HC_abs="115.456804" PMx_abs="15.139097" NOx_abs="317.843988" fuel_abs="312.260752" electricity_abs="0"
            CO_normed="1626.739709" CO2_normed="54717.721570" HC_normed="8.696831" PMx_normed="1.140359" NOx_normed="23.941727" fuel_normed="23.521168" electricity_normed="0"
            traveltime="2.27" CO_perVeh="306.585362" CO2_perVeh="10312.438048" HC_perVeh="1.639058" PMx_perVeh="0.214919" NOx_perVeh="4.512205" fuel_perVeh="4.432944" electricity_perVeh="0"/>
        <edge id=":1106006327_2" sampledSeconds="0.00" CO_abs="0" CO2_abs="0" HC_abs="0" PMx_abs="0" NOx_abs="0" fuel_abs="0" electricity_abs="0"
            CO_normed="0" CO2_normed="0" HC_normed="0" PMx_normed="0" NOx_normed="0" fuel_normed="0" electricity_normed="0"/>
        <edge id=":1106006327_3" sampledSeconds="0.00" CO_abs="0" CO2_abs="0" HC_abs="0" PMx_abs="0" NOx_abs="0" fuel_abs="0" electricity_abs="0"
            CO_normed="0" CO2_normed="0" HC_normed="0" PMx_normed="0" NOx_normed="0" fuel_normed="0" electricity_normed="0"/>
        <edge id=":1107381198_0" sampledSeconds="0.00" CO_abs="0" CO2_abs="0" HC_abs="0" PMx_abs="0" NOx_abs="0" fuel_abs="0" electricity_abs="0"
            CO_normed="0" CO2_normed="0" HC_normed="0" PMx_normed="0" NOx_normed="0" fuel_normed="0" electricity_normed="0"/>
        <edge id=":1107381198_1" sampledSeconds="36.43" CO_abs="1266.832173" CO2_abs="51624.557211" HC_abs="6.957935" PMx_abs="0.891620" NOx_abs="21.384898" fuel_abs="22.191582" electricity_abs="0"
            CO_normed="105.726763" CO2_normed="4308.461254" HC_normed="0.580692" PMx_normed="0.074412" NOx_normed="1.784732" fuel_normed="1.852056" electricity_normed="0"
            traveltime="1.50" CO_perVeh="52.158993" CO2_perVeh="2125.526175" HC_perVeh="0.286477" PMx_perVeh="0.036710" NOx_perVeh="0.880476" fuel_perVeh="0.913689" electricity_perVeh="0"/>
        <edge id=":1110338277_0" sampledSeconds="96.35" CO_abs="1616.355854" CO2_abs="195632.698654" HC_abs="11.845735" PMx_abs="2.689491" NOx_abs="73.274235" fuel_abs="84.094286" electricity_abs="0"
            CO_normed="4417.882254" CO2_normed="534710.364397" HC_normed="32.377192" PMx_normed="7.351015" NOx_normed="200.275788" fuel_normed="229.849541" electricity_normed="0"
            traveltime="0.02" CO_perVeh="0.364276" CO2_perVeh="44.089436" HC_perVeh="0.002670" PMx_perVeh="0.000606" NOx_perVeh="0.016514" fuel_perVeh="0.018952" electricity_perVeh="0"/>
        <edge id=":1110338293_0" sampledSeconds="124.39" CO_abs="5969.190872" CO2_abs="411471.856099" HC_abs="36.837464" PMx_abs="7.154291" NOx_abs="168.037037" fuel_abs="176.873962" electricity_abs="0"
            CO_normed="15227.527735" CO2_normed="1049673.102294" HC_normed="93.973123" PMx_normed="18.250743" NOx_normed="428.665911" fuel_normed="451.209087" electricity_normed="0"
            traveltime="0.03" CO_perVeh="1.369133" CO2_perVeh="94.377887" HC_perVeh="0.008449" PMx_perVeh="0.001641" NOx_perVeh="0.038542" fuel_perVeh="0.040569" electricity_perVeh="0"/>
        <edge id=":1110338295_0" sampledSeconds="0.00" CO_abs="0" CO2_abs="0" HC_abs="0" PMx_abs="0" NOx_abs="0" fuel_abs="0" electricity_abs="0"
            CO_normed="0" CO2_normed="0" HC_normed="0" PMx_normed="0" NOx_normed="0" fuel_normed="0" electricity_normed="0"/>
        <edge id=":1110673403_0" sampledSeconds="158.20" CO_abs="2492.442253" CO2_abs="308625.246245" HC_abs="18.382548" PMx_abs="4.233052" NOx_abs="115.350329" fuel_abs="132.665015" electricity_abs="0"
            CO_normed="6358.271054" CO2_normed="787309.301646" HC_normed="46.894256" PMx_normed="10.798602" NOx_normed="294.261044" fuel_normed="338.431161" electricity_normed="0"
            traveltime="0.02" CO_perVeh="0.362908" CO2_perVeh="44.936903" HC_perVeh="0.002677" PMx_perVeh="0.000616" NOx_perVeh="0.016795" fuel_perVeh="0.019316" electricity_perVeh="0"/>
        <edge id=":1110673412_0" sampledSeconds="253.95" CO_abs="44381.949292" CO2_abs="3036312.892286" HC_abs="276.370427" PMx_abs="66.595101" NOx_abs="1304.123872" fuel_abs="1305.161450" electricity_abs="0"
            CO_normed="117123.370758" CO2_normed="8012789.124611" HC_normed="729.337861" PMx_normed="175.743580" NOx_normed="3441.565462" fuel_normed="3444.303616" electricity_normed="0"
            traveltime="0.02" CO_perVeh="2.728506" CO2_perVeh="186.665911" HC_perVeh="0.016991" PMx_perVeh="0.004094" NOx_perVeh="0.080175" fuel_perVeh="0.080238" electricity_perVeh="0"/>
        <edge id=":1110673414_0" sampledSeconds="0.00" CO_abs="0" CO2_abs="0" HC_abs="0" PMx_abs="0" NOx_abs="0" fuel_abs="0" electricity_abs="0"
            CO_normed="0" CO2_normed="0" HC_normed="0" PMx_normed="0" NOx_normed="0" fuel_normed="0" electricity_normed="0"/>
        <edge id=":1110673414_1" sampledSeconds="322.28" CO_abs="21904.336524" CO2_abs="834340.087439" HC_abs="119.110990" PMx_abs="15.414141" NOx_abs="352.323715" fuel_abs="358.653136" electricity_abs="0"
            CO_normed="1856.425565" CO2_normed="70711.581077" HC_normed="10.094836" PMx_normed="1.306372" NOx_normed="29.859966" fuel_normed="30.396394" electricity_normed="0"
            traveltime="1.59" CO_perVeh="107.923742" CO2_perVeh="4110.834592" HC_perVeh="0.586866" PMx_perVeh="0.075946" NOx_perVeh="1.735916" fuel_perVeh="1.767102" electricity_perVeh="0"/>
        <edge id=":1110673417_0" sampledSeconds="29.69" CO_abs="475.828848" CO2_abs="50523.121114" HC_abs="3.329195" PMx_abs="0.744719" NOx_abs="19.335118" fuel_abs="21.717733" electricity_abs="0"
            CO_normed="1300.552610" CO2_normed="138091.621121" HC_normed="9.099477" PMx_normed="2.035493" NOx_normed="52.847444" fuel_normed="59.359692" electricity_normed="0"
            traveltime="0.02" CO_perVeh="0.353167" CO2_perVeh="37.498937" HC_perVeh="0.002471" PMx_perVeh="0.000553" NOx_perVeh="0.014351" fuel_perVeh="0.016119" electricity_perVeh="0"/>
        <edge id=":1110673446_0" sampledSeconds="333.63" CO_abs="3772.099141" CO2_abs="308042.116628" HC_abs="24.453672" PMx_abs="5.583547" NOx_abs="125.563980" fuel_abs="132.413214" electricity_abs="0"
            CO_normed="9622.701889" CO2_normed="785821.726093" HC_normed="62.381817" PMx_normed="14.243742" NOx_normed="320.316275" fuel_normed="337.788812" electricity_normed="0"
            traveltime="0.02" CO_perVeh="0.257339" CO2_perVeh="21.015187" HC_perVeh="0.001668" PMx_perVeh="0.000381" NOx_perVeh="0.008566" fuel_perVeh="0.009033" electricity_perVeh="0"/>
        <edge id=":1110673451_0" sampledSeconds="37.85" CO_abs="209.829258" CO2_abs="17081.000636" HC_abs="1.343566" PMx_abs="0.221884" NOx_abs="6.452744" fuel_abs="7.342470" electricity_abs="0"
            CO_normed="594.754134" CO2_normed="48415.534682" HC_normed="3.808294" PMx_normed="0.628924" NOx_normed="18.290091" fuel_normed="20.811990" electricity_normed="0"
            traveltime="0.03" CO_perVeh="0.150475" CO2_perVeh="12.249323" HC_perVeh="0.000964" PMx_perVeh="0.000159" NOx_perVeh="0.004627" fuel_perVeh="0.005266" electricity_perVeh="0"/>
        <edge id=":1110673464_0" sampledSeconds="323.07" CO_abs="463.409133" CO2_abs="36528.217527" HC_abs="2.942460" PMx_abs="0.488007" NOx_abs="13.874038" fuel_abs="15.702079" electricity_abs="0"
            CO_normed="25.116845" CO2_normed="1979.834881" HC_normed="0.159482" PMx_normed="0.026450" NOx_normed="0.751975" fuel_normed="0.851055" electricity_normed="0"
            traveltime="1.17" CO_perVeh="1.675163" CO2_perVeh="132.044687" HC_perVeh="0.010637" PMx_perVeh="0.001764" NOx_perVeh="0.050153" fuel_perVeh="0.056761" electricity_perVeh="0"/>
        <edge id=":1110673464_1" sampledSeconds="744.84" CO_abs="17796.339002" CO2_abs="2265393.063176" HC_abs="135.234300" PMx_abs="40.263477" NOx_abs="850.903136" fuel_abs="973.788484" electricity_abs="0"
            CO_normed="945.152477" CO2_normed="120313.614226" HC_normed="7.182209" PMx_normed="2.138368" NOx_normed="45.190935" fuel_normed="51.717300" electricity_normed="0"
            traveltime="0.70" CO_perVeh="16.748969" CO2_perVeh="2132.067586" HC_perVeh="0.127275" PMx_perVeh="0.037894" NOx_perVeh="0.800825" fuel_perVeh="0.916478" electricity_perVeh="0"/>
        <edge id=":1110673479_0" sampledSeconds="133.93" CO_abs="6595.635516" CO2_abs="454491.782137" HC_abs="40.717444" PMx_abs="7.995341" NOx_abs="186.209796" fuel_abs="195.366228" electricity_abs="0"
            CO_normed="16825.600806" CO2_normed="1159417.811573" HC_normed="103.871030" PMx_normed="20.396278" NOx_normed="475.024990" fuel_normed="498.383235" electricity_normed="0"
            traveltime="0.03" CO_perVeh="1.389432" CO2_perVeh="95.742950" HC_perVeh="0.008578" PMx_perVeh="0.001684" NOx_perVeh="0.039227" fuel_perVeh="0.041156" electricity_perVeh="0"/>
        <edge id=":1110673511_0" sampledSeconds="11.70" CO_abs="153.326701" CO2_abs="21895.270561" HC_abs="1.173203" PMx_abs="0.260964" NOx_abs="7.903881" fuel_abs="9.411895" electricity_abs="0"
            CO_normed="391.139545" CO2_normed="55855.282044" HC_normed="2.992865" PMx_normed="0.665724" NOx_normed="20.162962" fuel_normed="24.009937" electricity_normed="0"
            traveltime="0.02" CO_perVeh="0.303617" CO2_perVeh="43.356971" HC_perVeh="0.002323" PMx_perVeh="0.000517" NOx_perVeh="0.015651" fuel_perVeh="0.018637" electricity_perVeh="0"/>
        <edge id=":1110673517_0" sampledSeconds="17.02" CO_abs="824.185494" CO2_abs="56253.497513" HC_abs="5.087346" PMx_abs="1.050941" NOx_abs="23.416690" fuel_abs="24.180845" electricity_abs="0"
            CO_normed="2102.514014" CO2_normed="143503.820186" HC_normed="12.977923" PMx_normed="2.680972" NOx_normed="59.736455" fuel_normed="61.685829" electricity_normed="0"
            traveltime="0.03" CO_perVeh="1.323284" CO2_perVeh="90.318701" HC_perVeh="0.008168" PMx_perVeh="0.001687" NOx_perVeh="0.037597" fuel_perVeh="0.038824" electricity_perVeh="0"/>
        <edge id=":1110673534_0" sampledSeconds="475.98" CO_abs="2500.269342" CO2_abs="233071.072145" HC_abs="16.677306" PMx_abs="2.909933" NOx_abs="86.746399" fuel_abs="100.188279" electricity_abs="0"
            CO_normed="123.609266" CO2_normed="11522.656232" HC_normed="0.824499" PMx_normed="0.143862" NOx_normed="4.288601" fuel_normed="4.953146" electricity_normed="0"
            traveltime="1.43" CO_perVeh="7.532309" CO2_perVeh="702.149726" HC_perVeh="0.050242" PMx_perVeh="0.008766" NOx_perVeh="0.261332" fuel_perVeh="0.301827" electricity_perVeh="0"/>
        <edge id=":1110673534_1" sampledSeconds="245.26" CO_abs="3806.422884" CO2_abs="467382.971547" HC_abs="28.045973" PMx_abs="6.442482" NOx_abs="174.894247" fuel_abs="200.908274" electricity_abs="0"
            CO_normed="182.982333" CO2_normed="22468.030757" HC_normed="1.348226" PMx_normed="0.309703" NOx_normed="8.407515" fuel_normed="9.658061" electricity_normed="0"
            traveltime="1.23" CO_perVeh="19.037085" CO2_perVeh="2337.525201" HC_perVeh="0.140266" PMx_perVeh="0.032221" NOx_perVeh="0.874700" fuel_perVeh="1.004804" electricity_perVeh="0"/>
        <edge id=":1110673549_0" sampledSeconds="61.72" CO_abs="82.658184" CO2_abs="5340.067503" HC_abs="0.498763" PMx_abs="0.078986" NOx_abs="2.098661" fuel_abs="2.295489" electricity_abs="0"
            CO_normed="3.958624" CO2_normed="255.743827" HC_normed="0.023887" PMx_normed="0.003783" NOx_normed="0.100508" fuel_normed="0.109934" electricity_normed="0"
            traveltime="1.29" CO_perVeh="1.722113" CO2_perVeh="111.255758" HC_perVeh="0.010391" PMx_perVeh="0.001646" NOx_perVeh="0.043724" fuel_perVeh="0.047825" electricity_perVeh="0"/>
        <edge id=":1110673549_1" sampledSeconds="639.09" CO_abs="14102.503304" CO2_abs="1841632.247866" HC_abs="108.410073" PMx_abs="32.502696" NOx_abs="689.162874" fuel_abs="791.633343" electricity_abs="0"
            CO_normed="653.313082" CO2_normed="85315.522675" HC_normed="5.022209" PMx_normed="1.505721" NOx_normed="31.926184" fuel_normed="36.673235" electricity_normed="0"
            traveltime="0.80" CO_perVeh="17.757743" CO2_perVeh="2318.966442" HC_perVeh="0.136509" PMx_perVeh="0.040927" NOx_perVeh="0.867788" fuel_perVeh="0.996817" electricity_perVeh="0"/>
        <edge id=":1110673556_0" sampledSeconds="413.08" CO_abs="50634.811196" CO2_abs="2558193.289005" HC_abs="291.401677" PMx_abs="51.596348" NOx_abs="1101.361622" fuel_abs="1099.656286" electricity_abs="0"
            CO_normed="1798.196335" CO2_normed="90849.233712" HC_normed="10.348561" PMx_normed="1.832343" NOx_normed="39.112705" fuel_normed="39.052143" electricity_normed="0"
            traveltime="2.56" CO_perVeh="314.316218" CO2_perVeh="15880.016528" HC_perVeh="1.808880" PMx_perVeh="0.320285" NOx_perVeh="6.836716" fuel_perVeh="6.826130" electricity_perVeh="0"/>
        <edge id=":1110673556_2" sampledSeconds="246.60" CO_abs="23754.264567" CO2_abs="1029273.444155" HC_abs="132.333979" PMx_abs="19.828124" NOx_abs="438.758465" fuel_abs="442.444135" electricity_abs="0"
            CO_normed="882.061335" CO2_normed="38219.760722" HC_normed="4.913926" PMx_normed="0.736273" NOx_normed="16.292311" fuel_normed="16.429171" electricity_normed="0"
            traveltime="2.99" CO_perVeh="288.134677" CO2_perVeh="12484.889639" HC_perVeh="1.605186" PMx_perVeh="0.240511" NOx_perVeh="5.322056" fuel_perVeh="5.366763" electricity_perVeh="0"/>
        <edge id=":1110673556_3" sampledSeconds="376.51" CO_abs="32838.036025" CO2_abs="1160366.858129" HC_abs="176.542101" PMx_abs="22.231165" NOx_abs="495.448738" fuel_abs="498.801237" electricity_abs="0"
            CO_normed="2773.857618" CO2_normed="98017.203180" HC_normed="14.912666" PMx_normed="1.877886" NOx_normed="41.850988" fuel_normed="42.134177" electricity_normed="0"
            traveltime="1.75" CO_perVeh="152.789173" CO2_perVeh="5398.967618" HC_perVeh="0.821417" PMx_perVeh="0.103437" NOx_perVeh="2.305229" fuel_perVeh="2.320828" electricity_perVeh="0"/>
        <edge id=":1110673556_4" sampledSeconds="169.50" CO_abs="17869.241076" CO2_abs="714133.891997" HC_abs="98.136430" PMx_abs="14.012843" NOx_abs="306.534994" fuel_abs="306.978796" electricity_abs="0"
            CO_normed="922.146972" CO2_normed="36853.070789" HC_normed="5.064357" PMx_normed="0.723137" NOx_normed="15.818820" fuel_normed="15.841723" electricity_normed="0"
            traveltime="2.42" CO_perVeh="255.363429" CO2_perVeh="10205.451865" HC_perVeh="1.402435" PMx_perVeh="0.200253" NOx_perVeh="4.380590" fuel_perVeh="4.386933" electricity_perVeh="0"/>
        <edge id=":1110673556_5" sampledSeconds="23.95" CO_abs="1733.720856" CO2_abs="70882.077708" HC_abs="9.544177" PMx_abs="1.307073" NOx_abs="29.869779" fuel_abs="30.469585" electricity_abs="0"
            CO_normed="124.701803" CO2_normed="5098.354139" HC_normed="0.686487" PMx_normed="0.094014" NOx_normed="2.148452" fuel_normed="2.191594" electricity_normed="0"
            traveltime="1.66" CO_perVeh="119.862183" CO2_perVeh="4900.489323" HC_perVeh="0.659844" PMx_perVeh="0.090366" NOx_perVeh="2.065071" fuel_perVeh="2.106539" electricity_perVeh="0"/>
        <edge id=":1110673556_6" sampledSeconds="313.19" CO_abs="37767.392539" CO2_abs="1917788.444961" HC_abs="217.571514" PMx_abs="38.584259" NOx_abs="824.794675" fuel_abs="824.374040" electricity_abs="0"
            CO_normed="1375.053127" CO2_normed="69823.750642" HC_normed="7.921447" PMx_normed="1.404794" NOx_normed="30.029515" fuel_normed="30.014201" electricity_normed="0"
            traveltime="2.48" CO_perVeh="299.087880" CO2_perVeh="15187.367750" HC_perVeh="1.722994" PMx_perVeh="0.305557" NOx_perVeh="6.531722" fuel_perVeh="6.528390" electricity_perVeh="0"/>
        <edge id=":1110673561_0" sampledSeconds="103.21" CO_abs="9233.729399" CO2_abs="657571.437831" HC_abs="57.891440" PMx_abs="13.340203" NOx_abs="278.463981" fuel_abs="282.658608" electricity_abs="0"
            CO_normed="422.392686" CO2_normed="30080.301693" HC_normed="2.648217" PMx_normed="0.610241" NOx_normed="12.738206" fuel_normed="12.930087" electricity_normed="0"
            traveltime="1.22" CO_perVeh="108.966969" CO2_perVeh="7759.981205" HC_perVeh="0.683175" PMx_perVeh="0.157427" NOx_perVeh="3.286145" fuel_perVeh="3.335646" electricity_perVeh="0"/>
        <edge id=":1110673561_1" sampledSeconds="1314.27" CO_abs="121427.564458" CO2_abs="8455976.609140" HC_abs="757.342519" PMx_abs="176.006605" NOx_abs="3609.833061" fuel_abs="3634.816606" electricity_abs="0"
            CO_normed="5415.457955" CO2_normed="377121.833931" HC_normed="33.776158" PMx_normed="7.849588" NOx_normed="160.992269" fuel_normed="162.106492" electricity_normed="0"
            traveltime="1.19" CO_perVeh="110.199071" CO2_perVeh="7674.046453" HC_perVeh="0.687311" PMx_perVeh="0.159731" NOx_perVeh="3.276029" fuel_perVeh="3.298703" electricity_perVeh="0"/>
        <edge id=":1110673562_0" sampledSeconds="104.68" CO_abs="1966.039630" CO2_abs="157772.262122" HC_abs="12.549057" PMx_abs="2.114138" NOx_abs="60.004812" fuel_abs="67.820197" electricity_abs="0"
            CO_normed="5572.674688" CO2_normed="447200.289461" HC_normed="35.569888" PMx_normed="5.992455" NOx_normed="170.081667" fuel_normed="192.234119" electricity_normed="0"
            traveltime="0.03" CO_perVeh="0.501152" CO2_perVeh="40.216868" HC_perVeh="0.003199" PMx_perVeh="0.000539" NOx_perVeh="0.015295" fuel_perVeh="0.017288" electricity_perVeh="0"/>
        <edge id=":1110673564_0" sampledSeconds="28.72" CO_abs="509.413111" CO2_abs="57055.280009" HC_abs="3.623632" PMx_abs="0.814554" NOx_abs="21.608133" fuel_abs="24.525650" electricity_abs="0"
            CO_normed="3898.569729" CO2_normed="436647.551087" HC_normed="27.731877" PMx_normed="6.233831" NOx_normed="165.368367" fuel_normed="187.696304" electricity_normed="0"
            traveltime="7.895492e-03" CO_perVeh="0.140045" CO2_perVeh="15.685300" HC_perVeh="0.000996" PMx_perVeh="0.000224" NOx_perVeh="0.005940" fuel_perVeh="0.006742" electricity_perVeh="0"/>
        <edge id=":1110673588_0" sampledSeconds="11.63" CO_abs="192.579346" CO2_abs="21753.607113" HC_abs="1.368290" PMx_abs="0.311013" NOx_abs="8.235049" fuel_abs="9.350953" electricity_abs="0"
            CO_normed="589.528610" CO2_normed="66592.674835" HC_normed="4.188642" PMx_normed="0.952082" NOx_normed="25.209334" fuel_normed="28.625365" electricity_normed="0"
            traveltime="0.02" CO_perVeh="0.320966" CO2_perVeh="36.256012" HC_perVeh="0.002280" PMx_perVeh="0.000518" NOx_perVeh="0.013725" fuel_perVeh="0.015585" electricity_perVeh="0"/>
        <edge id=":1110673601_0" sampledSeconds="29.68" CO_abs="524.386954" CO2_abs="56969.441295" HC_abs="3.686323" PMx_abs="0.821528" NOx_abs="21.654816" fuel_abs="24.488749" electricity_abs="0"
            CO_normed="1433.273380" CO2_normed="155710.936483" HC_normed="10.075591" PMx_normed="2.245431" NOx_normed="59.187726" fuel_normed="66.933535" electricity_normed="0"
            traveltime="0.02" CO_perVeh="0.389207" CO2_perVeh="42.283482" HC_perVeh="0.002736" PMx_perVeh="0.000610" NOx_perVeh="0.016072" fuel_perVeh="0.018176" electricity_perVeh="0"/>
        <edge id=":1110673617_0" sampledSeconds="247.44" CO_abs="6602.464663" CO2_abs="780224.654243" HC_abs="48.792893" PMx_abs="14.164008" NOx_abs="296.738549" fuel_abs="335.382539" electricity_abs="0"
            CO_normed="16843.022100" CO2_normed="1990369.015925" HC_normed="124.471666" PMx_normed="36.132673" NOx_normed="756.986096" fuel_normed="855.567701" electricity_normed="0"
            traveltime="0.01" CO_perVeh="0.389681" CO2_perVeh="46.049234" HC_perVeh="0.002880" PMx_perVeh="0.000836" NOx_perVeh="0.017514" fuel_perVeh="0.019794" electricity_perVeh="0"/>
        <edge id=":1110673621_0" sampledSeconds="25.85" CO_abs="581.242931" CO2_abs="61849.384342" HC_abs="4.083078" PMx_abs="0.917779" NOx_abs="23.693517" fuel_abs="26.586403" electricity_abs="0"
            CO_normed="1779.315094" CO2_normed="189334.850026" HC_normed="12.499218" PMx_normed="2.809526" NOx_normed="72.531176" fuel_normed="81.386949" electricity_normed="0"
            traveltime="0.02" CO_perVeh="0.440336" CO2_perVeh="46.855594" HC_perVeh="0.003093" PMx_perVeh="0.000695" NOx_perVeh="0.017950" fuel_perVeh="0.020141" electricity_perVeh="0"/>
        <edge id=":1110673630_0" sampledSeconds="54.06" CO_abs="151.370604" CO2_abs="15534.005719" HC_abs="1.041324" PMx_abs="0.185680" NOx_abs="5.698003" fuel_abs="6.677474" electricity_abs="0"
            CO_normed="8.262828" CO2_normed="847.950762" HC_normed="0.056842" PMx_normed="0.010136" NOx_normed="0.311035" fuel_normed="0.364502" electricity_normed="0"
            traveltime="1.26" CO_perVeh="3.533258" CO2_perVeh="362.591170" HC_perVeh="0.024306" PMx_perVeh="0.004334" NOx_perVeh="0.133001" fuel_perVeh="0.155864" electricity_perVeh="0"/>
        <edge id=":1110673630_1" sampledSeconds="7.33" CO_abs="0.655882" CO2_abs="74.540427" HC_abs="0.004741" PMx_abs="0.001186" NOx_abs="0.028866" fuel_abs="0.032042" electricity_abs="0"
            CO_normed="0.043648" CO2_normed="4.960543" HC_normed="0.000315" PMx_normed="0.000079" NOx_normed="0.001921" fuel_normed="0.002132" electricity_normed="0"
            traveltime="1.04" CO_perVeh="0.092832" CO2_perVeh="10.550337" HC_perVeh="0.000671" PMx_perVeh="0.000168" NOx_perVeh="0.004086" fuel_perVeh="0.004535" electricity_perVeh="0"/>
        <edge id=":1110673650_0" sampledSeconds="157.88" CO_abs="2588.665297" CO2_abs="318686.994115" HC_abs="19.026806" PMx_abs="4.353217" NOx_abs="119.023518" fuel_abs="136.990171" electricity_abs="0"
            CO_normed="6603.738003" CO2_normed="812977.025804" HC_normed="48.537770" PMx_normed="11.105144" NOx_normed="303.631423" fuel_normed="349.464722" electricity_normed="0"
            traveltime="0.02" CO_perVeh="0.377537" CO2_perVeh="46.478034" HC_perVeh="0.002775" PMx_perVeh="0.000635" NOx_perVeh="0.017359" fuel_perVeh="0.019979" electricity_perVeh="0"/>
        <edge id=":1110673655_0" sampledSeconds="44.89" CO_abs="766.832614" CO2_abs="87433.424245" HC_abs="5.494259" PMx_abs="1.180030" NOx_abs="32.725033" fuel_abs="37.584019" electricity_abs="0"
            CO_normed="1956.205648" CO2_normed="223044.449606" HC_normed="14.015967" PMx_normed="3.010281" NOx_normed="83.482226" fuel_normed="95.877600" electricity_normed="0"
            traveltime="0.02" CO_perVeh="0.410400" CO2_perVeh="46.793377" HC_perVeh="0.002940" PMx_perVeh="0.000632" NOx_perVeh="0.017514" fuel_perVeh="0.020115" electricity_perVeh="0"/>
        <edge id=":1110673663_0" sampledSeconds="109.08" CO_abs="1990.808747" CO2_abs="224069.290934" HC_abs="14.186459" PMx_abs="3.205499" NOx_abs="84.914404" fuel_abs="96.317886" electricity_abs="0"
            CO_normed="93.014537" CO2_normed="10468.962161" HC_normed="0.662820" PMx_normed="0.149767" NOx_normed="3.967370" fuel_normed="4.500163" electricity_normed="0"
            traveltime="1.28" CO_perVeh="23.383016" CO2_perVeh="2631.802689" HC_perVeh="0.166627" PMx_perVeh="0.037650" NOx_perVeh="0.997361" fuel_perVeh="1.131300" electricity_perVeh="0"/>
        <edge id=":1110673663_1" sampledSeconds="154.73" CO_abs="1973.035113" CO2_abs="273825.126398" HC_abs="15.213949" PMx_abs="3.575092" NOx_abs="100.736274" fuel_abs="117.706027" electricity_abs="0"
            CO_normed="92.296812" CO2_normed="12809.293748" HC_normed="0.711695" PMx_normed="0.167240" NOx_normed="4.712353" fuel_normed="5.506182" electricity_normed="0"
            traveltime="1.25" CO_perVeh="15.958463" CO2_perVeh="2214.774677" HC_perVeh="0.123055" PMx_perVeh="0.028916" NOx_perVeh="0.814783" fuel_perVeh="0.952039" electricity_perVeh="0"/>
        <edge id=":1110673666_0" sampledSeconds="254.78" CO_abs="5598.793886" CO2_abs="444488.212295" HC_abs="35.629045" PMx_abs="5.983591" NOx_abs="169.321688" fuel_abs="191.068302" electricity_abs="0"