<?xml version="1.0" encoding="UTF-8"?>

<!-- generated on Tue Nov 10 02:45:00 2020 by Eclipse SUMO sumo Version 1.7.0
<configuration xmlns:xsi="http://www.w3.org/2001/XMLSchema-instance" xsi:noNamespaceSchemaLocation="http://sumo.dlr.de/xsd/sumoConfiguration.xsd">

    <input>
        <net-file value="../dataSets/Porto/6AM7AM_Routing_SaoBento/Porto.net.xml"/>
        <route-files value="../results/Porto/6AM7AM_Routing_SaoBento/cost_hc-cost_nox/solution2/Porto.rou.xml"/>
        <additional-files value="moreOutputInfo.xml"/>
    </input>

    <output>
        <emission-output.precision value="6"/>
        <tripinfo-output value="../results/Porto/6AM7AM_Routing_SaoBento/cost_hc-cost_nox/solution2/Porto-tripinfo"/>
    </output>

    <processing>
        <collision.action value="warn"/>
        <time-to-teleport value="-1"/>
    </processing>

    <emissions>
        <device.emissions.probability value="1"/>
    </emissions>

    <gui_only>
        <quit-on-end value="true"/>
        <start value="true"/>
    </gui_only>

</configuration>
-->

<meandata xmlns:xsi="http://www.w3.org/2001/XMLSchema-instance" xsi:noNamespaceSchemaLocation="http://sumo.dlr.de/xsd/meandata_file.xsd">
    <interval begin="0.00" end="4789.00" id="emissions-detector">
        <edge id=":1092997347_0" sampledSeconds="269.84" CO_abs="34336.322485" CO2_abs="1349546.609663" HC_abs="188.227629" PMx_abs="27.528598" NOx_abs="585.834857" fuel_abs="580.117283" electricity_abs="0"
            CO_normed="58662.256756" CO2_normed="2305647.314293" HC_normed="321.579502" PMx_normed="47.031527" NOx_normed="1000.875816" fuel_normed="991.107566" electricity_normed="0"
            traveltime="0.08" CO_perVeh="9.664710" CO2_perVeh="379.859448" HC_perVeh="0.052981" PMx_perVeh="0.007749" NOx_perVeh="0.164896" fuel_perVeh="0.163287" electricity_perVeh="0"/>
        <edge id=":1103427051_0" sampledSeconds="11.32" CO_abs="921.118836" CO2_abs="51153.592716" HC_abs="5.408200" PMx_abs="1.003251" NOx_abs="21.831851" fuel_abs="21.988676" electricity_abs="0"
            CO_normed="2387.675642" CO2_normed="132597.643867" HC_normed="14.018851" PMx_normed="2.600573" NOx_normed="56.591373" fuel_normed="56.997885" electricity_normed="0"
            traveltime="0.03" CO_perVeh="2.523852" CO2_perVeh="140.160071" HC_perVeh="0.014818" PMx_perVeh="0.002749" NOx_perVeh="0.059819" fuel_perVeh="0.060249" electricity_perVeh="0"/>
        <edge id=":1105984386_0" sampledSeconds="23.15" CO_abs="450.992956" CO2_abs="36111.796624" HC_abs="2.878139" PMx_abs="0.491682" NOx_abs="13.795184" fuel_abs="15.523053" electricity_abs="0"
            CO_normed="34.914690" CO2_normed="2795.680451" HC_normed="0.222818" PMx_normed="0.038065" NOx_normed="1.067987" fuel_normed="1.201754" electricity_normed="0"
            traveltime="0.97" CO_perVeh="18.927825" CO2_perVeh="1515.584134" HC_perVeh="0.120793" PMx_perVeh="0.020636" NOx_perVeh="0.578973" fuel_perVeh="0.651491" electricity_perVeh="0"/>
        <edge id=":1105984390_0" sampledSeconds="22.69" CO_abs="0" CO2_abs="0" HC_abs="0" PMx_abs="0" NOx_abs="0" fuel_abs="0" electricity_abs="0"
            CO_normed="0" CO2_normed="0" HC_normed="0" PMx_normed="0" NOx_normed="0" fuel_normed="0" electricity_normed="0"
            traveltime="1.03" CO_perVeh="0" CO2_perVeh="0" HC_perVeh="0" PMx_perVeh="0" NOx_perVeh="0" fuel_perVeh="0" electricity_perVeh="0"/>
        <edge id=":1105984390_1" sampledSeconds="646.29" CO_abs="14406.586423" CO2_abs="1811427.671191" HC_abs="109.044500" PMx_abs="32.338600" NOx_abs="681.423825" fuel_abs="778.649538" electricity_abs="0"
            CO_normed="824.810207" CO2_normed="103708.400301" HC_normed="6.243048" PMx_normed="1.851459" NOx_normed="39.013081" fuel_normed="44.579477" electricity_normed="0"
            traveltime="0.64" CO_perVeh="14.175621" CO2_perVeh="1782.386965" HC_perVeh="0.107296" PMx_perVeh="0.031820" NOx_perVeh="0.670499" fuel_perVeh="0.766166" electricity_perVeh="0"/>
        <edge id=":1105984395_0" sampledSeconds="9.02" CO_abs="225.816389" CO2_abs="17255.225901" HC_abs="1.423621" PMx_abs="0.244416" NOx_abs="6.661960" fuel_abs="7.417342" electricity_abs="0"
            CO_normed="184.512288" CO2_normed="14099.070615" HC_normed="1.163226" PMx_normed="0.199710" NOx_normed="5.443420" fuel_normed="6.060635" electricity_normed="0"
            traveltime="0.09" CO_perVeh="2.290025" CO2_perVeh="174.986859" HC_perVeh="0.014437" PMx_perVeh="0.002479" NOx_perVeh="0.067560" fuel_perVeh="0.075220" electricity_perVeh="0"/>
        <edge id=":1105984398_0" sampledSeconds="23.08" CO_abs="1531.995882" CO2_abs="106803.973889" HC_abs="9.490256" PMx_abs="1.892912" NOx_abs="43.829343" fuel_abs="45.910343" electricity_abs="0"
            CO_normed="95.255259" CO2_normed="6640.775136" HC_normed="0.590078" PMx_normed="0.117696" NOx_normed="2.725187" fuel_normed="2.854578" electricity_normed="0"
            traveltime="1.11" CO_perVeh="73.666729" CO2_perVeh="5135.718362" HC_perVeh="0.456343" PMx_perVeh="0.091022" NOx_perVeh="2.107554" fuel_perVeh="2.207620" electricity_perVeh="0"/>
        <edge id=":1105984398_1" sampledSeconds="451.57" CO_abs="8122.281935" CO2_abs="944354.271649" HC_abs="58.687784" PMx_abs="13.545006" NOx_abs="357.417765" fuel_abs="405.937660" electricity_abs="0"
            CO_normed="488.847373" CO2_normed="56836.872763" HC_normed="3.532181" PMx_normed="0.815219" NOx_normed="21.511533" fuel_normed="24.431750" electricity_normed="0"
            traveltime="0.96" CO_perVeh="17.186159" CO2_perVeh="1998.185146" HC_perVeh="0.124179" PMx_perVeh="0.028660" NOx_perVeh="0.756270" fuel_perVeh="0.858935" electricity_perVeh="0"/>
        <edge id=":1106006327_0" sampledSeconds="526.26" CO_abs="71133.691126" CO2_abs="2312400.172929" HC_abs="378.341013" PMx_abs="48.268154" NOx_abs="1012.389648" fuel_abs="994.019047" electricity_abs="0"
            CO_normed="6035.305892" CO2_normed="196194.548138" HC_normed="32.100172" PMx_normed="4.095290" NOx_normed="85.895742" fuel_normed="84.337097" electricity_normed="0"
            traveltime="2.09" CO_perVeh="282.362549" CO2_perVeh="9178.986726" HC_perVeh="1.501811" PMx_perVeh="0.191599" NOx_perVeh="4.018643" fuel_perVeh="3.945722" electricity_perVeh="0"/>
        <edge id=":1106006327_1" sampledSeconds="161.85" CO_abs="21837.806040" CO2_abs="727563.088037" HC_abs="116.578088" PMx_abs="15.162533" NOx_abs="318.315343" fuel_abs="312.753217" electricity_abs="0"
            CO_normed="1615.745519" CO2_normed="53831.268444" HC_normed="8.625433" PMx_normed="1.121852" NOx_normed="23.551660" fuel_normed="23.140127" electricity_normed="0"
            traveltime="2.30" CO_perVeh="310.015802" CO2_perVeh="10328.695750" HC_perVeh="1.654976" PMx_perVeh="0.215252" NOx_perVeh="4.518897" fuel_perVeh="4.439935" electricity_perVeh="0"/>
        <edge id=":1106006327_2" sampledSeconds="0.00" CO_abs="0" CO2_abs="0" HC_abs="0" PMx_abs="0" NOx_abs="0" fuel_abs="0" electricity_abs="0"
            CO_normed="0" CO2_normed="0" HC_normed="0" PMx_normed="0" NOx_normed="0" fuel_normed="0" electricity_normed="0"/>
        <edge id=":1106006327_3" sampledSeconds="0.00" CO_abs="0" CO2_abs="0" HC_abs="0" PMx_abs="0" NOx_abs="0" fuel_abs="0" electricity_abs="0"
            CO_normed="0" CO2_normed="0" HC_normed="0" PMx_normed="0" NOx_normed="0" fuel_normed="0" electricity_normed="0"/>
        <edge id=":1107381198_0" sampledSeconds="0.00" CO_abs="0" CO2_abs="0" HC_abs="0" PMx_abs="0" NOx_abs="0" fuel_abs="0" electricity_abs="0"
            CO_normed="0" CO2_normed="0" HC_normed="0" PMx_normed="0" NOx_normed="0" fuel_normed="0" electricity_normed="0"/>
        <edge id=":1107381198_1" sampledSeconds="35.78" CO_abs="1925.081890" CO2_abs="78837.147967" HC_abs="10.580133" PMx_abs="1.349166" NOx_abs="32.577080" fuel_abs="33.889329" electricity_abs="0"
            CO_normed="157.811096" CO2_normed="6462.777924" HC_normed="0.867320" PMx_normed="0.110600" NOx_normed="2.670549" fuel_normed="2.778122" electricity_normed="0"
            traveltime="1.47" CO_perVeh="79.260960" CO2_perVeh="3245.943996" HC_perVeh="0.435613" PMx_perVeh="0.055549" NOx_perVeh="1.341289" fuel_perVeh="1.395318" electricity_perVeh="0"/>
        <edge id=":1110338277_0" sampledSeconds="97.24" CO_abs="1501.592629" CO2_abs="181115.306229" HC_abs="10.997977" PMx_abs="2.487921" NOx_abs="67.834385" fuel_abs="77.853876" electricity_abs="0"
            CO_normed="4031.361649" CO2_normed="486244.595072" HC_normed="29.526532" PMx_normed="6.679382" NOx_normed="182.116595" fuel_normed="209.016163" electricity_normed="0"
            traveltime="0.02" CO_perVeh="0.338412" CO2_perVeh="40.817674" HC_perVeh="0.002479" PMx_perVeh="0.000561" NOx_perVeh="0.015288" fuel_perVeh="0.017546" electricity_perVeh="0"/>
        <edge id=":1110338293_0" sampledSeconds="124.08" CO_abs="6425.050618" CO2_abs="435981.644525" HC_abs="39.507225" PMx_abs="7.701860" NOx_abs="178.934745" fuel_abs="187.409550" electricity_abs="0"
            CO_normed="16099.521281" CO2_normed="1092457.660117" HC_normed="98.994925" PMx_normed="19.298878" NOx_normed="448.364364" fuel_normed="469.600042" electricity_normed="0"
            traveltime="0.03" CO_perVeh="1.473698" CO2_perVeh="100.000027" HC_perVeh="0.009062" PMx_perVeh="0.001767" NOx_perVeh="0.041042" fuel_perVeh="0.042986" electricity_perVeh="0"/>
        <edge id=":1110338295_0" sampledSeconds="0.00" CO_abs="0" CO2_abs="0" HC_abs="0" PMx_abs="0" NOx_abs="0" fuel_abs="0" electricity_abs="0"
            CO_normed="0" CO2_normed="0" HC_normed="0" PMx_normed="0" NOx_normed="0" fuel_normed="0" electricity_normed="0"/>
        <edge id=":1110673403_0" sampledSeconds="143.55" CO_abs="2097.514765" CO2_abs="266381.517480" HC_abs="15.618022" PMx_abs="3.627266" NOx_abs="99.294695" fuel_abs="114.506216" electricity_abs="0"
            CO_normed="5255.831525" CO2_normed="667483.443257" HC_normed="39.134738" PMx_normed="9.088994" NOx_normed="248.806920" fuel_normed="286.923073" electricity_normed="0"
            traveltime="0.02" CO_perVeh="0.336770" CO2_perVeh="42.769310" HC_perVeh="0.002508" PMx_perVeh="0.000582" NOx_perVeh="0.015942" fuel_perVeh="0.018385" electricity_perVeh="0"/>
        <edge id=":1110673412_0" sampledSeconds="252.32" CO_abs="44779.363303" CO2_abs="3059227.081959" HC_abs="278.749077" PMx_abs="67.198969" NOx_abs="1314.422486" fuel_abs="1315.011049" electricity_abs="0"
            CO_normed="116074.702724" CO2_normed="7929967.018566" HC_normed="722.558650" PMx_normed="174.189620" NOx_normed="3407.176610" fuel_normed="3408.702254" electricity_normed="0"
            traveltime="0.02" CO_perVeh="2.754656" CO2_perVeh="188.191997" HC_perVeh="0.017148" PMx_perVeh="0.004134" NOx_perVeh="0.080858" fuel_perVeh="0.080894" electricity_perVeh="0"/>
        <edge id=":1110673414_0" sampledSeconds="0.00" CO_abs="0" CO2_abs="0" HC_abs="0" PMx_abs="0" NOx_abs="0" fuel_abs="0" electricity_abs="0"
            CO_normed="0" CO2_normed="0" HC_normed="0" PMx_normed="0" NOx_normed="0" fuel_normed="0" electricity_normed="0"/>
        <edge id=":1110673414_1" sampledSeconds="132.20" CO_abs="9376.905255" CO2_abs="359421.818315" HC_abs="51.045958" PMx_abs="6.651661" NOx_abs="151.846720" fuel_abs="154.502592" electricity_abs="0"
            CO_normed="780.601607" CO2_normed="29920.879173" HC_normed="4.249436" PMx_normed="0.553733" NOx_normed="12.640822" fuel_normed="12.861916" electricity_normed="0"
            traveltime="1.58" CO_perVeh="111.721143" CO2_perVeh="4282.331468" HC_perVeh="0.608187" PMx_perVeh="0.079251" NOx_perVeh="1.809178" fuel_perVeh="1.840821" electricity_perVeh="0"/>
        <edge id=":1110673417_0" sampledSeconds="29.73" CO_abs="377.579283" CO2_abs="54391.958706" HC_abs="2.938729" PMx_abs="0.640757" NOx_abs="19.613921" fuel_abs="23.380927" electricity_abs="0"
            CO_normed="1013.696132" CO2_normed="146027.392643" HC_normed="7.889677" PMx_normed="1.720255" NOx_normed="52.657962" fuel_normed="62.771334" electricity_normed="0"
            traveltime="0.02" CO_perVeh="0.280244" CO2_perVeh="40.370440" HC_perVeh="0.002181" PMx_perVeh="0.000476" NOx_perVeh="0.014558" fuel_perVeh="0.017354" electricity_perVeh="0"/>
        <edge id=":1110673446_0" sampledSeconds="333.73" CO_abs="3396.836822" CO2_abs="276652.221951" HC_abs="22.015569" PMx_abs="5.076504" NOx_abs="113.118197" fuel_abs="118.920053" electricity_abs="0"
            CO_normed="8511.597801" CO2_normed="693219.182171" HC_normed="55.165344" PMx_normed="12.720410" NOx_normed="283.445055" fuel_normed="297.983010" electricity_normed="0"
            traveltime="0.02" CO_perVeh="0.231937" CO2_perVeh="18.889864" HC_perVeh="0.001503" PMx_perVeh="0.000347" NOx_perVeh="0.007724" fuel_perVeh="0.008120" electricity_perVeh="0"/>
        <edge id=":1110673451_0" sampledSeconds="37.91" CO_abs="188.612940" CO2_abs="15399.001983" HC_abs="1.208608" PMx_abs="0.198920" NOx_abs="5.805759" fuel_abs="6.619445" electricity_abs="0"
            CO_normed="525.128252" CO2_normed="42873.256723" HC_normed="3.364955" PMx_normed="0.553825" NOx_normed="16.164152" fuel_normed="18.429581" electricity_normed="0"
            traveltime="0.03" CO_perVeh="0.135260" CO2_perVeh="11.043109" HC_perVeh="0.000867" PMx_perVeh="0.000143" NOx_perVeh="0.004163" fuel_perVeh="0.004747" electricity_perVeh="0"/>
        <edge id=":1110673464_0" sampledSeconds="327.23" CO_abs="474.594139" CO2_abs="35067.290343" HC_abs="2.956869" PMx_abs="0.460680" NOx_abs="13.322832" fuel_abs="15.074114" electricity_abs="0"
            CO_normed="25.266515" CO2_normed="1866.917713" HC_normed="0.157418" PMx_normed="0.024526" NOx_normed="0.709283" fuel_normed="0.802518" electricity_normed="0"
            traveltime="1.18" CO_perVeh="1.715596" CO2_perVeh="126.763655" HC_perVeh="0.010689" PMx_perVeh="0.001665" NOx_perVeh="0.048160" fuel_perVeh="0.054491" electricity_perVeh="0"/>
        <edge id=":1110673464_1" sampledSeconds="710.11" CO_abs="15426.121534" CO2_abs="2011351.751152" HC_abs="118.358237" PMx_abs="35.486162" NOx_abs="752.751756" fuel_abs="864.587977" electricity_abs="0"
            CO_normed="804.730444" CO2_normed="104925.660285" HC_normed="6.174363" PMx_normed="1.851197" NOx_normed="39.268604" fuel_normed="45.102735" electricity_normed="0"
            traveltime="0.70" CO_perVeh="15.235135" CO2_perVeh="1986.449816" HC_perVeh="0.116893" PMx_perVeh="0.035047" NOx_perVeh="0.743432" fuel_perVeh="0.853884" electricity_perVeh="0"/>
        <edge id=":1110673479_0" sampledSeconds="133.41" CO_abs="6726.557915" CO2_abs="461628.581155" HC_abs="41.498540" PMx_abs="8.214582" NOx_abs="189.743879" fuel_abs="198.433907" electricity_abs="0"
            CO_normed="16855.020877" CO2_normed="1156722.274767" HC_normed="103.984649" PMx_normed="20.583627" NOx_normed="475.449269" fuel_normed="497.224240" electricity_normed="0"
            traveltime="0.03" CO_perVeh="1.417019" CO2_perVeh="97.246838" HC_perVeh="0.008742" PMx_perVeh="0.001730" NOx_perVeh="0.039972" fuel_perVeh="0.041802" electricity_perVeh="0"/>
        <edge id=":1110673511_0" sampledSeconds="11.88" CO_abs="136.397254" CO2_abs="17259.428414" HC_abs="1.018168" PMx_abs="0.228799" NOx_abs="6.412560" fuel_abs="7.419112" electricity_abs="0"
            CO_normed="341.776372" CO2_normed="43247.680301" HC_normed="2.551266" PMx_normed="0.573312" NOx_normed="16.068223" fuel_normed="18.590382" electricity_normed="0"
            traveltime="0.02" CO_perVeh="0.270094" CO2_perVeh="34.177086" HC_perVeh="0.002016" PMx_perVeh="0.000453" NOx_perVeh="0.012698" fuel_perVeh="0.014691" electricity_perVeh="0"/>
        <edge id=":1110673517_0" sampledSeconds="17.34" CO_abs="626.898877" CO2_abs="47266.406516" HC_abs="3.958047" PMx_abs="0.775582" NOx_abs="18.917850" fuel_abs="20.317814" electricity_abs="0"
            CO_normed="1570.847051" CO2_normed="118437.435414" HC_normed="9.917845" PMx_normed="1.943407" NOx_normed="47.403257" fuel_normed="50.911207" electricity_normed="0"
            traveltime="0.03" CO_perVeh="1.006527" CO2_perVeh="75.889333" HC_perVeh="0.006355" PMx_perVeh="0.001245" NOx_perVeh="0.030374" fuel_perVeh="0.032622" electricity_perVeh="0"/>
        <edge id=":1110673534_0" sampledSeconds="474.37" CO_abs="2808.360292" CO2_abs="254968.485152" HC_abs="18.574324" PMx_abs="3.277367" NOx_abs="95.596774" fuel_abs="109.601040" electricity_abs="0"
            CO_normed="136.376497" CO2_normed="12381.498548" HC_normed="0.901986" PMx_normed="0.159152" NOx_normed="4.642265" fuel_normed="5.322325" electricity_normed="0"
            traveltime="1.43" CO_perVeh="8.460470" CO2_perVeh="768.118383" HC_perVeh="0.055957" PMx_perVeh="0.009873" NOx_perVeh="0.287995" fuel_perVeh="0.330184" electricity_perVeh="0"/>
        <edge id=":1110673534_1" sampledSeconds="184.16" CO_abs="2780.746971" CO2_abs="362477.159828" HC_abs="20.978424" PMx_abs="4.870517" NOx_abs="134.545643" fuel_abs="155.813759" electricity_abs="0"
            CO_normed="131.303431" CO2_normed="17115.722895" HC_normed="0.990575" PMx_normed="0.229980" NOx_normed="6.353079" fuel_normed="7.357333" electricity_normed="0"
            traveltime="1.22" CO_perVeh="18.463162" CO2_perVeh="2406.718209" HC_perVeh="0.139289" PMx_perVeh="0.032338" NOx_perVeh="0.893335" fuel_perVeh="1.034547" electricity_perVeh="0"/>
        <edge id=":1110673549_0" sampledSeconds="59.61" CO_abs="36.041225" CO2_abs="6525.739427" HC_abs="0.299088" PMx_abs="0.061196" NOx_abs="2.207436" fuel_abs="2.805173" electricity_abs="0"
            CO_normed="1.695432" CO2_normed="306.980378" HC_normed="0.014070" PMx_normed="0.002879" NOx_normed="0.103841" fuel_normed="0.131959" electricity_normed="0"
            traveltime="1.24" CO_perVeh="0.750888" CO2_perVeh="135.958222" HC_perVeh="0.006231" PMx_perVeh="0.001275" NOx_perVeh="0.045990" fuel_perVeh="0.058443" electricity_perVeh="0"/>
        <edge id=":1110673549_1" sampledSeconds="638.22" CO_abs="14687.052011" CO2_abs="1898604.371543" HC_abs="112.174924" PMx_abs="33.518155" NOx_abs="711.522170" fuel_abs="816.123012" electricity_abs="0"
            CO_normed="668.316608" CO2_normed="86393.704620" HC_normed="5.104385" PMx_normed="1.525203" NOx_normed="32.376959" fuel_normed="37.136694" electricity_normed="0"
            traveltime="0.80" CO_perVeh="18.497055" CO2_perVeh="2391.125887" HC_perVeh="0.141274" PMx_perVeh="0.042213" NOx_perVeh="0.896100" fuel_perVeh="1.027835" electricity_perVeh="0"/>
        <edge id=":1110673556_0" sampledSeconds="423.31" CO_abs="51938.173910" CO2_abs="2580350.706972" HC_abs="297.832926" PMx_abs="52.066734" NOx_abs="1111.622668" fuel_abs="1109.181444" electricity_abs="0"
            CO_normed="1811.744975" CO2_normed="90009.661014" HC_normed="10.389224" PMx_normed="1.816230" NOx_normed="38.776427" fuel_normed="38.691270" electricity_normed="0"
            traveltime="2.63" CO_perVeh="322.406858" CO2_perVeh="16017.558974" HC_perVeh="1.848802" PMx_perVeh="0.323205" NOx_perVeh="6.900411" fuel_perVeh="6.885258" electricity_perVeh="0"/>
        <edge id=":1110673556_2" sampledSeconds="251.23" CO_abs="24622.196796" CO2_abs="1057808.358447" HC_abs="136.923048" PMx_abs="20.246290" NOx_abs="450.159819" fuel_abs="454.710542" electricity_abs="0"
            CO_normed="898.062310" CO2_normed="38582.171423" HC_normed="4.994088" PMx_normed="0.738457" NOx_normed="16.418989" fuel_normed="16.584970" electricity_normed="0"
            traveltime="3.05" CO_perVeh="298.662529" CO2_perVeh="12831.012682" HC_perVeh="1.660850" PMx_perVeh="0.245584" NOx_perVeh="5.460352" fuel_perVeh="5.515552" electricity_perVeh="0"/>
        <edge id=":1110673556_3" sampledSeconds="422.80" CO_abs="35090.706500" CO2_abs="1248654.741468" HC_abs="188.864728" PMx_abs="23.933971" NOx_abs="533.219640" fuel_abs="536.752891" electricity_abs="0"
            CO_normed="2911.532071" CO2_normed="103602.882002" HC_normed="15.670409" PMx_normed="1.985840" NOx_normed="44.242087" fuel_normed="44.535246" electricity_normed="0"
            traveltime="1.74" CO_perVeh="144.786979" CO2_perVeh="5152.046397" HC_perVeh="0.779271" PMx_perVeh="0.098753" NOx_perVeh="2.200106" fuel_perVeh="2.214684" electricity_perVeh="0"/>
        <edge id=":1110673556_4" sampledSeconds="192.42" CO_abs="20872.205396" CO2_abs="833984.899538" HC_abs="114.605842" PMx_abs="16.268575" NOx_abs="357.373165" fuel_abs="358.498301" electricity_abs="0"
            CO_normed="1057.998014" CO2_normed="42274.132073" HC_normed="5.809293" PMx_normed="0.824643" NOx_normed="18.115005" fuel_normed="18.172037" electricity_normed="0"
            traveltime="2.43" CO_perVeh="263.478725" CO2_perVeh="10527.746051" HC_perVeh="1.446718" PMx_perVeh="0.205365" NOx_perVeh="4.511273" fuel_perVeh="4.525477" electricity_perVeh="0"/>
        <edge id=":1110673556_5" sampledSeconds="25.09" CO_abs="2034.724354" CO2_abs="81809.258173" HC_abs="11.172145" PMx_abs="1.531521" NOx_abs="34.646731" fuel_abs="35.166767" electricity_abs="0"
            CO_normed="143.754556" CO2_normed="5779.875589" HC_normed="0.789319" PMx_normed="0.108203" NOx_normed="2.447813" fuel_normed="2.484554" electricity_normed="0"
            traveltime="1.73" CO_perVeh="140.672301" CO2_perVeh="5655.948713" HC_perVeh="0.772395" PMx_perVeh="0.105883" NOx_perVeh="2.395330" fuel_perVeh="2.431283" electricity_perVeh="0"/>
        <edge id=":1110673556_6" sampledSeconds="319.21" CO_abs="38844.865471" CO2_abs="1948203.037597" HC_abs="223.215843" PMx_abs="39.371717" NOx_abs="839.295191" fuel_abs="837.448065" electricity_abs="0"
            CO_normed="1389.180165" CO2_normed="69672.142882" HC_normed="7.982703" PMx_normed="1.408022" NOx_normed="30.015093" fuel_normed="29.949035" electricity_normed="0"
            traveltime="2.53" CO_perVeh="307.620780" CO2_perVeh="15428.235623" HC_perVeh="1.767694" PMx_perVeh="0.311793" NOx_perVeh="6.646558" fuel_perVeh="6.631930" electricity_perVeh="0"/>
        <edge id=":1110673561_0" sampledSeconds="100.73" CO_abs="9192.606431" CO2_abs="666262.411861" HC_abs="57.873974" PMx_abs="13.429429" NOx_abs="281.233309" fuel_abs="286.394466" electricity_abs="0"
            CO_normed="413.047873" CO2_normed="29936.914389" HC_normed="2.600429" PMx_normed="0.603419" NOx_normed="12.636549" fuel_normed="12.868453" electricity_normed="0"
            traveltime="1.19" CO_perVeh="108.481678" CO2_perVeh="7862.543134" HC_perVeh="0.682969" PMx_perVeh="0.158480" NOx_perVeh="3.318826" fuel_perVeh="3.379733" electricity_perVeh="0"/>
        <edge id=":1110673561_1" sampledSeconds="1317.76" CO_abs="120647.417460" CO2_abs="8362987.802212" HC_abs="751.657057" PMx_abs="174.768912" NOx_abs="3575.201106" fuel_abs="3594.844554" electricity_abs="0"
            CO_normed="5285.163295" CO2_normed="366354.764147" HC_normed="32.927603" PMx_normed="7.656047" NOx_normed="156.617705" fuel_normed="157.478219" electricity_normed="0"
            traveltime="1.19" CO_perVeh="109.296541" CO2_perVeh="7576.172419" HC_perVeh="0.680939" PMx_perVeh="0.158326" NOx_perVeh="3.238835" fuel_perVeh="3.256631" electricity_perVeh="0"/>
        <edge id=":1110673562_0" sampledSeconds="103.79" CO_abs="2152.055171" CO2_abs="170879.617273" HC_abs="13.693485" PMx_abs="2.287968" NOx_abs="65.001756" fuel_abs="73.454562" electricity_abs="0"
            CO_normed="5991.661922" CO2_normed="475755.877423" HC_normed="38.124827" PMx_normed="6.370064" NOx_normed="180.975169" fuel_normed="204.509118" electricity_normed="0"
            traveltime="0.03" CO_perVeh="0.548569" CO2_perVeh="43.557992" HC_perVeh="0.003491" PMx_perVeh="0.000583" NOx_perVeh="0.016569" fuel_perVeh="0.018724" electricity_perVeh="0"/>
        <edge id=":1110673564_0" sampledSeconds="28.77" CO_abs="346.624514" CO2_abs="43413.806538" HC_abs="2.560701" PMx_abs="0.565737" NOx_abs="16.071416" fuel_abs="18.661808" electricity_abs="0"
            CO_normed="2605.655149" CO2_normed="326351.437748" HC_normed="19.249367" PMx_normed="4.252772" NOx_normed="120.812481" fuel_normed="140.285045" electricity_normed="0"
            traveltime="7.910187e-03" CO_perVeh="0.095292" CO2_perVeh="11.935067" HC_perVeh="0.000704" PMx_perVeh="0.000156" NOx_perVeh="0.004418" fuel_perVeh="0.005130" electricity_perVeh="0"/>
        <edge id=":1110673588_0" sampledSeconds="11.80" CO_abs="133.185899" CO2_abs="16186.539174" HC_abs="0.981309" PMx_abs="0.230274" NOx_abs="6.109223" fuel_abs="6.957902" electricity_abs="0"
            CO_normed="400.475452" CO2_normed="48671.155588" HC_normed="2.950688" PMx_normed="0.692410" NOx_normed="18.369766" fuel_normed="20.921652" electricity_normed="0"
            traveltime="0.02" CO_perVeh="0.221976" CO2_perVeh="26.977565" HC_perVeh="0.001636" PMx_perVeh="0.000384" NOx_perVeh="0.010182" fuel_perVeh="0.011597" electricity_perVeh="0"/>
        <edge id=":1110673601_0" sampledSeconds="29.72" CO_abs="508.087248" CO2_abs="57221.941452" HC_abs="3.604659" PMx_abs="0.790263" NOx_abs="21.508613" fuel_abs="24.597326" electricity_abs="0"
            CO_normed="1364.073990" CO2_normed="153625.115016" HC_normed="9.677514" PMx_normed="2.121639" NOx_normed="57.744687" fuel_normed="66.037030" electricity_normed="0"
            traveltime="0.02" CO_perVeh="0.377109" CO2_perVeh="42.470891" HC_perVeh="0.002675" PMx_perVeh="0.000587" NOx_perVeh="0.015964" fuel_perVeh="0.018256" electricity_perVeh="0"/>
        <edge id=":1110673617_0" sampledSeconds="238.64" CO_abs="5856.367156" CO2_abs="729402.020158" HC_abs="44.089662" PMx_abs="13.042049" NOx_abs="274.810666" fuel_abs="313.536392" electricity_abs="0"
            CO_normed="14674.547061" CO2_normed="1827693.514700" HC_normed="110.477332" PMx_normed="32.680013" NOx_normed="688.604717" fuel_normed="785.641409" electricity_normed="0"
            traveltime="0.01" CO_perVeh="0.358680" CO2_perVeh="44.673084" HC_perVeh="0.002700" PMx_perVeh="0.000799" NOx_perVeh="0.016831" fuel_perVeh="0.019203" electricity_perVeh="0"/>
        <edge id=":1110673621_0" sampledSeconds="25.67" CO_abs="398.558695" CO2_abs="49455.751872" HC_abs="2.944153" PMx_abs="0.683804" NOx_abs="18.504532" fuel_abs="21.258941" electricity_abs="0"
            CO_normed="1198.422470" CO2_normed="148708.044885" HC_normed="8.852745" PMx_normed="2.056125" NOx_normed="55.641107" fuel_normed="63.923313" electricity_normed="0"
            traveltime="0.02" CO_perVeh="0.301941" CO2_perVeh="37.466758" HC_perVeh="0.002230" PMx_perVeh="0.000518" NOx_perVeh="0.014019" fuel_perVeh="0.016105" electricity_perVeh="0"/>
        <edge id=":1110673630_0" sampledSeconds="54.09" CO_abs="243.797487" CO2_abs="23091.248806" HC_abs="1.631050" PMx_abs="0.270675" NOx_abs="8.489213" fuel_abs="9.926061" electricity_abs="0"
            CO_normed="13.071905" CO2_normed="1238.103841" HC_normed="0.087453" PMx_normed="0.014513" NOx_normed="0.455174" fuel_normed="0.532214" electricity_normed="0"
            traveltime="1.26" CO_perVeh="5.690665" CO2_perVeh="538.990590" HC_perVeh="0.038072" PMx_perVeh="0.006318" NOx_perVeh="0.198153" fuel_perVeh="0.231692" electricity_perVeh="0"/>
        <edge id=":1110673630_1" sampledSeconds="7.43" CO_abs="49.821793" CO2_abs="4248.852355" HC_abs="0.321768" PMx_abs="0.046250" NOx_abs="1.546219" fuel_abs="1.826431" electricity_abs="0"
            CO_normed="3.256711" CO2_normed="277.735544" HC_normed="0.021033" PMx_normed="0.003023" NOx_normed="0.101072" fuel_normed="0.119389" electricity_normed="0"
            traveltime="1.05" CO_perVeh="7.051700" CO2_perVeh="601.376026" HC_perVeh="0.045543" PMx_perVeh="0.006546" NOx_perVeh="0.218849" fuel_perVeh="0.258510" electricity_perVeh="0"/>
        <edge id=":1110673650_0" sampledSeconds="143.23" CO_abs="1928.797304" CO2_abs="259187.462468" HC_abs="14.669109" PMx_abs="3.394899" NOx_abs="95.613199" fuel_abs="111.413918" electricity_abs="0"
            CO_normed="4833.069043" CO2_normed="649456.995118" HC_normed="36.757008" PMx_normed="8.506743" NOx_normed="239.582040" fuel_normed="279.174571" electricity_normed="0"
            traveltime="0.02" CO_perVeh="0.310096" CO2_perVeh="41.669965" HC_perVeh="0.002358" PMx_perVeh="0.000546" NOx_perVeh="0.015372" fuel_perVeh="0.017912" electricity_perVeh="0"/>
        <edge id=":1110673655_0" sampledSeconds="45.22" CO_abs="808.561972" CO2_abs="86969.547991" HC_abs="5.690125" PMx_abs="1.224512" NOx_abs="32.943584" fuel_abs="37.384575" electricity_abs="0"
            CO_normed="2026.047956" CO2_normed="217923.277489" HC_normed="14.257986" PMx_normed="3.068311" NOx_normed="82.548133" fuel_normed="93.676111" electricity_normed="0"
            traveltime="0.02" CO_perVeh="0.432733" CO2_perVeh="46.545115" HC_perVeh="0.003045" PMx_perVeh="0.000655" NOx_perVeh="0.017631" fuel_perVeh="0.020008" electricity_perVeh="0"/>
        <edge id=":1110673663_0" sampledSeconds="108.27" CO_abs="1595.940056" CO2_abs="205795.038678" HC_abs="11.980560" PMx_abs="2.757659" NOx_abs="76.396942" fuel_abs="88.462692" electricity_abs="0"
            CO_normed="73.242025" CO2_normed="9444.493387" HC_normed="0.549820" PMx_normed="0.126556" NOx_normed="3.506063" fuel_normed="4.059793" electricity_normed="0"
            traveltime="1.27" CO_perVeh="18.745069" CO2_perVeh="2417.159814" HC_perVeh="0.140717" PMx_perVeh="0.032390" NOx_perVeh="0.897318" fuel_perVeh="1.039036" electricity_perVeh="0"/>
        <edge id=":1110673663_1" sampledSeconds="153.56" CO_abs="2439.980963" CO2_abs="306591.726273" HC_abs="18.108605" PMx_abs="4.226801" NOx_abs="114.500727" fuel_abs="131.790851" electricity_abs="0"
            CO_normed="112.114246" CO2_normed="14087.528094" HC_normed="0.832069" PMx_normed="0.194217" NOx_normed="5.261173" fuel_normed="6.055634" electricity_normed="0"
            traveltime="1.24" CO_perVeh="19.718542" CO2_perVeh="2477.700447" HC_perVeh="0.146343" PMx_perVeh="0.034159" NOx_perVeh="0.925330" fuel_perVeh="1.065059" electricity_perVeh="0"/>
        <edge id=":1110673666_0" sampledSeconds="192.01" CO_abs="4226.500563" CO2_abs="330921.079578" HC_abs="26.817201" PMx_abs="4.604464" NOx_abs="127.074718" fuel_abs="142.249997" electricity_abs="0"