<?xml version="1.0" encoding="UTF-8"?>

<!-- generated on Mon Nov  9 22:09:32 2020 by Eclipse SUMO sumo Version 1.7.0
<configuration xmlns:xsi="http://www.w3.org/2001/XMLSchema-instance" xsi:noNamespaceSchemaLocation="http://sumo.dlr.de/xsd/sumoConfiguration.xsd">

    <input>
        <net-file value="../dataSets/Porto/6AM7AM_Routing_SaoBento/Porto.net.xml"/>
        <route-files value="../results/Porto/6AM7AM_Routing_SaoBento/cost_hc-ttime/solution1/Porto.rou.xml"/>
        <additional-files value="moreOutputInfo.xml"/>
    </input>

    <output>
        <emission-output.precision value="6"/>
        <tripinfo-output value="../results/Porto/6AM7AM_Routing_SaoBento/cost_hc-ttime/solution1/Porto-tripinfo"/>
    </output>

    <processing>
        <collision.action value="warn"/>
        <time-to-teleport value="-1"/>
    </processing>

    <emissions>
        <device.emissions.probability value="1"/>
    </emissions>

    <gui_only>
        <quit-on-end value="true"/>
        <start value="true"/>
    </gui_only>

</configuration>
-->

<meandata xmlns:xsi="http://www.w3.org/2001/XMLSchema-instance" xsi:noNamespaceSchemaLocation="http://sumo.dlr.de/xsd/meandata_file.xsd">
    <interval begin="0.00" end="4788.00" id="emissions-detector">
        <edge id=":1092997347_0" sampledSeconds="266.02" CO_abs="34067.768174" CO2_abs="1353385.220273" HC_abs="187.116140" PMx_abs="27.649935" NOx_abs="587.700191" fuel_abs="581.766981" electricity_abs="0"
            CO_normed="58215.598384" CO2_normed="2312688.346331" HC_normed="319.747333" PMx_normed="47.248694" NOx_normed="1004.272370" fuel_normed="994.133597" electricity_normed="0"
            traveltime="0.07" CO_perVeh="9.589981" CO2_perVeh="380.974134" HC_perVeh="0.052673" PMx_perVeh="0.007783" NOx_perVeh="0.165436" fuel_perVeh="0.163766" electricity_perVeh="0"/>
        <edge id=":1103427051_0" sampledSeconds="10.91" CO_abs="872.472254" CO2_abs="49800.461545" HC_abs="5.154433" PMx_abs="0.970999" NOx_abs="21.203248" fuel_abs="21.407014" electricity_abs="0"
            CO_normed="2262.048883" CO2_normed="129117.089825" HC_normed="13.363839" PMx_normed="2.517497" NOx_normed="54.973420" fuel_normed="55.501721" electricity_normed="0"
            traveltime="0.03" CO_perVeh="2.390561" CO2_perVeh="136.452512" HC_perVeh="0.014123" PMx_perVeh="0.002661" NOx_perVeh="0.058097" fuel_perVeh="0.058655" electricity_perVeh="0"/>
        <edge id=":1105984386_0" sampledSeconds="22.84" CO_abs="499.598260" CO2_abs="38465.819110" HC_abs="3.151366" PMx_abs="0.519320" NOx_abs="14.692956" fuel_abs="16.534976" electricity_abs="0"
            CO_normed="38.685663" CO2_normed="2978.544645" HC_normed="0.244021" PMx_normed="0.040213" NOx_normed="1.137728" fuel_normed="1.280362" electricity_normed="0"
            traveltime="0.96" CO_perVeh="20.967752" CO2_perVeh="1614.380634" HC_perVeh="0.132260" PMx_perVeh="0.021795" NOx_perVeh="0.616652" fuel_perVeh="0.693960" electricity_perVeh="0"/>
        <edge id=":1105984390_0" sampledSeconds="23.13" CO_abs="19.383160" CO2_abs="1360.199256" HC_abs="0.119600" PMx_abs="0.020613" NOx_abs="0.536418" fuel_abs="0.584695" electricity_abs="0"
            CO_normed="1.160335" CO2_normed="81.425653" HC_normed="0.007160" PMx_normed="0.001234" NOx_normed="0.032112" fuel_normed="0.035002" electricity_normed="0"
            traveltime="1.05" CO_perVeh="0.879017" CO2_perVeh="61.684368" HC_perVeh="0.005424" PMx_perVeh="0.000935" NOx_perVeh="0.024326" fuel_perVeh="0.026516" electricity_perVeh="0"/>
        <edge id=":1105984390_1" sampledSeconds="645.42" CO_abs="15322.863335" CO2_abs="1918376.383022" HC_abs="115.764603" PMx_abs="34.353697" NOx_abs="721.443299" fuel_abs="824.621855" electricity_abs="0"
            CO_normed="877.452390" CO2_normed="109854.398927" HC_normed="6.629174" PMx_normed="1.967239" NOx_normed="41.312915" fuel_normed="47.221358" electricity_normed="0"
            traveltime="0.64" CO_perVeh="15.092962" CO2_perVeh="1889.593441" HC_perVeh="0.114028" PMx_perVeh="0.033838" NOx_perVeh="0.710619" fuel_perVeh="0.812249" electricity_perVeh="0"/>
        <edge id=":1105984395_0" sampledSeconds="8.93" CO_abs="223.797485" CO2_abs="17932.039501" HC_abs="1.429892" PMx_abs="0.251235" NOx_abs="6.894953" fuel_abs="7.708274" electricity_abs="0"
            CO_normed="182.900854" CO2_normed="14655.148333" HC_normed="1.168594" PMx_normed="0.205324" NOx_normed="5.634973" fuel_normed="6.299668" electricity_normed="0"
            traveltime="0.09" CO_perVeh="2.269551" CO2_perVeh="181.850489" HC_perVeh="0.014501" PMx_perVeh="0.002548" NOx_perVeh="0.069922" fuel_perVeh="0.078170" electricity_perVeh="0"/>
        <edge id=":1105984398_0" sampledSeconds="22.83" CO_abs="1431.522359" CO2_abs="98058.260780" HC_abs="8.835571" PMx_abs="1.789406" NOx_abs="40.603794" fuel_abs="42.150884" electricity_abs="0"
            CO_normed="89.026683" CO2_normed="6098.264320" HC_normed="0.549486" PMx_normed="0.111284" NOx_normed="2.525159" fuel_normed="2.621373" electricity_normed="0"
            traveltime="1.12" CO_perVeh="70.107792" CO2_perVeh="4802.333726" HC_perVeh="0.432716" PMx_perVeh="0.087635" NOx_perVeh="1.988542" fuel_perVeh="2.064310" electricity_perVeh="0"/>
        <edge id=":1105984398_1" sampledSeconds="453.20" CO_abs="7581.729709" CO2_abs="905287.065187" HC_abs="55.128048" PMx_abs="12.658951" NOx_abs="340.307035" fuel_abs="389.144650" electricity_abs="0"
            CO_normed="456.409020" CO2_normed="54496.954868" HC_normed="3.318628" PMx_normed="0.762050" NOx_normed="20.485985" fuel_normed="23.425938" electricity_normed="0"
            traveltime="0.96" CO_perVeh="15.984297" CO2_perVeh="1908.585242" HC_perVeh="0.116225" PMx_perVeh="0.026688" NOx_perVeh="0.717457" fuel_perVeh="0.820420" electricity_perVeh="0"/>
        <edge id=":1106006327_0" sampledSeconds="289.30" CO_abs="38936.562284" CO2_abs="1262267.401179" HC_abs="206.999346" PMx_abs="26.305078" NOx_abs="552.381667" fuel_abs="542.604265" electricity_abs="0"
            CO_normed="3304.245004" CO2_normed="107118.875166" HC_normed="17.566434" PMx_normed="2.232309" NOx_normed="46.876361" fuel_normed="46.046629" electricity_normed="0"
            traveltime="2.09" CO_perVeh="281.637637" CO2_perVeh="9130.287513" HC_perVeh="1.497277" PMx_perVeh="0.190271" NOx_perVeh="3.995511" fuel_perVeh="3.924789" electricity_perVeh="0"/>
        <edge id=":1106006327_1" sampledSeconds="164.04" CO_abs="22101.969148" CO2_abs="729425.933910" HC_abs="117.817995" PMx_abs="15.198952" NOx_abs="319.115434" fuel_abs="313.554169" electricity_abs="0"
            CO_normed="1635.632078" CO2_normed="53980.369273" HC_normed="8.718992" PMx_normed="1.124782" NOx_normed="23.615789" fuel_normed="23.204234" electricity_normed="0"
            traveltime="2.33" CO_perVeh="313.765938" CO2_perVeh="10355.141248" HC_perVeh="1.672578" PMx_perVeh="0.215769" NOx_perVeh="4.530255" fuel_perVeh="4.451306" electricity_perVeh="0"/>
        <edge id=":1106006327_2" sampledSeconds="0.00" CO_abs="0" CO2_abs="0" HC_abs="0" PMx_abs="0" NOx_abs="0" fuel_abs="0" electricity_abs="0"
            CO_normed="0" CO2_normed="0" HC_normed="0" PMx_normed="0" NOx_normed="0" fuel_normed="0" electricity_normed="0"/>
        <edge id=":1106006327_3" sampledSeconds="0.00" CO_abs="0" CO2_abs="0" HC_abs="0" PMx_abs="0" NOx_abs="0" fuel_abs="0" electricity_abs="0"
            CO_normed="0" CO2_normed="0" HC_normed="0" PMx_normed="0" NOx_normed="0" fuel_normed="0" electricity_normed="0"/>
        <edge id=":1107381198_0" sampledSeconds="0.00" CO_abs="0" CO2_abs="0" HC_abs="0" PMx_abs="0" NOx_abs="0" fuel_abs="0" electricity_abs="0"
            CO_normed="0" CO2_normed="0" HC_normed="0" PMx_normed="0" NOx_normed="0" fuel_normed="0" electricity_normed="0"/>
        <edge id=":1107381198_1" sampledSeconds="35.90" CO_abs="1521.259781" CO2_abs="62950.477663" HC_abs="8.377036" PMx_abs="1.080950" NOx_abs="26.028555" fuel_abs="27.060187" electricity_abs="0"
            CO_normed="124.733298" CO2_normed="5161.525214" HC_normed="0.686862" PMx_normed="0.088631" NOx_normed="2.134170" fuel_normed="2.218757" electricity_normed="0"
            traveltime="1.48" CO_perVeh="62.634484" CO2_perVeh="2591.845726" HC_perVeh="0.344906" PMx_perVeh="0.044506" NOx_perVeh="1.071668" fuel_perVeh="1.114143" electricity_perVeh="0"/>
        <edge id=":1110338277_0" sampledSeconds="96.43" CO_abs="1658.858984" CO2_abs="193368.514362" HC_abs="11.964424" PMx_abs="2.695936" NOx_abs="72.745000" fuel_abs="83.120990" electricity_abs="0"
            CO_normed="4454.508549" CO2_normed="519249.501510" HC_normed="32.127884" PMx_normed="7.239356" NOx_normed="195.341031" fuel_normed="223.203517" electricity_normed="0"
            traveltime="0.02" CO_perVeh="0.373854" CO2_perVeh="43.579160" HC_perVeh="0.002696" PMx_perVeh="0.000608" NOx_perVeh="0.016394" fuel_perVeh="0.018733" electricity_perVeh="0"/>
        <edge id=":1110338293_0" sampledSeconds="124.61" CO_abs="5772.496857" CO2_abs="399089.281148" HC_abs="35.633399" PMx_abs="6.842095" NOx_abs="162.330367" fuel_abs="171.551365" electricity_abs="0"
            CO_normed="14467.410669" CO2_normed="1000223.762277" HC_normed="89.306764" PMx_normed="17.148107" NOx_normed="406.843026" fuel_normed="429.953295" electricity_normed="0"
            traveltime="0.03" CO_perVeh="1.324031" CO2_perVeh="91.538657" HC_perVeh="0.008173" PMx_perVeh="0.001569" NOx_perVeh="0.037234" fuel_perVeh="0.039349" electricity_perVeh="0"/>
        <edge id=":1110338295_0" sampledSeconds="0.00" CO_abs="0" CO2_abs="0" HC_abs="0" PMx_abs="0" NOx_abs="0" fuel_abs="0" electricity_abs="0"
            CO_normed="0" CO2_normed="0" HC_normed="0" PMx_normed="0" NOx_normed="0" fuel_normed="0" electricity_normed="0"/>
        <edge id=":1110673403_0" sampledSeconds="143.75" CO_abs="2167.003776" CO2_abs="277724.442227" HC_abs="16.179665" PMx_abs="3.738551" NOx_abs="103.235872" fuel_abs="119.382112" electricity_abs="0"
            CO_normed="5431.087159" CO2_normed="696051.233652" HC_normed="40.550539" PMx_normed="9.369801" NOx_normed="258.736521" fuel_normed="299.203288" electricity_normed="0"
            traveltime="0.02" CO_perVeh="0.347927" CO2_perVeh="44.590491" HC_perVeh="0.002598" PMx_perVeh="0.000600" NOx_perVeh="0.016575" fuel_perVeh="0.019168" electricity_perVeh="0"/>
        <edge id=":1110673412_0" sampledSeconds="252.62" CO_abs="44890.249798" CO2_abs="3065637.703613" HC_abs="279.421596" PMx_abs="67.345137" NOx_abs="1317.285750" fuel_abs="1317.766661" electricity_abs="0"
            CO_normed="116386.439716" CO2_normed="7948243.981366" HC_normed="724.453190" PMx_normed="174.604970" NOx_normed="3415.311770" fuel_normed="3416.558622" electricity_normed="0"
            traveltime="0.02" CO_perVeh="2.760476" CO2_perVeh="188.517969" HC_perVeh="0.017183" PMx_perVeh="0.004141" NOx_perVeh="0.081005" fuel_perVeh="0.081035" electricity_perVeh="0"/>
        <edge id=":1110673414_0" sampledSeconds="0.00" CO_abs="0" CO2_abs="0" HC_abs="0" PMx_abs="0" NOx_abs="0" fuel_abs="0" electricity_abs="0"
            CO_normed="0" CO2_normed="0" HC_normed="0" PMx_normed="0" NOx_normed="0" fuel_normed="0" electricity_normed="0"/>
        <edge id=":1110673414_1" sampledSeconds="132.67" CO_abs="8582.953172" CO2_abs="330192.847608" HC_abs="46.763012" PMx_abs="6.163200" NOx_abs="139.828760" fuel_abs="141.937996" electricity_abs="0"
            CO_normed="714.656506" CO2_normed="27493.388588" HC_normed="3.893705" PMx_normed="0.513177" NOx_normed="11.642791" fuel_normed="11.818416" electricity_normed="0"
            traveltime="1.58" CO_perVeh="102.261601" CO2_perVeh="3934.082879" HC_perVeh="0.557158" PMx_perVeh="0.073431" NOx_perVeh="1.665990" fuel_perVeh="1.691120" electricity_perVeh="0"/>
        <edge id=":1110673417_0" sampledSeconds="29.70" CO_abs="581.813339" CO2_abs="66361.119599" HC_abs="4.164548" PMx_abs="0.922783" NOx_abs="24.995662" fuel_abs="28.525864" electricity_abs="0"
            CO_normed="1562.334422" CO2_normed="178198.495164" HC_normed="11.182997" PMx_normed="2.477934" NOx_normed="67.120466" fuel_normed="76.600064" electricity_normed="0"
            traveltime="0.02" CO_perVeh="0.431830" CO2_perVeh="49.254111" HC_perVeh="0.003091" PMx_perVeh="0.000685" NOx_perVeh="0.018552" fuel_perVeh="0.021172" electricity_perVeh="0"/>
        <edge id=":1110673446_0" sampledSeconds="334.16" CO_abs="3159.453116" CO2_abs="254022.785742" HC_abs="20.414591" PMx_abs="4.656571" NOx_abs="103.961972" fuel_abs="109.192733" electricity_abs="0"
            CO_normed="7918.428863" CO2_normed="636648.585821" HC_normed="51.164387" PMx_normed="11.670603" NOx_normed="260.556320" fuel_normed="273.665996" electricity_normed="0"
            traveltime="0.02" CO_perVeh="0.215505" CO2_perVeh="17.326815" HC_perVeh="0.001392" PMx_perVeh="0.000318" NOx_perVeh="0.007091" fuel_perVeh="0.007448" electricity_perVeh="0"/>
        <edge id=":1110673451_0" sampledSeconds="37.42" CO_abs="318.088850" CO2_abs="22602.912916" HC_abs="1.965108" PMx_abs="0.319871" NOx_abs="8.755724" fuel_abs="9.716119" electricity_abs="0"
            CO_normed="885.794626" CO2_normed="62943.227280" HC_normed="5.472313" PMx_normed="0.890758" NOx_normed="24.382411" fuel_normed="27.056861" electricity_normed="0"
            traveltime="0.03" CO_perVeh="0.228112" CO2_perVeh="16.209260" HC_perVeh="0.001409" PMx_perVeh="0.000229" NOx_perVeh="0.006279" fuel_perVeh="0.006968" electricity_perVeh="0"/>
        <edge id=":1110673464_0" sampledSeconds="325.56" CO_abs="649.192219" CO2_abs="50431.323991" HC_abs="4.108041" PMx_abs="0.693774" NOx_abs="19.333885" fuel_abs="21.678463" electricity_abs="0"
            CO_normed="34.569012" CO2_normed="2685.431212" HC_normed="0.218750" PMx_normed="0.036943" NOx_normed="1.029515" fuel_normed="1.154362" electricity_normed="0"
            traveltime="1.18" CO_perVeh="2.346744" CO2_perVeh="182.302583" HC_perVeh="0.014850" PMx_perVeh="0.002508" NOx_perVeh="0.069889" fuel_perVeh="0.078365" electricity_perVeh="0"/>
        <edge id=":1110673464_1" sampledSeconds="709.36" CO_abs="14908.934174" CO2_abs="2025105.797318" HC_abs="116.227868" PMx_abs="35.337910" NOx_abs="752.859675" fuel_abs="870.500522" electricity_abs="0"
            CO_normed="777.912904" CO2_normed="105665.228163" HC_normed="6.064495" PMx_normed="1.843849" NOx_normed="39.282436" fuel_normed="45.420657" electricity_normed="0"
            traveltime="0.70" CO_perVeh="14.710062" CO2_perVeh="1998.092630" HC_perVeh="0.114677" PMx_perVeh="0.034867" NOx_perVeh="0.742817" fuel_perVeh="0.858889" electricity_perVeh="0"/>
        <edge id=":1110673479_0" sampledSeconds="134.21" CO_abs="6574.716929" CO2_abs="457407.186690" HC_abs="40.683272" PMx_abs="7.991272" NOx_abs="186.961098" fuel_abs="196.619473" electricity_abs="0"
            CO_normed="16477.987290" CO2_normed="1146383.926542" HC_normed="101.963087" PMx_normed="20.028250" NOx_normed="468.574181" fuel_normed="492.780634" electricity_normed="0"
            traveltime="0.03" CO_perVeh="1.385026" CO2_perVeh="96.357107" HC_perVeh="0.008570" PMx_perVeh="0.001683" NOx_perVeh="0.039385" fuel_perVeh="0.041420" electricity_perVeh="0"/>
        <edge id=":1110673511_0" sampledSeconds="11.75" CO_abs="187.642999" CO2_abs="27273.999314" HC_abs="1.465461" PMx_abs="0.343928" NOx_abs="9.942585" fuel_abs="11.723968" electricity_abs="0"
            CO_normed="470.283206" CO2_normed="68355.888004" HC_normed="3.672835" PMx_normed="0.861976" NOx_normed="24.918761" fuel_normed="29.383379" electricity_normed="0"
            traveltime="0.02" CO_perVeh="0.371570" CO2_perVeh="54.007919" HC_perVeh="0.002902" PMx_perVeh="0.000681" NOx_perVeh="0.019688" fuel_perVeh="0.023216" electricity_perVeh="0"/>
        <edge id=":1110673517_0" sampledSeconds="16.93" CO_abs="885.493998" CO2_abs="64975.884850" HC_abs="5.553064" PMx_abs="1.093588" NOx_abs="26.215995" fuel_abs="27.930339" electricity_abs="0"
            CO_normed="2219.283203" CO2_normed="162846.829198" HC_normed="13.917453" PMx_normed="2.740823" NOx_normed="65.704249" fuel_normed="70.000850" electricity_normed="0"
            traveltime="0.03" CO_perVeh="1.421719" CO2_perVeh="104.323069" HC_perVeh="0.008916" PMx_perVeh="0.001756" NOx_perVeh="0.042092" fuel_perVeh="0.044844" electricity_perVeh="0"/>
        <edge id=":1110673534_0" sampledSeconds="474.28" CO_abs="2578.941154" CO2_abs="240424.340746" HC_abs="17.226883" PMx_abs="3.127782" NOx_abs="90.294338" fuel_abs="103.348974" electricity_abs="0"
            CO_normed="125.261854" CO2_normed="11677.660272" HC_normed="0.836728" PMx_normed="0.151920" NOx_normed="4.385690" fuel_normed="5.019767" electricity_normed="0"
            traveltime="1.43" CO_perVeh="7.769319" CO2_perVeh="724.302421" HC_perVeh="0.051898" PMx_perVeh="0.009423" NOx_perVeh="0.272021" fuel_perVeh="0.311349" electricity_perVeh="0"/>
        <edge id=":1110673534_1" sampledSeconds="184.18" CO_abs="3135.469479" CO2_abs="361993.480339" HC_abs="22.613609" PMx_abs="5.176028" NOx_abs="136.954683" fuel_abs="155.605614" electricity_abs="0"
            CO_normed="148.083910" CO2_normed="17096.454091" HC_normed="1.068010" PMx_normed="0.244457" NOx_normed="6.468181" fuel_normed="7.349039" electricity_normed="0"
            traveltime="1.22" CO_perVeh="20.818392" CO2_perVeh="2403.506751" HC_perVeh="0.150146" PMx_perVeh="0.034367" NOx_perVeh="0.909330" fuel_perVeh="1.033165" electricity_perVeh="0"/>
        <edge id=":1110673549_0" sampledSeconds="60.36" CO_abs="51.411304" CO2_abs="3154.891080" HC_abs="0.305265" PMx_abs="0.041261" NOx_abs="1.206024" fuel_abs="1.356176" electricity_abs="0"
            CO_normed="2.418968" CO2_normed="148.441712" HC_normed="0.014363" PMx_normed="0.001941" NOx_normed="0.056745" fuel_normed="0.063810" electricity_normed="0"
            traveltime="1.26" CO_perVeh="1.071111" CO2_perVeh="65.729468" HC_perVeh="0.006360" PMx_perVeh="0.000860" NOx_perVeh="0.025126" fuel_perVeh="0.028255" electricity_perVeh="0"/>
        <edge id=":1110673549_1" sampledSeconds="639.15" CO_abs="13600.566033" CO2_abs="1785552.530285" HC_abs="104.716020" PMx_abs="31.461821" NOx_abs="667.396257" fuel_abs="767.527292" electricity_abs="0"
            CO_normed="619.006628" CO2_normed="81266.386166" HC_normed="4.765972" PMx_normed="1.431931" NOx_normed="30.375405" fuel_normed="34.932699" electricity_normed="0"
            traveltime="0.80" CO_perVeh="17.120418" CO2_perVeh="2247.656914" HC_perVeh="0.131817" PMx_perVeh="0.039604" NOx_perVeh="0.840120" fuel_perVeh="0.966165" electricity_perVeh="0"/>
        <edge id=":1110673556_0" sampledSeconds="412.17" CO_abs="50683.312725" CO2_abs="2569131.376741" HC_abs="291.881082" PMx_abs="51.788413" NOx_abs="1105.965436" fuel_abs="1104.357987" electricity_abs="0"
            CO_normed="1768.341250" CO2_normed="89637.017488" HC_normed="10.183734" PMx_normed="1.806898" NOx_normed="38.587144" fuel_normed="38.531060" electricity_normed="0"
            traveltime="2.56" CO_perVeh="314.617292" CO2_perVeh="15947.914843" HC_perVeh="1.811855" PMx_perVeh="0.321477" NOx_perVeh="6.865294" fuel_perVeh="6.855316" electricity_perVeh="0"/>
        <edge id=":1110673556_2" sampledSeconds="247.26" CO_abs="24149.914422" CO2_abs="1048224.317066" HC_abs="134.579455" PMx_abs="20.175344" NOx_abs="446.651536" fuel_abs="450.590368" electricity_abs="0"
            CO_normed="881.020397" CO2_normed="38240.591182" HC_normed="4.909634" PMx_normed="0.736023" NOx_normed="16.294431" fuel_normed="16.438125" electricity_normed="0"
            traveltime="3.00" CO_perVeh="292.933834" CO2_perVeh="12714.760096" HC_perVeh="1.632423" PMx_perVeh="0.244723" NOx_perVeh="5.417798" fuel_perVeh="5.465575" electricity_perVeh="0"/>
        <edge id=":1110673556_3" sampledSeconds="380.53" CO_abs="32782.866043" CO2_abs="1163283.545345" HC_abs="176.373605" PMx_abs="22.340831" NOx_abs="497.026545" fuel_abs="500.054821" electricity_abs="0"
            CO_normed="2720.614952" CO2_normed="96539.655874" HC_normed="14.637057" PMx_normed="1.854042" NOx_normed="41.247701" fuel_normed="41.499014" electricity_normed="0"
            traveltime="1.76" CO_perVeh="151.458306" CO2_perVeh="5374.421944" HC_perVeh="0.814854" PMx_perVeh="0.103216" NOx_perVeh="2.296285" fuel_perVeh="2.310276" electricity_perVeh="0"/>
        <edge id=":1110673556_4" sampledSeconds="163.35" CO_abs="16923.153532" CO2_abs="684649.604899" HC_abs="93.108056" PMx_abs="13.255480" NOx_abs="292.717459" fuel_abs="294.304726" electricity_abs="0"
            CO_normed="858.002400" CO2_normed="34711.674917" HC_normed="4.720570" PMx_normed="0.672052" NOx_normed="14.840749" fuel_normed="14.921224" electricity_normed="0"
            traveltime="2.38" CO_perVeh="246.494035" CO2_perVeh="9972.257445" HC_perVeh="1.356165" PMx_perVeh="0.193073" NOx_perVeh="4.263573" fuel_perVeh="4.286693" electricity_perVeh="0"/>
        <edge id=":1110673556_5" sampledSeconds="24.31" CO_abs="1720.677406" CO2_abs="67854.559968" HC_abs="9.399259" PMx_abs="1.183953" NOx_abs="28.173384" fuel_abs="29.168320" electricity_abs="0"
            CO_normed="121.592332" CO2_normed="4794.968622" HC_normed="0.664202" PMx_normed="0.083665" NOx_normed="1.990883" fuel_normed="2.061191" electricity_normed="0"
            traveltime="1.68" CO_perVeh="118.960413" CO2_perVeh="4691.179455" HC_perVeh="0.649825" PMx_perVeh="0.081854" NOx_perVeh="1.947789" fuel_perVeh="2.016575" electricity_perVeh="0"/>
        <edge id=":1110673556_6" sampledSeconds="304.34" CO_abs="36473.798462" CO2_abs="1886197.036416" HC_abs="210.961600" PMx_abs="37.968231" NOx_abs="810.853002" fuel_abs="810.793710" electricity_abs="0"
            CO_normed="1304.657879" CO2_normed="67468.756444" HC_normed="7.546039" PMx_normed="1.358113" NOx_normed="29.003992" fuel_normed="29.001871" electricity_normed="0"
            traveltime="2.41" CO_perVeh="288.843143" CO2_perVeh="14937.163220" HC_perVeh="1.670646" PMx_perVeh="0.300678" NOx_perVeh="6.421304" fuel_perVeh="6.420834" electricity_perVeh="0"/>
        <edge id=":1110673561_0" sampledSeconds="100.47" CO_abs="10190.501984" CO2_abs="724129.800839" HC_abs="63.853431" PMx_abs="14.760468" NOx_abs="307.060105" fuel_abs="311.268788" electricity_abs="0"
            CO_normed="457.981564" CO2_normed="32543.843208" HC_normed="2.869701" PMx_normed="0.663365" NOx_normed="13.799896" fuel_normed="13.989043" electricity_normed="0"
            traveltime="1.19" CO_perVeh="120.257814" CO2_perVeh="8545.434490" HC_perVeh="0.753532" PMx_perVeh="0.174188" NOx_perVeh="3.623607" fuel_perVeh="3.673274" electricity_perVeh="0"/>
        <edge id=":1110673561_1" sampledSeconds="1315.73" CO_abs="121772.250742" CO2_abs="8410035.888895" HC_abs="758.027585" PMx_abs="176.152568" NOx_abs="3598.678706" fuel_abs="3615.067954" electricity_abs="0"
            CO_normed="5335.552638" CO2_normed="368492.730467" HC_normed="33.213610" PMx_normed="7.718272" NOx_normed="157.679106" fuel_normed="158.397215" electricity_normed="0"
            traveltime="1.19" CO_perVeh="110.420520" CO2_perVeh="7626.043929" HC_perVeh="0.687363" PMx_perVeh="0.159731" NOx_perVeh="3.263206" fuel_perVeh="3.278068" electricity_perVeh="0"/>
        <edge id=":1110673562_0" sampledSeconds="103.74" CO_abs="2168.888553" CO2_abs="179969.978608" HC_abs="13.973339" PMx_abs="2.365984" NOx_abs="68.078642" fuel_abs="77.362152" electricity_abs="0"
            CO_normed="6039.789901" CO2_normed="501169.531072" HC_normed="38.912112" PMx_normed="6.588649" NOx_normed="189.581291" fuel_normed="215.433450" electricity_normed="0"
            traveltime="0.03" CO_perVeh="0.552860" CO2_perVeh="45.875167" HC_perVeh="0.003562" PMx_perVeh="0.000603" NOx_perVeh="0.017354" fuel_perVeh="0.019720" electricity_perVeh="0"/>
        <edge id=":1110673564_0" sampledSeconds="28.63" CO_abs="616.706119" CO2_abs="61638.337340" HC_abs="4.226655" PMx_abs="0.936837" NOx_abs="23.829250" fuel_abs="26.495671" electricity_abs="0"
            CO_normed="4636.888115" CO2_normed="463446.145412" HC_normed="31.779359" PMx_normed="7.043885" NOx_normed="179.167296" fuel_normed="199.215570" electricity_normed="0"
            traveltime="7.871997e-03" CO_perVeh="0.169541" CO2_perVeh="16.945247" HC_perVeh="0.001162" PMx_perVeh="0.000258" NOx_perVeh="0.006551" fuel_perVeh="0.007284" electricity_perVeh="0"/>
        <edge id=":1110673588_0" sampledSeconds="11.73" CO_abs="194.175497" CO2_abs="23814.365658" HC_abs="1.432620" PMx_abs="0.333844" NOx_abs="8.955095" fuel_abs="10.236785" electricity_abs="0"
            CO_normed="583.986457" CO2_normed="71622.152355" HC_normed="4.308633" PMx_normed="1.004042" NOx_normed="26.932617" fuel_normed="30.787323" electricity_normed="0"
            traveltime="0.02" CO_perVeh="0.323626" CO2_perVeh="39.690609" HC_perVeh="0.002388" PMx_perVeh="0.000556" NOx_perVeh="0.014925" fuel_perVeh="0.017061" electricity_perVeh="0"/>
        <edge id=":1110673601_0" sampledSeconds="29.84" CO_abs="441.321349" CO2_abs="57146.031154" HC_abs="3.312912" PMx_abs="0.761868" NOx_abs="21.167989" fuel_abs="24.564698" electricity_abs="0"
            CO_normed="1185.073440" CO2_normed="153453.359704" HC_normed="8.896111" PMx_normed="2.045832" NOx_normed="56.842076" fuel_normed="65.963206" electricity_normed="0"
            traveltime="0.02" CO_perVeh="0.327555" CO2_perVeh="42.414549" HC_perVeh="0.002459" PMx_perVeh="0.000565" NOx_perVeh="0.015711" fuel_perVeh="0.018232" electricity_perVeh="0"/>
        <edge id=":1110673617_0" sampledSeconds="238.43" CO_abs="5937.946719" CO2_abs="742013.666847" HC_abs="44.777230" PMx_abs="13.245995" NOx_abs="279.521079" fuel_abs="318.957569" electricity_abs="0"
            CO_normed="14882.071977" CO2_normed="1859683.375557" HC_normed="112.223634" PMx_normed="33.197983" NOx_normed="700.554082" fuel_normed="799.392403" electricity_normed="0"
            traveltime="0.01" CO_perVeh="0.363659" CO2_perVeh="45.443319" HC_perVeh="0.002742" PMx_perVeh="0.000811" NOx_perVeh="0.017119" fuel_perVeh="0.019534" electricity_perVeh="0"/>
        <edge id=":1110673621_0" sampledSeconds="25.72" CO_abs="743.107973" CO2_abs="70764.604458" HC_abs="5.029997" PMx_abs="1.124686" NOx_abs="27.717095" fuel_abs="30.418613" electricity_abs="0"
            CO_normed="2234.911196" CO2_normed="212825.878070" HC_normed="15.127810" PMx_normed="3.382515" NOx_normed="83.359683" fuel_normed="91.484551" electricity_normed="0"
            traveltime="0.02" CO_perVeh="0.562961" CO2_perVeh="53.609549" HC_perVeh="0.003811" PMx_perVeh="0.000852" NOx_perVeh="0.020998" fuel_perVeh="0.023044" electricity_perVeh="0"/>
        <edge id=":1110673630_0" sampledSeconds="53.95" CO_abs="248.326121" CO2_abs="26256.397943" HC_abs="1.726073" PMx_abs="0.314127" NOx_abs="9.635006" fuel_abs="11.286612" electricity_abs="0"
            CO_normed="13.317501" CO2_normed="1408.106461" HC_normed="0.092568" PMx_normed="0.016846" NOx_normed="0.516716" fuel_normed="0.605291" electricity_normed="0"
            traveltime="1.26" CO_perVeh="5.796371" CO2_perVeh="612.870770" HC_perVeh="0.040290" PMx_perVeh="0.007332" NOx_perVeh="0.224898" fuel_perVeh="0.263449" electricity_perVeh="0"/>
        <edge id=":1110673630_1" sampledSeconds="7.44" CO_abs="10.992125" CO2_abs="1033.585048" HC_abs="0.073934" PMx_abs="0.014928" NOx_abs="0.396569" fuel_abs="0.444295" electricity_abs="0"
            CO_normed="0.718674" CO2_normed="67.576662" HC_normed="0.004834" PMx_normed="0.000976" NOx_normed="0.025928" fuel_normed="0.029048" electricity_normed="0"
            traveltime="1.05" CO_perVeh="1.555808" CO2_perVeh="146.292038" HC_perVeh="0.010464" PMx_perVeh="0.002113" NOx_perVeh="0.056130" fuel_perVeh="0.062885" electricity_perVeh="0"/>
        <edge id=":1110673650_0" sampledSeconds="143.84" CO_abs="2003.356819" CO2_abs="265854.776635" HC_abs="15.135895" PMx_abs="3.510391" NOx_abs="98.249107" fuel_abs="114.279893" electricity_abs="0"
            CO_normed="5020.944410" CO2_normed="666302.698332" HC_normed="37.934574" PMx_normed="8.797973" NOx_normed="246.238363" fuel_normed="286.415772" electricity_normed="0"
            traveltime="0.02" CO_perVeh="0.321653" CO2_perVeh="42.684835" HC_perVeh="0.002430" PMx_perVeh="0.000564" NOx_perVeh="0.015775" fuel_perVeh="0.018348" electricity_perVeh="0"/>
        <edge id=":1110673655_0" sampledSeconds="44.81" CO_abs="866.143840" CO2_abs="101056.931348" HC_abs="6.240008" PMx_abs="1.364610" NOx_abs="37.789939" fuel_abs="43.440184" electricity_abs="0"
            CO_normed="2170.786566" CO2_normed="253275.517163" HC_normed="15.639117" PMx_normed="3.420076" NOx_normed="94.711628" fuel_normed="108.872643" electricity_normed="0"
            traveltime="0.02" CO_perVeh="0.463550" CO2_perVeh="54.084523" HC_perVeh="0.003340" PMx_perVeh="0.000730" NOx_perVeh="0.020225" fuel_perVeh="0.023249" electricity_perVeh="0"/>
        <edge id=":1110673663_0" sampledSeconds="108.42" CO_abs="1609.439006" CO2_abs="202786.796602" HC_abs="11.973095" PMx_abs="2.708002" NOx_abs="75.305251" fuel_abs="87.169612" electricity_abs="0"
            CO_normed="73.876955" CO2_normed="9308.380686" HC_normed="0.549593" PMx_normed="0.124304" NOx_normed="3.456684" fuel_normed="4.001286" electricity_normed="0"
            traveltime="1.27" CO_perVeh="18.903620" CO2_perVeh="2381.826592" HC_perVeh="0.140630" PMx_perVeh="0.031807" NOx_perVeh="0.884496" fuel_perVeh="1.023848" electricity_perVeh="0"/>
        <edge id=":1110673663_1" sampledSeconds="154.66" CO_abs="2396.421069" CO2_abs="284036.846159" HC_abs="17.410927" PMx_abs="4.090382" NOx_abs="107.346393" fuel_abs="122.095292" electricity_abs="0"
            CO_normed="110.135718" CO2_normed="13053.883769" HC_normed="0.800179" PMx_normed="0.187987" NOx_normed="4.933470" fuel_normed="5.611306" electricity_normed="0"
            traveltime="1.25" CO_perVeh="19.377790" CO2_perVeh="2296.760944" HC_perVeh="0.140787" PMx_perVeh="0.033075" NOx_perVeh="0.868018" fuel_perVeh="0.987279" electricity_perVeh="0"/>
        <edge id=":1110673666_0" sampledSeconds="191.24" CO_abs="4165.802252" CO2_abs="330760.287581" HC_abs="26.517200" PMx_abs="4.488301" NOx_abs="126.259991" fuel_abs="142.181005" electricity_abs="0"