<?xml version="1.0" encoding="UTF-8"?>

<!-- generated on Mon Nov  9 21:53:15 2020 by Eclipse SUMO sumo Version 1.7.0
<configuration xmlns:xsi="http://www.w3.org/2001/XMLSchema-instance" xsi:noNamespaceSchemaLocation="http://sumo.dlr.de/xsd/sumoConfiguration.xsd">

    <input>
        <net-file value="../dataSets/Porto/6AM7AM_Routing_SaoBento/Porto.net.xml"/>
        <route-files value="../results/Porto/6AM7AM_Routing_SaoBento/cost_PMx-ttime/solution3/Porto.rou.xml"/>
        <additional-files value="moreOutputInfo.xml"/>
    </input>

    <output>
        <emission-output.precision value="6"/>
        <tripinfo-output value="../results/Porto/6AM7AM_Routing_SaoBento/cost_PMx-ttime/solution3/Porto-tripinfo"/>
    </output>

    <processing>
        <collision.action value="warn"/>
        <time-to-teleport value="-1"/>
    </processing>

    <emissions>
        <device.emissions.probability value="1"/>
    </emissions>

    <gui_only>
        <quit-on-end value="true"/>
        <start value="true"/>
    </gui_only>

</configuration>
-->

<meandata xmlns:xsi="http://www.w3.org/2001/XMLSchema-instance" xsi:noNamespaceSchemaLocation="http://sumo.dlr.de/xsd/meandata_file.xsd">
    <interval begin="0.00" end="4790.00" id="emissions-detector">
        <edge id=":1092997347_0" sampledSeconds="300.48" CO_abs="38521.300672" CO2_abs="1534319.078791" HC_abs="211.668392" PMx_abs="31.313034" NOx_abs="666.060082" fuel_abs="659.543281" electricity_abs="0"
            CO_normed="65798.387939" CO2_normed="2620776.562747" HC_normed="361.551629" PMx_normed="53.485920" NOx_normed="1137.699893" fuel_normed="1126.568520" electricity_normed="0"
            traveltime="0.07" CO_perVeh="9.552337" CO2_perVeh="380.473475" HC_perVeh="0.052489" PMx_perVeh="0.007765" NOx_perVeh="0.165167" fuel_perVeh="0.163551" electricity_perVeh="0"/>
        <edge id=":1103427051_0" sampledSeconds="11.04" CO_abs="881.473818" CO2_abs="48716.815953" HC_abs="5.173080" PMx_abs="0.973811" NOx_abs="20.922516" fuel_abs="20.941187" electricity_abs="0"
            CO_normed="2284.432902" CO2_normed="126254.796222" HC_normed="13.406586" PMx_normed="2.523735" NOx_normed="54.222919" fuel_normed="54.271308" electricity_normed="0"
            traveltime="0.03" CO_perVeh="2.415225" CO2_perVeh="133.483339" HC_perVeh="0.014174" PMx_perVeh="0.002668" NOx_perVeh="0.057327" fuel_perVeh="0.057379" electricity_perVeh="0"/>
        <edge id=":1105984386_0" sampledSeconds="23.15" CO_abs="222.141325" CO2_abs="21289.733218" HC_abs="1.485048" PMx_abs="0.213991" NOx_abs="7.595036" fuel_abs="9.151710" electricity_abs="0"
            CO_normed="17.194008" CO2_normed="1647.851140" HC_normed="0.114944" PMx_normed="0.016563" NOx_normed="0.587865" fuel_normed="0.708353" electricity_normed="0"
            traveltime="0.97" CO_perVeh="9.323099" CO2_perVeh="893.513613" HC_perVeh="0.062326" PMx_perVeh="0.008981" NOx_perVeh="0.318758" fuel_perVeh="0.384090" electricity_perVeh="0"/>
        <edge id=":1105984390_0" sampledSeconds="23.03" CO_abs="13.875947" CO2_abs="1247.537162" HC_abs="0.091486" PMx_abs="0.015502" NOx_abs="0.463624" fuel_abs="0.536269" electricity_abs="0"
            CO_normed="0.830309" CO2_normed="74.650177" HC_normed="0.005474" PMx_normed="0.000928" NOx_normed="0.027742" fuel_normed="0.032089" electricity_normed="0"
            traveltime="1.04" CO_perVeh="0.629267" CO2_perVeh="56.575198" HC_perVeh="0.004149" PMx_perVeh="0.000703" NOx_perVeh="0.021025" fuel_perVeh="0.024320" electricity_perVeh="0"/>
        <edge id=":1105984390_1" sampledSeconds="645.82" CO_abs="14811.734729" CO2_abs="1887332.251121" HC_abs="112.627912" PMx_abs="33.533120" NOx_abs="708.654263" fuel_abs="811.277524" electricity_abs="0"
            CO_normed="847.828842" CO2_normed="108031.553806" HC_normed="6.446861" PMx_normed="1.919447" NOx_normed="40.563616" fuel_normed="46.437807" electricity_normed="0"
            traveltime="0.64" CO_perVeh="14.592720" CO2_perVeh="1859.425134" HC_perVeh="0.110963" PMx_perVeh="0.033037" NOx_perVeh="0.698176" fuel_perVeh="0.799282" electricity_perVeh="0"/>
        <edge id=":1105984395_0" sampledSeconds="8.97" CO_abs="198.050644" CO2_abs="16278.837754" HC_abs="1.270800" PMx_abs="0.206635" NOx_abs="6.120652" fuel_abs="6.997656" electricity_abs="0"
            CO_normed="161.791395" CO2_normed="13298.496849" HC_normed="1.038141" PMx_normed="0.168804" NOx_normed="5.000079" fuel_normed="5.716520" electricity_normed="0"
            traveltime="0.09" CO_perVeh="2.008450" CO2_perVeh="165.085215" HC_perVeh="0.012887" PMx_perVeh="0.002096" NOx_perVeh="0.062070" fuel_perVeh="0.070964" electricity_perVeh="0"/>
        <edge id=":1105984398_0" sampledSeconds="22.68" CO_abs="1726.684656" CO2_abs="120320.950276" HC_abs="10.699314" PMx_abs="2.154389" NOx_abs="49.509271" fuel_abs="51.720667" electricity_abs="0"
            CO_normed="107.338054" CO2_normed="7479.661429" HC_normed="0.665115" PMx_normed="0.133926" NOx_normed="3.077707" fuel_normed="3.215176" electricity_normed="0"
            traveltime="1.08" CO_perVeh="82.588868" CO2_perVeh="5755.058448" HC_perVeh="0.511758" PMx_perVeh="0.103046" NOx_perVeh="2.368073" fuel_perVeh="2.473846" electricity_perVeh="0"/>
        <edge id=":1105984398_1" sampledSeconds="454.00" CO_abs="7474.462390" CO2_abs="902894.935239" HC_abs="54.640658" PMx_abs="12.660198" NOx_abs="339.336262" fuel_abs="388.116286" electricity_abs="0"
            CO_normed="449.763813" CO2_normed="54330.257807" HC_normed="3.287914" PMx_normed="0.761807" NOx_normed="20.419017" fuel_normed="23.354276" electricity_normed="0"
            traveltime="0.96" CO_perVeh="15.758443" CO2_perVeh="1903.577494" HC_perVeh="0.115199" PMx_perVeh="0.026692" NOx_perVeh="0.715424" fuel_perVeh="0.818267" electricity_perVeh="0"/>
        <edge id=":1106006327_0" sampledSeconds="37.12" CO_abs="5067.119336" CO2_abs="169574.006324" HC_abs="27.071003" PMx_abs="3.548161" NOx_abs="74.302877" fuel_abs="72.893726" electricity_abs="0"
            CO_normed="429.827698" CO2_normed="14384.426329" HC_normed="2.296348" PMx_normed="0.300979" NOx_normed="6.302878" fuel_normed="6.183344" electricity_normed="0"
            traveltime="2.01" CO_perVeh="274.887811" CO2_perVeh="9199.275631" HC_perVeh="1.468584" PMx_perVeh="0.192485" NOx_perVeh="4.030881" fuel_perVeh="3.954436" electricity_perVeh="0"/>
        <edge id=":1106006327_1" sampledSeconds="160.70" CO_abs="21690.560553" CO2_abs="726650.742258" HC_abs="115.888974" PMx_abs="15.141132" NOx_abs="317.923632" fuel_abs="312.360931" electricity_abs="0"
            CO_normed="1604.516011" CO2_normed="53752.541222" HC_normed="8.572656" PMx_normed="1.120035" NOx_normed="23.517767" fuel_normed="23.106278" electricity_normed="0"
            traveltime="2.28" CO_perVeh="307.925463" CO2_perVeh="10315.743826" HC_perVeh="1.645193" PMx_perVeh="0.214948" NOx_perVeh="4.513336" fuel_perVeh="4.434366" electricity_perVeh="0"/>
        <edge id=":1106006327_2" sampledSeconds="0.00" CO_abs="0" CO2_abs="0" HC_abs="0" PMx_abs="0" NOx_abs="0" fuel_abs="0" electricity_abs="0"
            CO_normed="0" CO2_normed="0" HC_normed="0" PMx_normed="0" NOx_normed="0" fuel_normed="0" electricity_normed="0"/>
        <edge id=":1106006327_3" sampledSeconds="0.00" CO_abs="0" CO2_abs="0" HC_abs="0" PMx_abs="0" NOx_abs="0" fuel_abs="0" electricity_abs="0"
            CO_normed="0" CO2_normed="0" HC_normed="0" PMx_normed="0" NOx_normed="0" fuel_normed="0" electricity_normed="0"/>
        <edge id=":1107381198_0" sampledSeconds="0.00" CO_abs="0" CO2_abs="0" HC_abs="0" PMx_abs="0" NOx_abs="0" fuel_abs="0" electricity_abs="0"
            CO_normed="0" CO2_normed="0" HC_normed="0" PMx_normed="0" NOx_normed="0" fuel_normed="0" electricity_normed="0"/>
        <edge id=":1107381198_1" sampledSeconds="36.72" CO_abs="1430.715594" CO2_abs="59439.705781" HC_abs="7.884613" PMx_abs="1.023743" NOx_abs="24.598965" fuel_abs="25.551021" electricity_abs="0"
            CO_normed="117.260290" CO2_normed="4871.630073" HC_normed="0.646216" PMx_normed="0.083905" NOx_normed="2.016111" fuel_normed="2.094141" electricity_normed="0"
            traveltime="1.51" CO_perVeh="58.906528" CO2_perVeh="2447.297513" HC_perVeh="0.324631" PMx_perVeh="0.042150" NOx_perVeh="1.012808" fuel_perVeh="1.052006" electricity_perVeh="0"/>
        <edge id=":1110338277_0" sampledSeconds="96.39" CO_abs="1529.058069" CO2_abs="187273.869080" HC_abs="11.224611" PMx_abs="2.557033" NOx_abs="69.992561" fuel_abs="80.501185" electricity_abs="0"
            CO_normed="4104.241761" CO2_normed="502673.671852" HC_normed="30.128691" PMx_normed="6.863494" NOx_normed="187.871472" fuel_normed="216.078337" electricity_normed="0"
            traveltime="0.02" CO_perVeh="0.345918" CO2_perVeh="42.366820" HC_perVeh="0.002539" PMx_perVeh="0.000578" NOx_perVeh="0.015834" fuel_perVeh="0.018212" electricity_perVeh="0"/>
        <edge id=":1110338293_0" sampledSeconds="123.43" CO_abs="6386.891188" CO2_abs="443092.423407" HC_abs="39.492833" PMx_abs="7.751322" NOx_abs="181.195650" fuel_abs="190.466176" electricity_abs="0"
            CO_normed="16000.562475" CO2_normed="1110043.649453" HC_normed="98.938204" PMx_normed="19.418760" NOx_normed="453.934823" fuel_normed="477.159522" electricity_normed="0"
            traveltime="0.03" CO_perVeh="1.464939" CO2_perVeh="101.630588" HC_perVeh="0.009058" PMx_perVeh="0.001778" NOx_perVeh="0.041560" fuel_perVeh="0.043687" electricity_perVeh="0"/>
        <edge id=":1110338295_0" sampledSeconds="0.00" CO_abs="0" CO2_abs="0" HC_abs="0" PMx_abs="0" NOx_abs="0" fuel_abs="0" electricity_abs="0"
            CO_normed="0" CO2_normed="0" HC_normed="0" PMx_normed="0" NOx_normed="0" fuel_normed="0" electricity_normed="0"/>
        <edge id=":1110673403_0" sampledSeconds="143.26" CO_abs="2232.771792" CO2_abs="268726.613195" HC_abs="16.301748" PMx_abs="3.728542" NOx_abs="100.821509" fuel_abs="115.514249" electricity_abs="0"
            CO_normed="5593.582777" CO2_normed="673219.072723" HC_normed="40.839451" PMx_normed="9.340816" NOx_normed="252.579981" fuel_normed="289.388514" electricity_normed="0"
            traveltime="0.02" CO_perVeh="0.358486" CO2_perVeh="43.145830" HC_perVeh="0.002617" PMx_perVeh="0.000599" NOx_perVeh="0.016188" fuel_perVeh="0.018547" electricity_perVeh="0"/>
        <edge id=":1110673412_0" sampledSeconds="252.84" CO_abs="44761.162326" CO2_abs="3057250.057803" HC_abs="278.645908" PMx_abs="67.167796" NOx_abs="1313.556284" fuel_abs="1314.161229" electricity_abs="0"
            CO_normed="116003.300249" CO2_normed="7923187.825276" HC_normed="722.140429" PMx_normed="174.072469" NOx_normed="3404.220446" fuel_normed="3405.788226" electricity_normed="0"
            traveltime="0.02" CO_perVeh="2.748713" CO2_perVeh="187.740951" HC_perVeh="0.017111" PMx_perVeh="0.004125" NOx_perVeh="0.080663" fuel_perVeh="0.080701" electricity_perVeh="0"/>
        <edge id=":1110673414_0" sampledSeconds="0.00" CO_abs="0" CO2_abs="0" HC_abs="0" PMx_abs="0" NOx_abs="0" fuel_abs="0" electricity_abs="0"
            CO_normed="0" CO2_normed="0" HC_normed="0" PMx_normed="0" NOx_normed="0" fuel_normed="0" electricity_normed="0"/>
        <edge id=":1110673414_1" sampledSeconds="233.97" CO_abs="15491.658371" CO2_abs="580354.253832" HC_abs="83.986534" PMx_abs="10.622377" NOx_abs="244.489480" fuel_abs="249.474021" electricity_abs="0"
            CO_normed="1289.368774" CO2_normed="48302.811408" HC_normed="6.990189" PMx_normed="0.884099" NOx_normed="20.348829" fuel_normed="20.763691" electricity_normed="0"
            traveltime="1.61" CO_perVeh="106.859426" CO2_perVeh="4003.207480" HC_perVeh="0.579328" PMx_perVeh="0.073272" NOx_perVeh="1.686456" fuel_perVeh="1.720839" electricity_perVeh="0"/>
        <edge id=":1110673417_0" sampledSeconds="29.78" CO_abs="391.490224" CO2_abs="49851.873657" HC_abs="2.929854" PMx_abs="0.654987" NOx_abs="18.463607" fuel_abs="21.429260" electricity_abs="0"
            CO_normed="1050.823744" CO2_normed="133810.576472" HC_normed="7.864206" PMx_normed="1.758092" NOx_normed="49.559338" fuel_normed="57.519636" electricity_normed="0"
            traveltime="0.02" CO_perVeh="0.290569" CO2_perVeh="37.000728" HC_perVeh="0.002175" PMx_perVeh="0.000486" NOx_perVeh="0.013704" fuel_perVeh="0.015905" electricity_perVeh="0"/>
        <edge id=":1110673446_0" sampledSeconds="332.49" CO_abs="3350.524567" CO2_abs="276797.050639" HC_abs="21.813889" PMx_abs="5.029684" NOx_abs="112.783395" fuel_abs="118.982353" electricity_abs="0"
            CO_normed="8393.798498" CO2_normed="693437.287613" HC_normed="54.648574" PMx_normed="12.600461" NOx_normed="282.547127" fuel_normed="298.076876" electricity_normed="0"
            traveltime="0.02" CO_perVeh="0.228711" CO2_perVeh="18.894512" HC_perVeh="0.001489" PMx_perVeh="0.000343" NOx_perVeh="0.007699" fuel_perVeh="0.008122" electricity_perVeh="0"/>
        <edge id=":1110673451_0" sampledSeconds="37.30" CO_abs="376.702939" CO2_abs="27138.444095" HC_abs="2.331107" PMx_abs="0.359389" NOx_abs="10.351903" fuel_abs="11.665802" electricity_abs="0"
            CO_normed="1048.581597" CO2_normed="75541.945983" HC_normed="6.488816" PMx_normed="1.000386" NOx_normed="28.815319" fuel_normed="32.472656" electricity_normed="0"
            traveltime="0.03" CO_perVeh="0.270152" CO2_perVeh="19.462325" HC_perVeh="0.001672" PMx_perVeh="0.000258" NOx_perVeh="0.007424" fuel_perVeh="0.008366" electricity_perVeh="0"/>
        <edge id=":1110673464_0" sampledSeconds="324.77" CO_abs="482.330753" CO2_abs="41319.168623" HC_abs="3.118079" PMx_abs="0.542811" NOx_abs="15.560814" fuel_abs="17.761507" electricity_abs="0"
            CO_normed="25.673037" CO2_normed="2199.296916" HC_normed="0.165966" PMx_normed="0.028892" NOx_normed="0.828256" fuel_normed="0.945392" electricity_normed="0"
            traveltime="1.17" CO_perVeh="1.743562" CO2_perVeh="149.363343" HC_perVeh="0.011271" PMx_perVeh="0.001962" NOx_perVeh="0.056250" fuel_perVeh="0.064206" electricity_perVeh="0"/>
        <edge id=":1110673464_1" sampledSeconds="709.18" CO_abs="16636.919966" CO2_abs="2159366.207957" HC_abs="127.457111" PMx_abs="38.164876" NOx_abs="808.638402" fuel_abs="928.212574" electricity_abs="0"
            CO_normed="867.712660" CO2_normed="112623.574568" HC_normed="6.647634" PMx_normed="1.990521" NOx_normed="42.175221" fuel_normed="48.411713" electricity_normed="0"
            traveltime="0.70" CO_perVeh="16.427158" CO2_perVeh="2132.140427" HC_perVeh="0.125850" PMx_perVeh="0.037684" NOx_perVeh="0.798443" fuel_perVeh="0.916509" electricity_perVeh="0"/>
        <edge id=":1110673479_0" sampledSeconds="133.20" CO_abs="6688.235507" CO2_abs="467934.785019" HC_abs="41.446377" PMx_abs="8.158563" NOx_abs="191.094505" fuel_abs="201.144830" electricity_abs="0"
            CO_normed="16755.496051" CO2_normed="1172279.210905" HC_normed="103.832260" PMx_normed="20.438989" NOx_normed="478.733623" fuel_normed="503.911890" electricity_normed="0"
            traveltime="0.03" CO_perVeh="1.408958" CO2_perVeh="98.576111" HC_perVeh="0.008731" PMx_perVeh="0.001719" NOx_perVeh="0.040256" fuel_perVeh="0.042374" electricity_perVeh="0"/>
        <edge id=":1110673511_0" sampledSeconds="11.85" CO_abs="150.521358" CO2_abs="16178.678532" HC_abs="1.047608" PMx_abs="0.231355" NOx_abs="6.138483" fuel_abs="6.954532" electricity_abs="0"
            CO_normed="377.088998" CO2_normed="40531.136196" HC_normed="2.624487" PMx_normed="0.579596" NOx_normed="15.378245" fuel_normed="17.422626" electricity_normed="0"
            traveltime="0.02" CO_perVeh="0.298062" CO2_perVeh="32.036987" HC_perVeh="0.002074" PMx_perVeh="0.000458" NOx_perVeh="0.012155" fuel_perVeh="0.013771" electricity_perVeh="0"/>
        <edge id=":1110673517_0" sampledSeconds="17.36" CO_abs="652.499927" CO2_abs="47492.628375" HC_abs="4.080033" PMx_abs="0.786817" NOx_abs="19.098693" fuel_abs="20.415061" electricity_abs="0"
            CO_normed="1634.655351" CO2_normed="118979.444780" HC_normed="10.221376" PMx_normed="1.971150" NOx_normed="47.846413" fuel_normed="51.144202" electricity_normed="0"
            traveltime="0.03" CO_perVeh="1.047632" CO2_perVeh="76.252548" HC_perVeh="0.006551" PMx_perVeh="0.001263" NOx_perVeh="0.030664" fuel_perVeh="0.032778" electricity_perVeh="0"/>
        <edge id=":1110673534_0" sampledSeconds="476.14" CO_abs="2961.523475" CO2_abs="269316.445162" HC_abs="19.641616" PMx_abs="3.592693" NOx_abs="101.805992" fuel_abs="115.768471" electricity_abs="0"
            CO_normed="143.784215" CO2_normed="13075.518044" HC_normed="0.953615" PMx_normed="0.174428" NOx_normed="4.942758" fuel_normed="5.620647" electricity_normed="0"
            traveltime="1.43" CO_perVeh="8.921883" CO2_perVeh="811.342508" HC_perVeh="0.059172" PMx_perVeh="0.010823" NOx_perVeh="0.306701" fuel_perVeh="0.348764" electricity_perVeh="0"/>
        <edge id=":1110673534_1" sampledSeconds="182.84" CO_abs="2722.064872" CO2_abs="359647.718477" HC_abs="20.505293" PMx_abs="4.793012" NOx_abs="133.107262" fuel_abs="154.597517" electricity_abs="0"
            CO_normed="128.505701" CO2_normed="16978.574849" HC_normed="0.968032" PMx_normed="0.226273" NOx_normed="6.283848" fuel_normed="7.298379" electricity_normed="0"
            traveltime="1.21" CO_perVeh="18.073534" CO2_perVeh="2387.931734" HC_perVeh="0.136148" PMx_perVeh="0.031824" NOx_perVeh="0.883784" fuel_perVeh="1.026472" electricity_perVeh="0"/>
        <edge id=":1110673549_0" sampledSeconds="59.87" CO_abs="92.773048" CO2_abs="12761.830060" HC_abs="0.669118" PMx_abs="0.132605" NOx_abs="4.479722" fuel_abs="5.485825" electricity_abs="0"
            CO_normed="4.363269" CO2_normed="600.209921" HC_normed="0.031470" PMx_normed="0.006237" NOx_normed="0.210689" fuel_normed="0.258007" electricity_normed="0"
            traveltime="1.25" CO_perVeh="1.932847" CO2_perVeh="265.881859" HC_perVeh="0.013941" PMx_perVeh="0.002763" NOx_perVeh="0.093331" fuel_perVeh="0.114292" electricity_perVeh="0"/>
        <edge id=":1110673549_1" sampledSeconds="638.96" CO_abs="13566.816394" CO2_abs="1791589.453481" HC_abs="104.690267" PMx_abs="31.484232" NOx_abs="669.215609" fuel_abs="770.122338" electricity_abs="0"
            CO_normed="617.212754" CO2_normed="81507.100049" HC_normed="4.762810" PMx_normed="1.432353" NOx_normed="30.445493" fuel_normed="35.036173" electricity_normed="0"
            traveltime="0.80" CO_perVeh="17.077956" CO2_perVeh="2255.259078" HC_perVeh="0.131784" PMx_perVeh="0.039632" NOx_perVeh="0.842411" fuel_perVeh="0.969433" electricity_perVeh="0"/>
        <edge id=":1110673556_0" sampledSeconds="419.86" CO_abs="50847.601056" CO2_abs="2543680.505778" HC_abs="291.968402" PMx_abs="51.122617" NOx_abs="1094.398121" fuel_abs="1093.418528" electricity_abs="0"
            CO_normed="1773.332531" CO2_normed="88711.980400" HC_normed="10.182527" PMx_normed="1.782924" NOx_normed="38.167618" fuel_normed="38.133454" electricity_normed="0"
            traveltime="2.61" CO_perVeh="315.637113" CO2_perVeh="15789.928246" HC_perVeh="1.812397" PMx_perVeh="0.317344" NOx_perVeh="6.793490" fuel_perVeh="6.787409" electricity_perVeh="0"/>
        <edge id=":1110673556_2" sampledSeconds="246.37" CO_abs="24157.897604" CO2_abs="1048374.780857" HC_abs="134.617812" PMx_abs="20.172239" NOx_abs="446.692196" fuel_abs="450.655058" electricity_abs="0"
            CO_normed="880.943655" CO2_normed="38230.111162" HC_normed="4.908983" PMx_normed="0.735602" NOx_normed="16.289110" fuel_normed="16.433620" electricity_normed="0"
            traveltime="2.99" CO_perVeh="293.030669" CO2_perVeh="12716.585193" HC_perVeh="1.632888" PMx_perVeh="0.244685" NOx_perVeh="5.418291" fuel_perVeh="5.466359" electricity_perVeh="0"/>
        <edge id=":1110673556_3" sampledSeconds="419.74" CO_abs="36436.365796" CO2_abs="1299588.746999" HC_abs="196.133220" PMx_abs="24.660833" NOx_abs="553.334604" fuel_abs="558.647944" electricity_abs="0"
            CO_normed="3022.552431" CO2_normed="107806.446681" HC_normed="16.270090" PMx_normed="2.045722" NOx_normed="45.901473" fuel_normed="46.342237" electricity_normed="0"
            traveltime="1.73" CO_perVeh="150.339274" CO2_perVeh="5362.204058" HC_perVeh="0.809261" PMx_perVeh="0.101753" NOx_perVeh="2.283102" fuel_perVeh="2.305025" electricity_perVeh="0"/>
        <edge id=":1110673556_4" sampledSeconds="192.33" CO_abs="20121.746258" CO2_abs="800024.214587" HC_abs="110.382033" PMx_abs="15.571324" NOx_abs="342.606750" fuel_abs="343.900034" electricity_abs="0"
            CO_normed="1019.744812" CO2_normed="40544.221744" HC_normed="5.594023" PMx_normed="0.789135" NOx_normed="17.362880" fuel_normed="17.428422" electricity_normed="0"
            traveltime="2.43" CO_perVeh="254.005360" CO2_perVeh="10099.045882" HC_perVeh="1.393399" PMx_perVeh="0.196563" NOx_perVeh="4.324871" fuel_perVeh="4.341196" electricity_perVeh="0"/>
        <edge id=":1110673556_5" sampledSeconds="24.53" CO_abs="2064.971320" CO2_abs="83217.923826" HC_abs="11.344380" PMx_abs="1.565476" NOx_abs="35.288474" fuel_abs="35.772285" electricity_abs="0"
            CO_normed="145.861066" CO2_normed="5878.171272" HC_normed="0.801320" PMx_normed="0.110579" NOx_normed="2.492632" fuel_normed="2.526807" electricity_normed="0"
            traveltime="1.70" CO_perVeh="142.763449" CO2_perVeh="5753.337944" HC_perVeh="0.784303" PMx_perVeh="0.108230" NOx_perVeh="2.439697" fuel_perVeh="2.473146" electricity_perVeh="0"/>
        <edge id=":1110673556_6" sampledSeconds="310.07" CO_abs="37224.773264" CO2_abs="1897917.008024" HC_abs="214.645424" PMx_abs="38.233168" NOx_abs="816.353421" fuel_abs="815.831990" electricity_abs="0"
            CO_normed="1330.964086" CO2_normed="67859.630940" HC_normed="7.674603" PMx_normed="1.367019" NOx_normed="29.188548" fuel_normed="29.169904" electricity_normed="0"
            traveltime="2.46" CO_perVeh="294.790260" CO2_perVeh="15029.975967" HC_perVeh="1.699819" PMx_perVeh="0.302776" NOx_perVeh="6.464862" fuel_perVeh="6.460733" electricity_perVeh="0"/>
        <edge id=":1110673561_0" sampledSeconds="99.94" CO_abs="10024.234757" CO2_abs="710257.515465" HC_abs="62.781380" PMx_abs="14.526806" NOx_abs="301.467224" fuel_abs="305.305711" electricity_abs="0"
            CO_normed="450.321078" CO2_normed="31907.066995" HC_normed="2.820343" PMx_normed="0.652591" NOx_normed="13.542884" fuel_normed="13.715321" electricity_normed="0"
            traveltime="1.18" CO_perVeh="118.296837" CO2_perVeh="8381.808660" HC_perVeh="0.740888" PMx_perVeh="0.171432" NOx_perVeh="3.557640" fuel_perVeh="3.602938" electricity_perVeh="0"/>
        <edge id=":1110673561_1" sampledSeconds="1310.19" CO_abs="122369.730450" CO2_abs="8492094.965448" HC_abs="762.658799" PMx_abs="177.487411" NOx_abs="3629.899051" fuel_abs="3650.341405" electricity_abs="0"
            CO_normed="5359.492990" CO2_normed="371932.856860" HC_normed="33.402578" PMx_normed="7.773512" NOx_normed="158.980644" fuel_normed="159.875969" electricity_normed="0"
            traveltime="1.19" CO_perVeh="110.976906" CO2_perVeh="7701.466867" HC_perVeh="0.691654" PMx_perVeh="0.160963" NOx_perVeh="3.291949" fuel_perVeh="3.310489" electricity_perVeh="0"/>
        <edge id=":1110673562_0" sampledSeconds="103.93" CO_abs="2177.662750" CO2_abs="175775.345207" HC_abs="13.910443" PMx_abs="2.290367" NOx_abs="66.417100" fuel_abs="75.559117" electricity_abs="0"
            CO_normed="6061.691720" CO2_normed="489284.189859" HC_normed="38.720788" PMx_normed="6.375412" NOx_normed="184.877105" fuel_normed="210.324612" electricity_normed="0"
            traveltime="0.03" CO_perVeh="0.555096" CO2_perVeh="44.805936" HC_perVeh="0.003546" PMx_perVeh="0.000584" NOx_perVeh="0.016930" fuel_perVeh="0.019260" electricity_perVeh="0"/>
        <edge id=":1110673564_0" sampledSeconds="28.88" CO_abs="496.945485" CO2_abs="54660.251137" HC_abs="3.518467" PMx_abs="0.784797" NOx_abs="20.746508" fuel_abs="23.496129" electricity_abs="0"
            CO_normed="3734.872121" CO2_normed="410807.732970" HC_normed="26.443590" PMx_normed="5.898262" NOx_normed="155.923650" fuel_normed="176.588861" electricity_normed="0"
            traveltime="7.939949e-03" CO_perVeh="0.136617" CO2_perVeh="15.026873" HC_perVeh="0.000967" PMx_perVeh="0.000216" NOx_perVeh="0.005704" fuel_perVeh="0.006459" electricity_perVeh="0"/>
        <edge id=":1110673588_0" sampledSeconds="11.66" CO_abs="199.564760" CO2_abs="25206.315863" HC_abs="1.486049" PMx_abs="0.331555" NOx_abs="9.338019" fuel_abs="10.835154" electricity_abs="0"
            CO_normed="599.944164" CO2_normed="75776.815955" HC_normed="4.467455" PMx_normed="0.996743" NOx_normed="28.072541" fuel_normed="32.573322" electricity_normed="0"
            traveltime="0.02" CO_perVeh="0.332608" CO2_perVeh="42.010526" HC_perVeh="0.002477" PMx_perVeh="0.000553" NOx_perVeh="0.015563" fuel_perVeh="0.018059" electricity_perVeh="0"/>
        <edge id=":1110673601_0" sampledSeconds="29.65" CO_abs="467.163090" CO2_abs="54760.182671" HC_abs="3.378327" PMx_abs="0.763726" NOx_abs="20.594597" fuel_abs="23.539097" electricity_abs="0"
            CO_normed="1253.942085" CO2_normed="146985.280060" HC_normed="9.067982" PMx_normed="2.049967" NOx_normed="55.279264" fuel_normed="63.182784" electricity_normed="0"
            traveltime="0.02" CO_perVeh="0.346735" CO2_perVeh="40.643741" HC_perVeh="0.002507" PMx_perVeh="0.000567" NOx_perVeh="0.015286" fuel_perVeh="0.017471" electricity_perVeh="0"/>
        <edge id=":1110673617_0" sampledSeconds="238.43" CO_abs="6081.823472" CO2_abs="728634.470162" HC_abs="45.149077" PMx_abs="13.177323" NOx_abs="276.356729" fuel_abs="313.206346" electricity_abs="0"
            CO_normed="15236.300975" CO2_normed="1825389.069299" HC_normed="113.108335" PMx_normed="33.012084" NOx_normed="692.334186" fuel_normed="784.650552" electricity_normed="0"
            traveltime="0.01" CO_perVeh="0.372785" CO2_perVeh="44.661581" HC_perVeh="0.002767" PMx_perVeh="0.000808" NOx_perVeh="0.016939" fuel_perVeh="0.019198" electricity_perVeh="0"/>
        <edge id=":1110673621_0" sampledSeconds="25.62" CO_abs="509.635353" CO2_abs="55508.059812" HC_abs="3.609024" PMx_abs="0.821148" NOx_abs="21.231302" fuel_abs="23.860534" electricity_abs="0"
            CO_normed="1532.097930" CO2_normed="166871.829079" HC_normed="10.849675" PMx_normed="2.468588" NOx_normed="63.826878" fuel_normed="71.731043" electricity_normed="0"
            traveltime="0.02" CO_perVeh="0.386087" CO2_perVeh="42.051560" HC_perVeh="0.002734" PMx_perVeh="0.000622" NOx_perVeh="0.016084" fuel_perVeh="0.018076" electricity_perVeh="0"/>
        <edge id=":1110673630_0" sampledSeconds="54.43" CO_abs="170.907323" CO2_abs="18011.427803" HC_abs="1.179713" PMx_abs="0.179227" NOx_abs="6.367164" fuel_abs="7.742474" electricity_abs="0"
            CO_normed="9.161775" CO2_normed="965.532986" HC_normed="0.063241" PMx_normed="0.009608" NOx_normed="0.341323" fuel_normed="0.415048" electricity_normed="0"
            traveltime="1.27" CO_perVeh="3.989279" CO2_perVeh="420.418583" HC_perVeh="0.027537" PMx_perVeh="0.004183" NOx_perVeh="0.148621" fuel_perVeh="0.180723" electricity_perVeh="0"/>
        <edge id=":1110673630_1" sampledSeconds="7.47" CO_abs="7.976427" CO2_abs="1436.477353" HC_abs="0.068187" PMx_abs="0.012057" NOx_abs="0.486440" fuel_abs="0.617490" electricity_abs="0"
            CO_normed="0.521288" CO2_normed="93.878887" HC_normed="0.004456" PMx_normed="0.000788" NOx_normed="0.031791" fuel_normed="0.040355" electricity_normed="0"
            traveltime="1.06" CO_perVeh="1.128971" CO2_perVeh="203.316795" HC_perVeh="0.009651" PMx_perVeh="0.001707" NOx_perVeh="0.068850" fuel_perVeh="0.087399" electricity_perVeh="0"/>
        <edge id=":1110673650_0" sampledSeconds="143.36" CO_abs="2178.883182" CO2_abs="281816.270710" HC_abs="16.328237" PMx_abs="3.827849" NOx_abs="104.861877" fuel_abs="121.140959" electricity_abs="0"
            CO_normed="5458.579996" CO2_normed="706011.534137" HC_normed="40.905814" PMx_normed="9.589600" NOx_normed="262.701989" fuel_normed="303.484657" electricity_normed="0"
            traveltime="0.02" CO_perVeh="0.349834" CO2_perVeh="45.247473" HC_perVeh="0.002622" PMx_perVeh="0.000615" NOx_perVeh="0.016836" fuel_perVeh="0.019450" electricity_perVeh="0"/>
        <edge id=":1110673655_0" sampledSeconds="44.91" CO_abs="875.147473" CO2_abs="94118.664836" HC_abs="6.151336" PMx_abs="1.351417" NOx_abs="35.790670" fuel_abs="40.457642" electricity_abs="0"
            CO_normed="2192.436257" CO2_normed="235787.886854" HC_normed="15.410445" PMx_normed="3.385597" NOx_normed="89.663473" fuel_normed="101.355262" electricity_normed="0"
            traveltime="0.02" CO_perVeh="0.468369" CO2_perVeh="50.371242" HC_perVeh="0.003292" PMx_perVeh="0.000723" NOx_perVeh="0.019155" fuel_perVeh="0.021652" electricity_perVeh="0"/>
        <edge id=":1110673663_0" sampledSeconds="107.58" CO_abs="1447.406623" CO2_abs="179718.241080" HC_abs="10.721905" PMx_abs="2.484054" NOx_abs="67.244812" fuel_abs="77.253293" electricity_abs="0"
            CO_normed="66.411554" CO2_normed="8246.036435" HC_normed="0.491955" PMx_normed="0.113976" NOx_normed="3.085403" fuel_normed="3.544623" electricity_normed="0"
            traveltime="1.26" CO_perVeh="17.000474" CO2_perVeh="2110.875524" HC_perVeh="0.125934" PMx_perVeh="0.029176" NOx_perVeh="0.789822" fuel_perVeh="0.907376" electricity_perVeh="0"/>
        <edge id=":1110673663_1" sampledSeconds="155.07" CO_abs="2625.521810" CO2_abs="331988.166973" HC_abs="19.597680" PMx_abs="4.558740" NOx_abs="123.919203" fuel_abs="142.707731" electricity_abs="0"
            CO_normed="120.614444" CO2_normed="15251.279932" HC_normed="0.900302" PMx_normed="0.209425" NOx_normed="5.692752" fuel_normed="6.555883" electricity_normed="0"
            traveltime="1.25" CO_perVeh="21.233163" CO2_perVeh="2684.860164" HC_perVeh="0.158491" PMx_perVeh="0.036868" NOx_perVeh="1.002161" fuel_perVeh="1.154108" electricity_perVeh="0"/>
        <edge id=":1110673666_0" sampledSeconds="191.81" CO_abs="3962.541846" CO2_abs="321898.418891" HC_abs="25.374858" PMx_abs="4.269903" NOx_abs="122.139021" fuel_abs="138.371714" electricity_abs="0"