<?xml version="1.0" encoding="UTF-8"?>

<!-- generated on Sun Nov  1 00:24:59 2020 by Eclipse SUMO sumo Version 1.7.0
<configuration xmlns:xsi="http://www.w3.org/2001/XMLSchema-instance" xsi:noNamespaceSchemaLocation="http://sumo.dlr.de/xsd/sumoConfiguration.xsd">

    <input>
        <net-file value="../dataSets/Porto/8AM9AM_Routing_SaoBento/Porto.net.xml"/>
        <route-files value="../results/Porto/8AM9AM_Routing_SaoBento/inputdata/Porto-base.rou.xml"/>
        <additional-files value="moreOutputInfo.xml"/>
    </input>

    <output>
        <emission-output.precision value="6"/>
        <tripinfo-output value="../results/Porto/8AM9AM_Routing_SaoBento/inputdata/Porto-tripinfo"/>
    </output>

    <processing>
        <collision.action value="warn"/>
        <time-to-teleport value="-1"/>
    </processing>

    <emissions>
        <device.emissions.probability value="1"/>
    </emissions>

    <gui_only>
        <quit-on-end value="true"/>
        <start value="true"/>
    </gui_only>

</configuration>
-->

<meandata xmlns:xsi="http://www.w3.org/2001/XMLSchema-instance" xsi:noNamespaceSchemaLocation="http://sumo.dlr.de/xsd/meandata_file.xsd">
    <interval begin="0.00" end="8472.00" id="emissions-detector">
        <edge id=":1092997347_0" sampledSeconds="597.00" CO_abs="73199.331894" CO2_abs="3103276.102710" HC_abs="406.704473" PMx_abs="62.783962" NOx_abs="1342.872609" fuel_abs="1333.972933" electricity_abs="0"
            CO_normed="70692.118105" CO2_normed="2996983.102024" HC_normed="392.774086" PMx_normed="60.633494" NOx_normed="1296.876715" fuel_normed="1288.281869" electricity_normed="0"
            traveltime="0.07" CO_perVeh="8.388959" CO2_perVeh="355.648823" HC_perVeh="0.046610" PMx_perVeh="0.007195" NOx_perVeh="0.153899" fuel_perVeh="0.152879" electricity_perVeh="0"/>
        <edge id=":1103427051_0" sampledSeconds="19.18" CO_abs="1570.860695" CO2_abs="88181.978604" HC_abs="9.250897" PMx_abs="1.754764" NOx_abs="37.798301" fuel_abs="37.905494" electricity_abs="0"
            CO_normed="2301.739810" CO2_normed="129210.674911" HC_normed="13.555090" PMx_normed="2.571209" NOx_normed="55.384831" fuel_normed="55.541899" electricity_normed="0"
            traveltime="0.03" CO_perVeh="2.442887" CO2_perVeh="137.134137" HC_perVeh="0.014386" PMx_perVeh="0.002729" NOx_perVeh="0.058781" fuel_perVeh="0.058948" electricity_perVeh="0"/>
        <edge id=":1105984386_0" sampledSeconds="10.55" CO_abs="296.300464" CO2_abs="23316.279661" HC_abs="1.876296" PMx_abs="0.291776" NOx_abs="8.752885" fuel_abs="10.022802" electricity_abs="0"
            CO_normed="12.966706" CO2_normed="1020.367411" HC_normed="0.082111" PMx_normed="0.012769" NOx_normed="0.383044" fuel_normed="0.438618" electricity_normed="0"
            traveltime="1.01" CO_perVeh="28.424002" CO2_perVeh="2236.722738" HC_perVeh="0.179992" PMx_perVeh="0.027990" NOx_perVeh="0.839661" fuel_perVeh="0.961484" electricity_perVeh="0"/>
        <edge id=":1105984390_0" sampledSeconds="10.57" CO_abs="23.017916" CO2_abs="1720.852335" HC_abs="0.143947" PMx_abs="0.023003" NOx_abs="0.656480" fuel_abs="0.739729" electricity_abs="0"
            CO_normed="0.778741" CO2_normed="58.219775" HC_normed="0.004870" PMx_normed="0.000778" NOx_normed="0.022210" fuel_normed="0.025026" electricity_normed="0"
            traveltime="1.10" CO_perVeh="2.385946" CO2_perVeh="178.376705" HC_perVeh="0.014921" PMx_perVeh="0.002384" NOx_perVeh="0.068048" fuel_perVeh="0.076677" electricity_perVeh="0"/>
        <edge id=":1105984390_1" sampledSeconds="2397.20" CO_abs="62696.695979" CO2_abs="7403790.028407" HC_abs="462.271913" PMx_abs="133.943537" NOx_abs="2820.081946" fuel_abs="3182.547191" electricity_abs="0"
            CO_normed="2029.067442" CO2_normed="239610.541838" HC_normed="14.960611" PMx_normed="4.334845" NOx_normed="91.266954" fuel_normed="102.997499" electricity_normed="0"
            traveltime="0.65" CO_perVeh="16.935671" CO2_perVeh="1999.916440" HC_perVeh="0.124869" PMx_perVeh="0.036181" NOx_perVeh="0.761762" fuel_perVeh="0.859672" electricity_perVeh="0"/>
        <edge id=":1105984395_0" sampledSeconds="4.07" CO_abs="130.720778" CO2_abs="8975.749306" HC_abs="0.801945" PMx_abs="0.136102" NOx_abs="3.541574" fuel_abs="3.858317" electricity_abs="0"
            CO_normed="60.377253" CO2_normed="4145.714977" HC_normed="0.370402" PMx_normed="0.062863" NOx_normed="1.635781" fuel_normed="1.782078" electricity_normed="0"
            traveltime="0.09" CO_perVeh="3.030061" CO2_perVeh="208.054658" HC_perVeh="0.018589" PMx_perVeh="0.003155" NOx_perVeh="0.082092" fuel_perVeh="0.089434" electricity_perVeh="0"/>
        <edge id=":1105984398_0" sampledSeconds="10.67" CO_abs="594.002712" CO2_abs="41632.729016" HC_abs="3.681979" PMx_abs="0.722682" NOx_abs="16.991523" fuel_abs="17.896104" electricity_abs="0"
            CO_normed="20.877509" CO2_normed="1463.272236" HC_normed="0.129411" PMx_normed="0.025400" NOx_normed="0.597204" fuel_normed="0.628997" electricity_normed="0"
            traveltime="1.14" CO_perVeh="63.611881" CO2_perVeh="4458.458110" HC_perVeh="0.394304" PMx_perVeh="0.077392" NOx_perVeh="1.819626" fuel_perVeh="1.916498" electricity_perVeh="0"/>
        <edge id=":1105984398_1" sampledSeconds="647.72" CO_abs="12340.127898" CO2_abs="1404243.975174" HC_abs="88.470301" PMx_abs="20.500280" NOx_abs="534.005745" fuel_abs="603.624291" electricity_abs="0"
            CO_normed="419.830297" CO2_normed="47774.558746" HC_normed="3.009897" PMx_normed="0.697451" NOx_normed="18.167704" fuel_normed="20.536235" electricity_normed="0"
            traveltime="0.95" CO_perVeh="18.145684" CO2_perVeh="2064.886863" HC_perVeh="0.130092" PMx_perVeh="0.030145" NOx_perVeh="0.785235" fuel_perVeh="0.887606" electricity_perVeh="0"/>
        <edge id=":1106006327_0" sampledSeconds="66.76" CO_abs="9036.133885" CO2_abs="295894.917105" HC_abs="48.113488" PMx_abs="6.177445" NOx_abs="129.560209" fuel_abs="127.194700" electricity_abs="0"
            CO_normed="433.376631" CO2_normed="14191.239734" HC_normed="2.307542" PMx_normed="0.296273" NOx_normed="6.213760" fuel_normed="6.100309" electricity_normed="0"
            traveltime="2.07" CO_perVeh="280.116673" CO2_perVeh="9172.628549" HC_perVeh="1.491500" PMx_perVeh="0.191498" NOx_perVeh="4.016317" fuel_perVeh="3.942987" electricity_perVeh="0"/>
        <edge id=":1106006327_1" sampledSeconds="685.77" CO_abs="92928.836115" CO2_abs="3097743.360967" HC_abs="496.149360" PMx_abs="64.664524" NOx_abs="1355.960136" fuel_abs="1331.608309" electricity_abs="0"
            CO_normed="3886.631298" CO2_normed="129559.206839" HC_normed="20.750821" PMx_normed="2.704512" NOx_normed="56.711322" fuel_normed="55.692837" electricity_normed="0"
            traveltime="2.30" CO_perVeh="311.939610" CO2_perVeh="10398.374664" HC_perVeh="1.665453" PMx_perVeh="0.217063" NOx_perVeh="4.551630" fuel_perVeh="4.469887" electricity_perVeh="0"/>
        <edge id=":1106006327_2" sampledSeconds="0.00" CO_abs="0" CO2_abs="0" HC_abs="0" PMx_abs="0" NOx_abs="0" fuel_abs="0" electricity_abs="0"
            CO_normed="0" CO2_normed="0" HC_normed="0" PMx_normed="0" NOx_normed="0" fuel_normed="0" electricity_normed="0"/>
        <edge id=":1106006327_3" sampledSeconds="0.00" CO_abs="0" CO2_abs="0" HC_abs="0" PMx_abs="0" NOx_abs="0" fuel_abs="0" electricity_abs="0"
            CO_normed="0" CO2_normed="0" HC_normed="0" PMx_normed="0" NOx_normed="0" fuel_normed="0" electricity_normed="0"/>
        <edge id=":1107381198_0" sampledSeconds="0.00" CO_abs="0" CO2_abs="0" HC_abs="0" PMx_abs="0" NOx_abs="0" fuel_abs="0" electricity_abs="0"
            CO_normed="0" CO2_normed="0" HC_normed="0" PMx_normed="0" NOx_normed="0" fuel_normed="0" electricity_normed="0"/>
        <edge id=":1107381198_1" sampledSeconds="103.50" CO_abs="5048.609880" CO2_abs="200382.418103" HC_abs="27.609944" PMx_abs="3.506613" NOx_abs="83.332575" fuel_abs="86.137396" electricity_abs="0"
            CO_normed="233.947835" CO2_normed="9285.532858" HC_normed="1.279419" PMx_normed="0.162493" NOx_normed="3.861553" fuel_normed="3.991526" electricity_normed="0"
            traveltime="1.55" CO_perVeh="75.587370" CO2_perVeh="3000.109022" HC_perVeh="0.413374" PMx_perVeh="0.052501" NOx_perVeh="1.247648" fuel_perVeh="1.289642" electricity_perVeh="0"/>
        <edge id=":1110338277_0" sampledSeconds="160.48" CO_abs="2318.829746" CO2_abs="284688.013217" HC_abs="17.087758" PMx_abs="3.878943" NOx_abs="106.351809" fuel_abs="122.375459" electricity_abs="0"
            CO_normed="3519.065783" CO2_normed="432043.727060" HC_normed="25.932453" PMx_normed="5.886700" NOx_normed="161.399953" fuel_normed="185.717511" electricity_normed="0"
            traveltime="0.02" CO_perVeh="0.314065" CO2_perVeh="38.558486" HC_perVeh="0.002314" PMx_perVeh="0.000525" NOx_perVeh="0.014404" fuel_perVeh="0.016575" electricity_perVeh="0"/>
        <edge id=":1110338293_0" sampledSeconds="6567.82" CO_abs="619944.093631" CO2_abs="10834380.906034" HC_abs="3076.320225" PMx_abs="258.768540" NOx_abs="4898.437640" fuel_abs="4657.518411" electricity_abs="0"
            CO_normed="878107.781347" CO2_normed="15346148.592116" HC_normed="4357.394087" PMx_normed="366.527677" NOx_normed="6938.296940" fuel_normed="6597.051574" electricity_normed="0"
            traveltime="0.44" CO_perVeh="41.462826" CO2_perVeh="724.620257" HC_perVeh="0.205749" PMx_perVeh="0.017307" NOx_perVeh="0.327615" fuel_perVeh="0.311502" electricity_perVeh="0"/>
        <edge id=":1110338295_0" sampledSeconds="0.00" CO_abs="0" CO2_abs="0" HC_abs="0" PMx_abs="0" NOx_abs="0" fuel_abs="0" electricity_abs="0"
            CO_normed="0" CO2_normed="0" HC_normed="0" PMx_normed="0" NOx_normed="0" fuel_normed="0" electricity_normed="0"/>
        <edge id=":1110673403_0" sampledSeconds="201.13" CO_abs="3110.341987" CO2_abs="395632.800291" HC_abs="23.186473" PMx_abs="5.309876" NOx_abs="147.010316" fuel_abs="170.066025" electricity_abs="0"
            CO_normed="4405.583551" CO2_normed="560386.402678" HC_normed="32.842030" PMx_normed="7.521071" NOx_normed="208.229909" fuel_normed="240.886721" electricity_normed="0"
            traveltime="0.02" CO_perVeh="0.359480" CO2_perVeh="45.725562" HC_perVeh="0.002680" PMx_perVeh="0.000614" NOx_perVeh="0.016991" fuel_perVeh="0.019656" electricity_perVeh="0"/>
        <edge id=":1110673412_0" sampledSeconds="950.25" CO_abs="168452.412741" CO2_abs="11499958.651439" HC_abs="1048.452734" PMx_abs="252.685299" NOx_abs="4941.665689" fuel_abs="4943.265810" electricity_abs="0"
            CO_normed="246828.777095" CO2_normed="16850579.248958" HC_normed="1536.269514" PMx_normed="370.252953" NOx_normed="7240.889454" fuel_normed="7243.234067" electricity_normed="0"
            traveltime="0.02" CO_perVeh="2.753951" CO2_perVeh="188.007567" HC_perVeh="0.017141" PMx_perVeh="0.004131" NOx_perVeh="0.080789" fuel_perVeh="0.080815" electricity_perVeh="0"/>
        <edge id=":1110673414_0" sampledSeconds="0.00" CO_abs="0" CO2_abs="0" HC_abs="0" PMx_abs="0" NOx_abs="0" fuel_abs="0" electricity_abs="0"
            CO_normed="0" CO2_normed="0" HC_normed="0" PMx_normed="0" NOx_normed="0" fuel_normed="0" electricity_normed="0"/>
        <edge id=":1110673414_1" sampledSeconds="6.86" CO_abs="517.726862" CO2_abs="20544.510396" HC_abs="2.832831" PMx_abs="0.367750" NOx_abs="8.597488" fuel_abs="8.831354" electricity_abs="0"
            CO_normed="24.362929" CO2_normed="966.773192" HC_normed="0.133306" PMx_normed="0.017305" NOx_normed="0.404576" fuel_normed="0.415581" electricity_normed="0"
            traveltime="1.50" CO_perVeh="113.088379" CO2_perVeh="4487.588991" HC_perVeh="0.618782" PMx_perVeh="0.080328" NOx_perVeh="1.877971" fuel_perVeh="1.929055" electricity_perVeh="0"/>
        <edge id=":1110673417_0" sampledSeconds="28.96" CO_abs="560.694404" CO2_abs="56867.546594" HC_abs="3.868581" PMx_abs="0.857601" NOx_abs="21.919828" fuel_abs="24.444920" electricity_abs="0"
            CO_normed="850.912187" CO2_normed="86302.428056" HC_normed="5.870975" PMx_normed="1.301499" NOx_normed="33.265623" fuel_normed="37.097713" electricity_normed="0"
            traveltime="0.02" CO_perVeh="0.427556" CO2_perVeh="43.364234" HC_perVeh="0.002950" PMx_perVeh="0.000654" NOx_perVeh="0.016715" fuel_perVeh="0.018640" electricity_perVeh="0"/>
        <edge id=":1110673446_0" sampledSeconds="1327.23" CO_abs="14730.278826" CO2_abs="1200322.646498" HC_abs="95.475179" PMx_abs="21.882166" NOx_abs="490.108560" fuel_abs="515.963634" electricity_abs="0"
            CO_normed="20864.417600" CO2_normed="1700173.720252" HC_normed="135.233965" PMx_normed="30.994570" NOx_normed="694.204759" fuel_normed="730.826677" electricity_normed="0"
            traveltime="0.02" CO_perVeh="0.252945" CO2_perVeh="20.611641" HC_perVeh="0.001639" PMx_perVeh="0.000376" NOx_perVeh="0.008416" fuel_perVeh="0.008860" electricity_perVeh="0"/>
        <edge id=":1110673451_0" sampledSeconds="36.61" CO_abs="483.619468" CO2_abs="34764.643421" HC_abs="3.001409" PMx_abs="0.513878" NOx_abs="13.598371" fuel_abs="14.943939" electricity_abs="0"
            CO_normed="761.126012" CO2_normed="54713.005070" HC_normed="4.723652" PMx_normed="0.808747" NOx_normed="21.401277" fuel_normed="23.518948" electricity_normed="0"
            traveltime="0.03" CO_perVeh="0.356321" CO2_perVeh="25.613856" HC_perVeh="0.002211" PMx_perVeh="0.000379" NOx_perVeh="0.010019" fuel_perVeh="0.011010" electricity_perVeh="0"/>
        <edge id=":1110673464_0" sampledSeconds="1034.69" CO_abs="4071.422351" CO2_abs="284151.745959" HC_abs="25.045271" PMx_abs="4.082130" NOx_abs="110.401279" fuel_abs="122.145829" electricity_abs="0"
            CO_normed="122.525932" CO2_normed="8551.300848" HC_normed="0.753716" PMx_normed="0.122848" NOx_normed="3.322431" fuel_normed="3.675873" electricity_normed="0"
            traveltime="1.23" CO_perVeh="4.828137" CO2_perVeh="336.964203" HC_perVeh="0.029700" PMx_perVeh="0.004841" NOx_perVeh="0.130920" fuel_perVeh="0.144848" electricity_perVeh="0"/>
        <edge id=":1110673464_1" sampledSeconds="2595.74" CO_abs="63467.782640" CO2_abs="7810053.009674" HC_abs="475.083343" PMx_abs="139.148507" NOx_abs="2957.742965" fuel_abs="3357.182179" electricity_abs="0"
            CO_normed="1871.569239" CO2_normed="230306.690438" HC_normed="14.009492" PMx_normed="4.103280" NOx_normed="87.219382" fuel_normed="98.998242" electricity_normed="0"
            traveltime="0.72" CO_perVeh="17.497747" CO2_perVeh="2153.192096" HC_perVeh="0.130978" PMx_perVeh="0.038363" NOx_perVeh="0.815435" fuel_perVeh="0.925558" electricity_perVeh="0"/>
        <edge id=":1110673479_0" sampledSeconds="135.16" CO_abs="6309.783778" CO2_abs="437463.321987" HC_abs="38.996999" PMx_abs="7.587942" NOx_abs="178.462907" fuel_abs="188.046574" electricity_abs="0"
            CO_normed="8937.370790" CO2_normed="619636.433409" HC_normed="55.236543" PMx_normed="10.747793" NOx_normed="252.780321" fuel_normed="266.354920" electricity_normed="0"
            traveltime="0.03" CO_perVeh="1.333945" CO2_perVeh="92.483701" HC_perVeh="0.008244" PMx_perVeh="0.001604" NOx_perVeh="0.037729" fuel_perVeh="0.039755" electricity_perVeh="0"/>
        <edge id=":1110673511_0" sampledSeconds="63.53" CO_abs="1295.495375" CO2_abs="133045.315604" HC_abs="8.968148" PMx_abs="1.940884" NOx_abs="50.912126" fuel_abs="57.190558" electricity_abs="0"
            CO_normed="1834.979284" CO2_normed="188449.455530" HC_normed="12.702759" PMx_normed="2.749128" NOx_normed="72.113493" fuel_normed="81.006456" electricity_normed="0"
            traveltime="0.02" CO_perVeh="0.496517" CO2_perVeh="50.991498" HC_perVeh="0.003437" PMx_perVeh="0.000744" NOx_perVeh="0.019513" fuel_perVeh="0.021919" electricity_perVeh="0"/>
        <edge id=":1110673517_0" sampledSeconds="182.58" CO_abs="8127.266543" CO2_abs="581877.413665" HC_abs="50.661466" PMx_abs="10.019261" NOx_abs="236.513727" fuel_abs="250.123875" electricity_abs="0"
            CO_normed="11511.708984" CO2_normed="824188.971197" HC_normed="71.758450" PMx_normed="14.191588" NOx_normed="335.005279" fuel_normed="354.283110" electricity_normed="0"
            traveltime="0.03" CO_perVeh="1.244350" CO2_perVeh="89.090142" HC_perVeh="0.007757" PMx_perVeh="0.001534" NOx_perVeh="0.036212" fuel_perVeh="0.038296" electricity_perVeh="0"/>
        <edge id=":1110673534_0" sampledSeconds="737.49" CO_abs="5435.313063" CO2_abs="445934.498053" HC_abs="34.980477" PMx_abs="6.278809" NOx_abs="171.382776" fuel_abs="191.689456" electricity_abs="0"
            CO_normed="149.200460" CO2_normed="12240.993534" HC_normed="0.960221" PMx_normed="0.172355" NOx_normed="4.704492" fuel_normed="5.261915" electricity_normed="0"
            traveltime="1.45" CO_perVeh="10.719337" CO2_perVeh="879.456614" HC_perVeh="0.068987" PMx_perVeh="0.012383" NOx_perVeh="0.337995" fuel_perVeh="0.378043" electricity_perVeh="0"/>
        <edge id=":1110673534_1" sampledSeconds="199.82" CO_abs="2966.879698" CO2_abs="379753.756546" HC_abs="22.047795" PMx_abs="5.021439" NOx_abs="140.565036" fuel_abs="163.240371" electricity_abs="0"
            CO_normed="79.190562" CO2_normed="10136.209283" HC_normed="0.588489" PMx_normed="0.134030" NOx_normed="3.751896" fuel_normed="4.357135" electricity_normed="0"
            traveltime="1.22" CO_perVeh="18.135602" CO2_perVeh="2321.315227" HC_perVeh="0.134771" PMx_perVeh="0.030694" NOx_perVeh="0.859230" fuel_perVeh="0.997837" electricity_perVeh="0"/>
        <edge id=":1110673549_0" sampledSeconds="650.00" CO_abs="1290.179829" CO2_abs="115594.999010" HC_abs="8.504691" PMx_abs="1.718607" NOx_abs="44.488818" fuel_abs="49.689484" electricity_abs="0"
            CO_normed="34.307575" CO2_normed="3073.822776" HC_normed="0.226151" PMx_normed="0.045700" NOx_normed="1.183016" fuel_normed="1.321309" electricity_normed="0"
            traveltime="1.29" CO_perVeh="2.563283" CO2_perVeh="229.660008" HC_perVeh="0.016897" PMx_perVeh="0.003414" NOx_perVeh="0.088389" fuel_perVeh="0.098721" electricity_perVeh="0"/>
        <edge id=":1110673549_1" sampledSeconds="3196.32" CO_abs="72227.536888" CO2_abs="9374960.456716" HC_abs="552.575645" PMx_abs="165.373307" NOx_abs="3510.765620" fuel_abs="4029.866009" electricity_abs="0"
            CO_normed="1857.844305" CO2_normed="241143.719435" HC_normed="14.213409" PMx_normed="4.253750" NOx_normed="90.304283" fuel_normed="103.656638" electricity_normed="0"
            traveltime="0.81" CO_perVeh="18.215586" CO2_perVeh="2364.339182" HC_perVeh="0.139358" PMx_perVeh="0.041707" NOx_perVeh="0.885405" fuel_perVeh="1.016321" electricity_perVeh="0"/>
        <edge id=":1110673556_0" sampledSeconds="459.32" CO_abs="55820.297053" CO2_abs="2708279.400820" HC_abs="318.514268" PMx_abs="54.704967" NOx_abs="1167.607101" fuel_abs="1164.173449" electricity_abs="0"
            CO_normed="1100.680880" CO2_normed="53402.642267" HC_normed="6.280557" PMx_normed="1.078688" NOx_normed="23.023217" fuel_normed="22.955511" electricity_normed="0"
            traveltime="2.71" CO_perVeh="329.055284" CO2_perVeh="15965.046663" HC_perVeh="1.877611" PMx_perVeh="0.322481" NOx_perVeh="6.882932" fuel_perVeh="6.862691" electricity_perVeh="0"/>
        <edge id=":1110673556_2" sampledSeconds="173.04" CO_abs="16846.631097" CO2_abs="724874.270679" HC_abs="93.762637" PMx_abs="14.137143" NOx_abs="310.081341" fuel_abs="311.594753" electricity_abs="0"
            CO_normed="347.337463" CO2_normed="14945.183325" HC_normed="1.933163" PMx_normed="0.291474" NOx_normed="6.393140" fuel_normed="6.424343" electricity_normed="0"
            traveltime="2.99" CO_perVeh="291.302325" CO2_perVeh="12534.111953" HC_perVeh="1.621290" PMx_perVeh="0.244451" NOx_perVeh="5.361749" fuel_perVeh="5.387919" electricity_perVeh="0"/>
        <edge id=":1110673556_3" sampledSeconds="339.59" CO_abs="33768.981073" CO2_abs="1179020.716424" HC_abs="181.367478" PMx_abs="23.435532" NOx_abs="508.822632" fuel_abs="506.818937" electricity_abs="0"
            CO_normed="1583.821786" CO2_normed="55298.046847" HC_normed="8.506439" PMx_normed="1.099166" NOx_normed="23.864634" fuel_normed="23.770657" electricity_normed="0"
            traveltime="1.83" CO_perVeh="181.590300" CO2_perVeh="6340.100243" HC_perVeh="0.975291" PMx_perVeh="0.126023" NOx_perVeh="2.736158" fuel_perVeh="2.725383" electricity_perVeh="0"/>
        <edge id=":1110673556_4" sampledSeconds="91.32" CO_abs="10396.471930" CO2_abs="397969.734994" HC_abs="56.700617" PMx_abs="7.962841" NOx_abs="171.875313" fuel_abs="171.072074" electricity_abs="0"
            CO_normed="297.893748" CO2_normed="11403.166052" HC_normed="1.624663" PMx_normed="0.228162" NOx_normed="4.924803" fuel_normed="4.901788" electricity_normed="0"
            traveltime="2.56" CO_perVeh="291.642414" CO2_perVeh="11163.869349" HC_perVeh="1.590569" PMx_perVeh="0.223374" NOx_perVeh="4.821456" fuel_perVeh="4.798923" electricity_perVeh="0"/>
        <edge id=":1110673556_5" sampledSeconds="21.94" CO_abs="1049.202711" CO2_abs="49650.520301" HC_abs="5.923490" PMx_abs="0.836055" NOx_abs="20.363708" fuel_abs="21.342908" electricity_abs="0"
            CO_normed="41.901959" CO2_normed="1982.890489" HC_normed="0.236566" PMx_normed="0.033390" NOx_normed="0.813264" fuel_normed="0.852371" electricity_normed="0"
            traveltime="1.52" CO_perVeh="72.537471" CO2_perVeh="3432.628564" HC_perVeh="0.409525" PMx_perVeh="0.057801" NOx_perVeh="1.407861" fuel_perVeh="1.475559" electricity_perVeh="0"/>
        <edge id=":1110673556_6" sampledSeconds="556.88" CO_abs="67229.911193" CO2_abs="3217031.019761" HC_abs="382.494269" PMx_abs="64.860079" NOx_abs="1386.667300" fuel_abs="1382.864927" electricity_abs="0"
            CO_normed="1359.084250" CO2_normed="65033.793927" HC_normed="7.732301" PMx_normed="1.311177" NOx_normed="28.032131" fuel_normed="27.955264" electricity_normed="0"
            traveltime="2.70" CO_perVeh="326.416083" CO2_perVeh="15619.396871" HC_perVeh="1.857094" PMx_perVeh="0.314910" NOx_perVeh="6.732576" fuel_perVeh="6.714115" electricity_perVeh="0"/>
        <edge id=":1110673561_0" sampledSeconds="105.44" CO_abs="8902.395800" CO2_abs="643402.557208" HC_abs="55.979256" PMx_abs="12.828262" NOx_abs="271.104452" fuel_abs="276.568298" electricity_abs="0"
            CO_normed="226.114031" CO2_normed="16341.931863" HC_normed="1.421830" PMx_normed="0.325828" NOx_normed="6.885845" fuel_normed="7.024623" electricity_normed="0"
            traveltime="1.24" CO_perVeh="105.056911" CO2_perVeh="7592.774661" HC_perVeh="0.660610" PMx_perVeh="0.151386" NOx_perVeh="3.199296" fuel_perVeh="3.263774" electricity_perVeh="0"/>
        <edge id=":1110673561_1" sampledSeconds="5254.28" CO_abs="487815.086384" CO2_abs="33846648.477760" HC_abs="3039.871675" PMx_abs="706.550872" NOx_abs="14464.032127" fuel_abs="14549.040347" electricity_abs="0"
            CO_normed="12079.654074" CO2_normed="838136.860817" HC_normed="75.275651" PMx_normed="17.496159" NOx_normed="358.169539" fuel_normed="360.274578" electricity_normed="0"
            traveltime="1.19" CO_perVeh="110.768500" CO2_perVeh="7685.581280" HC_perVeh="0.690266" PMx_perVeh="0.160437" NOx_perVeh="3.284358" fuel_perVeh="3.303660" electricity_perVeh="0"/>
        <edge id=":1110673562_0" sampledSeconds="299.98" CO_abs="7088.196550" CO2_abs="541319.533238" HC_abs="44.628432" PMx_abs="7.411951" NOx_abs="207.398067" fuel_abs="232.692344" electricity_abs="0"
            CO_normed="11155.487174" CO2_normed="851935.053884" HC_normed="70.236752" PMx_normed="11.665015" NOx_normed="326.405519" fuel_normed="366.213950" electricity_normed="0"
            traveltime="0.03" CO_perVeh="0.635396" CO2_perVeh="48.524659" HC_perVeh="0.004001" PMx_perVeh="0.000664" NOx_perVeh="0.018591" fuel_perVeh="0.020859" electricity_perVeh="0"/>
        <edge id=":1110673564_0" sampledSeconds="28.10" CO_abs="451.166350" CO2_abs="50168.325828" HC_abs="3.194630" PMx_abs="0.691113" NOx_abs="18.864317" fuel_abs="21.565278" electricity_abs="0"
            CO_normed="1917.137466" CO2_normed="213179.854793" HC_normed="13.574917" PMx_normed="2.936742" NOx_normed="80.159985" fuel_normed="91.637160" electricity_normed="0"
            traveltime="7.936910e-03" CO_perVeh="0.127430" CO2_perVeh="14.169842" HC_perVeh="0.000902" PMx_perVeh="0.000195" NOx_perVeh="0.005328" fuel_perVeh="0.006091" electricity_perVeh="0"/>
        <edge id=":1110673588_0" sampledSeconds="63.21" CO_abs="1000.526307" CO2_abs="112976.323134" HC_abs="7.141769" PMx_abs="1.524845" NOx_abs="42.304188" fuel_abs="48.563863" electricity_abs="0"
            CO_normed="1700.611286" CO2_normed="192027.744703" HC_normed="12.138983" PMx_normed="2.591805" NOx_normed="71.905136" fuel_normed="82.544810" electricity_normed="0"
            traveltime="0.02" CO_perVeh="0.322750" CO2_perVeh="36.443975" HC_perVeh="0.002304" PMx_perVeh="0.000492" NOx_perVeh="0.013647" fuel_perVeh="0.015666" electricity_perVeh="0"/>
        <edge id=":1110673601_0" sampledSeconds="29.12" CO_abs="552.200752" CO2_abs="58228.234733" HC_abs="3.852791" PMx_abs="0.820549" NOx_abs="22.065827" fuel_abs="25.029892" electricity_abs="0"
            CO_normed="838.022186" CO2_normed="88367.414104" HC_normed="5.847012" PMx_normed="1.245269" NOx_normed="33.487191" fuel_normed="37.985469" electricity_normed="0"
            traveltime="0.02" CO_perVeh="0.421080" CO2_perVeh="44.401824" HC_perVeh="0.002938" PMx_perVeh="0.000626" NOx_perVeh="0.016826" fuel_perVeh="0.019086" electricity_perVeh="0"/>
        <edge id=":1110673617_0" sampledSeconds="852.22" CO_abs="30314.302959" CO2_abs="3107893.539380" HC_abs="212.276451" PMx_abs="58.284813" NOx_abs="1214.995328" fuel_abs="1335.938224" electricity_abs="0"
            CO_normed="42938.106174" CO2_normed="4402115.494872" HC_normed="300.674859" PMx_normed="82.556393" NOx_normed="1720.956555" fuel_normed="1892.263773" electricity_normed="0"
            traveltime="0.02" CO_perVeh="0.537950" CO2_perVeh="55.151928" HC_perVeh="0.003767" PMx_perVeh="0.001034" NOx_perVeh="0.021561" fuel_perVeh="0.023707" electricity_perVeh="0"/>
        <edge id=":1110673621_0" sampledSeconds="26.51" CO_abs="601.802822" CO2_abs="64365.618262" HC_abs="4.226137" PMx_abs="0.914168" NOx_abs="24.443547" fuel_abs="27.668079" electricity_abs="0"
            CO_normed="1022.894314" CO2_normed="109403.317159" HC_normed="7.183236" PMx_normed="1.553826" NOx_normed="41.547105" fuel_normed="47.027897" electricity_normed="0"
            traveltime="0.02" CO_perVeh="0.455911" CO2_perVeh="48.761832" HC_perVeh="0.003202" PMx_perVeh="0.000693" NOx_perVeh="0.018518" fuel_perVeh="0.020961" electricity_perVeh="0"/>
        <edge id=":1110673630_0" sampledSeconds="287.42" CO_abs="1606.996034" CO2_abs="135855.396793" HC_abs="10.427137" PMx_abs="1.863381" NOx_abs="51.833613" fuel_abs="58.398857" electricity_abs="0"
            CO_normed="48.706099" CO2_normed="4117.612136" HC_normed="0.316034" PMx_normed="0.056477" NOx_normed="1.571014" fuel_normed="1.769998" electricity_normed="0"
            traveltime="1.29" CO_perVeh="7.230868" CO2_perVeh="611.297399" HC_perVeh="0.046918" PMx_perVeh="0.008385" NOx_perVeh="0.233231" fuel_perVeh="0.262773" electricity_perVeh="0"/>
        <edge id=":1110673630_1" sampledSeconds="336.45" CO_abs="1369.708493" CO2_abs="110000.198357" HC_abs="8.765788" PMx_abs="1.591660" NOx_abs="42.613088" fuel_abs="47.284651" electricity_abs="0"
            CO_normed="50.611226" CO2_normed="4064.547297" HC_normed="0.323899" PMx_normed="0.058812" NOx_normed="1.574569" fuel_normed="1.747185" electricity_normed="0"
            traveltime="1.07" CO_perVeh="4.366361" CO2_perVeh="350.658983" HC_perVeh="0.027944" PMx_perVeh="0.005074" NOx_perVeh="0.135842" fuel_perVeh="0.150734" electricity_perVeh="0"/>
        <edge id=":1110673650_0" sampledSeconds="200.03" CO_abs="3122.464919" CO2_abs="389186.891352" HC_abs="23.088242" PMx_abs="5.297172" NOx_abs="145.194134" fuel_abs="167.295125" electricity_abs="0"
            CO_normed="4422.754843" CO2_normed="551256.220045" HC_normed="32.702892" PMx_normed="7.503077" NOx_normed="205.657414" fuel_normed="236.961933" electricity_normed="0"
            traveltime="0.02" CO_perVeh="0.360881" CO2_perVeh="44.980571" HC_perVeh="0.002668" PMx_perVeh="0.000612" NOx_perVeh="0.016781" fuel_perVeh="0.019335" electricity_perVeh="0"/>
        <edge id=":1110673655_0" sampledSeconds="20.69" CO_abs="316.943973" CO2_abs="39792.194858" HC_abs="2.361832" PMx_abs="0.542955" NOx_abs="14.856517" fuel_abs="17.104994" electricity_abs="0"
            CO_normed="448.929140" CO2_normed="56362.882235" HC_normed="3.345371" PMx_normed="0.769058" NOx_normed="21.043225" fuel_normed="24.228037" electricity_normed="0"
            traveltime="0.02" CO_perVeh="0.362084" CO2_perVeh="45.459476" HC_perVeh="0.002698" PMx_perVeh="0.000620" NOx_perVeh="0.016972" fuel_perVeh="0.019541" electricity_perVeh="0"/>
        <edge id=":1110673663_0" sampledSeconds="111.16" CO_abs="1989.521025" CO2_abs="224033.282072" HC_abs="14.225154" PMx_abs="3.161174" NOx_abs="84.669949" fuel_abs="96.302478" electricity_abs="0"
            CO_normed="51.612060" CO2_normed="5811.860714" HC_normed="0.369028" PMx_normed="0.082007" NOx_normed="2.196504" fuel_normed="2.498274" electricity_normed="0"
            traveltime="1.31" CO_perVeh="23.367863" CO2_perVeh="2631.376587" HC_perVeh="0.167081" PMx_perVeh="0.037129" NOx_perVeh="0.994488" fuel_perVeh="1.131118" electricity_perVeh="0"/>
        <edge id=":1110673663_1" sampledSeconds="170.63" CO_abs="2626.121380" CO2_abs="334425.607908" HC_abs="19.589152" PMx_abs="4.452780" NOx_abs="124.048582" fuel_abs="143.755661" electricity_abs="0"
            CO_normed="68.210000" CO2_normed="8686.259097" HC_normed="0.508802" PMx_normed="0.115655" NOx_normed="3.221996" fuel_normed="3.733862" electricity_normed="0"
            traveltime="1.27" CO_perVeh="19.599197" CO2_perVeh="2495.876017" HC_perVeh="0.146197" PMx_perVeh="0.033232" NOx_perVeh="0.925796" fuel_perVeh="1.072873" electricity_perVeh="0"/>