<?xml version="1.0" encoding="UTF-8"?>

<!-- generated on ter 03 nov 2020 03:32:51 WET by Eclipse SUMO GUI Version 1.7.0
<configuration xmlns:xsi="http://www.w3.org/2001/XMLSchema-instance" xsi:noNamespaceSchemaLocation="http://sumo.dlr.de/xsd/sumoConfiguration.xsd">

    <input>
        <net-file value="../dataSets/Porto/8AM9AM_Routing_SaoBento/Porto.net.xml"/>
        <route-files value="../dataSets/Porto/8AM9AM_Routing_SaoBento/Porto.rou.xml"/>
        <additional-files value="moreOutputInfo.xml"/>
    </input>

    <output>
        <emission-output.precision value="6"/>
        <tripinfo-output value="../results/Porto/8AM9AM_Routing_SaoBento/inputdata/Porto-tripinfo"/>
    </output>

    <processing>
        <collision.action value="warn"/>
        <time-to-teleport value="-1"/>
    </processing>

    <emissions>
        <device.emissions.probability value="1"/>
    </emissions>

    <gui_only>
        <gui-settings-file value="gui-settings.xml"/>
        <window-size value="800,600"/>
        <window-pos value="0,0"/>
    </gui_only>

</configuration>
-->

<tripinfos xmlns:xsi="http://www.w3.org/2001/XMLSchema-instance" xsi:noNamespaceSchemaLocation="http://sumo.dlr.de/xsd/tripinfo_file.xsd">
    <tripinfo id="38" depart="8.00" departLane="480148041_1" departPos="4.85" departSpeed="0.00" departDelay="0.41" arrival="60.00" arrivalLane="549454264#1_0" arrivalPos="63.02" arrivalSpeed="16.06" duration="52.00" routeLength="830.13" waitingTime="0.00" waitingCount="0" stopTime="0.00" timeLoss="7.13" rerouteNo="0" devices="tripinfo_38 emissions_38" vType="CV" speedFactor="1.18" vaporized="">
        <emissions CO_abs="2472.859394" CO2_abs="195733.100967" HC_abs="15.946952" PMx_abs="3.723039" NOx_abs="79.037099" fuel_abs="84.136700" electricity_abs="0"/>
    </tripinfo>
    <tripinfo id="31" depart="7.00" departLane="549454263#0_0" departPos="4.85" departSpeed="0.00" departDelay="0.93" arrival="93.00" arrivalLane="367461722_0" arrivalPos="259.72" arrivalSpeed="15.37" duration="86.00" routeLength="1244.94" waitingTime="0.00" waitingCount="0" stopTime="0.00" timeLoss="13.27" rerouteNo="0" devices="tripinfo_31 emissions_31" vType="CV" speedFactor="1.18" vaporized="">
        <emissions CO_abs="4156.550019" CO2_abs="309608.470222" HC_abs="26.305079" PMx_abs="5.884422" NOx_abs="126.438325" fuel_abs="133.086573" electricity_abs="0"/>
    </tripinfo>
    <tripinfo id="514" depart="92.00" departLane="190128487#4_0" departPos="6.60" departSpeed="0.00" departDelay="0.12" arrival="100.00" arrivalLane="190128487#4_0" arrivalPos="66.25" arrivalSpeed="13.47" duration="8.00" routeLength="59.65" waitingTime="0.00" waitingCount="0" stopTime="0.00" timeLoss="3.77" rerouteNo="0" devices="tripinfo_514 emissions_514" vType="VAN" speedFactor="1.04" vaporized="">
        <emissions CO_abs="2799.302310" CO2_abs="46095.547544" HC_abs="124.356407" PMx_abs="12.734169" NOx_abs="0" fuel_abs="19.696536" electricity_abs="0"/>
    </tripinfo>
    <tripinfo id="120" depart="23.00" departLane="480148041_0" departPos="4.85" departSpeed="0.00" departDelay="0.96" arrival="101.00" arrivalLane="549454264#1_0" arrivalPos="63.02" arrivalSpeed="13.69" duration="78.00" routeLength="830.13" waitingTime="17.00" waitingCount="1" stopTime="0.00" timeLoss="31.08" rerouteNo="0" devices="tripinfo_120 emissions_120" vType="CV" speedFactor="1.07" vaporized="">
        <emissions CO_abs="5469.877510" CO2_abs="263067.888496" HC_abs="31.191487" PMx_abs="5.267732" NOx_abs="109.549188" fuel_abs="113.082112" electricity_abs="0"/>
    </tripinfo>
    <tripinfo id="122" depart="24.00" departLane="480148041_1" departPos="4.85" departSpeed="0.00" departDelay="1.44" arrival="101.00" arrivalLane="549454264#1_1" arrivalPos="63.02" arrivalSpeed="14.84" duration="77.00" routeLength="830.13" waitingTime="15.00" waitingCount="1" stopTime="0.00" timeLoss="30.37" rerouteNo="0" devices="tripinfo_122 emissions_122" vType="CV" speedFactor="1.10" vaporized="">
        <emissions CO_abs="5213.176648" CO2_abs="264485.433947" HC_abs="30.043272" PMx_abs="5.348379" NOx_abs="110.868726" fuel_abs="113.691086" electricity_abs="0"/>
    </tripinfo>
    <tripinfo id="165" depart="31.00" departLane="480148041_3" departPos="4.85" departSpeed="0.00" departDelay="0.69" arrival="103.00" arrivalLane="549454264#1_0" arrivalPos="63.02" arrivalSpeed="13.97" duration="72.00" routeLength="830.13" waitingTime="5.00" waitingCount="1" stopTime="0.00" timeLoss="24.16" rerouteNo="0" devices="tripinfo_165 emissions_165" vType="CV" speedFactor="1.05" vaporized="">
        <emissions CO_abs="3720.730135" CO2_abs="243719.034474" HC_abs="22.680472" PMx_abs="4.596329" NOx_abs="99.643538" fuel_abs="104.764102" electricity_abs="0"/>
    </tripinfo>
    <tripinfo id="183" depart="34.00" departLane="480148041_1" departPos="6.60" departSpeed="0.00" departDelay="0.13" arrival="103.00" arrivalLane="549454264#1_1" arrivalPos="63.02" arrivalSpeed="12.82" duration="69.00" routeLength="828.38" waitingTime="1.00" waitingCount="1" stopTime="0.00" timeLoss="20.80" rerouteNo="0" devices="tripinfo_183 emissions_183" vType="VAN" speedFactor="1.01" vaporized="">
        <emissions CO_abs="13273.048004" CO2_abs="250872.393519" HC_abs="551.252540" PMx_abs="66.519799" NOx_abs="0" fuel_abs="107.136312" electricity_abs="0"/>
    </tripinfo>
    <tripinfo id="188" depart="37.00" departLane="480148041_3" departPos="4.85" departSpeed="0.00" departDelay="1.98" arrival="106.00" arrivalLane="549454264#1_0" arrivalPos="63.02" arrivalSpeed="12.06" duration="69.00" routeLength="830.13" waitingTime="0.00" waitingCount="0" stopTime="0.00" timeLoss="14.11" rerouteNo="0" devices="tripinfo_188 emissions_188" vType="CV" speedFactor="0.89" vaporized="">
        <emissions CO_abs="3385.434192" CO2_abs="223596.201301" HC_abs="20.723923" PMx_abs="4.177155" NOx_abs="91.611719" fuel_abs="96.114180" electricity_abs="0"/>
    </tripinfo>
    <tripinfo id="21" depart="6.00" departLane="480148041_2" departPos="4.85" departSpeed="0.00" departDelay="1.56" arrival="107.00" arrivalLane="367461722_0" arrivalPos="259.72" arrivalSpeed="13.80" duration="101.00" routeLength="1717.30" waitingTime="0.00" waitingCount="0" stopTime="0.00" timeLoss="11.27" rerouteNo="0" devices="tripinfo_21 emissions_21" vType="CV" speedFactor="1.02" vaporized="">
        <emissions CO_abs="4000.132853" CO2_abs="349785.311816" HC_abs="26.578394" PMx_abs="6.521169" NOx_abs="139.259932" fuel_abs="150.356651" electricity_abs="0"/>
    </tripinfo>
    <tripinfo id="64" depart="15.00" departLane="480148041_3" departPos="4.85" departSpeed="0.00" departDelay="2.15" arrival="114.00" arrivalLane="367461722_0" arrivalPos="259.72" arrivalSpeed="12.76" duration="99.00" routeLength="1717.30" waitingTime="0.00" waitingCount="0" stopTime="0.00" timeLoss="8.42" rerouteNo="0" devices="tripinfo_64 emissions_64" vType="CV" speedFactor="0.99" vaporized="">
        <emissions CO_abs="3083.550282" CO2_abs="304876.082045" HC_abs="21.321502" PMx_abs="5.370011" NOx_abs="117.769717" fuel_abs="131.052537" electricity_abs="0"/>
    </tripinfo>
    <tripinfo id="268" depart="51.00" departLane="480148041_2" departPos="4.85" departSpeed="0.00" departDelay="0.49" arrival="116.00" arrivalLane="549454264#1_0" arrivalPos="63.02" arrivalSpeed="11.62" duration="65.00" routeLength="830.13" waitingTime="0.00" waitingCount="0" stopTime="0.00" timeLoss="11.62" rerouteNo="0" devices="tripinfo_268 emissions_268" vType="CV" speedFactor="0.92" vaporized="">
        <emissions CO_abs="4126.025466" CO2_abs="272638.067707" HC_abs="25.340172" PMx_abs="5.481096" NOx_abs="115.057790" fuel_abs="117.194444" electricity_abs="0"/>
    </tripinfo>
    <tripinfo id="77" depart="15.00" departLane="480148041_2" departPos="6.60" departSpeed="0.00" departDelay="0.38" arrival="118.00" arrivalLane="367461722_0" arrivalPos="259.72" arrivalSpeed="13.43" duration="103.00" routeLength="1715.55" waitingTime="0.00" waitingCount="0" stopTime="0.00" timeLoss="13.94" rerouteNo="0" devices="tripinfo_77 emissions_77" vType="VAN" speedFactor="1.02" vaporized="">
        <emissions CO_abs="16617.327537" CO2_abs="382124.597500" HC_abs="688.610059" PMx_abs="101.846783" NOx_abs="0" fuel_abs="163.109621" electricity_abs="0"/>
    </tripinfo>
    <tripinfo id="28" depart="6.00" departLane="367461723_1" departPos="6.60" departSpeed="0.00" departDelay="0.83" arrival="120.00" arrivalLane="-34774629#0_0" arrivalPos="58.65" arrivalSpeed="12.93" duration="114.00" routeLength="1422.99" waitingTime="0.00" waitingCount="0" stopTime="0.00" timeLoss="10.77" rerouteNo="0" devices="tripinfo_28 emissions_28" vType="VAN" speedFactor="0.97" vaporized="">
        <emissions CO_abs="14477.739698" CO2_abs="322673.161802" HC_abs="670.176287" PMx_abs="81.518426" NOx_abs="0" fuel_abs="137.774603" electricity_abs="0"/>
    </tripinfo>
    <tripinfo id="83" depart="16.00" departLane="480148041_1" departPos="4.85" departSpeed="0.00" departDelay="0.40" arrival="120.00" arrivalLane="367461722_0" arrivalPos="259.72" arrivalSpeed="12.86" duration="104.00" routeLength="1717.30" waitingTime="0.00" waitingCount="0" stopTime="0.00" timeLoss="15.13" rerouteNo="0" devices="tripinfo_83 emissions_83" vType="CV" speedFactor="1.02" vaporized="">
        <emissions CO_abs="4502.221121" CO2_abs="397187.658887" HC_abs="30.040341" PMx_abs="7.377509" NOx_abs="158.854630" fuel_abs="170.732670" electricity_abs="0"/>
    </tripinfo>
    <tripinfo id="333" depart="65.00" departLane="480148041_0" departPos="4.85" departSpeed="0.00" departDelay="2.14" arrival="120.00" arrivalLane="549454264#1_0" arrivalPos="63.02" arrivalSpeed="13.33" duration="55.00" routeLength="830.13" waitingTime="0.00" waitingCount="0" stopTime="0.00" timeLoss="6.90" rerouteNo="0" devices="tripinfo_333 emissions_333" vType="CV" speedFactor="1.01" vaporized="">
        <emissions CO_abs="2642.422137" CO2_abs="204032.232645" HC_abs="16.906862" PMx_abs="3.822734" NOx_abs="82.391260" fuel_abs="87.704223" electricity_abs="0"/>
    </tripinfo>
    <tripinfo id="61" depart="15.00" departLane="480148041_0" departPos="4.85" departSpeed="0.00" departDelay="2.95" arrival="121.00" arrivalLane="367461722_1" arrivalPos="259.72" arrivalSpeed="14.50" duration="106.00" routeLength="1717.30" waitingTime="0.00" waitingCount="0" stopTime="0.00" timeLoss="18.82" rerouteNo="0" devices="tripinfo_61 emissions_61" vType="CV" speedFactor="1.08" vaporized="">
        <emissions CO_abs="5007.864730" CO2_abs="406205.469615" HC_abs="32.476958" PMx_abs="7.771540" NOx_abs="165.143239" fuel_abs="174.608865" electricity_abs="0"/>
    </tripinfo>
    <tripinfo id="345" depart="65.00" departLane="480148041_2" departPos="4.85" departSpeed="0.00" departDelay="0.40" arrival="123.00" arrivalLane="549454264#1_0" arrivalPos="63.02" arrivalSpeed="12.56" duration="58.00" routeLength="830.13" waitingTime="0.00" waitingCount="0" stopTime="0.00" timeLoss="8.51" rerouteNo="0" devices="tripinfo_345 emissions_345" vType="CV" speedFactor="0.98" vaporized="">
        <emissions CO_abs="2779.607856" CO2_abs="211687.460123" HC_abs="17.650413" PMx_abs="3.931667" NOx_abs="85.629968" fuel_abs="90.994896" electricity_abs="0"/>
    </tripinfo>
    <tripinfo id="220" depart="45.00" departLane="256605510_0" departPos="4.85" departSpeed="0.00" departDelay="4.39" arrival="125.00" arrivalLane="304693638_0" arrivalPos="158.88" arrivalSpeed="11.43" duration="80.00" routeLength="896.35" waitingTime="0.00" waitingCount="0" stopTime="0.00" timeLoss="9.62" rerouteNo="0" devices="tripinfo_220 emissions_220" vType="CV" speedFactor="0.91" vaporized="">
        <emissions CO_abs="3388.147402" CO2_abs="222880.238260" HC_abs="20.660875" PMx_abs="3.868481" NOx_abs="90.429996" fuel_abs="95.806779" electricity_abs="0"/>
    </tripinfo>
    <tripinfo id="45" depart="10.00" departLane="100_0" departPos="4.85" departSpeed="0.00" departDelay="0.87" arrival="127.00" arrivalLane="36928561_0" arrivalPos="208.10" arrivalSpeed="11.09" duration="117.00" routeLength="1274.75" waitingTime="0.00" waitingCount="0" stopTime="0.00" timeLoss="11.38" rerouteNo="0" devices="tripinfo_45 emissions_45" vType="CV" speedFactor="1.04" vaporized="">
        <emissions CO_abs="3408.118718" CO2_abs="274683.359374" HC_abs="21.843019" PMx_abs="4.063256" NOx_abs="106.604942" fuel_abs="118.075194" electricity_abs="0"/>
    </tripinfo>
    <tripinfo id="98" depart="19.00" departLane="480148041_0" departPos="6.60" departSpeed="0.00" departDelay="0.63" arrival="127.00" arrivalLane="367461722_0" arrivalPos="259.72" arrivalSpeed="12.09" duration="108.00" routeLength="1715.55" waitingTime="0.00" waitingCount="0" stopTime="0.00" timeLoss="13.37" rerouteNo="0" devices="tripinfo_98 emissions_98" vType="VAN" speedFactor="0.95" vaporized="">
        <emissions CO_abs="16933.994205" CO2_abs="388945.147736" HC_abs="699.903775" PMx_abs="101.202691" NOx_abs="0" fuel_abs="166.021442" electricity_abs="0"/>
    </tripinfo>
    <tripinfo id="65" depart="14.00" departLane="367461723_1" departPos="6.60" departSpeed="0.00" departDelay="0.55" arrival="128.00" arrivalLane="-34774629#0_0" arrivalPos="58.65" arrivalSpeed="13.37" duration="114.00" routeLength="1422.99" waitingTime="0.00" waitingCount="0" stopTime="0.00" timeLoss="9.91" rerouteNo="0" devices="tripinfo_65 emissions_65" vType="VAN" speedFactor="0.97" vaporized="">
        <emissions CO_abs="14567.624625" CO2_abs="323617.547548" HC_abs="679.076002" PMx_abs="81.448020" NOx_abs="0" fuel_abs="138.181235" electricity_abs="0"/>
    </tripinfo>
    <tripinfo id="364" depart="70.00" departLane="480148041_0" departPos="4.85" departSpeed="0.00" departDelay="1.85" arrival="132.00" arrivalLane="549454264#1_0" arrivalPos="63.02" arrivalSpeed="12.19" duration="62.00" routeLength="830.13" waitingTime="0.00" waitingCount="0" stopTime="0.00" timeLoss="7.25" rerouteNo="0" devices="tripinfo_364 emissions_364" vType="CV" speedFactor="0.90" vaporized="">
        <emissions CO_abs="2479.390582" CO2_abs="198055.674171" HC_abs="15.879130" PMx_abs="3.419953" NOx_abs="78.237615" fuel_abs="85.135511" electricity_abs="0"/>
    </tripinfo>
    <tripinfo id="386" depart="71.00" departLane="480148041_1" departPos="4.85" departSpeed="0.00" departDelay="0.06" arrival="133.00" arrivalLane="549454264#1_0" arrivalPos="63.02" arrivalSpeed="13.36" duration="62.00" routeLength="830.13" waitingTime="0.00" waitingCount="0" stopTime="0.00" timeLoss="14.71" rerouteNo="0" devices="tripinfo_386 emissions_386" vType="CV" speedFactor="1.06" vaporized="">
        <emissions CO_abs="3024.757582" CO2_abs="219644.657222" HC_abs="18.985851" PMx_abs="4.073314" NOx_abs="89.471980" fuel_abs="94.415406" electricity_abs="0"/>
    </tripinfo>
    <tripinfo id="72" depart="20.00" departLane="367461723_3" departPos="4.85" departSpeed="0.00" departDelay="5.91" arrival="135.00" arrivalLane="-34774629#0_0" arrivalPos="58.65" arrivalSpeed="12.75" duration="115.00" routeLength="1424.74" waitingTime="0.00" waitingCount="0" stopTime="0.00" timeLoss="11.30" rerouteNo="0" devices="tripinfo_72 emissions_72" vType="CV" speedFactor="0.97" vaporized="">
        <emissions CO_abs="3537.474015" CO2_abs="291950.124954" HC_abs="22.948303" PMx_abs="4.734704" NOx_abs="114.449206" fuel_abs="125.496929" electricity_abs="0"/>
    </tripinfo>
    <tripinfo id="82" depart="16.00" departLane="549454263#0_0" departPos="6.60" departSpeed="0.00" departDelay="0.45" arrival="136.00" arrivalLane="367461722_0" arrivalPos="259.72" arrivalSpeed="13.29" duration="120.00" routeLength="1243.19" waitingTime="20.00" waitingCount="1" stopTime="0.00" timeLoss="38.55" rerouteNo="0" devices="tripinfo_82 emissions_82" vType="VAN" speedFactor="1.00" vaporized="">
        <emissions CO_abs="21659.677385" CO2_abs="394413.212095" HC_abs="1015.346014" PMx_abs="117.159163" NOx_abs="0" fuel_abs="168.501286" electricity_abs="0"/>
    </tripinfo>
    <tripinfo id="418" depart="76.00" departLane="480148041_2" departPos="6.60" departSpeed="0.00" departDelay="0.28" arrival="137.00" arrivalLane="549454264#1_0" arrivalPos="63.02" arrivalSpeed="13.72" duration="61.00" routeLength="828.38" waitingTime="0.00" waitingCount="0" stopTime="0.00" timeLoss="13.30" rerouteNo="0" devices="tripinfo_418 emissions_418" vType="VAN" speedFactor="1.05" vaporized="">
        <emissions CO_abs="15369.142935" CO2_abs="294418.951697" HC_abs="574.565810" PMx_abs="72.977928" NOx_abs="0" fuel_abs="125.702359" electricity_abs="0"/>
    </tripinfo>
    <tripinfo id="5" depart="2.00" departLane="106586101#0_0" departPos="4.85" departSpeed="0.00" departDelay="0.34" arrival="142.00" arrivalLane="453763721_0" arrivalPos="160.68" arrivalSpeed="14.05" duration="140.00" routeLength="2210.72" waitingTime="0.00" waitingCount="0" stopTime="0.00" timeLoss="10.53" rerouteNo="0" devices="tripinfo_5 emissions_5" vType="CV" speedFactor="1.03" vaporized="">
        <emissions CO_abs="4635.489589" CO2_abs="414729.660633" HC_abs="31.047697" PMx_abs="7.428323" NOx_abs="162.035448" fuel_abs="178.273746" electricity_abs="0"/>
    </tripinfo>
    <tripinfo id="168" depart="35.00" departLane="367461723_2" departPos="4.85" departSpeed="0.00" departDelay="4.19" arrival="143.00" arrivalLane="-34774629#0_0" arrivalPos="58.65" arrivalSpeed="14.14" duration="108.00" routeLength="1425.02" waitingTime="0.00" waitingCount="0" stopTime="0.00" timeLoss="10.05" rerouteNo="0" devices="tripinfo_168 emissions_168" vType="CV" speedFactor="1.03" vaporized="">
        <emissions CO_abs="3771.960879" CO2_abs="305219.100613" HC_abs="24.379476" PMx_abs="5.271361" NOx_abs="121.427673" fuel_abs="131.200297" electricity_abs="0"/>
    </tripinfo>
    <tripinfo id="461" depart="83.00" departLane="480148041_0" departPos="6.60" departSpeed="0.00" departDelay="0.70" arrival="144.00" arrivalLane="549454264#1_0" arrivalPos="63.02" arrivalSpeed="14.48" duration="61.00" routeLength="828.38" waitingTime="0.00" waitingCount="0" stopTime="0.00" timeLoss="13.59" rerouteNo="0" devices="tripinfo_461 emissions_461" vType="VAN" speedFactor="1.06" vaporized="">
        <emissions CO_abs="16990.019300" CO2_abs="329741.076550" HC_abs="631.753586" PMx_abs="81.311906" NOx_abs="0" fuel_abs="140.777434" electricity_abs="0"/>
    </tripinfo>
    <tripinfo id="339" depart="71.00" departLane="256605510_0" departPos="6.60" departSpeed="0.00" departDelay="7.20" arrival="146.00" arrivalLane="304693638_0" arrivalPos="158.88" arrivalSpeed="13.29" duration="75.00" routeLength="894.60" waitingTime="0.00" waitingCount="0" stopTime="0.00" timeLoss="9.21" rerouteNo="0" devices="tripinfo_339 emissions_339" vType="VAN" speedFactor="0.98" vaporized="">
        <emissions CO_abs="12309.181430" CO2_abs="252498.286956" HC_abs="540.909198" PMx_abs="63.706954" NOx_abs="0" fuel_abs="107.822045" electricity_abs="0"/>
    </tripinfo>
    <tripinfo id="469" depart="89.00" departLane="480148041_2" departPos="4.85" departSpeed="0.00" departDelay="4.67" arrival="147.00" arrivalLane="549454264#1_0" arrivalPos="63.02" arrivalSpeed="14.51" duration="58.00" routeLength="830.13" waitingTime="0.00" waitingCount="0" stopTime="0.00" timeLoss="10.30" rerouteNo="0" devices="tripinfo_469 emissions_469" vType="CV" speedFactor="1.06" vaporized="">
        <emissions CO_abs="3244.081476" CO2_abs="230795.107403" HC_abs="20.274017" PMx_abs="4.504030" NOx_abs="95.689248" fuel_abs="99.208173" electricity_abs="0"/>
    </tripinfo>
    <tripinfo id="86" depart="17.00" departLane="367461723_1" departPos="4.85" departSpeed="0.00" departDelay="0.79" arrival="150.00" arrivalLane="35006698_0" arrivalPos="188.19" arrivalSpeed="20.97" duration="133.00" routeLength="2105.38" waitingTime="0.00" waitingCount="0" stopTime="0.00" timeLoss="14.80" rerouteNo="0" devices="tripinfo_86 emissions_86" vType="CV" speedFactor="0.98" vaporized="">
        <emissions CO_abs="4647.721338" CO2_abs="406303.655035" HC_abs="30.848711" PMx_abs="7.191854" NOx_abs="158.808081" fuel_abs="174.651936" electricity_abs="0"/>
    </tripinfo>
    <tripinfo id="144" depart="26.00" departLane="367461723_0" departPos="4.85" departSpeed="0.00" departDelay="0.13" arrival="153.00" arrivalLane="35006698_1" arrivalPos="188.19" arrivalSpeed="21.55" duration="127.00" routeLength="2105.38" waitingTime="0.00" waitingCount="0" stopTime="0.00" timeLoss="16.42" rerouteNo="0" devices="tripinfo_144 emissions_144" vType="CV" speedFactor="1.13" vaporized="">
        <emissions CO_abs="5337.679769" CO2_abs="441220.117229" HC_abs="34.856760" PMx_abs="8.210547" NOx_abs="174.834890" fuel_abs="189.660627" electricity_abs="0"/>
    </tripinfo>
    <tripinfo id="67" depart="15.00" departLane="367461723_0" departPos="4.85" departSpeed="0.00" departDelay="1.45" arrival="154.00" arrivalLane="35006698_0" arrivalPos="188.19" arrivalSpeed="19.97" duration="139.00" routeLength="2105.38" waitingTime="0.00" waitingCount="0" stopTime="0.00" timeLoss="11.46" rerouteNo="0" devices="tripinfo_67 emissions_67" vType="CV" speedFactor="0.91" vaporized="">
        <emissions CO_abs="4154.530337" CO2_abs="390345.674947" HC_abs="28.078990" PMx_abs="6.608973" NOx_abs="151.164780" fuel_abs="167.792429" electricity_abs="0"/>
    </tripinfo>
    <tripinfo id="196" depart="38.00" departLane="480148041_2" departPos="4.85" departSpeed="0.00" departDelay="0.93" arrival="154.00" arrivalLane="367461722_0" arrivalPos="259.72" arrivalSpeed="10.68" duration="116.00" routeLength="1717.30" waitingTime="0.00" waitingCount="0" stopTime="0.00" timeLoss="9.25" rerouteNo="0" devices="tripinfo_196 emissions_196" vType="CV" speedFactor="0.84" vaporized="">
        <emissions CO_abs="3211.487389" CO2_abs="307724.662993" HC_abs="21.717535" PMx_abs="5.144038" NOx_abs="119.470744" fuel_abs="132.277242" electricity_abs="0"/>
    </tripinfo>
    <tripinfo id="126" depart="23.00" departLane="106586101#0_0" departPos="4.85" departSpeed="0.00" departDelay="0.21" arrival="155.00" arrivalLane="453763721_0" arrivalPos="160.68" arrivalSpeed="15.13" duration="132.00" routeLength="2210.72" waitingTime="0.00" waitingCount="0" stopTime="0.00" timeLoss="9.56" rerouteNo="0" devices="tripinfo_126 emissions_126" vType="CV" speedFactor="1.15" vaporized="">
        <emissions CO_abs="4411.846051" CO2_abs="418997.724226" HC_abs="29.999448" PMx_abs="7.386356" NOx_abs="162.531644" fuel_abs="180.108364" electricity_abs="0"/>
    </tripinfo>
    <tripinfo id="127" depart="25.00" departLane="367461723_1" departPos="6.60" departSpeed="0.00" departDelay="2.00" arrival="156.00" arrivalLane="35006698_0" arrivalPos="188.19" arrivalSpeed="21.44" duration="131.00" routeLength="2103.63" waitingTime="0.00" waitingCount="0" stopTime="0.00" timeLoss="16.11" rerouteNo="0" devices="tripinfo_127 emissions_127" vType="VAN" speedFactor="1.02" vaporized="">
        <emissions CO_abs="19988.738264" CO2_abs="462959.623288" HC_abs="841.621194" PMx_abs="121.949754" NOx_abs="0" fuel_abs="197.617005" electricity_abs="0"/>
    </tripinfo>
    <tripinfo id="162" depart="34.00" departLane="367461723_3" departPos="4.85" departSpeed="0.00" departDelay="3.95" arrival="157.00" arrivalLane="35006698_1" arrivalPos="188.19" arrivalSpeed="22.02" duration="123.00" routeLength="2105.38" waitingTime="0.00" waitingCount="0" stopTime="0.00" timeLoss="11.26" rerouteNo="0" devices="tripinfo_162 emissions_162" vType="CV" speedFactor="1.08" vaporized="">
        <emissions CO_abs="3943.131357" CO2_abs="372835.598206" HC_abs="26.787268" PMx_abs="6.612648" NOx_abs="144.586414" fuel_abs="160.265318" electricity_abs="0"/>
    </tripinfo>
    <tripinfo id="92" depart="19.00" departLane="549454263#0_0" departPos="4.85" departSpeed="0.00" departDelay="1.71" arrival="158.00" arrivalLane="367461722_0" arrivalPos="259.72" arrivalSpeed="11.19" duration="139.00" routeLength="1244.94" waitingTime="25.00" waitingCount="2" stopTime="0.00" timeLoss="47.83" rerouteNo="0" devices="tripinfo_92 emissions_92" vType="CV" speedFactor="0.89" vaporized="">
        <emissions CO_abs="6872.622134" CO2_abs="343180.518953" HC_abs="39.361363" PMx_abs="6.193051" NOx_abs="139.811769" fuel_abs="147.519931" electricity_abs="0"/>
    </tripinfo>
    <tripinfo id="15" depart="4.00" departLane="367461723_0" departPos="4.85" departSpeed="0.00" departDelay="1.00" arrival="159.00" arrivalLane="304693638_0" arrivalPos="158.88" arrivalSpeed="13.70" duration="155.00" routeLength="2771.64" waitingTime="0.00" waitingCount="0" stopTime="0.00" timeLoss="10.38" rerouteNo="0" devices="tripinfo_15 emissions_15" vType="CV" speedFactor="0.99" vaporized="">
        <emissions CO_abs="4530.510914" CO2_abs="463989.228966" HC_abs="31.660679" PMx_abs="8.246070" NOx_abs="178.985459" fuel_abs="199.447943" electricity_abs="0"/>
    </tripinfo>
    <tripinfo id="140" depart="27.00" departLane="367461723_3" departPos="4.85" departSpeed="0.00" departDelay="1.73" arrival="159.00" arrivalLane="35006698_0" arrivalPos="188.19" arrivalSpeed="20.05" duration="132.00" routeLength="2105.38" waitingTime="0.00" waitingCount="0" stopTime="0.00" timeLoss="10.52" rerouteNo="0" devices="tripinfo_140 emissions_140" vType="CV" speedFactor="0.95" vaporized="">
        <emissions CO_abs="4002.117436" CO2_abs="386653.592488" HC_abs="27.333205" PMx_abs="6.710938" NOx_abs="149.699472" fuel_abs="166.205128" electricity_abs="0"/>
    </tripinfo>
    <tripinfo id="178" depart="37.00" departLane="367461723_3" departPos="6.60" departSpeed="0.00" departDelay="3.90" arrival="164.00" arrivalLane="35006698_0" arrivalPos="188.19" arrivalSpeed="21.41" duration="127.00" routeLength="2103.63" waitingTime="0.00" waitingCount="0" stopTime="0.00" timeLoss="11.79" rerouteNo="0" devices="tripinfo_178 emissions_178" vType="VAN" speedFactor="1.02" vaporized="">
        <emissions CO_abs="18719.784935" CO2_abs="431664.216262" HC_abs="797.165416" PMx_abs="115.801856" NOx_abs="0" fuel_abs="184.262965" electricity_abs="0"/>
    </tripinfo>
    <tripinfo id="203" depart="40.00" departLane="367461723_3" departPos="4.85" departSpeed="0.00" departDelay="2.08" arrival="165.00" arrivalLane="35006698_1" arrivalPos="188.19" arrivalSpeed="21.92" duration="125.00" routeLength="2105.38" waitingTime="0.00" waitingCount="0" stopTime="0.00" timeLoss="11.38" rerouteNo="0" devices="tripinfo_203 emissions_203" vType="CV" speedFactor="1.04" vaporized="">
        <emissions CO_abs="4346.909915" CO2_abs="397309.748335" HC_abs="29.346279" PMx_abs="7.199832" NOx_abs="155.626726" fuel_abs="170.785513" electricity_abs="0"/>
    </tripinfo>
    <tripinfo id="350" depart="66.00" departLane="479198389_0" departPos="4.85" departSpeed="0.00" departDelay="0.65" arrival="166.00" arrivalLane="479198374_1" arrivalPos="10.34" arrivalSpeed="11.98" duration="100.00" routeLength="1042.02" waitingTime="0.00" waitingCount="0" stopTime="0.00" timeLoss="8.73" rerouteNo="0" devices="tripinfo_350 emissions_350" vType="CV" speedFactor="0.90" vaporized="">
        <emissions CO_abs="2791.792421" CO2_abs="204779.568933" HC_abs="17.455877" PMx_abs="3.173771" NOx_abs="80.688043" fuel_abs="88.026367" electricity_abs="0"/>
    </tripinfo>
    <tripinfo id="353" depart="66.00" departLane="100_0" departPos="4.85" departSpeed="0.00" departDelay="0.54" arrival="168.00" arrivalLane="gneE29_0" arrivalPos="41.38" arrivalSpeed="8.79" duration="102.00" routeLength="1040.32" waitingTime="0.00" waitingCount="0" stopTime="0.00" timeLoss="10.87" rerouteNo="0" devices="tripinfo_353 emissions_353" vType="CV" speedFactor="0.97" vaporized="">
        <emissions CO_abs="3256.548204" CO2_abs="222514.223885" HC_abs="19.970530" PMx_abs="3.551113" NOx_abs="88.623735" fuel_abs="95.649771" electricity_abs="0"/>
    </tripinfo>
    <tripinfo id="147" depart="29.00" departLane="367461723_2" departPos="4.85" departSpeed="0.00" departDelay="2.10" arrival="170.00" arrivalLane="35006698_0" arrivalPos="188.19" arrivalSpeed="19.04" duration="141.00" routeLength="2105.38" waitingTime="0.00" waitingCount="0" stopTime="0.00" timeLoss="10.88" rerouteNo="0" devices="tripinfo_147 emissions_147" vType="CV" speedFactor="0.89" vaporized="">
        <emissions CO_abs="3987.519243" CO2_abs="374481.111251" HC_abs="26.871466" PMx_abs="6.271122" NOx_abs="145.205336" fuel_abs="160.972983" electricity_abs="0"/>
    </tripinfo>
    <tripinfo id="310" depart="60.00" departLane="34774629#0_1" departPos="4.85" departSpeed="0.00" departDelay="0.51" arrival="170.00" arrivalLane="-256605510_0" arrivalPos="84.75" arrivalSpeed="10.63" duration="110.00" routeLength="952.10" waitingTime="22.00" waitingCount="1" stopTime="0.00" timeLoss="44.82" rerouteNo="0" devices="tripinfo_310 emissions_310" vType="CV" speedFactor="1.05" vaporized="">
        <emissions CO_abs="6484.698097" CO2_abs="296839.429615" HC_abs="36.558448" PMx_abs="5.786382" NOx_abs="124.605933" fuel_abs="127.599415" electricity_abs="0"/>
    </tripinfo>
    <tripinfo id="7" depart="3.00" departLane="479127834_0" departPos="4.85" departSpeed="0.00" departDelay="0.79" arrival="172.00" arrivalLane="447313062_0" arrivalPos="770.46" arrivalSpeed="21.92" duration="169.00" routeLength="3287.47" waitingTime="0.00" waitingCount="0" stopTime="0.00" timeLoss="8.81" rerouteNo="0" devices="tripinfo_7 emissions_7" vType="CV" speedFactor="1.05" vaporized="">
        <emissions CO_abs="5213.525379" CO2_abs="536529.391446" HC_abs="36.689767" PMx_abs="9.758077" NOx_abs="206.174278" fuel_abs="230.629564" electricity_abs="0"/>
    </tripinfo>
    <tripinfo id="84" depart="16.00" departLane="367461723_2" departPos="6.60" departSpeed="0.00" departDelay="0.28" arrival="172.00" arrivalLane="304693638_0" arrivalPos="158.88" arrivalSpeed="12.78" duration="156.00" routeLength="2770.17" waitingTime="0.00" waitingCount="0" stopTime="0.00" timeLoss="10.45" rerouteNo="0" devices="tripinfo_84 emissions_84" vType="VAN" speedFactor="0.98" vaporized="">
        <emissions CO_abs="23266.306893" CO2_abs="548971.591636" HC_abs="956.879608" PMx_abs="148.845006" NOx_abs="0" fuel_abs="234.310275" electricity_abs="0"/>
    </tripinfo>