<?xml version="1.0" encoding="UTF-8"?>

<!-- generated on Mon Nov  9 23:41:51 2020 by Eclipse SUMO sumo Version 1.7.0
<configuration xmlns:xsi="http://www.w3.org/2001/XMLSchema-instance" xsi:noNamespaceSchemaLocation="http://sumo.dlr.de/xsd/sumoConfiguration.xsd">

    <input>
        <net-file value="../dataSets/Porto/6AM7AM_Routing_SaoBento/Porto.net.xml"/>
        <route-files value="../results/Porto/6AM7AM_Routing_SaoBento/cost_PMx-length/solution14/Porto.rou.xml"/>
        <additional-files value="moreOutputInfo.xml"/>
    </input>

    <output>
        <emission-output.precision value="6"/>
        <tripinfo-output value="../results/Porto/6AM7AM_Routing_SaoBento/cost_PMx-length/solution14/Porto-tripinfo"/>
    </output>

    <processing>
        <collision.action value="warn"/>
        <time-to-teleport value="-1"/>
    </processing>

    <emissions>
        <device.emissions.probability value="1"/>
    </emissions>

    <gui_only>
        <quit-on-end value="true"/>
        <start value="true"/>
    </gui_only>

</configuration>
-->

<meandata xmlns:xsi="http://www.w3.org/2001/XMLSchema-instance" xsi:noNamespaceSchemaLocation="http://sumo.dlr.de/xsd/meandata_file.xsd">
    <interval begin="0.00" end="4699.00" id="emissions-detector">
        <edge id=":1092997347_0" sampledSeconds="269.29" CO_abs="34719.149350" CO2_abs="1371752.365395" HC_abs="190.508893" PMx_abs="28.029415" NOx_abs="595.866855" fuel_abs="589.662431" electricity_abs="0"
            CO_normed="60452.387191" CO2_normed="2388471.684219" HC_normed="331.710816" PMx_normed="48.804337" NOx_normed="1037.513145" fuel_normed="1026.710108" electricity_normed="0"
            traveltime="0.08" CO_perVeh="9.746510" CO2_perVeh="385.084257" HC_perVeh="0.053480" PMx_perVeh="0.007869" NOx_perVeh="0.167274" fuel_perVeh="0.165533" electricity_perVeh="0"/>
        <edge id=":1103427051_0" sampledSeconds="10.75" CO_abs="868.325380" CO2_abs="49417.178687" HC_abs="5.128970" PMx_abs="0.977021" NOx_abs="21.127980" fuel_abs="21.242239" electricity_abs="0"
            CO_normed="2293.937351" CO2_normed="130550.038726" HC_normed="13.549686" PMx_normed="2.581089" NOx_normed="55.815783" fuel_normed="56.117633" electricity_normed="0"
            traveltime="0.03" CO_perVeh="2.379198" CO2_perVeh="135.402323" HC_perVeh="0.014053" PMx_perVeh="0.002677" NOx_perVeh="0.057890" fuel_perVeh="0.058203" electricity_perVeh="0"/>
        <edge id=":1105984386_0" sampledSeconds="22.86" CO_abs="484.096533" CO2_abs="37373.909027" HC_abs="3.061010" PMx_abs="0.531008" NOx_abs="14.448551" fuel_abs="16.065564" electricity_abs="0"
            CO_normed="38.195289" CO2_normed="2948.807008" HC_normed="0.241514" PMx_normed="0.041897" NOx_normed="1.139993" fuel_normed="1.267575" electricity_normed="0"
            traveltime="0.96" CO_perVeh="20.317157" CO2_perVeh="1568.554014" HC_perVeh="0.128468" PMx_perVeh="0.022286" NOx_perVeh="0.606394" fuel_perVeh="0.674259" electricity_perVeh="0"/>
        <edge id=":1105984390_0" sampledSeconds="23.35" CO_abs="51.223854" CO2_abs="4043.161938" HC_abs="0.322169" PMx_abs="0.037641" NOx_abs="1.433086" fuel_abs="1.738025" electricity_abs="0"
            CO_normed="3.124494" CO2_normed="246.620147" HC_normed="0.019651" PMx_normed="0.002296" NOx_normed="0.087414" fuel_normed="0.106014" electricity_normed="0"
            traveltime="1.06" CO_perVeh="2.322977" CO2_perVeh="183.355409" HC_perVeh="0.014610" PMx_perVeh="0.001707" NOx_perVeh="0.064990" fuel_perVeh="0.078819" electricity_perVeh="0"/>
        <edge id=":1105984390_1" sampledSeconds="645.64" CO_abs="16025.089625" CO2_abs="1996921.249780" HC_abs="120.914567" PMx_abs="35.791041" NOx_abs="752.014534" fuel_abs="858.384629" electricity_abs="0"
            CO_normed="935.045613" CO2_normed="116518.066170" HC_normed="7.055226" PMx_normed="2.088366" NOx_normed="43.879186" fuel_normed="50.085759" electricity_normed="0"
            traveltime="0.64" CO_perVeh="15.774320" CO2_perVeh="1965.672352" HC_perVeh="0.119022" PMx_perVeh="0.035231" NOx_perVeh="0.740247" fuel_perVeh="0.844952" electricity_perVeh="0"/>
        <edge id=":1105984395_0" sampledSeconds="8.83" CO_abs="288.464832" CO2_abs="23483.774698" HC_abs="1.847072" PMx_abs="0.304985" NOx_abs="8.873016" fuel_abs="10.094778" electricity_abs="0"
            CO_normed="240.216094" CO2_normed="19555.869638" HC_normed="1.538130" PMx_normed="0.253973" NOx_normed="7.388912" fuel_normed="8.406321" electricity_normed="0"
            traveltime="0.09" CO_perVeh="2.925349" CO2_perVeh="238.151154" HC_perVeh="0.018731" PMx_perVeh="0.003093" NOx_perVeh="0.089982" fuel_perVeh="0.102372" electricity_perVeh="0"/>
        <edge id=":1105984398_0" sampledSeconds="22.47" CO_abs="1347.120035" CO2_abs="93192.302273" HC_abs="8.331783" PMx_abs="1.673396" NOx_abs="38.389067" fuel_abs="40.059258" electricity_abs="0"
            CO_normed="85.364451" CO2_normed="5905.420071" HC_normed="0.527969" PMx_normed="0.106040" NOx_normed="2.432643" fuel_normed="2.538479" electricity_normed="0"
            traveltime="1.10" CO_perVeh="65.969667" CO2_perVeh="4563.709988" HC_perVeh="0.408015" PMx_perVeh="0.081948" NOx_perVeh="1.879947" fuel_perVeh="1.961738" electricity_perVeh="0"/>
        <edge id=":1105984398_1" sampledSeconds="453.87" CO_abs="7857.534868" CO2_abs="923694.787698" HC_abs="57.100412" PMx_abs="13.257019" NOx_abs="349.421950" fuel_abs="397.056981" electricity_abs="0"
            CO_normed="481.971029" CO2_normed="56658.243994" HC_normed="3.502465" PMx_normed="0.813168" NOx_normed="21.433091" fuel_normed="24.354962" electricity_normed="0"
            traveltime="0.96" CO_perVeh="16.579315" CO2_perVeh="1948.986140" HC_perVeh="0.120481" PMx_perVeh="0.027972" NOx_perVeh="0.737277" fuel_perVeh="0.837786" electricity_perVeh="0"/>
        <edge id=":1106006327_0" sampledSeconds="38.88" CO_abs="5244.545283" CO2_abs="169315.511122" HC_abs="27.865240" PMx_abs="3.532460" NOx_abs="74.118288" fuel_abs="72.782783" electricity_abs="0"
            CO_normed="453.493612" CO2_normed="14640.640606" HC_normed="2.409496" PMx_normed="0.305450" NOx_normed="6.408977" fuel_normed="6.293496" electricity_normed="0"
            traveltime="2.11" CO_perVeh="284.513049" CO2_perVeh="9185.252440" HC_perVeh="1.511671" PMx_perVeh="0.191634" NOx_perVeh="4.020867" fuel_perVeh="3.948417" electricity_perVeh="0"/>
        <edge id=":1106006327_1" sampledSeconds="161.35" CO_abs="21782.709231" CO2_abs="727844.424798" HC_abs="116.335553" PMx_abs="15.168939" NOx_abs="318.463674" fuel_abs="312.874096" electricity_abs="0"
            CO_normed="1642.537305" CO2_normed="54883.513691" HC_normed="8.772347" PMx_normed="1.143822" NOx_normed="24.013930" fuel_normed="23.592445" electricity_normed="0"
            traveltime="2.29" CO_perVeh="309.233632" CO2_perVeh="10332.689688" HC_perVeh="1.651533" PMx_perVeh="0.215343" NOx_perVeh="4.521002" fuel_perVeh="4.441651" electricity_perVeh="0"/>
        <edge id=":1106006327_2" sampledSeconds="0.00" CO_abs="0" CO2_abs="0" HC_abs="0" PMx_abs="0" NOx_abs="0" fuel_abs="0" electricity_abs="0"
            CO_normed="0" CO2_normed="0" HC_normed="0" PMx_normed="0" NOx_normed="0" fuel_normed="0" electricity_normed="0"/>
        <edge id=":1106006327_3" sampledSeconds="0.00" CO_abs="0" CO2_abs="0" HC_abs="0" PMx_abs="0" NOx_abs="0" fuel_abs="0" electricity_abs="0"
            CO_normed="0" CO2_normed="0" HC_normed="0" PMx_normed="0" NOx_normed="0" fuel_normed="0" electricity_normed="0"/>
        <edge id=":1107381198_0" sampledSeconds="0.00" CO_abs="0" CO2_abs="0" HC_abs="0" PMx_abs="0" NOx_abs="0" fuel_abs="0" electricity_abs="0"
            CO_normed="0" CO2_normed="0" HC_normed="0" PMx_normed="0" NOx_normed="0" fuel_normed="0" electricity_normed="0"/>
        <edge id=":1107381198_1" sampledSeconds="35.99" CO_abs="1514.204961" CO2_abs="60555.908060" HC_abs="8.278379" PMx_abs="0.989311" NOx_abs="24.716995" fuel_abs="26.030967" electricity_abs="0"
            CO_normed="126.506367" CO2_normed="5059.227874" HC_normed="0.691629" PMx_normed="0.082653" NOx_normed="2.065016" fuel_normed="2.174793" electricity_normed="0"
            traveltime="1.48" CO_perVeh="62.344017" CO2_perVeh="2493.254656" HC_perVeh="0.340844" PMx_perVeh="0.040733" NOx_perVeh="1.017667" fuel_perVeh="1.071767" electricity_perVeh="0"/>
        <edge id=":1110338277_0" sampledSeconds="96.93" CO_abs="1492.041383" CO2_abs="178870.977796" HC_abs="10.903840" PMx_abs="2.449004" NOx_abs="66.955525" fuel_abs="76.889152" electricity_abs="0"
            CO_normed="4082.440777" CO2_normed="489416.836460" HC_normed="29.834481" PMx_normed="6.700829" NOx_normed="183.199990" fuel_normed="210.379829" electricity_normed="0"
            traveltime="0.02" CO_perVeh="0.336642" CO2_perVeh="40.357751" HC_perVeh="0.002460" PMx_perVeh="0.000553" NOx_perVeh="0.015107" fuel_perVeh="0.017348" electricity_perVeh="0"/>
        <edge id=":1110338293_0" sampledSeconds="123.66" CO_abs="6356.770951" CO2_abs="434198.433173" HC_abs="39.163640" PMx_abs="7.706943" NOx_abs="178.379011" fuel_abs="186.642940" electricity_abs="0"
            CO_normed="16233.507429" CO2_normed="1108827.665052" HC_normed="100.013553" PMx_normed="19.681490" NOx_normed="455.532696" fuel_normed="476.636577" electricity_normed="0"
            traveltime="0.03" CO_perVeh="1.458031" CO2_perVeh="99.590604" HC_perVeh="0.008983" PMx_perVeh="0.001768" NOx_perVeh="0.040914" fuel_perVeh="0.042810" electricity_perVeh="0"/>
        <edge id=":1110338295_0" sampledSeconds="0.00" CO_abs="0" CO2_abs="0" HC_abs="0" PMx_abs="0" NOx_abs="0" fuel_abs="0" electricity_abs="0"
            CO_normed="0" CO2_normed="0" HC_normed="0" PMx_normed="0" NOx_normed="0" fuel_normed="0" electricity_normed="0"/>
        <edge id=":1110673403_0" sampledSeconds="143.32" CO_abs="2297.412144" CO2_abs="288435.734358" HC_abs="17.035952" PMx_abs="3.921260" NOx_abs="107.511576" fuel_abs="123.986427" electricity_abs="0"
            CO_normed="5866.981428" CO2_normed="736588.383124" HC_normed="43.505305" PMx_normed="10.013860" NOx_normed="274.556056" fuel_normed="316.628458" electricity_normed="0"
            traveltime="0.02" CO_perVeh="0.368865" CO2_perVeh="46.310260" HC_perVeh="0.002735" PMx_perVeh="0.000630" NOx_perVeh="0.017262" fuel_perVeh="0.019907" electricity_perVeh="0"/>
        <edge id=":1110673412_0" sampledSeconds="252.74" CO_abs="44990.806173" CO2_abs="3069118.328485" HC_abs="279.974387" PMx_abs="67.430861" NOx_abs="1319.095254" fuel_abs="1319.262814" electricity_abs="0"
            CO_normed="118856.471459" CO2_normed="8107980.408558" HC_normed="739.634841" PMx_normed="178.138489" NOx_normed="3484.778798" fuel_normed="3485.221456" electricity_normed="0"
            traveltime="0.02" CO_perVeh="2.771143" CO2_perVeh="189.037869" HC_perVeh="0.017245" PMx_perVeh="0.004153" NOx_perVeh="0.081248" fuel_perVeh="0.081258" electricity_perVeh="0"/>
        <edge id=":1110673414_0" sampledSeconds="0.00" CO_abs="0" CO2_abs="0" HC_abs="0" PMx_abs="0" NOx_abs="0" fuel_abs="0" electricity_abs="0"
            CO_normed="0" CO2_normed="0" HC_normed="0" PMx_normed="0" NOx_normed="0" fuel_normed="0" electricity_normed="0"/>
        <edge id=":1110673414_1" sampledSeconds="13.95" CO_abs="1105.701951" CO2_abs="42973.411883" HC_abs="6.033816" PMx_abs="0.796842" NOx_abs="18.158889" fuel_abs="18.472719" electricity_abs="0"
            CO_normed="93.809621" CO2_normed="3645.936844" HC_normed="0.511919" PMx_normed="0.067605" NOx_normed="1.540631" fuel_normed="1.567257" electricity_normed="0"
            traveltime="1.52" CO_perVeh="120.760627" CO2_perVeh="4693.395129" HC_perVeh="0.658991" PMx_perVeh="0.087028" NOx_perVeh="1.983246" fuel_perVeh="2.017521" electricity_perVeh="0"/>
        <edge id=":1110673417_0" sampledSeconds="29.66" CO_abs="473.688903" CO2_abs="57202.969758" HC_abs="3.467095" PMx_abs="0.754937" NOx_abs="21.259400" fuel_abs="24.589202" electricity_abs="0"
            CO_normed="1296.081272" CO2_normed="156515.589282" HC_normed="9.486474" PMx_normed="2.065618" NOx_normed="58.168789" fuel_normed="67.279608" electricity_normed="0"
            traveltime="0.02" CO_perVeh="0.351578" CO2_perVeh="42.456810" HC_perVeh="0.002573" PMx_perVeh="0.000560" NOx_perVeh="0.015779" fuel_perVeh="0.018250" electricity_perVeh="0"/>
        <edge id=":1110673446_0" sampledSeconds="333.76" CO_abs="3210.397570" CO2_abs="263104.378244" HC_abs="20.838927" PMx_abs="4.749650" NOx_abs="107.125485" fuel_abs="113.096557" electricity_abs="0"
            CO_normed="8198.504115" CO2_normed="671898.816542" HC_normed="53.217094" PMx_normed="12.129347" NOx_normed="273.570082" fuel_normed="288.818618" electricity_normed="0"
            traveltime="0.02" CO_perVeh="0.219055" CO2_perVeh="17.952414" HC_perVeh="0.001422" PMx_perVeh="0.000324" NOx_perVeh="0.007309" fuel_perVeh="0.007717" electricity_perVeh="0"/>
        <edge id=":1110673451_0" sampledSeconds="37.41" CO_abs="431.386448" CO2_abs="31720.332115" HC_abs="2.690799" PMx_abs="0.451653" NOx_abs="12.280161" fuel_abs="13.635330" electricity_abs="0"
            CO_normed="1224.051778" CO2_normed="90005.907965" HC_normed="7.635096" PMx_normed="1.281558" NOx_normed="34.844751" fuel_normed="38.690020" electricity_normed="0"
            traveltime="0.03" CO_perVeh="0.309361" CO2_perVeh="22.747649" HC_perVeh="0.001930" PMx_perVeh="0.000324" NOx_perVeh="0.008806" fuel_perVeh="0.009778" electricity_perVeh="0"/>
        <edge id=":1110673464_0" sampledSeconds="323.91" CO_abs="473.225898" CO2_abs="38409.547384" HC_abs="3.030628" PMx_abs="0.514103" NOx_abs="14.595895" fuel_abs="16.510777" electricity_abs="0"
            CO_normed="25.676207" CO2_normed="2084.018397" HC_normed="0.164435" PMx_normed="0.027894" NOx_normed="0.791941" fuel_normed="0.895839" electricity_normed="0"
            traveltime="1.17" CO_perVeh="1.710649" CO2_perVeh="138.845446" HC_perVeh="0.010955" PMx_perVeh="0.001858" NOx_perVeh="0.052762" fuel_perVeh="0.059684" electricity_perVeh="0"/>
        <edge id=":1110673464_1" sampledSeconds="708.65" CO_abs="15597.640894" CO2_abs="2026762.970023" HC_abs="119.575901" PMx_abs="35.830645" NOx_abs="758.623067" fuel_abs="871.212537" electricity_abs="0"
            CO_normed="829.262434" CO2_normed="107754.653781" HC_normed="6.357359" PMx_normed="1.904968" NOx_normed="40.332869" fuel_normed="46.318788" electricity_normed="0"
            traveltime="0.70" CO_perVeh="15.406645" CO2_perVeh="2001.944884" HC_perVeh="0.118112" PMx_perVeh="0.035392" NOx_perVeh="0.749334" fuel_perVeh="0.860544" electricity_perVeh="0"/>
        <edge id=":1110673479_0" sampledSeconds="134.02" CO_abs="6514.294405" CO2_abs="451534.110685" HC_abs="40.281957" PMx_abs="7.956062" NOx_abs="185.027917" fuel_abs="194.094807" electricity_abs="0"
            CO_normed="16635.780562" CO2_normed="1153098.388640" HC_normed="102.869436" PMx_normed="20.317673" NOx_normed="472.512237" fuel_normed="495.666671" electricity_normed="0"
            traveltime="0.03" CO_perVeh="1.372297" CO2_perVeh="95.119888" HC_perVeh="0.008486" PMx_perVeh="0.001676" NOx_perVeh="0.038978" fuel_perVeh="0.040888" electricity_perVeh="0"/>
        <edge id=":1110673511_0" sampledSeconds="11.83" CO_abs="262.226795" CO2_abs="28388.911400" HC_abs="1.853419" PMx_abs="0.425319" NOx_abs="10.889491" fuel_abs="12.203169" electricity_abs="0"
            CO_normed="669.657702" CO2_normed="72497.752033" HC_normed="4.733140" PMx_normed="1.086151" NOx_normed="27.808874" fuel_normed="31.163658" electricity_normed="0"
            traveltime="0.02" CO_perVeh="0.519261" CO2_perVeh="56.215666" HC_perVeh="0.003670" PMx_perVeh="0.000842" NOx_perVeh="0.021563" fuel_perVeh="0.024165" electricity_perVeh="0"/>
        <edge id=":1110673517_0" sampledSeconds="17.22" CO_abs="645.413898" CO2_abs="46401.513231" HC_abs="4.037819" PMx_abs="0.848905" NOx_abs="19.157824" fuel_abs="19.945923" electricity_abs="0"
            CO_normed="1648.215955" CO2_normed="118497.160836" HC_normed="10.311518" PMx_normed="2.167879" NOx_normed="48.924003" fuel_normed="50.936599" electricity_normed="0"
            traveltime="0.03" CO_perVeh="1.036255" CO2_perVeh="74.500690" HC_perVeh="0.006483" PMx_perVeh="0.001363" NOx_perVeh="0.030759" fuel_perVeh="0.032024" electricity_perVeh="0"/>
        <edge id=":1110673534_0" sampledSeconds="475.30" CO_abs="2770.630595" CO2_abs="252401.518655" HC_abs="18.358456" PMx_abs="3.301392" NOx_abs="94.944651" fuel_abs="108.497512" electricity_abs="0"
            CO_normed="137.121238" CO2_normed="12491.599829" HC_normed="0.908578" PMx_normed="0.163389" NOx_normed="4.698904" fuel_normed="5.369649" electricity_normed="0"
            traveltime="1.43" CO_perVeh="8.346800" CO2_perVeh="760.384614" HC_perVeh="0.055307" PMx_perVeh="0.009946" NOx_perVeh="0.286030" fuel_perVeh="0.326860" electricity_perVeh="0"/>
        <edge id=":1110673534_1" sampledSeconds="184.35" CO_abs="2441.331389" CO2_abs="331345.911445" HC_abs="18.728762" PMx_abs="4.334368" NOx_abs="122.117310" fuel_abs="142.431849" electricity_abs="0"
            CO_normed="117.484542" CO2_normed="15945.406983" HC_normed="0.901287" PMx_normed="0.208583" NOx_normed="5.876669" fuel_normed="6.854268" electricity_normed="0"
            traveltime="1.22" CO_perVeh="16.209564" CO2_perVeh="2200.017896" HC_perVeh="0.124352" PMx_perVeh="0.028779" NOx_perVeh="0.810815" fuel_perVeh="0.945696" electricity_perVeh="0"/>
        <edge id=":1110673549_0" sampledSeconds="59.74" CO_abs="205.615042" CO2_abs="21429.769368" HC_abs="1.438028" PMx_abs="0.332344" NOx_abs="8.267947" fuel_abs="9.211726" electricity_abs="0"
            CO_normed="9.857690" CO2_normed="1027.395781" HC_normed="0.068943" PMx_normed="0.015933" NOx_normed="0.396386" fuel_normed="0.441633" electricity_normed="0"
            traveltime="1.24" CO_perVeh="4.283814" CO2_perVeh="446.470991" HC_perVeh="0.029960" PMx_perVeh="0.006924" NOx_perVeh="0.172256" fuel_perVeh="0.191918" electricity_perVeh="0"/>
        <edge id=":1110673549_1" sampledSeconds="638.63" CO_abs="13462.591403" CO2_abs="1802759.964809" HC_abs="104.357798" PMx_abs="31.560728" NOx_abs="671.550610" fuel_abs="774.924138" electricity_abs="0"
            CO_normed="624.332119" CO2_normed="83603.588231" HC_normed="4.839627" PMx_normed="1.463639" NOx_normed="31.143381" fuel_normed="35.937363" electricity_normed="0"
            traveltime="0.80" CO_perVeh="16.946736" CO2_perVeh="2269.317665" HC_perVeh="0.131366" PMx_perVeh="0.039729" NOx_perVeh="0.845349" fuel_perVeh="0.975476" electricity_perVeh="0"/>
        <edge id=":1110673556_0" sampledSeconds="415.15" CO_abs="50725.355708" CO2_abs="2552850.341019" HC_abs="291.670836" PMx_abs="51.448391" NOx_abs="1098.954880" fuel_abs="1097.359798" electricity_abs="0"
            CO_normed="1803.328650" CO2_normed="90755.956149" HC_normed="10.369141" PMx_normed="1.829033" NOx_normed="39.068761" fuel_normed="39.012055" electricity_normed="0"
            traveltime="2.58" CO_perVeh="314.878274" CO2_perVeh="15846.850112" HC_perVeh="1.810550" PMx_perVeh="0.319367" NOx_perVeh="6.821776" fuel_perVeh="6.811875" electricity_perVeh="0"/>
        <edge id=":1110673556_2" sampledSeconds="247.44" CO_abs="23997.027004" CO2_abs="1035394.408175" HC_abs="133.565201" PMx_abs="19.867714" NOx_abs="440.842419" fuel_abs="445.075505" electricity_abs="0"
            CO_normed="892.023928" CO2_normed="38487.958812" HC_normed="4.964921" PMx_normed="0.738528" NOx_normed="16.387113" fuel_normed="16.544466" electricity_normed="0"
            traveltime="3.00" CO_perVeh="291.079339" CO2_perVeh="12559.135760" HC_perVeh="1.620120" PMx_perVeh="0.240992" NOx_perVeh="5.347334" fuel_perVeh="5.398681" electricity_perVeh="0"/>
        <edge id=":1110673556_3" sampledSeconds="420.77" CO_abs="35850.965280" CO2_abs="1272544.987044" HC_abs="192.838800" PMx_abs="24.176127" NOx_abs="542.013084" fuel_abs="547.022877" electricity_abs="0"
            CO_normed="3031.584735" CO2_normed="107607.366401" HC_normed="16.306595" PMx_normed="2.044352" NOx_normed="45.833036" fuel_normed="46.256668" electricity_normed="0"
            traveltime="1.74" CO_perVeh="147.923866" CO2_perVeh="5250.619405" HC_perVeh="0.795668" PMx_perVeh="0.099753" NOx_perVeh="2.236388" fuel_perVeh="2.257059" electricity_perVeh="0"/>
        <edge id=":1110673556_4" sampledSeconds="188.62" CO_abs="19699.667833" CO2_abs="796386.289677" HC_abs="108.391886" PMx_abs="15.532444" NOx_abs="341.201501" fuel_abs="342.335903" electricity_abs="0"
            CO_normed="1017.688362" CO2_normed="41141.458095" HC_normed="5.599544" PMx_normed="0.802409" NOx_normed="17.626531" fuel_normed="17.685134" electricity_normed="0"
            traveltime="2.38" CO_perVeh="248.677285" CO2_perVeh="10053.122809" HC_perVeh="1.368277" PMx_perVeh="0.196073" NOx_perVeh="4.307132" fuel_perVeh="4.321452" electricity_perVeh="0"/>
        <edge id=":1110673556_5" sampledSeconds="25.20" CO_abs="2331.849718" CO2_abs="91925.726695" HC_abs="12.753573" PMx_abs="1.689478" NOx_abs="38.721313" fuel_abs="39.515549" electricity_abs="0"
            CO_normed="167.902045" CO2_normed="6619.001805" HC_normed="0.918306" PMx_normed="0.121649" NOx_normed="2.788082" fuel_normed="2.845270" electricity_normed="0"
            traveltime="1.74" CO_perVeh="161.214301" CO2_perVeh="6355.358883" HC_perVeh="0.881728" PMx_perVeh="0.116803" NOx_perVeh="2.677029" fuel_perVeh="2.731939" electricity_perVeh="0"/>
        <edge id=":1110673556_6" sampledSeconds="494.14" CO_abs="58157.136616" CO2_abs="2828122.868226" HC_abs="332.002294" PMx_abs="57.076760" NOx_abs="1218.584326" fuel_abs="1215.689028" electricity_abs="0"
            CO_normed="2119.665640" CO2_normed="103077.201129" HC_normed="12.100559" PMx_normed="2.080289" NOx_normed="44.414004" fuel_normed="44.308479" electricity_normed="0"
            traveltime="2.65" CO_perVeh="312.088468" CO2_perVeh="15176.547263" HC_perVeh="1.781623" PMx_perVeh="0.306291" NOx_perVeh="6.539285" fuel_perVeh="6.523748" electricity_perVeh="0"/>
        <edge id=":1110673561_0" sampledSeconds="102.00" CO_abs="9527.193671" CO2_abs="687517.659156" HC_abs="59.919880" PMx_abs="13.833457" NOx_abs="290.180514" fuel_abs="295.531147" electricity_abs="0"
            CO_normed="436.280808" CO2_normed="31483.642511" HC_normed="2.743924" PMx_normed="0.633478" NOx_normed="13.288298" fuel_normed="13.533321" electricity_normed="0"
            traveltime="1.20" CO_perVeh="112.430132" CO2_perVeh="8113.375683" HC_perVeh="0.707113" PMx_perVeh="0.163248" NOx_perVeh="3.424412" fuel_perVeh="3.487554" electricity_perVeh="0"/>
        <edge id=":1110673561_1" sampledSeconds="1316.91" CO_abs="120956.641299" CO2_abs="8371710.632437" HC_abs="753.320091" PMx_abs="175.089791" NOx_abs="3580.231676" fuel_abs="3598.593985" electricity_abs="0"
            CO_normed="5400.195606" CO2_normed="373760.998060" HC_normed="33.632513" PMx_normed="7.817009" NOx_normed="159.841999" fuel_normed="160.661798" electricity_normed="0"
            traveltime="1.19" CO_perVeh="109.557131" CO2_perVeh="7582.722092" HC_perVeh="0.682324" PMx_perVeh="0.158589" NOx_perVeh="3.242814" fuel_perVeh="3.259446" electricity_perVeh="0"/>
        <edge id=":1110673562_0" sampledSeconds="103.90" CO_abs="2306.589650" CO2_abs="178624.016131" HC_abs="14.584108" PMx_abs="2.461191" NOx_abs="68.476698" fuel_abs="76.783515" electricity_abs="0"
            CO_normed="6544.909273" CO2_normed="506842.636393" HC_normed="41.382160" PMx_normed="6.983587" NOx_normed="194.301476" fuel_normed="217.871931" electricity_normed="0"
            traveltime="0.03" CO_perVeh="0.587960" CO2_perVeh="45.532075" HC_perVeh="0.003718" PMx_perVeh="0.000627" NOx_perVeh="0.017455" fuel_perVeh="0.019572" electricity_perVeh="0"/>
        <edge id=":1110673564_0" sampledSeconds="28.53" CO_abs="564.273164" CO2_abs="62606.139124" HC_abs="3.984778" PMx_abs="0.905012" NOx_abs="23.791879" fuel_abs="26.911713" electricity_abs="0"
            CO_normed="4323.012113" CO2_normed="479638.435513" HC_normed="30.528198" PMx_normed="6.933480" NOx_normed="182.274453" fuel_normed="206.176137" electricity_normed="0"
            traveltime="7.842673e-03" CO_perVeh="0.155127" CO2_perVeh="17.211310" HC_perVeh="0.001095" PMx_perVeh="0.000249" NOx_perVeh="0.006541" fuel_perVeh="0.007398" electricity_perVeh="0"/>
        <edge id=":1110673588_0" sampledSeconds="11.62" CO_abs="176.416806" CO2_abs="20571.700747" HC_abs="1.268338" PMx_abs="0.286192" NOx_abs="7.731852" fuel_abs="8.842909" electricity_abs="0"
            CO_normed="540.626092" CO2_normed="63041.602631" HC_normed="3.886800" PMx_normed="0.877031" NOx_normed="23.694120" fuel_normed="27.098934" electricity_normed="0"
            traveltime="0.02" CO_perVeh="0.294028" CO2_perVeh="34.286168" HC_perVeh="0.002114" PMx_perVeh="0.000477" NOx_perVeh="0.012886" fuel_perVeh="0.014738" electricity_perVeh="0"/>
        <edge id=":1110673601_0" sampledSeconds="29.86" CO_abs="427.222966" CO2_abs="54685.419888" HC_abs="3.188066" PMx_abs="0.713212" NOx_abs="20.203198" fuel_abs="23.507007" electricity_abs="0"
            CO_normed="1168.943754" CO2_normed="149627.209129" HC_normed="8.723010" PMx_normed="1.951451" NOx_normed="55.278869" fuel_normed="64.318566" electricity_normed="0"
            traveltime="0.02" CO_perVeh="0.317091" CO2_perVeh="40.588251" HC_perVeh="0.002366" PMx_perVeh="0.000529" NOx_perVeh="0.014995" fuel_perVeh="0.017447" electricity_perVeh="0"/>
        <edge id=":1110673617_0" sampledSeconds="238.21" CO_abs="6126.390632" CO2_abs="745325.508175" HC_abs="45.767061" PMx_abs="13.404711" NOx_abs="282.184461" fuel_abs="320.381093" electricity_abs="0"
            CO_normed="15645.177184" CO2_normed="1903363.715281" HC_normed="116.876939" PMx_normed="34.232077" NOx_normed="720.624288" fuel_normed="818.168358" electricity_normed="0"
            traveltime="0.01" CO_perVeh="0.375528" CO2_perVeh="45.686089" HC_perVeh="0.002805" PMx_perVeh="0.000822" NOx_perVeh="0.017297" fuel_perVeh="0.019638" electricity_perVeh="0"/>
        <edge id=":1110673621_0" sampledSeconds="25.79" CO_abs="509.445715" CO2_abs="56297.748922" HC_abs="3.611319" PMx_abs="0.813689" NOx_abs="21.393295" fuel_abs="24.200010" electricity_abs="0"
            CO_normed="1561.187126" CO2_normed="172523.427215" HC_normed="11.066821" PMx_normed="2.493535" NOx_normed="65.559364" fuel_normed="74.160491" electricity_normed="0"
            traveltime="0.02" CO_perVeh="0.385944" CO2_perVeh="42.649810" HC_perVeh="0.002736" PMx_perVeh="0.000616" NOx_perVeh="0.016207" fuel_perVeh="0.018333" electricity_perVeh="0"/>
        <edge id=":1110673630_0" sampledSeconds="54.08" CO_abs="287.729471" CO2_abs="26088.067767" HC_abs="1.902462" PMx_abs="0.327122" NOx_abs="9.727060" fuel_abs="11.214260" electricity_abs="0"
            CO_normed="15.722927" CO2_normed="1425.577906" HC_normed="0.103960" PMx_normed="0.017876" NOx_normed="0.531533" fuel_normed="0.612801" electricity_normed="0"
            traveltime="1.26" CO_perVeh="6.716115" CO2_perVeh="608.941646" HC_perVeh="0.044407" PMx_perVeh="0.007636" NOx_perVeh="0.227047" fuel_perVeh="0.261761" electricity_perVeh="0"/>
        <edge id=":1110673630_1" sampledSeconds="7.49" CO_abs="0" CO2_abs="0" HC_abs="0" PMx_abs="0" NOx_abs="0" fuel_abs="0" electricity_abs="0"
            CO_normed="0" CO2_normed="0" HC_normed="0" PMx_normed="0" NOx_normed="0" fuel_normed="0" electricity_normed="0"
            traveltime="1.06" CO_perVeh="0" CO2_perVeh="0" HC_perVeh="0" PMx_perVeh="0" NOx_perVeh="0" fuel_perVeh="0" electricity_perVeh="0"/>
        <edge id=":1110673650_0" sampledSeconds="143.62" CO_abs="2081.468378" CO2_abs="259648.512543" HC_abs="15.393178" PMx_abs="3.554409" NOx_abs="96.966129" fuel_abs="111.611977" electricity_abs="0"
            CO_normed="5315.518309" CO2_normed="663073.451908" HC_normed="39.310095" PMx_normed="9.077017" NOx_normed="247.625782" fuel_normed="285.027395" electricity_normed="0"
            traveltime="0.02" CO_perVeh="0.334193" CO2_perVeh="41.688281" HC_perVeh="0.002471" PMx_perVeh="0.000571" NOx_perVeh="0.015569" fuel_perVeh="0.017920" electricity_perVeh="0"/>
        <edge id=":1110673655_0" sampledSeconds="45.10" CO_abs="820.468777" CO2_abs="84547.689611" HC_abs="5.694259" PMx_abs="1.232482" NOx_abs="32.336295" fuel_abs="36.343480" electricity_abs="0"
            CO_normed="2095.259699" CO2_normed="215912.380365" HC_normed="14.541626" PMx_normed="3.147431" NOx_normed="82.578322" fuel_normed="92.811611" electricity_normed="0"
            traveltime="0.02" CO_perVeh="0.439106" CO2_perVeh="45.248964" HC_perVeh="0.003048" PMx_perVeh="0.000660" NOx_perVeh="0.017306" fuel_perVeh="0.019451" electricity_perVeh="0"/>
        <edge id=":1110673663_0" sampledSeconds="108.70" CO_abs="1654.855940" CO2_abs="199162.875000" HC_abs="12.060917" PMx_abs="2.670755" NOx_abs="74.200260" fuel_abs="85.611862" electricity_abs="0"
            CO_normed="77.400426" CO2_normed="9315.186303" HC_normed="0.564110" PMx_normed="0.124916" NOx_normed="3.470472" fuel_normed="4.004212" electricity_normed="0"
            traveltime="1.28" CO_perVeh="19.437074" CO2_perVeh="2339.263185" HC_perVeh="0.141661" PMx_perVeh="0.031369" NOx_perVeh="0.871518" fuel_perVeh="1.005552" electricity_perVeh="0"/>
        <edge id=":1110673663_1" sampledSeconds="153.52" CO_abs="2438.124278" CO2_abs="316973.618127" HC_abs="18.277455" PMx_abs="4.321577" NOx_abs="117.914325" fuel_abs="136.253595" electricity_abs="0"
            CO_normed="114.174625" CO2_normed="14843.519030" HC_normed="0.855913" PMx_normed="0.202375" NOx_normed="5.521796" fuel_normed="6.380603" electricity_normed="0"
            traveltime="1.25" CO_perVeh="19.787482" CO2_perVeh="2572.514322" HC_perVeh="0.148337" PMx_perVeh="0.035073" NOx_perVeh="0.956976" fuel_perVeh="1.105815" electricity_perVeh="0"/>
        <edge id=":1110673666_0" sampledSeconds="192.15" CO_abs="4510.958059" CO2_abs="362072.792967" HC_abs="28.811287" PMx_abs="4.936897" NOx_abs="138.249061" fuel_abs="155.640969" electricity_abs="0"