<?xml version="1.0" encoding="UTF-8"?>

<!-- generated on Mon Nov  9 23:22:49 2020 by Eclipse SUMO sumo Version 1.7.0
<configuration xmlns:xsi="http://www.w3.org/2001/XMLSchema-instance" xsi:noNamespaceSchemaLocation="http://sumo.dlr.de/xsd/sumoConfiguration.xsd">

    <input>
        <net-file value="../dataSets/Porto/6AM7AM_Routing_SaoBento/Porto.net.xml"/>
        <route-files value="../results/Porto/6AM7AM_Routing_SaoBento/cost_PMx-length/solution1/Porto.rou.xml"/>
        <additional-files value="moreOutputInfo.xml"/>
    </input>

    <output>
        <emission-output.precision value="6"/>
        <tripinfo-output value="../results/Porto/6AM7AM_Routing_SaoBento/cost_PMx-length/solution1/Porto-tripinfo"/>
    </output>

    <processing>
        <collision.action value="warn"/>
        <time-to-teleport value="-1"/>
    </processing>

    <emissions>
        <device.emissions.probability value="1"/>
    </emissions>

    <gui_only>
        <quit-on-end value="true"/>
        <start value="true"/>
    </gui_only>

</configuration>
-->

<meandata xmlns:xsi="http://www.w3.org/2001/XMLSchema-instance" xsi:noNamespaceSchemaLocation="http://sumo.dlr.de/xsd/meandata_file.xsd">
    <interval begin="0.00" end="4789.00" id="emissions-detector">
        <edge id=":1092997347_0" sampledSeconds="328.34" CO_abs="41653.904008" CO2_abs="1675878.940782" HC_abs="229.296859" PMx_abs="34.212125" NOx_abs="727.330257" fuel_abs="720.393935" electricity_abs="0"
            CO_normed="71164.057038" CO2_normed="2863173.269621" HC_normed="391.744668" PMx_normed="58.450071" NOx_normed="1242.615143" fuel_normed="1230.764710" electricity_normed="0"
            traveltime="0.07" CO_perVeh="9.309858" CO2_perVeh="374.567411" HC_perVeh="0.051249" PMx_perVeh="0.007647" NOx_perVeh="0.162562" fuel_perVeh="0.161012" electricity_perVeh="0"/>
        <edge id=":1103427051_0" sampledSeconds="11.27" CO_abs="875.127827" CO2_abs="49178.641384" HC_abs="5.148413" PMx_abs="0.943961" NOx_abs="20.846510" fuel_abs="21.139755" electricity_abs="0"
            CO_normed="2268.460176" CO2_normed="127478.279234" HC_normed="13.345444" PMx_normed="2.446886" NOx_normed="54.037223" fuel_normed="54.797357" electricity_normed="0"
            traveltime="0.03" CO_perVeh="2.397837" CO2_perVeh="134.748734" HC_perVeh="0.014107" PMx_perVeh="0.002586" NOx_perVeh="0.057119" fuel_perVeh="0.057923" electricity_perVeh="0"/>
        <edge id=":1105984386_0" sampledSeconds="76.92" CO_abs="1513.663850" CO2_abs="124781.951524" HC_abs="9.722827" PMx_abs="1.590104" NOx_abs="46.909159" fuel_abs="53.639030" electricity_abs="0"
            CO_normed="117.183880" CO2_normed="9660.290962" HC_normed="0.752716" PMx_normed="0.123102" NOx_normed="3.631584" fuel_normed="4.152593" electricity_normed="0"
            traveltime="0.96" CO_perVeh="18.822904" CO2_perVeh="1551.704253" HC_perVeh="0.120907" PMx_perVeh="0.019773" NOx_perVeh="0.583331" fuel_perVeh="0.667019" electricity_perVeh="0"/>
        <edge id=":1105984390_0" sampledSeconds="78.72" CO_abs="68.045649" CO2_abs="7674.612778" HC_abs="0.488076" PMx_abs="0.108435" NOx_abs="2.865610" fuel_abs="3.298997" electricity_abs="0"
            CO_normed="4.072568" CO2_normed="459.329667" HC_normed="0.029212" PMx_normed="0.006490" NOx_normed="0.171508" fuel_normed="0.197447" electricity_normed="0"
            traveltime="1.06" CO_perVeh="0.914322" CO2_perVeh="103.122940" HC_perVeh="0.006558" PMx_perVeh="0.001457" NOx_perVeh="0.038505" fuel_perVeh="0.044328" electricity_perVeh="0"/>
        <edge id=":1105984390_1" sampledSeconds="645.97" CO_abs="15698.697604" CO2_abs="1957530.315810" HC_abs="118.540817" PMx_abs="35.079964" NOx_abs="737.278848" fuel_abs="841.452274" electricity_abs="0"
            CO_normed="898.786543" CO2_normed="112073.112728" HC_normed="6.786734" PMx_normed="2.008409" NOx_normed="42.210910" fuel_normed="48.175078" electricity_normed="0"
            traveltime="0.64" CO_perVeh="15.449692" CO2_perVeh="1926.480909" HC_perVeh="0.116661" PMx_perVeh="0.034524" NOx_perVeh="0.725584" fuel_perVeh="0.828106" electricity_perVeh="0"/>
        <edge id=":1105984395_0" sampledSeconds="30.09" CO_abs="584.297343" CO2_abs="48859.686335" HC_abs="3.772346" PMx_abs="0.638559" NOx_abs="18.460182" fuel_abs="21.002896" electricity_abs="0"
            CO_normed="477.423451" CO2_normed="39922.755683" HC_normed="3.082346" PMx_normed="0.521760" NOx_normed="15.083628" fuel_normed="17.161254" electricity_normed="0"
            traveltime="0.09" CO_perVeh="1.755678" CO2_perVeh="146.812043" HC_perVeh="0.011335" PMx_perVeh="0.001919" NOx_perVeh="0.055469" fuel_perVeh="0.063109" electricity_perVeh="0"/>
        <edge id=":1105984398_0" sampledSeconds="76.13" CO_abs="4866.298440" CO2_abs="339639.153136" HC_abs="30.162570" PMx_abs="6.057832" NOx_abs="139.576742" fuel_abs="145.995915" electricity_abs="0"
            CO_normed="302.572952" CO2_normed="21117.821381" HC_normed="1.875425" PMx_normed="0.376659" NOx_normed="8.678495" fuel_normed="9.077621" electricity_normed="0"
            traveltime="1.10" CO_perVeh="70.246266" CO2_perVeh="4902.778303" HC_perVeh="0.435404" PMx_perVeh="0.087446" NOx_perVeh="2.014826" fuel_perVeh="2.107488" electricity_perVeh="0"/>
        <edge id=":1105984398_1" sampledSeconds="454.11" CO_abs="7641.668343" CO2_abs="927536.013653" HC_abs="55.966448" PMx_abs="12.953724" NOx_abs="348.241084" fuel_abs="398.708494" electricity_abs="0"
            CO_normed="459.921180" CO2_normed="55824.649683" HC_normed="3.368395" PMx_normed="0.779632" NOx_normed="20.959226" fuel_normed="23.996655" electricity_normed="0"
            traveltime="0.96" CO_perVeh="16.091902" CO2_perVeh="1953.214627" HC_perVeh="0.117855" PMx_perVeh="0.027278" NOx_perVeh="0.733330" fuel_perVeh="0.839604" electricity_perVeh="0"/>
        <edge id=":1106006327_0" sampledSeconds="38.68" CO_abs="5213.101302" CO2_abs="168732.554520" HC_abs="27.708460" PMx_abs="3.518638" NOx_abs="73.850472" fuel_abs="72.532182" electricity_abs="0"
            CO_normed="442.303225" CO2_normed="14316.037370" HC_normed="2.350912" PMx_normed="0.298537" NOx_normed="6.265810" fuel_normed="6.153960" electricity_normed="0"
            traveltime="2.10" CO_perVeh="282.807234" CO2_perVeh="9153.627437" HC_perVeh="1.503165" PMx_perVeh="0.190884" NOx_perVeh="4.006338" fuel_perVeh="3.934822" electricity_perVeh="0"/>
        <edge id=":1106006327_1" sampledSeconds="162.33" CO_abs="22031.679213" CO2_abs="734229.422655" HC_abs="117.625034" PMx_abs="15.336323" NOx_abs="321.444957" fuel_abs="315.618777" electricity_abs="0"
            CO_normed="1630.089895" CO2_normed="54324.500240" HC_normed="8.702894" PMx_normed="1.134711" NOx_normed="23.783216" fuel_normed="23.352146" electricity_normed="0"
            traveltime="2.30" CO_perVeh="312.768082" CO2_perVeh="10423.332962" HC_perVeh="1.669839" PMx_perVeh="0.217719" NOx_perVeh="4.563325" fuel_perVeh="4.480615" electricity_perVeh="0"/>
        <edge id=":1106006327_2" sampledSeconds="0.00" CO_abs="0" CO2_abs="0" HC_abs="0" PMx_abs="0" NOx_abs="0" fuel_abs="0" electricity_abs="0"
            CO_normed="0" CO2_normed="0" HC_normed="0" PMx_normed="0" NOx_normed="0" fuel_normed="0" electricity_normed="0"/>
        <edge id=":1106006327_3" sampledSeconds="0.00" CO_abs="0" CO2_abs="0" HC_abs="0" PMx_abs="0" NOx_abs="0" fuel_abs="0" electricity_abs="0"
            CO_normed="0" CO2_normed="0" HC_normed="0" PMx_normed="0" NOx_normed="0" fuel_normed="0" electricity_normed="0"/>
        <edge id=":1107381198_0" sampledSeconds="0.00" CO_abs="0" CO2_abs="0" HC_abs="0" PMx_abs="0" NOx_abs="0" fuel_abs="0" electricity_abs="0"
            CO_normed="0" CO2_normed="0" HC_normed="0" PMx_normed="0" NOx_normed="0" fuel_normed="0" electricity_normed="0"/>
        <edge id=":1107381198_1" sampledSeconds="35.15" CO_abs="1875.262092" CO2_abs="74930.844546" HC_abs="10.248373" PMx_abs="1.211920" NOx_abs="30.510345" fuel_abs="32.210292" electricity_abs="0"
            CO_normed="153.727053" CO2_normed="6142.553611" HC_normed="0.840124" PMx_normed="0.099349" NOx_normed="2.501125" fuel_normed="2.640481" electricity_normed="0"
            traveltime="1.45" CO_perVeh="77.209740" CO2_perVeh="3085.110652" HC_perVeh="0.421954" PMx_perVeh="0.049898" NOx_perVeh="1.256196" fuel_perVeh="1.326187" electricity_perVeh="0"/>
        <edge id=":1110338277_0" sampledSeconds="96.73" CO_abs="1721.266547" CO2_abs="200596.606109" HC_abs="12.414935" PMx_abs="2.796834" NOx_abs="75.482061" fuel_abs="86.228041" electricity_abs="0"
            CO_normed="4621.125473" CO2_normed="538546.506870" HC_normed="33.330672" PMx_normed="7.508727" NOx_normed="202.648494" fuel_normed="231.498484" electricity_normed="0"
            traveltime="0.02" CO_perVeh="0.387919" CO2_perVeh="45.208144" HC_perVeh="0.002798" PMx_perVeh="0.000630" NOx_perVeh="0.017011" fuel_perVeh="0.019433" electricity_perVeh="0"/>
        <edge id=":1110338293_0" sampledSeconds="123.48" CO_abs="6015.807882" CO2_abs="415820.754585" HC_abs="37.163522" PMx_abs="7.285808" NOx_abs="170.145500" fuel_abs="178.743269" electricity_abs="0"
            CO_normed="15074.064435" CO2_normed="1041939.664860" HC_normed="93.122210" PMx_normed="18.256359" NOx_normed="426.340782" fuel_normed="447.884575" electricity_normed="0"
            traveltime="0.03" CO_perVeh="1.379835" CO2_perVeh="95.376059" HC_perVeh="0.008524" PMx_perVeh="0.001671" NOx_perVeh="0.039026" fuel_perVeh="0.040998" electricity_perVeh="0"/>
        <edge id=":1110338295_0" sampledSeconds="0.00" CO_abs="0" CO2_abs="0" HC_abs="0" PMx_abs="0" NOx_abs="0" fuel_abs="0" electricity_abs="0"
            CO_normed="0" CO2_normed="0" HC_normed="0" PMx_normed="0" NOx_normed="0" fuel_normed="0" electricity_normed="0"/>
        <edge id=":1110673403_0" sampledSeconds="158.51" CO_abs="2370.444188" CO2_abs="310075.644701" HC_abs="17.834699" PMx_abs="4.134382" NOx_abs="114.919744" fuel_abs="133.288567" electricity_abs="0"
            CO_normed="5939.722334" CO2_normed="776969.667241" HC_normed="44.689159" PMx_normed="10.359697" NOx_normed="287.959266" fuel_normed="333.986803" electricity_normed="0"
            traveltime="0.02" CO_perVeh="0.345143" CO2_perVeh="45.147881" HC_perVeh="0.002597" PMx_perVeh="0.000602" NOx_perVeh="0.016733" fuel_perVeh="0.019407" electricity_perVeh="0"/>
        <edge id=":1110673412_0" sampledSeconds="251.84" CO_abs="44610.305390" CO2_abs="3048360.479511" HC_abs="277.729634" PMx_abs="66.941200" NOx_abs="1309.655468" fuel_abs="1310.340054" electricity_abs="0"
            CO_normed="115636.479723" CO2_normed="7901799.185086" HC_normed="719.916101" PMx_normed="173.521447" NOx_normed="3394.819799" fuel_normed="3396.594346" electricity_normed="0"
            traveltime="0.02" CO_perVeh="2.752198" CO2_perVeh="188.066193" HC_perVeh="0.017134" PMx_perVeh="0.004130" NOx_perVeh="0.080798" fuel_perVeh="0.080840" electricity_perVeh="0"/>
        <edge id=":1110673414_0" sampledSeconds="0.00" CO_abs="0" CO2_abs="0" HC_abs="0" PMx_abs="0" NOx_abs="0" fuel_abs="0" electricity_abs="0"
            CO_normed="0" CO2_normed="0" HC_normed="0" PMx_normed="0" NOx_normed="0" fuel_normed="0" electricity_normed="0"/>
        <edge id=":1110673414_1" sampledSeconds="322.75" CO_abs="21970.058630" CO2_abs="841743.152948" HC_abs="119.580664" PMx_abs="15.525506" NOx_abs="355.318250" fuel_abs="361.835376" electricity_abs="0"
            CO_normed="1828.947037" CO2_normed="70072.805518" HC_normed="9.954762" PMx_normed="1.292456" NOx_normed="29.579268" fuel_normed="30.121801" electricity_normed="0"
            traveltime="1.59" CO_perVeh="108.247558" CO2_perVeh="4147.309859" HC_perVeh="0.589180" PMx_perVeh="0.076495" NOx_perVeh="1.750670" fuel_perVeh="1.782781" electricity_perVeh="0"/>
        <edge id=":1110673417_0" sampledSeconds="29.72" CO_abs="482.904663" CO2_abs="56779.312497" HC_abs="3.470552" PMx_abs="0.790468" NOx_abs="21.330663" fuel_abs="24.407034" electricity_abs="0"
            CO_normed="1296.465701" CO2_normed="152436.778472" HC_normed="9.317474" PMx_normed="2.122189" NOx_normed="57.266943" fuel_normed="65.526148" electricity_normed="0"
            traveltime="0.02" CO_perVeh="0.358418" CO2_perVeh="42.142366" HC_perVeh="0.002576" PMx_perVeh="0.000587" NOx_perVeh="0.015832" fuel_perVeh="0.018115" electricity_perVeh="0"/>
        <edge id=":1110673446_0" sampledSeconds="333.00" CO_abs="3837.033222" CO2_abs="295450.152914" HC_abs="24.508008" PMx_abs="5.610847" NOx_abs="122.351345" fuel_abs="127.000278" electricity_abs="0"
            CO_normed="9614.616552" CO2_normed="740321.953429" HC_normed="61.410754" PMx_normed="14.059336" NOx_normed="306.580945" fuel_normed="318.229971" electricity_normed="0"
            traveltime="0.02" CO_perVeh="0.262014" CO2_perVeh="20.174946" HC_perVeh="0.001674" PMx_perVeh="0.000383" NOx_perVeh="0.008355" fuel_perVeh="0.008672" electricity_perVeh="0"/>
        <edge id=":1110673451_0" sampledSeconds="37.27" CO_abs="371.529603" CO2_abs="29294.402604" HC_abs="2.361667" PMx_abs="0.405541" NOx_abs="11.239933" fuel_abs="12.592516" electricity_abs="0"
            CO_normed="1034.397169" CO2_normed="81560.249471" HC_normed="6.575255" PMx_normed="1.129091" NOx_normed="31.293750" fuel_normed="35.059555" electricity_normed="0"
            traveltime="0.03" CO_perVeh="0.266436" CO2_perVeh="21.007938" HC_perVeh="0.001694" PMx_perVeh="0.000291" NOx_perVeh="0.008061" fuel_perVeh="0.009030" electricity_perVeh="0"/>
        <edge id=":1110673464_0" sampledSeconds="322.01" CO_abs="555.088165" CO2_abs="46405.599997" HC_abs="3.578501" PMx_abs="0.580405" NOx_abs="17.362107" fuel_abs="19.948019" electricity_abs="0"
            CO_normed="29.551868" CO2_normed="2470.548359" HC_normed="0.190513" PMx_normed="0.030900" NOx_normed="0.924326" fuel_normed="1.061996" electricity_normed="0"
            traveltime="1.16" CO_perVeh="2.006570" CO2_perVeh="167.750121" HC_perVeh="0.012936" PMx_perVeh="0.002098" NOx_perVeh="0.062762" fuel_perVeh="0.072109" electricity_perVeh="0"/>
        <edge id=":1110673464_1" sampledSeconds="746.31" CO_abs="17662.281471" CO2_abs="2206121.755581" HC_abs="133.297742" PMx_abs="39.403045" NOx_abs="831.154725" fuel_abs="948.310342" electricity_abs="0"
            CO_normed="921.383614" CO2_normed="115086.176120" HC_normed="6.953708" PMx_normed="2.055528" NOx_normed="43.358631" fuel_normed="49.470257" electricity_normed="0"
            traveltime="0.70" CO_perVeh="16.609771" CO2_perVeh="2074.657078" HC_perVeh="0.125354" PMx_perVeh="0.037055" NOx_perVeh="0.781626" fuel_perVeh="0.891800" electricity_perVeh="0"/>
        <edge id=":1110673479_0" sampledSeconds="133.64" CO_abs="6720.874836" CO2_abs="464776.882491" HC_abs="41.535426" PMx_abs="8.199084" NOx_abs="190.518983" fuel_abs="199.787295" electricity_abs="0"
            CO_normed="16840.780546" CO2_normed="1164611.106680" HC_normed="104.077076" PMx_normed="20.544792" NOx_normed="477.391479" fuel_normed="500.615481" electricity_normed="0"
            traveltime="0.03" CO_perVeh="1.415815" CO2_perVeh="97.909602" HC_perVeh="0.008750" PMx_perVeh="0.001727" NOx_perVeh="0.040135" fuel_perVeh="0.042087" electricity_perVeh="0"/>
        <edge id=":1110673511_0" sampledSeconds="11.76" CO_abs="222.930142" CO2_abs="24541.229930" HC_abs="1.565241" PMx_abs="0.350492" NOx_abs="9.296417" fuel_abs="10.549237" electricity_abs="0"
            CO_normed="558.605492" CO2_normed="61493.998571" HC_normed="3.922092" PMx_normed="0.878244" NOx_normed="23.294426" fuel_normed="26.433670" electricity_normed="0"
            traveltime="0.02" CO_perVeh="0.441446" CO2_perVeh="48.596495" HC_perVeh="0.003099" PMx_perVeh="0.000694" NOx_perVeh="0.018409" fuel_perVeh="0.020890" electricity_perVeh="0"/>
        <edge id=":1110673517_0" sampledSeconds="17.27" CO_abs="677.953953" CO2_abs="50507.511904" HC_abs="4.270919" PMx_abs="0.855391" NOx_abs="20.397907" fuel_abs="21.710992" electricity_abs="0"
            CO_normed="1698.777916" CO2_normed="126558.810368" HC_normed="10.701822" PMx_normed="2.143389" NOx_normed="51.111899" fuel_normed="54.402152" electricity_normed="0"
            traveltime="0.03" CO_perVeh="1.088500" CO2_perVeh="81.093142" HC_perVeh="0.006857" PMx_perVeh="0.001373" NOx_perVeh="0.032750" fuel_perVeh="0.034858" electricity_perVeh="0"/>
        <edge id=":1110673534_0" sampledSeconds="475.95" CO_abs="3107.765761" CO2_abs="257311.109014" HC_abs="20.058047" PMx_abs="3.633524" NOx_abs="98.918313" fuel_abs="110.607747" electricity_abs="0"
            CO_normed="150.915895" CO2_normed="12495.258466" HC_normed="0.974037" PMx_normed="0.176447" NOx_normed="4.803562" fuel_normed="5.371212" electricity_normed="0"
            traveltime="1.43" CO_perVeh="9.362453" CO2_perVeh="775.175242" HC_perVeh="0.060427" PMx_perVeh="0.010946" NOx_perVeh="0.298001" fuel_perVeh="0.333217" electricity_perVeh="0"/>
        <edge id=":1110673534_1" sampledSeconds="245.41" CO_abs="3644.036772" CO2_abs="464995.865437" HC_abs="27.241080" PMx_abs="6.286864" NOx_abs="173.040841" fuel_abs="199.882241" electricity_abs="0"
            CO_normed="172.066907" CO2_normed="21956.529300" HC_normed="1.286290" PMx_normed="0.296858" NOx_normed="8.170774" fuel_normed="9.438192" electricity_normed="0"
            traveltime="1.23" CO_perVeh="18.224877" CO2_perVeh="2325.578251" HC_perVeh="0.136240" PMx_perVeh="0.031442" NOx_perVeh="0.865427" fuel_perVeh="0.999669" electricity_perVeh="0"/>
        <edge id=":1110673549_0" sampledSeconds="61.01" CO_abs="85.768919" CO2_abs="6771.003889" HC_abs="0.546239" PMx_abs="0.097845" NOx_abs="2.620945" fuel_abs="2.910583" electricity_abs="0"
            CO_normed="4.034696" CO2_normed="318.517979" HC_normed="0.025696" PMx_normed="0.004603" NOx_normed="0.123293" fuel_normed="0.136918" electricity_normed="0"
            traveltime="1.27" CO_perVeh="1.786922" CO2_perVeh="141.068098" HC_perVeh="0.011380" PMx_perVeh="0.002039" NOx_perVeh="0.054605" fuel_perVeh="0.060640" electricity_perVeh="0"/>
        <edge id=":1110673549_1" sampledSeconds="638.89" CO_abs="14324.182360" CO2_abs="1880956.225628" HC_abs="110.147552" PMx_abs="33.094499" NOx_abs="703.030246" fuel_abs="808.536989" electricity_abs="0"
            CO_normed="651.804662" CO2_normed="85590.647002" HC_normed="5.012132" PMx_normed="1.505925" NOx_normed="31.990544" fuel_normed="36.791502" electricity_normed="0"
            traveltime="0.80" CO_perVeh="18.037642" CO2_perVeh="2368.582968" HC_perVeh="0.138703" PMx_perVeh="0.041674" NOx_perVeh="0.885287" fuel_perVeh="1.018145" electricity_perVeh="0"/>
        <edge id=":1110673556_0" sampledSeconds="418.37" CO_abs="51788.813953" CO2_abs="2596637.308595" HC_abs="297.570029" PMx_abs="52.468107" NOx_abs="1119.012095" fuel_abs="1116.181842" electricity_abs="0"
            CO_normed="1806.534893" CO2_normed="90577.782040" HC_normed="10.380053" PMx_normed="1.830230" NOx_normed="39.034190" fuel_normed="38.935463" electricity_normed="0"
            traveltime="2.60" CO_perVeh="321.479704" CO2_perVeh="16118.658256" HC_perVeh="1.847170" PMx_perVeh="0.325696" NOx_perVeh="6.946281" fuel_perVeh="6.928713" electricity_perVeh="0"/>
        <edge id=":1110673556_2" sampledSeconds="253.35" CO_abs="24516.628234" CO2_abs="1038758.841937" HC_abs="136.012594" PMx_abs="20.027673" NOx_abs="443.053503" fuel_abs="446.521958" electricity_abs="0"
            CO_normed="894.211835" CO2_normed="37887.365312" HC_normed="4.960881" PMx_normed="0.730483" NOx_normed="16.159795" fuel_normed="16.286302" electricity_normed="0"
            traveltime="3.07" CO_perVeh="297.382002" CO2_perVeh="12599.945697" HC_perVeh="1.649807" PMx_perVeh="0.242932" NOx_perVeh="5.374154" fuel_perVeh="5.416226" electricity_perVeh="0"/>
        <edge id=":1110673556_3" sampledSeconds="375.09" CO_abs="32149.454683" CO2_abs="1145195.764226" HC_abs="173.079285" PMx_abs="22.031778" NOx_abs="489.541545" fuel_abs="492.279354" electricity_abs="0"
            CO_normed="2667.491701" CO2_normed="95018.725105" HC_normed="14.360665" PMx_normed="1.828012" NOx_normed="40.618045" fuel_normed="40.845206" electricity_normed="0"
            traveltime="1.75" CO_perVeh="149.585335" CO2_perVeh="5328.379386" HC_perVeh="0.805305" PMx_perVeh="0.102510" NOx_perVeh="2.277744" fuel_perVeh="2.290483" electricity_perVeh="0"/>
        <edge id=":1110673556_4" sampledSeconds="167.62" CO_abs="17651.595820" CO2_abs="710890.518857" HC_abs="97.068738" PMx_abs="13.925133" NOx_abs="304.988472" fuel_abs="305.584514" electricity_abs="0"
            CO_normed="894.747487" CO2_normed="36034.560938" HC_normed="4.920349" PMx_normed="0.705856" NOx_normed="15.459660" fuel_normed="15.489873" electricity_normed="0"
            traveltime="2.40" CO_perVeh="252.253133" CO2_perVeh="10159.101889" HC_perVeh="1.387177" PMx_perVeh="0.198999" NOx_perVeh="4.358490" fuel_perVeh="4.367007" electricity_perVeh="0"/>
        <edge id=":1110673556_5" sampledSeconds="26.80" CO_abs="2686.369951" CO2_abs="101031.815751" HC_abs="14.598165" PMx_abs="1.974680" NOx_abs="43.332579" fuel_abs="43.429852" electricity_abs="0"
            CO_normed="189.793728" CO2_normed="7137.961382" HC_normed="1.031370" PMx_normed="0.139512" NOx_normed="3.061474" fuel_normed="3.068346" electricity_normed="0"
            traveltime="1.85" CO_perVeh="185.724342" CO2_perVeh="6984.915657" HC_perVeh="1.009256" PMx_perVeh="0.136521" NOx_perVeh="2.995833" fuel_perVeh="3.002558" electricity_perVeh="0"/>
        <edge id=":1110673556_6" sampledSeconds="310.00" CO_abs="37083.280719" CO2_abs="1891688.930564" HC_abs="213.851493" PMx_abs="38.105320" NOx_abs="813.767663" fuel_abs="813.154786" electricity_abs="0"
            CO_normed="1326.181914" CO2_normed="67651.070712" HC_normed="7.647813" PMx_normed="1.362732" NOx_normed="29.102170" fuel_normed="29.080253" electricity_normed="0"
            traveltime="2.45" CO_perVeh="293.669752" CO2_perVeh="14980.654603" HC_perVeh="1.693532" PMx_perVeh="0.301763" NOx_perVeh="6.444385" fuel_perVeh="6.439532" electricity_perVeh="0"/>
        <edge id=":1110673561_0" sampledSeconds="99.62" CO_abs="10108.833049" CO2_abs="728234.251816" HC_abs="63.557152" PMx_abs="14.703632" NOx_abs="307.638242" fuel_abs="313.033217" electricity_abs="0"
            CO_normed="454.216333" CO2_normed="32721.471395" HC_normed="2.855789" PMx_normed="0.660673" NOx_normed="13.822992" fuel_normed="14.065402" electricity_normed="0"
            traveltime="1.18" CO_perVeh="119.294042" CO2_perVeh="8593.870995" HC_perVeh="0.750036" PMx_perVeh="0.173517" NOx_perVeh="3.630430" fuel_perVeh="3.694096" electricity_perVeh="0"/>
        <edge id=":1110673561_1" sampledSeconds="1309.29" CO_abs="123781.919107" CO2_abs="8548245.049934" HC_abs="770.515947" PMx_abs="179.119393" NOx_abs="3658.038388" fuel_abs="3674.477310" electricity_abs="0"
            CO_normed="5422.475418" CO2_normed="374470.269861" HC_normed="33.753749" PMx_normed="7.846627" NOx_normed="160.246532" fuel_normed="160.966666" electricity_normed="0"
            traveltime="1.19" CO_perVeh="112.413940" CO2_perVeh="7763.184741" HC_perVeh="0.699753" PMx_perVeh="0.162669" NOx_perVeh="3.322089" fuel_perVeh="3.337018" electricity_perVeh="0"/>
        <edge id=":1110673562_0" sampledSeconds="104.19" CO_abs="2225.417266" CO2_abs="177207.167306" HC_abs="14.159719" PMx_abs="2.311062" NOx_abs="67.031657" fuel_abs="76.174619" electricity_abs="0"
            CO_normed="6195.913596" CO2_normed="493372.777355" HC_normed="39.422897" PMx_normed="6.434363" NOx_normed="186.626734" fuel_normed="212.082185" electricity_normed="0"
            traveltime="0.03" CO_perVeh="0.567269" CO2_perVeh="45.170914" HC_perVeh="0.003609" PMx_perVeh="0.000589" NOx_perVeh="0.017087" fuel_perVeh="0.019417" electricity_perVeh="0"/>
        <edge id=":1110673564_0" sampledSeconds="28.63" CO_abs="438.570455" CO2_abs="54229.932026" HC_abs="3.224889" PMx_abs="0.696548" NOx_abs="20.019785" fuel_abs="23.311235" electricity_abs="0"
            CO_normed="3296.833660" CO2_normed="407658.708066" HC_normed="24.242222" PMx_normed="5.236109" NOx_normed="150.493266" fuel_normed="175.235841" electricity_normed="0"
            traveltime="7.871067e-03" CO_perVeh="0.120571" CO2_perVeh="14.908769" HC_perVeh="0.000887" PMx_perVeh="0.000191" NOx_perVeh="0.005504" fuel_perVeh="0.006409" electricity_perVeh="0"/>
        <edge id=":1110673588_0" sampledSeconds="11.56" CO_abs="251.087325" CO2_abs="28524.678984" HC_abs="1.803873" PMx_abs="0.403237" NOx_abs="10.783827" fuel_abs="12.261556" electricity_abs="0"
            CO_normed="754.992164" CO2_normed="85770.594565" HC_normed="5.424048" PMx_normed="1.212489" NOx_normed="32.425790" fuel_normed="36.869161" electricity_normed="0"
            traveltime="0.02" CO_perVeh="0.418479" CO2_perVeh="47.541132" HC_perVeh="0.003006" PMx_perVeh="0.000672" NOx_perVeh="0.017973" fuel_perVeh="0.020436" electricity_perVeh="0"/>
        <edge id=":1110673601_0" sampledSeconds="29.76" CO_abs="429.226768" CO2_abs="57546.029587" HC_abs="3.268254" PMx_abs="0.747094" NOx_abs="21.196196" fuel_abs="24.736658" electricity_abs="0"
            CO_normed="1152.355373" CO2_normed="154495.202183" HC_normed="8.774358" PMx_normed="2.005741" NOx_normed="56.905935" fuel_normed="66.411098" electricity_normed="0"
            traveltime="0.02" CO_perVeh="0.318578" CO2_perVeh="42.711433" HC_perVeh="0.002426" PMx_perVeh="0.000555" NOx_perVeh="0.015732" fuel_perVeh="0.018360" electricity_perVeh="0"/>
        <edge id=":1110673617_0" sampledSeconds="248.12" CO_abs="5985.661433" CO2_abs="750060.708795" HC_abs="45.217409" PMx_abs="13.374041" NOx_abs="282.626411" fuel_abs="322.416621" electricity_abs="0"
            CO_normed="14998.525202" CO2_normed="1879458.865220" HC_normed="113.303175" PMx_normed="33.511899" NOx_normed="708.188960" fuel_normed="807.892973" electricity_normed="0"
            traveltime="0.01" CO_perVeh="0.353053" CO2_perVeh="44.240936" HC_perVeh="0.002667" PMx_perVeh="0.000789" NOx_perVeh="0.016670" fuel_perVeh="0.019017" electricity_perVeh="0"/>
        <edge id=":1110673621_0" sampledSeconds="25.78" CO_abs="570.120371" CO2_abs="59073.773129" HC_abs="3.966191" PMx_abs="0.878752" NOx_abs="22.680910" fuel_abs="25.393292" electricity_abs="0"
            CO_normed="1714.289693" CO2_normed="177628.384433" HC_normed="11.925904" PMx_normed="2.642310" NOx_normed="68.199018" fuel_normed="76.354857" electricity_normed="0"
            traveltime="0.02" CO_perVeh="0.431909" CO2_perVeh="44.752858" HC_perVeh="0.003005" PMx_perVeh="0.000666" NOx_perVeh="0.017183" fuel_perVeh="0.019237" electricity_perVeh="0"/>
        <edge id=":1110673630_0" sampledSeconds="54.63" CO_abs="253.292639" CO2_abs="23380.820747" HC_abs="1.689983" PMx_abs="0.321377" NOx_abs="8.885847" fuel_abs="10.050472" electricity_abs="0"
            CO_normed="13.581015" CO2_normed="1253.630075" HC_normed="0.090613" PMx_normed="0.017232" NOx_normed="0.476440" fuel_normed="0.538885" electricity_normed="0"
            traveltime="1.28" CO_perVeh="5.912298" CO2_perVeh="545.749712" HC_perVeh="0.039447" PMx_perVeh="0.007501" NOx_perVeh="0.207411" fuel_perVeh="0.234596" electricity_perVeh="0"/>
        <edge id=":1110673630_1" sampledSeconds="7.44" CO_abs="97.999389" CO2_abs="8344.115425" HC_abs="0.637958" PMx_abs="0.118239" NOx_abs="3.209976" fuel_abs="3.586798" electricity_abs="0"
            CO_normed="6.405945" CO2_normed="545.431388" HC_normed="0.041702" PMx_normed="0.007729" NOx_normed="0.209827" fuel_normed="0.234459" electricity_normed="0"
            traveltime="1.05" CO_perVeh="13.870683" CO2_perVeh="1181.013260" HC_perVeh="0.090296" PMx_perVeh="0.016735" NOx_perVeh="0.454335" fuel_perVeh="0.507670" electricity_perVeh="0"/>
        <edge id=":1110673650_0" sampledSeconds="158.58" CO_abs="2506.372943" CO2_abs="307075.351693" HC_abs="18.420633" PMx_abs="4.222653" NOx_abs="114.870350" fuel_abs="131.998785" electricity_abs="0"
            CO_normed="6280.324770" CO2_normed="769451.706059" HC_normed="46.157361" PMx_normed="10.580881" NOx_normed="287.835499" fuel_normed="330.754943" electricity_normed="0"
            traveltime="0.02" CO_perVeh="0.365280" CO2_perVeh="44.753305" HC_perVeh="0.002685" PMx_perVeh="0.000615" NOx_perVeh="0.016741" fuel_perVeh="0.019238" electricity_perVeh="0"/>
        <edge id=":1110673655_0" sampledSeconds="45.08" CO_abs="820.731389" CO2_abs="89232.060838" HC_abs="5.793988" PMx_abs="1.272691" NOx_abs="33.848805" fuel_abs="38.357106" electricity_abs="0"
            CO_normed="2056.541380" CO2_normed="223592.551694" HC_normed="14.518240" PMx_normed="3.189036" NOx_normed="84.816384" fuel_normed="96.113025" electricity_normed="0"
            traveltime="0.02" CO_perVeh="0.439246" CO2_perVeh="47.755987" HC_perVeh="0.003101" PMx_perVeh="0.000681" NOx_perVeh="0.018115" fuel_perVeh="0.020528" electricity_perVeh="0"/>
        <edge id=":1110673663_0" sampledSeconds="108.81" CO_abs="1673.773273" CO2_abs="205894.007500" HC_abs="12.329199" PMx_abs="2.756592" NOx_abs="76.609252" fuel_abs="88.505284" electricity_abs="0"
            CO_normed="76.814002" CO2_normed="9449.035335" HC_normed="0.565820" PMx_normed="0.126508" NOx_normed="3.515807" fuel_normed="4.061748" electricity_normed="0"
            traveltime="1.28" CO_perVeh="19.659257" CO2_perVeh="2418.322250" HC_perVeh="0.144812" PMx_perVeh="0.032377" NOx_perVeh="0.899812" fuel_perVeh="1.039536" electricity_perVeh="0"/>
        <edge id=":1110673663_1" sampledSeconds="153.91" CO_abs="2605.933277" CO2_abs="314084.927577" HC_abs="18.982008" PMx_abs="4.362367" NOx_abs="117.785476" fuel_abs="135.011865" electricity_abs="0"
            CO_normed="119.739559" CO2_normed="14431.831853" HC_normed="0.872201" PMx_normed="0.200446" NOx_normed="5.412104" fuel_normed="6.203636" electricity_normed="0"
            traveltime="1.24" CO_perVeh="21.069658" CO2_perVeh="2539.459491" HC_perVeh="0.153475" PMx_perVeh="0.035271" NOx_perVeh="0.952327" fuel_perVeh="1.091607" electricity_perVeh="0"/>
        <edge id=":1110673666_0" sampledSeconds="255.00" CO_abs="5916.329544" CO2_abs="466781.259387" HC_abs="37.592919" PMx_abs="6.343367" NOx_abs="178.247529" fuel_abs="200.651156" electricity_abs="0"