<?xml version="1.0" encoding="UTF-8"?>

<!-- generated on Sat Oct 31 22:39:17 2020 by Eclipse SUMO sumo Version 1.7.0
<configuration xmlns:xsi="http://www.w3.org/2001/XMLSchema-instance" xsi:noNamespaceSchemaLocation="http://sumo.dlr.de/xsd/sumoConfiguration.xsd">

    <input>
        <net-file value="../dataSets/Angeja_Estarreja/angeja_estarreja.net.xml"/>
        <route-files value="../results/angeja_estarreja/length-ttime/solution4/angeja_estarreja.rou.xml"/>
        <additional-files value="moreOutputInfo.xml"/>
    </input>

    <output>
        <emission-output.precision value="6"/>
        <tripinfo-output value="../results/angeja_estarreja/length-ttime/solution4/angeja_estarreja-tripinfo"/>
    </output>

    <processing>
        <collision.action value="warn"/>
        <time-to-teleport value="-1"/>
    </processing>

    <emissions>
        <device.emissions.probability value="1"/>
    </emissions>

    <gui_only>
        <quit-on-end value="true"/>
        <start value="true"/>
    </gui_only>

</configuration>
-->

<meandata xmlns:xsi="http://www.w3.org/2001/XMLSchema-instance" xsi:noNamespaceSchemaLocation="http://sumo.dlr.de/xsd/meandata_file.xsd">
    <interval begin="0.00" end="19079.00" id="emissions-detector">
        <edge id=":10_0" sampledSeconds="411.05" CO_abs="43020.036563" CO2_abs="2354574.422565" HC_abs="251.773764" PMx_abs="46.319268" NOx_abs="1005.851124" fuel_abs="1012.128122" electricity_abs="0"
            CO_normed="464.117408" CO2_normed="25402.093211" HC_normed="2.716236" PMx_normed="0.499711" NOx_normed="10.851525" fuel_normed="10.919244" electricity_normed="0"
            traveltime="1.92" CO_perVeh="201.025456" CO2_perVeh="11002.533601" HC_perVeh="1.176497" PMx_perVeh="0.216442" NOx_perVeh="4.700175" fuel_perVeh="4.729506" electricity_perVeh="0"/>
        <edge id=":10_1" sampledSeconds="0.00" CO_abs="0" CO2_abs="0" HC_abs="0" PMx_abs="0" NOx_abs="0" fuel_abs="0" electricity_abs="0"
            CO_normed="0" CO2_normed="0" HC_normed="0" PMx_normed="0" NOx_normed="0" fuel_normed="0" electricity_normed="0"/>
        <edge id=":100_0" sampledSeconds="0.00" CO_abs="0" CO2_abs="0" HC_abs="0" PMx_abs="0" NOx_abs="0" fuel_abs="0" electricity_abs="0"
            CO_normed="0" CO2_normed="0" HC_normed="0" PMx_normed="0" NOx_normed="0" fuel_normed="0" electricity_normed="0"/>
        <edge id=":100_1" sampledSeconds="911.74" CO_abs="21422.760425" CO2_abs="2721090.378454" HC_abs="163.649707" PMx_abs="49.117157" NOx_abs="1015.066301" fuel_abs="1169.672094" electricity_abs="0"
            CO_normed="136.747027" CO2_normed="17369.424520" HC_normed="1.044618" PMx_normed="0.313528" NOx_normed="6.479431" fuel_normed="7.466320" electricity_normed="0"
            traveltime="1.37" CO_perVeh="32.211048" CO2_perVeh="4091.404247" HC_perVeh="0.246062" PMx_perVeh="0.073852" NOx_perVeh="1.526244" fuel_perVeh="1.758707" electricity_perVeh="0"/>
        <edge id=":101_0" sampledSeconds="438.45" CO_abs="11214.478759" CO2_abs="1386954.209531" HC_abs="84.738732" PMx_abs="25.219793" NOx_abs="519.569207" fuel_abs="596.187936" electricity_abs="0"
            CO_normed="259.002484" CO2_normed="32032.214149" HC_normed="1.957072" PMx_normed="0.582460" NOx_normed="11.999641" fuel_normed="13.769178" electricity_normed="0"
            traveltime="0.38" CO_perVeh="9.687871" CO2_perVeh="1198.150502" HC_perVeh="0.073203" PMx_perVeh="0.021787" NOx_perVeh="0.448841" fuel_perVeh="0.515030" electricity_perVeh="0"/>
        <edge id=":102_0" sampledSeconds="341.84" CO_abs="7441.234307" CO2_abs="952451.517192" HC_abs="57.012685" PMx_abs="17.156064" NOx_abs="354.834066" fuel_abs="409.415302" electricity_abs="0"
            CO_normed="173.343218" CO2_normed="22187.315133" HC_normed="1.328108" PMx_normed="0.399650" NOx_normed="8.265844" fuel_normed="9.537311" electricity_normed="0"
            traveltime="0.38" CO_perVeh="8.186027" CO2_perVeh="1047.782343" HC_perVeh="0.062719" PMx_perVeh="0.018873" NOx_perVeh="0.390349" fuel_perVeh="0.450394" electricity_perVeh="0"/>
        <edge id=":103_0" sampledSeconds="434.26" CO_abs="10074.558476" CO2_abs="1262091.191147" HC_abs="76.534728" PMx_abs="22.871352" NOx_abs="471.787683" fuel_abs="542.515122" electricity_abs="0"
            CO_normed="236.144065" CO2_normed="29582.968287" HC_normed="1.793947" PMx_normed="0.536096" NOx_normed="11.058535" fuel_normed="12.716361" electricity_normed="0"
            traveltime="0.37" CO_perVeh="8.655673" CO2_perVeh="1084.340216" HC_perVeh="0.065756" PMx_perVeh="0.019650" NOx_perVeh="0.405342" fuel_perVeh="0.466108" electricity_perVeh="0"/>
        <edge id=":104_0" sampledSeconds="341.14" CO_abs="7850.296668" CO2_abs="1012127.799800" HC_abs="60.322374" PMx_abs="18.194764" NOx_abs="376.610640" fuel_abs="435.067434" electricity_abs="0"
            CO_normed="183.098354" CO2_normed="23606.615414" HC_normed="1.406944" PMx_normed="0.424370" NOx_normed="8.783972" fuel_normed="10.147404" electricity_normed="0"
            traveltime="0.38" CO_perVeh="8.632087" CO2_perVeh="1112.922887" HC_perVeh="0.066330" PMx_perVeh="0.020007" NOx_perVeh="0.414116" fuel_perVeh="0.478395" electricity_perVeh="0"/>
        <edge id=":105_0" sampledSeconds="168.63" CO_abs="3851.556223" CO2_abs="496444.038168" HC_abs="29.557186" PMx_abs="8.920319" NOx_abs="184.671662" fuel_abs="213.398582" electricity_abs="0"
            CO_normed="3303.394595" CO2_normed="425789.072566" HC_normed="25.350544" PMx_normed="7.650760" NOx_normed="158.388800" fuel_normed="183.027244" electricity_normed="0"
            traveltime="0.01" CO_perVeh="0.232912" CO2_perVeh="30.021025" HC_perVeh="0.001787" PMx_perVeh="0.000539" NOx_perVeh="0.011167" fuel_perVeh="0.012905" electricity_perVeh="0"/>
        <edge id=":106_0" sampledSeconds="134.40" CO_abs="3218.342410" CO2_abs="394862.613312" HC_abs="24.266901" PMx_abs="7.200938" NOx_abs="148.125509" fuel_abs="169.733295" electricity_abs="0"
            CO_normed="1958.923369" CO2_normed="240342.854232" HC_normed="14.770647" PMx_normed="4.383028" NOx_normed="90.160239" fuel_normed="103.312350" electricity_normed="0"
            traveltime="0.01" CO_perVeh="0.344105" CO2_perVeh="42.218710" HC_perVeh="0.002595" PMx_perVeh="0.000770" NOx_perVeh="0.015838" fuel_perVeh="0.018148" electricity_perVeh="0"/>
        <edge id=":107_0" sampledSeconds="438.77" CO_abs="11501.187846" CO2_abs="1360203.881347" HC_abs="85.491839" PMx_abs="25.062151" NOx_abs="513.583349" fuel_abs="584.688942" electricity_abs="0"
            CO_normed="265.624135" CO2_normed="31414.405547" HC_normed="1.974465" PMx_normed="0.578820" NOx_normed="11.861395" fuel_normed="13.503605" electricity_normed="0"
            traveltime="0.38" CO_perVeh="9.935533" CO2_perVeh="1175.039515" HC_perVeh="0.073854" PMx_perVeh="0.021650" NOx_perVeh="0.443669" fuel_perVeh="0.505095" electricity_perVeh="0"/>
        <edge id=":108_0" sampledSeconds="93.72" CO_abs="7545.946337" CO2_abs="551432.891419" HC_abs="47.624744" PMx_abs="11.030885" NOx_abs="232.259300" fuel_abs="237.034802" electricity_abs="0"
            CO_normed="118.357280" CO2_normed="8649.160025" HC_normed="0.746989" PMx_normed="0.173018" NOx_normed="3.642960" fuel_normed="3.717863" electricity_normed="0"
            traveltime="0.86" CO_perVeh="69.104405" CO2_perVeh="5049.922199" HC_perVeh="0.436139" PMx_perVeh="0.101019" NOx_perVeh="2.126988" fuel_perVeh="2.170722" electricity_perVeh="0"/>
        <edge id=":108_1" sampledSeconds="403.44" CO_abs="9297.036022" CO2_abs="1222316.915235" HC_abs="72.023761" PMx_abs="21.850519" NOx_abs="453.655731" fuel_abs="525.418191" electricity_abs="0"
            CO_normed="135.988347" CO2_normed="17878.908605" HC_normed="1.053496" PMx_normed="0.319609" NOx_normed="6.635652" fuel_normed="7.685326" electricity_normed="0"
            traveltime="0.60" CO_perVeh="13.810977" CO2_perVeh="1815.782055" HC_perVeh="0.106993" PMx_perVeh="0.032459" NOx_perVeh="0.673917" fuel_perVeh="0.780522" electricity_perVeh="0"/>
        <edge id=":109_0" sampledSeconds="306.46" CO_abs="181.356724" CO2_abs="31966.176829" HC_abs="1.544116" PMx_abs="0.422170" NOx_abs="11.450799" fuel_abs="13.740912" electricity_abs="0"
            CO_normed="2.726697" CO2_normed="480.611175" HC_normed="0.023216" PMx_normed="0.006347" NOx_normed="0.172163" fuel_normed="0.206594" electricity_normed="0"
            traveltime="0.85" CO_perVeh="0.504070" CO2_perVeh="88.848032" HC_perVeh="0.004292" PMx_perVeh="0.001173" NOx_perVeh="0.031827" fuel_perVeh="0.038192" electricity_perVeh="0"/>
        <edge id=":109_1" sampledSeconds="524.53" CO_abs="11067.492072" CO2_abs="1436803.148128" HC_abs="85.279852" PMx_abs="25.779818" NOx_abs="534.037452" fuel_abs="617.615974" electricity_abs="0"
            CO_normed="108.540307" CO2_normed="14090.911782" HC_normed="0.836350" PMx_normed="0.252826" NOx_normed="5.237373" fuel_normed="6.057039" electricity_normed="0"
            traveltime="0.89" CO_perVeh="18.845303" CO2_perVeh="2446.533594" HC_perVeh="0.145211" PMx_perVeh="0.043897" NOx_perVeh="0.909339" fuel_perVeh="1.051653" electricity_perVeh="0"/>
        <edge id=":11_0" sampledSeconds="290.08" CO_abs="18289.437496" CO2_abs="1298033.439952" HC_abs="114.000262" PMx_abs="23.702654" NOx_abs="536.043927" fuel_abs="557.966407" electricity_abs="0"
            CO_normed="189.096884" CO2_normed="13420.537344" HC_normed="1.178664" PMx_normed="0.245065" NOx_normed="5.542228" fuel_normed="5.768888" electricity_normed="0"
            traveltime="1.59" CO_perVeh="100.084628" CO2_perVeh="7103.181493" HC_perVeh="0.623840" PMx_perVeh="0.129707" NOx_perVeh="2.933374" fuel_perVeh="3.053339" electricity_perVeh="0"/>
        <edge id=":11_1" sampledSeconds="50.93" CO_abs="1098.004495" CO2_abs="96522.090551" HC_abs="7.196055" PMx_abs="1.246306" NOx_abs="36.287799" fuel_abs="41.491111" electricity_abs="0"
            CO_normed="11.639411" CO2_normed="1023.183693" HC_normed="0.076282" PMx_normed="0.013211" NOx_normed="0.384669" fuel_normed="0.439827" electricity_normed="0"
            traveltime="1.68" CO_perVeh="36.113230" CO2_perVeh="3174.599431" HC_perVeh="0.236677" PMx_perVeh="0.040991" NOx_perVeh="1.193501" fuel_perVeh="1.364637" electricity_perVeh="0"/>
        <edge id=":110_0" sampledSeconds="94.27" CO_abs="3.163199" CO2_abs="467.749195" HC_abs="0.024861" PMx_abs="0.004523" NOx_abs="0.163384" fuel_abs="0.201068" electricity_abs="0"
            CO_normed="0.041021" CO2_normed="6.065924" HC_normed="0.000322" PMx_normed="0.000059" NOx_normed="0.002119" fuel_normed="0.002608" electricity_normed="0"
            traveltime="0.92" CO_perVeh="0.030970" CO2_perVeh="4.579605" HC_perVeh="0.000243" PMx_perVeh="0.000044" NOx_perVeh="0.001600" fuel_perVeh="0.001969" electricity_perVeh="0"/>
        <edge id=":110_1" sampledSeconds="443.79" CO_abs="9957.290204" CO2_abs="1262722.018744" HC_abs="76.003863" PMx_abs="22.806721" NOx_abs="471.002396" fuel_abs="542.786350" electricity_abs="0"
            CO_normed="127.811733" CO2_normed="16208.294219" HC_normed="0.975585" PMx_normed="0.292747" NOx_normed="6.045785" fuel_normed="6.967203" electricity_normed="0"
            traveltime="0.68" CO_perVeh="15.295868" CO2_perVeh="1939.727477" HC_perVeh="0.116753" PMx_perVeh="0.035034" NOx_perVeh="0.723529" fuel_perVeh="0.833800" electricity_perVeh="0"/>
        <edge id=":111_0" sampledSeconds="340.83" CO_abs="8469.790020" CO2_abs="1029504.305194" HC_abs="63.578709" PMx_abs="18.816672" NOx_abs="386.722998" fuel_abs="442.536567" electricity_abs="0"
            CO_normed="195.612895" CO2_normed="23776.778025" HC_normed="1.468374" PMx_normed="0.434578" NOx_normed="8.931509" fuel_normed="10.220544" electricity_normed="0"
            traveltime="0.38" CO_perVeh="9.412915" CO2_perVeh="1144.141249" HC_perVeh="0.070658" PMx_perVeh="0.020912" NOx_perVeh="0.429785" fuel_perVeh="0.491814" electricity_perVeh="0"/>
        <edge id=":114_0" sampledSeconds="107.06" CO_abs="10656.929143" CO2_abs="754635.053490" HC_abs="66.747409" PMx_abs="15.508627" NOx_abs="320.809893" fuel_abs="324.381380" electricity_abs="0"
            CO_normed="141.608925" CO2_normed="10027.565861" HC_normed="0.886937" PMx_normed="0.206078" NOx_normed="4.262911" fuel_normed="4.310369" electricity_normed="0"
            traveltime="0.99" CO_perVeh="98.588484" CO2_perVeh="6981.216170" HC_perVeh="0.617488" PMx_perVeh="0.143472" NOx_perVeh="2.967849" fuel_perVeh="3.000890" electricity_perVeh="0"/>
        <edge id=":114_1" sampledSeconds="416.05" CO_abs="10161.423955" CO2_abs="1262042.299174" HC_abs="76.926881" PMx_abs="22.920744" NOx_abs="472.540202" fuel_abs="542.494056" electricity_abs="0"
            CO_normed="134.174268" CO2_normed="16664.357545" HC_normed="1.015764" PMx_normed="0.302652" NOx_normed="6.239552" fuel_normed="7.163242" electricity_normed="0"
            traveltime="0.66" CO_perVeh="16.191955" CO2_perVeh="2011.030411" HC_perVeh="0.122581" PMx_perVeh="0.036524" NOx_perVeh="0.752980" fuel_perVeh="0.864450" electricity_perVeh="0"/>
        <edge id=":115_0" sampledSeconds="80.76" CO_abs="87.218076" CO2_abs="13584.332948" HC_abs="0.708427" PMx_abs="0.165589" NOx_abs="4.910478" fuel_abs="5.839350" electricity_abs="0"
            CO_normed="1.970911" CO2_normed="306.971979" HC_normed="0.016009" PMx_normed="0.003742" NOx_normed="0.110965" fuel_normed="0.131955" electricity_normed="0"
            traveltime="0.64" CO_perVeh="0.686336" CO2_perVeh="106.897729" HC_perVeh="0.005575" PMx_perVeh="0.001303" NOx_perVeh="0.038641" fuel_perVeh="0.045951" electricity_perVeh="0"/>
        <edge id=":115_1" sampledSeconds="72.33" CO_abs="960.449960" CO2_abs="153722.296196" HC_abs="7.838896" PMx_abs="2.252081" NOx_abs="56.817464" fuel_abs="66.078435" electricity_abs="0"
            CO_normed="19.382510" CO2_normed="3102.216796" HC_normed="0.158194" PMx_normed="0.045448" NOx_normed="1.146614" fuel_normed="1.333506" electricity_normed="0"
            traveltime="0.59" CO_perVeh="7.862890" CO2_perVeh="1258.474275" HC_perVeh="0.064174" PMx_perVeh="0.018437" NOx_perVeh="0.465146" fuel_perVeh="0.540963" electricity_perVeh="0"/>
        <edge id=":116_0" sampledSeconds="74.85" CO_abs="90.425824" CO2_abs="14066.318353" HC_abs="0.734364" PMx_abs="0.176829" NOx_abs="5.118380" fuel_abs="6.046528" electricity_abs="0"
            CO_normed="2.281066" CO2_normed="354.834417" HC_normed="0.018525" PMx_normed="0.004461" NOx_normed="0.129115" fuel_normed="0.152529" electricity_normed="0"
            traveltime="0.57" CO_perVeh="0.682783" CO2_perVeh="106.211261" HC_perVeh="0.005545" PMx_perVeh="0.001335" NOx_perVeh="0.038648" fuel_perVeh="0.045656" electricity_perVeh="0"/>
        <edge id=":117_0" sampledSeconds="239.48" CO_abs="13599.714973" CO2_abs="1114982.307529" HC_abs="88.496067" PMx_abs="20.658257" NOx_abs="456.734323" fuel_abs="479.279250" electricity_abs="0"
            CO_normed="307.319575" CO2_normed="25195.813983" HC_normed="1.999790" PMx_normed="0.466825" NOx_normed="10.321054" fuel_normed="10.830513" electricity_normed="0"
            traveltime="0.60" CO_perVeh="34.273941" CO2_perVeh="2809.973407" HC_perVeh="0.223027" PMx_perVeh="0.052063" NOx_perVeh="1.151060" fuel_perVeh="1.207877" electricity_perVeh="0"/>
        <edge id=":117_1" sampledSeconds="76.08" CO_abs="4644.953255" CO2_abs="381806.678818" HC_abs="30.229029" PMx_abs="7.031196" NOx_abs="156.163208" fuel_abs="164.121056" electricity_abs="0"
            CO_normed="98.922371" CO2_normed="8131.238356" HC_normed="0.643780" PMx_normed="0.149742" NOx_normed="3.325768" fuel_normed="3.495244" electricity_normed="0"
            traveltime="0.64" CO_perVeh="39.270481" CO2_perVeh="3227.961845" HC_perVeh="0.255570" PMx_perVeh="0.059445" NOx_perVeh="1.320273" fuel_perVeh="1.387552" electricity_perVeh="0"/>
        <edge id=":118_0" sampledSeconds="898.34" CO_abs="12988.883088" CO2_abs="2045599.878862" HC_abs="104.843307" PMx_abs="30.121922" NOx_abs="756.325432" fuel_abs="879.313106" electricity_abs="0"
            CO_normed="39.409248" CO2_normed="6206.503795" HC_normed="0.318102" PMx_normed="0.091392" NOx_normed="2.294748" fuel_normed="2.667902" electricity_normed="0"
            traveltime="3.92" CO_perVeh="56.670491" CO2_perVeh="8924.951382" HC_perVeh="0.457431" PMx_perVeh="0.131422" NOx_perVeh="3.299848" fuel_perVeh="3.836443" electricity_perVeh="0"/>
        <edge id=":118_4" sampledSeconds="282.71" CO_abs="4327.033047" CO2_abs="658579.706719" HC_abs="34.526188" PMx_abs="9.787518" NOx_abs="244.315405" fuel_abs="283.094331" electricity_abs="0"
            CO_normed="13.153925" CO2_normed="2002.043418" HC_normed="0.104958" PMx_normed="0.029753" NOx_normed="0.742704" fuel_normed="0.860590" electricity_normed="0"
            traveltime="3.92" CO_perVeh="59.991633" CO2_perVeh="9130.799697" HC_perVeh="0.478684" PMx_perVeh="0.135698" NOx_perVeh="3.387282" fuel_perVeh="3.924928" electricity_perVeh="0"/>
        <edge id=":118_5" sampledSeconds="238.57" CO_abs="3306.123167" CO2_abs="527655.568817" HC_abs="26.870127" PMx_abs="7.800351" NOx_abs="195.221337" fuel_abs="226.815767" electricity_abs="0"
            CO_normed="10.150171" CO2_normed="1619.962133" HC_normed="0.082494" PMx_normed="0.023948" NOx_normed="0.599352" fuel_normed="0.696350" electricity_normed="0"
            traveltime="3.82" CO_perVeh="52.912710" CO2_perVeh="8444.841455" HC_perVeh="0.430042" PMx_perVeh="0.124840" NOx_perVeh="3.124412" fuel_perVeh="3.630063" electricity_perVeh="0"/>
        <edge id=":119_0" sampledSeconds="139.62" CO_abs="1957.221121" CO2_abs="301805.800659" HC_abs="15.713936" PMx_abs="4.481788" NOx_abs="112.101814" fuel_abs="129.732954" electricity_abs="0"
            CO_normed="41.966632" CO2_normed="6471.304018" HC_normed="0.336937" PMx_normed="0.096098" NOx_normed="2.403681" fuel_normed="2.781727" electricity_normed="0"
            traveltime="0.56" CO_perVeh="7.846360" CO2_perVeh="1209.918020" HC_perVeh="0.062996" PMx_perVeh="0.017967" NOx_perVeh="0.449408" fuel_perVeh="0.520090" electricity_perVeh="0"/>
        <edge id=":12_0" sampledSeconds="591.22" CO_abs="54716.795806" CO2_abs="3092302.606291" HC_abs="322.574888" PMx_abs="60.583637" NOx_abs="1317.774737" fuel_abs="1329.244088" electricity_abs="0"
            CO_normed="512.634799" CO2_normed="28971.395375" HC_normed="3.022164" PMx_normed="0.567600" NOx_normed="12.346066" fuel_normed="12.453521" electricity_normed="0"
            traveltime="2.13" CO_perVeh="197.298747" CO2_perVeh="11150.277023" HC_perVeh="1.163146" PMx_perVeh="0.218454" NOx_perVeh="4.751654" fuel_perVeh="4.793011" electricity_perVeh="0"/>
        <edge id=":12_1" sampledSeconds="56.76" CO_abs="1087.064465" CO2_abs="94970.966438" HC_abs="7.105562" PMx_abs="1.200800" NOx_abs="35.557332" fuel_abs="40.824385" electricity_abs="0"
            CO_normed="10.174467" CO2_normed="888.888367" HC_normed="0.066505" PMx_normed="0.011239" NOx_normed="0.332802" fuel_normed="0.382099" electricity_normed="0"
            traveltime="1.91" CO_perVeh="36.657332" CO2_perVeh="3202.553666" HC_perVeh="0.239609" PMx_perVeh="0.040493" NOx_perVeh="1.199043" fuel_perVeh="1.376655" electricity_perVeh="0"/>
        <edge id=":120_0" sampledSeconds="39.06" CO_abs="492.501057" CO2_abs="83210.157163" HC_abs="4.058249" PMx_abs="1.188930" NOx_abs="30.471621" fuel_abs="35.768398" electricity_abs="0"
            CO_normed="387.206660" CO2_normed="65420.218955" HC_normed="3.190614" PMx_normed="0.934743" NOx_normed="23.956933" fuel_normed="28.121284" electricity_normed="0"
            traveltime="0.02" CO_perVeh="0.189499" CO2_perVeh="32.016734" HC_perVeh="0.001561" PMx_perVeh="0.000457" NOx_perVeh="0.011725" fuel_perVeh="0.013763" electricity_perVeh="0"/>
        <edge id=":121_0" sampledSeconds="376.75" CO_abs="53742.283786" CO2_abs="1441103.679014" HC_abs="278.557651" PMx_abs="31.133092" NOx_abs="637.485918" fuel_abs="619.485972" electricity_abs="0"
            CO_normed="30729.045520" CO2_normed="824001.836773" HC_normed="159.275158" PMx_normed="17.801443" NOx_normed="364.505049" fuel_normed="354.212945" electricity_normed="0"
            traveltime="0.11" CO_perVeh="16.390294" CO2_perVeh="439.507055" HC_perVeh="0.084954" PMx_perVeh="0.009495" NOx_perVeh="0.194420" fuel_perVeh="0.188931" electricity_perVeh="0"/>
        <edge id=":122_0" sampledSeconds="135.15" CO_abs="700.513262" CO2_abs="88980.528142" HC_abs="5.238976" PMx_abs="1.434406" NOx_abs="33.986535" fuel_abs="38.248707" electricity_abs="0"
            CO_normed="15.423482" CO2_normed="1959.120053" HC_normed="0.115349" PMx_normed="0.031582" NOx_normed="0.748295" fuel_normed="0.842137" electricity_normed="0"
            traveltime="0.54" CO_perVeh="2.787646" CO2_perVeh="354.092045" HC_perVeh="0.020848" PMx_perVeh="0.005708" NOx_perVeh="0.135247" fuel_perVeh="0.152208" electricity_perVeh="0"/>
        <edge id=":123_0" sampledSeconds="307.27" CO_abs="39903.082145" CO2_abs="2465457.767646" HC_abs="240.925143" PMx_abs="50.716164" NOx_abs="1058.016409" fuel_abs="1059.785205" electricity_abs="0"
            CO_normed="152.168109" CO2_normed="9401.881421" HC_normed="0.918754" PMx_normed="0.193403" NOx_normed="4.034685" fuel_normed="4.041430" electricity_normed="0"
            traveltime="4.18" CO_perVeh="543.402618" CO2_perVeh="33574.754939" HC_perVeh="3.280933" PMx_perVeh="0.690656" NOx_perVeh="14.408132" fuel_perVeh="14.432220" electricity_perVeh="0"/>
        <edge id=":123_1" sampledSeconds="0.00" CO_abs="0" CO2_abs="0" HC_abs="0" PMx_abs="0" NOx_abs="0" fuel_abs="0" electricity_abs="0"
            CO_normed="0" CO2_normed="0" HC_normed="0" PMx_normed="0" NOx_normed="0" fuel_normed="0" electricity_normed="0"/>
        <edge id=":123_2" sampledSeconds="265.29" CO_abs="35798.437117" CO2_abs="2188979.177784" HC_abs="215.646653" PMx_abs="45.320088" NOx_abs="941.596614" fuel_abs="940.939803" electricity_abs="0"
            CO_normed="137.824446" CO2_normed="8427.598180" HC_normed="0.830242" PMx_normed="0.174483" NOx_normed="3.625159" fuel_normed="3.622630" electricity_normed="0"
            traveltime="4.17" CO_perVeh="562.680048" CO2_perVeh="34406.387746" HC_perVeh="3.389535" PMx_perVeh="0.712341" NOx_perVeh="14.800021" fuel_perVeh="14.789697" electricity_perVeh="0"/>
        <edge id=":123_3" sampledSeconds="469.76" CO_abs="22321.714102" CO2_abs="2131786.192880" HC_abs="151.763614" PMx_abs="39.477372" NOx_abs="852.578292" fuel_abs="916.354959" electricity_abs="0"
            CO_normed="87.930374" CO2_normed="8397.596910" HC_normed="0.597832" PMx_normed="0.155510" NOx_normed="3.358502" fuel_normed="3.609733" electricity_normed="0"
            traveltime="2.81" CO_perVeh="133.604502" CO2_perVeh="12759.603968" HC_perVeh="0.908367" PMx_perVeh="0.236288" NOx_perVeh="5.103026" fuel_perVeh="5.484756" electricity_perVeh="0"/>
        <edge id=":123_5" sampledSeconds="0.00" CO_abs="0" CO2_abs="0" HC_abs="0" PMx_abs="0" NOx_abs="0" fuel_abs="0" electricity_abs="0"
            CO_normed="0" CO2_normed="0" HC_normed="0" PMx_normed="0" NOx_normed="0" fuel_normed="0" electricity_normed="0"/>
        <edge id=":123_6" sampledSeconds="194.43" CO_abs="9026.378181" CO2_abs="865079.931405" HC_abs="61.689523" PMx_abs="16.037808" NOx_abs="346.127589" fuel_abs="371.857301" electricity_abs="0"
            CO_normed="34.345221" CO2_normed="3291.614916" HC_normed="0.234728" PMx_normed="0.061024" NOx_normed="1.317010" fuel_normed="1.414911" electricity_normed="0"
            traveltime="2.91" CO_perVeh="135.038674" CO2_perVeh="12941.984529" HC_perVeh="0.922903" PMx_perVeh="0.239933" NOx_perVeh="5.178224" fuel_perVeh="5.563152" electricity_perVeh="0"/>
        <edge id=":124_0" sampledSeconds="118.84" CO_abs="4354.305562" CO2_abs="380492.341584" HC_abs="28.748573" PMx_abs="7.308894" NOx_abs="154.631359" fuel_abs="163.555649" electricity_abs="0"
            CO_normed="101.936743" CO2_normed="8907.539786" HC_normed="0.673020" PMx_normed="0.171105" NOx_normed="3.620007" fuel_normed="3.828930" electricity_normed="0"
            traveltime="0.46" CO_perVeh="16.915742" CO2_perVeh="1478.148502" HC_perVeh="0.111683" PMx_perVeh="0.028394" NOx_perVeh="0.600717" fuel_perVeh="0.635386" electricity_perVeh="0"/>
        <edge id=":125_0" sampledSeconds="141.03" CO_abs="5346.055788" CO2_abs="544483.625403" HC_abs="37.277188" PMx_abs="10.133722" NOx_abs="214.610083" fuel_abs="234.047980" electricity_abs="0"
            CO_normed="336.247547" CO2_normed="34246.048036" HC_normed="2.344600" PMx_normed="0.637374" NOx_normed="13.498197" fuel_normed="14.720770" electricity_normed="0"
            traveltime="0.16" CO_perVeh="6.122606" CO2_perVeh="623.573535" HC_perVeh="0.042692" PMx_perVeh="0.011606" NOx_perVeh="0.245784" fuel_perVeh="0.268045" electricity_perVeh="0"/>
        <edge id=":125_3" sampledSeconds="0.00" CO_abs="0" CO2_abs="0" HC_abs="0" PMx_abs="0" NOx_abs="0" fuel_abs="0" electricity_abs="0"
            CO_normed="0" CO2_normed="0" HC_normed="0" PMx_normed="0" NOx_normed="0" fuel_normed="0" electricity_normed="0"/>
        <edge id=":126_0" sampledSeconds="26.85" CO_abs="102.768912" CO2_abs="7563.754688" HC_abs="0.641736" PMx_abs="0.110769" NOx_abs="2.951245" fuel_abs="3.251357" electricity_abs="0"
            CO_normed="3.384184" CO2_normed="249.074752" HC_normed="0.021132" PMx_normed="0.003648" NOx_normed="0.097185" fuel_normed="0.107067" electricity_normed="0"
            traveltime="0.57" CO_perVeh="2.172502" CO2_perVeh="159.895369" HC_perVeh="0.013566" PMx_perVeh="0.002342" NOx_perVeh="0.062388" fuel_perVeh="0.068733" electricity_perVeh="0"/>
        <edge id=":126_1" sampledSeconds="80.74" CO_abs="1512.932533" CO2_abs="231869.202094" HC_abs="12.260158" PMx_abs="3.737906" NOx_abs="85.993939" fuel_abs="99.670087" electricity_abs="0"
            CO_normed="44.328250" CO2_normed="6793.664456" HC_normed="0.359217" PMx_normed="0.109519" NOx_normed="2.519584" fuel_normed="2.920289" electricity_normed="0"
            traveltime="0.35" CO_perVeh="6.546719" CO2_perVeh="1003.337877" HC_perVeh="0.053052" PMx_perVeh="0.016175" NOx_perVeh="0.372111" fuel_perVeh="0.431290" electricity_perVeh="0"/>
        <edge id=":127_0" sampledSeconds="234.40" CO_abs="4714.451031" CO2_abs="647709.613366" HC_abs="36.647163" PMx_abs="10.915484" NOx_abs="243.024395" fuel_abs="278.420817" electricity_abs="0"
            CO_normed="109.015403" CO2_normed="14977.422359" HC_normed="0.847417" PMx_normed="0.252406" NOx_normed="5.619616" fuel_normed="6.438111" electricity_normed="0"
            traveltime="0.44" CO_perVeh="8.816137" CO2_perVeh="1211.232622" HC_perVeh="0.068531" PMx_perVeh="0.020412" NOx_perVeh="0.454461" fuel_perVeh="0.520654" electricity_perVeh="0"/>
        <edge id=":128_0" sampledSeconds="230.37" CO_abs="209.154672" CO2_abs="31441.660254" HC_abs="1.666701" PMx_abs="0.465366" NOx_abs="11.683051" fuel_abs="13.515384" electricity_abs="0"
            CO_normed="3.232204" CO2_normed="485.888588" HC_normed="0.025757" PMx_normed="0.007192" NOx_normed="0.180546" fuel_normed="0.208862" electricity_normed="0"
            traveltime="0.76" CO_perVeh="0.687568" CO2_perVeh="103.360182" HC_perVeh="0.005479" PMx_perVeh="0.001530" NOx_perVeh="0.038406" fuel_perVeh="0.044430" electricity_perVeh="0"/>
        <edge id=":128_1" sampledSeconds="142.62" CO_abs="127.380372" CO2_abs="21204.344010" HC_abs="1.063055" PMx_abs="0.254388" NOx_abs="7.633605" fuel_abs="9.114881" electricity_abs="0"
            CO_normed="2.033443" CO2_normed="338.496559" HC_normed="0.016970" PMx_normed="0.004061" NOx_normed="0.121859" fuel_normed="0.145506" electricity_normed="0"
            traveltime="0.85" CO_perVeh="0.763573" CO2_perVeh="127.107989" HC_perVeh="0.006372" PMx_perVeh="0.001525" NOx_perVeh="0.045759" fuel_perVeh="0.054639" electricity_perVeh="0"/>
        <edge id=":129_0" sampledSeconds="104.64" CO_abs="6067.120173" CO2_abs="536124.619403" HC_abs="40.337509" PMx_abs="10.142697" NOx_abs="217.836968" fuel_abs="230.454712" electricity_abs="0"
            CO_normed="141.333291" CO2_normed="12488.998827" HC_normed="0.939660" PMx_normed="0.236274" NOx_normed="5.074502" fuel_normed="5.368432" electricity_normed="0"
            traveltime="0.50" CO_perVeh="28.754965" CO2_perVeh="2540.949309" HC_perVeh="0.191179" PMx_perVeh="0.048071" NOx_perVeh="1.032433" fuel_perVeh="1.092234" electricity_perVeh="0"/>
        <edge id=":13_0" sampledSeconds="60.38" CO_abs="5085.440835" CO2_abs="361678.071865" HC_abs="31.805785" PMx_abs="7.042409" NOx_abs="151.866059" fuel_abs="155.468551" electricity_abs="0"
            CO_normed="35.952320" CO2_normed="2556.939768" HC_normed="0.224856" PMx_normed="0.049787" NOx_normed="1.073641" fuel_normed="1.099109" electricity_normed="0"
            traveltime="2.14" CO_perVeh="179.880216" CO2_perVeh="12793.134725" HC_perVeh="1.125022" PMx_perVeh="0.249101" NOx_perVeh="5.371747" fuel_perVeh="5.499173" electricity_perVeh="0"/>
        <edge id=":13_1" sampledSeconds="532.45" CO_abs="14560.616087" CO2_abs="1102888.972770" HC_abs="91.686252" PMx_abs="16.246099" NOx_abs="429.992837" fuel_abs="474.087688" electricity_abs="0"
            CO_normed="145.059665" CO2_normed="10987.495559" HC_normed="0.913421" PMx_normed="0.161851" NOx_normed="4.283790" fuel_normed="4.723083" electricity_normed="0"
            traveltime="1.86" CO_perVeh="50.834573" CO2_perVeh="3850.447676" HC_perVeh="0.320099" PMx_perVeh="0.056719" NOx_perVeh="1.501207" fuel_perVeh="1.655153" electricity_perVeh="0"/>
        <edge id=":132_0" sampledSeconds="41.03" CO_abs="561.778656" CO2_abs="92545.048315" HC_abs="4.606696" PMx_abs="1.323052" NOx_abs="33.990120" fuel_abs="39.781065" electricity_abs="0"
            CO_normed="1060.015284" CO2_normed="174622.450828" HC_normed="8.692334" PMx_normed="2.496455" NOx_normed="64.135664" fuel_normed="75.062547" electricity_normed="0"
            traveltime="6.360112e-03" CO_perVeh="0.087091" CO2_perVeh="14.346957" HC_perVeh="0.000714" PMx_perVeh="0.000205" NOx_perVeh="0.005269" fuel_perVeh="0.006167" electricity_perVeh="0"/>