<?xml version="1.0" encoding="UTF-8"?>

<!-- generated on Tue Nov 10 13:37:06 2020 by Eclipse SUMO sumo Version 1.7.0
<configuration xmlns:xsi="http://www.w3.org/2001/XMLSchema-instance" xsi:noNamespaceSchemaLocation="http://sumo.dlr.de/xsd/sumoConfiguration.xsd">

    <input>
        <net-file value="../dataSets/Porto/8AM9AM_Routing_SaoBento/Porto.net.xml"/>
        <route-files value="../results/Porto/8AM9AM_Routing_SaoBento/inputdata/cost_hc-length/solution17/Porto.rou.xml"/>
        <additional-files value="moreOutputInfo.xml"/>
    </input>

    <output>
        <emission-output.precision value="6"/>
        <tripinfo-output value="../results/Porto/8AM9AM_Routing_SaoBento/inputdata/cost_hc-length/solution17/Porto-tripinfo"/>
    </output>

    <processing>
        <collision.action value="warn"/>
        <time-to-teleport value="-1"/>
    </processing>

    <emissions>
        <device.emissions.probability value="1"/>
    </emissions>

    <gui_only>
        <quit-on-end value="true"/>
        <start value="true"/>
    </gui_only>

</configuration>
-->

<meandata xmlns:xsi="http://www.w3.org/2001/XMLSchema-instance" xsi:noNamespaceSchemaLocation="http://sumo.dlr.de/xsd/meandata_file.xsd">
    <interval begin="0.00" end="8562.00" id="emissions-detector">
        <edge id=":1092997347_0" sampledSeconds="588.68" CO_abs="71955.815143" CO2_abs="3091500.383236" HC_abs="400.803292" PMx_abs="62.585990" NOx_abs="1337.881752" fuel_abs="1328.910155" electricity_abs="0"
            CO_normed="68760.733079" CO2_normed="2954227.288561" HC_normed="383.006267" PMx_normed="59.806960" NOx_normed="1278.475268" fuel_normed="1269.902040" electricity_normed="0"
            traveltime="0.07" CO_perVeh="8.235873" CO2_perVeh="353.845001" HC_perVeh="0.045875" PMx_perVeh="0.007163" NOx_perVeh="0.153130" fuel_perVeh="0.152104" electricity_perVeh="0"/>
        <edge id=":1103427051_0" sampledSeconds="19.43" CO_abs="1508.446031" CO2_abs="84257.477361" HC_abs="8.867250" PMx_abs="1.646909" NOx_abs="35.930478" fuel_abs="36.218578" electricity_abs="0"
            CO_normed="2187.051733" CO2_normed="122162.449354" HC_normed="12.856367" PMx_normed="2.387806" NOx_normed="52.094548" fuel_normed="52.512255" electricity_normed="0"
            traveltime="0.03" CO_perVeh="2.345824" CO2_perVeh="131.031041" HC_perVeh="0.013790" PMx_perVeh="0.002561" NOx_perVeh="0.055876" fuel_perVeh="0.056324" electricity_perVeh="0"/>
        <edge id=":1105984386_0" sampledSeconds="10.74" CO_abs="321.054815" CO2_abs="21813.775355" HC_abs="1.957976" PMx_abs="0.298500" NOx_abs="8.397244" fuel_abs="9.376925" electricity_abs="0"
            CO_normed="13.902319" CO2_normed="944.580300" HC_normed="0.084784" PMx_normed="0.012926" NOx_normed="0.363618" fuel_normed="0.406040" electricity_normed="0"
            traveltime="1.03" CO_perVeh="30.798679" CO2_perVeh="2092.588013" HC_perVeh="0.187828" PMx_perVeh="0.028635" NOx_perVeh="0.805545" fuel_perVeh="0.899525" electricity_perVeh="0"/>
        <edge id=":1105984390_0" sampledSeconds="10.97" CO_abs="20.928118" CO2_abs="1807.777076" HC_abs="0.135867" PMx_abs="0.020584" NOx_abs="0.663183" fuel_abs="0.777098" electricity_abs="0"
            CO_normed="0.700596" CO2_normed="60.517714" HC_normed="0.004548" PMx_normed="0.000689" NOx_normed="0.022201" fuel_normed="0.026014" electricity_normed="0"
            traveltime="1.14" CO_perVeh="2.169325" CO2_perVeh="187.386978" HC_perVeh="0.014083" PMx_perVeh="0.002134" NOx_perVeh="0.068743" fuel_perVeh="0.080551" electricity_perVeh="0"/>
        <edge id=":1105984390_1" sampledSeconds="2402.18" CO_abs="67429.152113" CO2_abs="7835624.775490" HC_abs="494.667924" PMx_abs="142.469250" NOx_abs="2994.683832" fuel_abs="3368.172346" electricity_abs="0"
            CO_normed="2159.286402" CO2_normed="250920.521767" HC_normed="15.840770" PMx_normed="4.562298" NOx_normed="95.898879" fuel_normed="107.859116" electricity_normed="0"
            traveltime="0.65" CO_perVeh="18.207417" CO2_perVeh="2115.798371" HC_perVeh="0.133572" PMx_perVeh="0.038470" NOx_perVeh="0.808633" fuel_perVeh="0.909484" electricity_perVeh="0"/>
        <edge id=":1105984395_0" sampledSeconds="4.09" CO_abs="78.040766" CO2_abs="5895.595588" HC_abs="0.490143" PMx_abs="0.082341" NOx_abs="2.271816" fuel_abs="2.534287" electricity_abs="0"
            CO_normed="35.666539" CO2_normed="2694.431425" HC_normed="0.224007" PMx_normed="0.037632" NOx_normed="1.038275" fuel_normed="1.158231" electricity_normed="0"
            traveltime="0.09" CO_perVeh="1.808957" CO2_perVeh="136.657796" HC_perVeh="0.011361" PMx_perVeh="0.001909" NOx_perVeh="0.052660" fuel_perVeh="0.058744" electricity_perVeh="0"/>
        <edge id=":1105984398_0" sampledSeconds="11.43" CO_abs="632.040826" CO2_abs="43526.850709" HC_abs="3.897426" PMx_abs="0.746902" NOx_abs="17.722557" fuel_abs="18.710326" electricity_abs="0"
            CO_normed="21.980932" CO2_normed="1513.764173" HC_normed="0.135544" PMx_normed="0.025976" NOx_normed="0.616350" fuel_normed="0.650702" electricity_normed="0"
            traveltime="1.23" CO_perVeh="67.756186" CO2_perVeh="4666.175478" HC_perVeh="0.417813" PMx_perVeh="0.080070" NOx_perVeh="1.899898" fuel_perVeh="2.005789" electricity_perVeh="0"/>
        <edge id=":1105984398_1" sampledSeconds="644.10" CO_abs="12642.404878" CO2_abs="1441976.617217" HC_abs="90.697235" PMx_abs="20.997813" NOx_abs="547.881154" fuel_abs="619.844004" electricity_abs="0"
            CO_normed="425.593056" CO2_normed="48542.602566" HC_normed="3.053226" PMx_normed="0.706869" NOx_normed="18.443834" fuel_normed="20.866386" electricity_normed="0"
            traveltime="0.95" CO_perVeh="18.707448" CO2_perVeh="2133.747710" HC_perVeh="0.134208" PMx_perVeh="0.031071" NOx_perVeh="0.810721" fuel_perVeh="0.917207" electricity_perVeh="0"/>
        <edge id=":1106006327_0" sampledSeconds="543.36" CO_abs="73241.588132" CO2_abs="2375202.862768" HC_abs="389.402202" PMx_abs="49.528535" NOx_abs="1039.582257" fuel_abs="1021.015928" electricity_abs="0"
            CO_normed="3475.772223" CO2_normed="112718.256715" HC_normed="18.479574" PMx_normed="2.350439" NOx_normed="49.334691" fuel_normed="48.453603" electricity_normed="0"
            traveltime="2.09" CO_perVeh="282.128295" CO2_perVeh="9149.336489" HC_perVeh="1.499986" PMx_perVeh="0.190785" NOx_perVeh="4.004495" fuel_perVeh="3.932977" electricity_perVeh="0"/>
        <edge id=":1106006327_1" sampledSeconds="687.18" CO_abs="92415.320829" CO2_abs="3068517.075772" HC_abs="493.074070" PMx_abs="63.871230" NOx_abs="1342.104066" fuel_abs="1319.045559" electricity_abs="0"
            CO_normed="3824.525359" CO2_normed="126987.833450" HC_normed="20.405429" PMx_normed="2.643254" NOx_normed="55.541776" fuel_normed="54.587520" electricity_normed="0"
            traveltime="2.31" CO_perVeh="310.215863" CO2_perVeh="10300.269099" HC_perVeh="1.655130" PMx_perVeh="0.214400" NOx_perVeh="4.505118" fuel_perVeh="4.427717" electricity_perVeh="0"/>
        <edge id=":1106006327_2" sampledSeconds="0.00" CO_abs="0" CO2_abs="0" HC_abs="0" PMx_abs="0" NOx_abs="0" fuel_abs="0" electricity_abs="0"
            CO_normed="0" CO2_normed="0" HC_normed="0" PMx_normed="0" NOx_normed="0" fuel_normed="0" electricity_normed="0"/>
        <edge id=":1106006327_3" sampledSeconds="0.00" CO_abs="0" CO2_abs="0" HC_abs="0" PMx_abs="0" NOx_abs="0" fuel_abs="0" electricity_abs="0"
            CO_normed="0" CO2_normed="0" HC_normed="0" PMx_normed="0" NOx_normed="0" fuel_normed="0" electricity_normed="0"/>
        <edge id=":1107381198_0" sampledSeconds="0.00" CO_abs="0" CO2_abs="0" HC_abs="0" PMx_abs="0" NOx_abs="0" fuel_abs="0" electricity_abs="0"
            CO_normed="0" CO2_normed="0" HC_normed="0" PMx_normed="0" NOx_normed="0" fuel_normed="0" electricity_normed="0"/>
        <edge id=":1107381198_1" sampledSeconds="103.60" CO_abs="4682.201614" CO2_abs="186147.388738" HC_abs="25.617601" PMx_abs="3.278303" NOx_abs="77.538670" fuel_abs="80.018217" electricity_abs="0"
            CO_normed="214.688139" CO2_normed="8535.223344" HC_normed="1.174617" PMx_normed="0.150317" NOx_normed="3.555300" fuel_normed="3.668992" electricity_normed="0"
            traveltime="1.55" CO_perVeh="70.101536" CO2_perVeh="2786.983338" HC_perVeh="0.383545" PMx_perVeh="0.049082" NOx_perVeh="1.160903" fuel_perVeh="1.198026" electricity_perVeh="0"/>
        <edge id=":1110338277_0" sampledSeconds="160.97" CO_abs="2678.553678" CO2_abs="320307.835001" HC_abs="19.483882" PMx_abs="4.415787" NOx_abs="120.046177" fuel_abs="137.686891" electricity_abs="0"
            CO_normed="4022.254997" CO2_normed="480990.842429" HC_normed="29.258006" PMx_normed="6.630975" NOx_normed="180.267560" fuel_normed="206.757771" electricity_normed="0"
            traveltime="0.02" CO_perVeh="0.362785" CO2_perVeh="43.382698" HC_perVeh="0.002639" PMx_perVeh="0.000598" NOx_perVeh="0.016259" fuel_perVeh="0.018648" electricity_perVeh="0"/>
        <edge id=":1110338293_0" sampledSeconds="6764.98" CO_abs="651432.376660" CO2_abs="11324320.761893" HC_abs="3231.147125" PMx_abs="270.938404" NOx_abs="5122.896297" fuel_abs="4868.137576" electricity_abs="0"
            CO_normed="913009.637925" CO2_normed="15871507.725148" HC_normed="4528.587421" PMx_normed="379.731470" NOx_normed="7179.952763" fuel_normed="6822.897794" electricity_normed="0"
            traveltime="0.45" CO_perVeh="43.554323" CO2_perVeh="757.136334" HC_perVeh="0.216032" PMx_perVeh="0.018115" NOx_perVeh="0.342513" fuel_perVeh="0.325480" electricity_perVeh="0"/>
        <edge id=":1110338295_0" sampledSeconds="0.00" CO_abs="0" CO2_abs="0" HC_abs="0" PMx_abs="0" NOx_abs="0" fuel_abs="0" electricity_abs="0"
            CO_normed="0" CO2_normed="0" HC_normed="0" PMx_normed="0" NOx_normed="0" fuel_normed="0" electricity_normed="0"/>
        <edge id=":1110673403_0" sampledSeconds="201.54" CO_abs="3235.489426" CO2_abs="379604.402508" HC_abs="23.453359" PMx_abs="5.309238" NOx_abs="142.892251" fuel_abs="163.175933" electricity_abs="0"
            CO_normed="4534.673337" CO2_normed="532031.398049" HC_normed="32.870860" PMx_normed="7.441118" NOx_normed="200.269448" fuel_normed="228.697874" electricity_normed="0"
            traveltime="0.02" CO_perVeh="0.373944" CO2_perVeh="43.873067" HC_perVeh="0.002711" PMx_perVeh="0.000614" NOx_perVeh="0.016515" fuel_perVeh="0.018859" electricity_perVeh="0"/>
        <edge id=":1110673412_0" sampledSeconds="964.45" CO_abs="169897.230303" CO2_abs="11609951.245278" HC_abs="1057.661362" PMx_abs="254.875958" NOx_abs="4987.542302" fuel_abs="4990.546400" electricity_abs="0"
            CO_normed="246329.019601" CO2_normed="16832928.369540" HC_normed="1533.472240" PMx_normed="369.537188" NOx_normed="7231.291548" fuel_normed="7235.647101" electricity_normed="0"
            traveltime="0.02" CO_perVeh="2.742363" CO2_perVeh="187.399744" HC_perVeh="0.017072" PMx_perVeh="0.004114" NOx_perVeh="0.080505" fuel_perVeh="0.080554" electricity_perVeh="0"/>
        <edge id=":1110673414_0" sampledSeconds="0.00" CO_abs="0" CO2_abs="0" HC_abs="0" PMx_abs="0" NOx_abs="0" fuel_abs="0" electricity_abs="0"
            CO_normed="0" CO2_normed="0" HC_normed="0" PMx_normed="0" NOx_normed="0" fuel_normed="0" electricity_normed="0"/>
        <edge id=":1110673414_1" sampledSeconds="240.79" CO_abs="16647.986740" CO2_abs="642944.588148" HC_abs="90.739099" PMx_abs="11.869340" NOx_abs="271.387941" fuel_abs="276.378838" electricity_abs="0"
            CO_normed="775.177660" CO2_normed="29937.330512" HC_normed="4.225071" PMx_normed="0.552670" NOx_normed="12.636595" fuel_normed="12.868986" electricity_normed="0"
            traveltime="1.56" CO_perVeh="108.013709" CO2_perVeh="4171.485171" HC_perVeh="0.588724" PMx_perVeh="0.077009" NOx_perVeh="1.760791" fuel_perVeh="1.793172" electricity_perVeh="0"/>
        <edge id=":1110673417_0" sampledSeconds="28.92" CO_abs="492.337831" CO2_abs="56459.341861" HC_abs="3.542854" PMx_abs="0.784172" NOx_abs="21.233748" fuel_abs="24.269509" electricity_abs="0"
            CO_normed="739.319998" CO2_normed="84782.273293" HC_normed="5.320133" PMx_normed="1.177553" NOx_normed="31.885697" fuel_normed="36.444352" electricity_normed="0"
            traveltime="0.02" CO_perVeh="0.375431" CO2_perVeh="43.052958" HC_perVeh="0.002702" PMx_perVeh="0.000598" NOx_perVeh="0.016192" fuel_perVeh="0.018507" electricity_perVeh="0"/>
        <edge id=":1110673446_0" sampledSeconds="1329.07" CO_abs="14754.234958" CO2_abs="1193211.325951" HC_abs="95.402936" PMx_abs="21.857454" NOx_abs="487.940973" fuel_abs="512.906727" electricity_abs="0"
            CO_normed="20678.675484" CO2_normed="1672335.425299" HC_normed="133.711193" PMx_normed="30.634133" NOx_normed="683.869619" fuel_normed="718.860163" electricity_normed="0"
            traveltime="0.02" CO_perVeh="0.253061" CO2_perVeh="20.465650" HC_perVeh="0.001636" PMx_perVeh="0.000375" NOx_perVeh="0.008369" fuel_perVeh="0.008797" electricity_perVeh="0"/>
        <edge id=":1110673451_0" sampledSeconds="36.51" CO_abs="254.897101" CO2_abs="17477.794230" HC_abs="1.555700" PMx_abs="0.225998" NOx_abs="6.640132" fuel_abs="7.513068" electricity_abs="0"
            CO_normed="396.943240" CO2_normed="27217.619294" HC_normed="2.422643" PMx_normed="0.351940" NOx_normed="10.340469" fuel_normed="11.699864" electricity_normed="0"
            traveltime="0.03" CO_perVeh="0.187803" CO2_perVeh="12.877270" HC_perVeh="0.001146" PMx_perVeh="0.000167" NOx_perVeh="0.004892" fuel_perVeh="0.005535" electricity_perVeh="0"/>
        <edge id=":1110673464_0" sampledSeconds="1033.12" CO_abs="3884.443173" CO2_abs="293480.052079" HC_abs="24.387359" PMx_abs="4.026978" NOx_abs="112.366489" fuel_abs="126.155767" electricity_abs="0"
            CO_normed="115.670164" CO2_normed="8739.189729" HC_normed="0.726202" PMx_normed="0.119915" NOx_normed="3.346027" fuel_normed="3.756641" electricity_normed="0"
            traveltime="1.23" CO_perVeh="4.606408" CO2_perVeh="348.026419" HC_perVeh="0.028920" PMx_perVeh="0.004775" NOx_perVeh="0.133251" fuel_perVeh="0.149603" electricity_perVeh="0"/>
        <edge id=":1110673464_1" sampledSeconds="2607.97" CO_abs="65480.059336" CO2_abs="7804074.576911" HC_abs="484.085580" PMx_abs="140.247497" NOx_abs="2969.981503" fuel_abs="3354.611532" electricity_abs="0"
            CO_normed="1910.611383" CO2_normed="227711.365382" HC_normed="14.124902" PMx_normed="4.092215" NOx_normed="86.659672" fuel_normed="97.882608" electricity_normed="0"
            traveltime="0.72" CO_perVeh="18.052819" CO2_perVeh="2151.579387" HC_perVeh="0.133462" PMx_perVeh="0.038666" NOx_perVeh="0.818822" fuel_perVeh="0.924865" electricity_perVeh="0"/>
        <edge id=":1110673479_0" sampledSeconds="134.29" CO_abs="6641.971727" CO2_abs="455514.807837" HC_abs="40.951585" PMx_abs="8.043338" NOx_abs="186.792074" fuel_abs="195.805965" electricity_abs="0"
            CO_normed="9309.000318" CO2_normed="638422.996267" HC_normed="57.395354" PMx_normed="11.273073" NOx_normed="261.796880" fuel_normed="274.430225" electricity_normed="0"
            traveltime="0.03" CO_perVeh="1.404173" CO2_perVeh="96.299949" HC_perVeh="0.008658" PMx_perVeh="0.001700" NOx_perVeh="0.039490" fuel_perVeh="0.041395" electricity_perVeh="0"/>
        <edge id=":1110673511_0" sampledSeconds="63.63" CO_abs="1029.205469" CO2_abs="118437.721729" HC_abs="7.394900" PMx_abs="1.610066" NOx_abs="44.361352" fuel_abs="50.911464" electricity_abs="0"
            CO_normed="1442.474379" CO2_normed="165995.405367" HC_normed="10.364260" PMx_normed="2.256575" NOx_normed="62.174284" fuel_normed="71.354539" electricity_normed="0"
            traveltime="0.02" CO_perVeh="0.394458" CO2_perVeh="45.392931" HC_perVeh="0.002834" PMx_perVeh="0.000617" NOx_perVeh="0.017002" fuel_perVeh="0.019513" electricity_perVeh="0"/>
        <edge id=":1110673517_0" sampledSeconds="181.78" CO_abs="8390.296279" CO2_abs="592899.964647" HC_abs="52.134431" PMx_abs="10.322725" NOx_abs="241.859702" fuel_abs="254.861898" electricity_abs="0"
            CO_normed="11759.350076" CO2_normed="830974.021930" HC_normed="73.068579" PMx_normed="14.467730" NOx_normed="338.976457" fuel_normed="357.199577" electricity_normed="0"
            traveltime="0.03" CO_perVeh="1.284622" CO2_perVeh="90.777784" HC_perVeh="0.007982" PMx_perVeh="0.001580" NOx_perVeh="0.037031" fuel_perVeh="0.039021" electricity_perVeh="0"/>
        <edge id=":1110673534_0" sampledSeconds="739.52" CO_abs="6108.506979" CO2_abs="489610.761052" HC_abs="39.030215" PMx_abs="6.840837" NOx_abs="188.035839" fuel_abs="210.464319" electricity_abs="0"
            CO_normed="165.917194" CO2_normed="13298.641402" HC_normed="1.060125" PMx_normed="0.185809" NOx_normed="5.107366" fuel_normed="5.716560" electricity_normed="0"
            traveltime="1.46" CO_perVeh="12.046986" CO2_perVeh="965.593431" HC_perVeh="0.076974" PMx_perVeh="0.013491" NOx_perVeh="0.370838" fuel_perVeh="0.415070" electricity_perVeh="0"/>
        <edge id=":1110673534_1" sampledSeconds="199.17" CO_abs="3033.288371" CO2_abs="389008.682177" HC_abs="22.660653" PMx_abs="5.270930" NOx_abs="144.681086" fuel_abs="167.218508" electricity_abs="0"
            CO_normed="80.112063" CO2_normed="10274.093369" HC_normed="0.598490" PMx_normed="0.139210" NOx_normed="3.821167" fuel_normed="4.416402" electricity_normed="0"
            traveltime="1.22" CO_perVeh="18.541537" CO2_perVeh="2377.887676" HC_perVeh="0.138517" PMx_perVeh="0.032220" NOx_perVeh="0.884390" fuel_perVeh="1.022154" electricity_perVeh="0"/>
        <edge id=":1110673549_0" sampledSeconds="652.62" CO_abs="1470.368952" CO2_abs="133656.890033" HC_abs="9.676500" PMx_abs="1.940985" NOx_abs="50.964229" fuel_abs="57.453601" electricity_abs="0"
            CO_normed="38.688049" CO2_normed="3516.752897" HC_normed="0.254606" PMx_normed="0.051071" NOx_normed="1.340960" fuel_normed="1.511707" electricity_normed="0"
            traveltime="1.30" CO_perVeh="2.921273" CO2_perVeh="265.544371" HC_perVeh="0.019225" PMx_perVeh="0.003856" NOx_perVeh="0.101254" fuel_perVeh="0.114147" electricity_perVeh="0"/>
        <edge id=":1110673549_1" sampledSeconds="3196.00" CO_abs="71109.478880" CO2_abs="9264597.692991" HC_abs="544.709877" PMx_abs="163.265372" NOx_abs="3467.044110" fuel_abs="3982.426245" electricity_abs="0"
            CO_normed="1809.858952" CO2_normed="235799.999313" HC_normed="13.863806" PMx_normed="4.155385" NOx_normed="88.242256" fuel_normed="101.359620" electricity_normed="0"
            traveltime="0.81" CO_perVeh="17.937126" CO2_perVeh="2336.963526" HC_perVeh="0.137401" PMx_perVeh="0.041183" NOx_perVeh="0.874550" fuel_perVeh="1.004554" electricity_perVeh="0"/>
        <edge id=":1110673556_0" sampledSeconds="462.46" CO_abs="56723.705303" CO2_abs="2749735.114381" HC_abs="323.565362" PMx_abs="55.307186" NOx_abs="1183.993972" fuel_abs="1181.993884" electricity_abs="0"
            CO_normed="1106.737422" CO2_normed="53650.140353" HC_normed="6.313091" PMx_normed="1.079100" NOx_normed="23.100932" fuel_normed="23.061908" electricity_normed="0"
            traveltime="2.73" CO_perVeh="334.380789" CO2_perVeh="16209.424109" HC_perVeh="1.907387" PMx_perVeh="0.326031" NOx_perVeh="6.979531" fuel_perVeh="6.967740" electricity_perVeh="0"/>
        <edge id=":1110673556_2" sampledSeconds="173.61" CO_abs="16660.993672" CO2_abs="719601.387441" HC_abs="92.777034" PMx_abs="13.942888" NOx_abs="307.272034" fuel_abs="309.328231" electricity_abs="0"
            CO_normed="339.899233" CO2_normed="14680.514540" HC_normed="1.892735" PMx_normed="0.284447" NOx_normed="6.268625" fuel_normed="6.310574" electricity_normed="0"
            traveltime="3.00" CO_perVeh="288.092388" CO2_perVeh="12442.936267" HC_perVeh="1.604247" PMx_perVeh="0.241092" NOx_perVeh="5.313173" fuel_perVeh="5.348727" electricity_perVeh="0"/>
        <edge id=":1110673556_3" sampledSeconds="231.37" CO_abs="24677.820734" CO2_abs="843916.333177" HC_abs="132.115042" PMx_abs="16.798324" NOx_abs="364.372868" fuel_abs="362.769916" electricity_abs="0"
            CO_normed="1145.264726" CO2_normed="39165.030754" HC_normed="6.131283" PMx_normed="0.779588" NOx_normed="16.910059" fuel_normed="16.835668" electricity_normed="0"
            traveltime="1.87" CO_perVeh="199.874001" CO2_perVeh="6835.163264" HC_perVeh="1.070044" PMx_perVeh="0.136055" NOx_perVeh="2.951179" fuel_perVeh="2.938196" electricity_perVeh="0"/>
        <edge id=":1110673556_4" sampledSeconds="57.62" CO_abs="6464.739991" CO2_abs="256812.383908" HC_abs="35.477537" PMx_abs="5.093891" NOx_abs="110.543016" fuel_abs="110.393758" electricity_abs="0"
            CO_normed="183.289332" CO2_normed="7281.185382" HC_normed="1.005865" PMx_normed="0.144423" NOx_normed="3.134133" fuel_normed="3.129901" electricity_normed="0"
            traveltime="2.42" CO_perVeh="272.023874" CO2_perVeh="10806.173117" HC_perVeh="1.492827" PMx_perVeh="0.214341" NOx_perVeh="4.651438" fuel_perVeh="4.645158" electricity_perVeh="0"/>
        <edge id=":1110673556_5" sampledSeconds="22.27" CO_abs="1326.933938" CO2_abs="60399.415931" HC_abs="7.444380" PMx_abs="1.070095" NOx_abs="25.150173" fuel_abs="25.963416" electricity_abs="0"
            CO_normed="52.436652" CO2_normed="2386.812965" HC_normed="0.294181" PMx_normed="0.042287" NOx_normed="0.993863" fuel_normed="1.026000" electricity_normed="0"
            traveltime="1.54" CO_perVeh="91.738643" CO2_perVeh="4175.762089" HC_perVeh="0.514673" PMx_perVeh="0.073982" NOx_perVeh="1.738777" fuel_perVeh="1.795002" electricity_perVeh="0"/>
        <edge id=":1110673556_6" sampledSeconds="222.02" CO_abs="27322.324290" CO2_abs="1345486.429785" HC_abs="156.404593" PMx_abs="27.253881" NOx_abs="580.402809" fuel_abs="578.366604" electricity_abs="0"
            CO_normed="546.527736" CO2_normed="26913.729770" HC_normed="3.128557" PMx_normed="0.545159" NOx_normed="11.609782" fuel_normed="11.569052" electricity_normed="0"
            traveltime="2.59" CO_perVeh="318.374221" CO2_perVeh="15678.321833" HC_perVeh="1.822509" PMx_perVeh="0.317577" NOx_perVeh="6.763162" fuel_perVeh="6.739435" electricity_perVeh="0"/>
        <edge id=":1110673561_0" sampledSeconds="163.74" CO_abs="15309.835272" CO2_abs="1095711.120866" HC_abs="96.047290" PMx_abs="22.066120" NOx_abs="463.202697" fuel_abs="470.994117" electricity_abs="0"
            CO_normed="384.770577" CO2_normed="27537.683608" HC_normed="2.413884" PMx_normed="0.554571" NOx_normed="11.641325" fuel_normed="11.837141" electricity_normed="0"
            traveltime="1.21" CO_perVeh="113.314153" CO2_perVeh="8109.791858" HC_perVeh="0.710884" PMx_perVeh="0.163320" NOx_perVeh="3.428347" fuel_perVeh="3.486014" electricity_perVeh="0"/>
        <edge id=":1110673561_1" sampledSeconds="5260.11" CO_abs="489648.046796" CO2_abs="33903597.306500" HC_abs="3049.539202" PMx_abs="708.724451" NOx_abs="14495.763588" fuel_abs="14573.519116" electricity_abs="0"
            CO_normed="11997.590103" CO2_normed="830722.120016" HC_normed="74.721265" PMx_normed="17.365505" NOx_normed="355.182117" fuel_normed="357.087320" electricity_normed="0"
            traveltime="1.19" CO_perVeh="111.163823" CO2_perVeh="7697.066310" HC_perVeh="0.692331" PMx_perVeh="0.160900" NOx_perVeh="3.290944" fuel_perVeh="3.308597" electricity_perVeh="0"/>
        <edge id=":1110673562_0" sampledSeconds="300.23" CO_abs="7004.956092" CO2_abs="531245.205400" HC_abs="44.045333" PMx_abs="7.430137" NOx_abs="204.613481" fuel_abs="228.361576" electricity_abs="0"
            CO_normed="10908.597823" CO2_normed="827291.451218" HC_normed="68.590412" PMx_normed="11.570719" NOx_normed="318.638139" fuel_normed="355.620300" electricity_normed="0"
            traveltime="0.03" CO_perVeh="0.627934" CO2_perVeh="47.621582" HC_perVeh="0.003948" PMx_perVeh="0.000666" NOx_perVeh="0.018342" fuel_perVeh="0.020471" electricity_perVeh="0"/>
        <edge id=":1110673564_0" sampledSeconds="27.75" CO_abs="436.314773" CO2_abs="52026.246722" HC_abs="3.168152" PMx_abs="0.703400" NOx_abs="19.424887" fuel_abs="22.363920" electricity_abs="0"
            CO_normed="1834.540042" CO2_normed="218750.862181" HC_normed="13.320890" PMx_normed="2.957534" NOx_normed="81.674368" fuel_normed="94.031899" electricity_normed="0"
            traveltime="7.838136e-03" CO_perVeh="0.123235" CO2_perVeh="14.694604" HC_perVeh="0.000895" PMx_perVeh="0.000199" NOx_perVeh="0.005486" fuel_perVeh="0.006317" electricity_perVeh="0"/>
        <edge id=":1110673588_0" sampledSeconds="63.04" CO_abs="1135.444041" CO2_abs="127778.369486" HC_abs="8.105833" PMx_abs="1.766387" NOx_abs="48.086026" fuel_abs="54.926596" electricity_abs="0"
            CO_normed="1909.646600" CO2_normed="214904.055196" HC_normed="13.632795" PMx_normed="2.970798" NOx_normed="80.873485" fuel_normed="92.378297" electricity_normed="0"
            traveltime="0.02" CO_perVeh="0.366272" CO2_perVeh="41.218829" HC_perVeh="0.002615" PMx_perVeh="0.000570" NOx_perVeh="0.015512" fuel_perVeh="0.017718" electricity_perVeh="0"/>
        <edge id=":1110673601_0" sampledSeconds="28.84" CO_abs="398.916548" CO2_abs="50451.335897" HC_abs="2.973113" PMx_abs="0.674957" NOx_abs="18.740940" fuel_abs="21.686929" electricity_abs="0"
            CO_normed="599.033759" CO2_normed="75760.340219" HC_normed="4.464580" PMx_normed="1.013551" NOx_normed="28.142366" fuel_normed="32.566216" electricity_normed="0"
            traveltime="0.02" CO_perVeh="0.304193" CO2_perVeh="38.471565" HC_perVeh="0.002267" PMx_perVeh="0.000515" NOx_perVeh="0.014291" fuel_perVeh="0.016537" electricity_perVeh="0"/>
        <edge id=":1110673617_0" sampledSeconds="853.87" CO_abs="32272.355242" CO2_abs="3259754.341740" HC_abs="225.208050" PMx_abs="61.574302" NOx_abs="1279.067402" fuel_abs="1401.215693" electricity_abs="0"
            CO_normed="45231.051496" CO2_normed="4568681.628227" HC_normed="315.638472" PMx_normed="86.298952" NOx_normed="1792.666295" fuel_normed="1963.862219" electricity_normed="0"
            traveltime="0.02" CO_perVeh="0.571912" CO2_perVeh="57.767457" HC_perVeh="0.003991" PMx_perVeh="0.001091" NOx_perVeh="0.022667" fuel_perVeh="0.024832" electricity_perVeh="0"/>
        <edge id=":1110673621_0" sampledSeconds="42.22" CO_abs="1155.785316" CO2_abs="104099.832333" HC_abs="7.690082" PMx_abs="1.682242" NOx_abs="41.067936" fuel_abs="44.747972" electricity_abs="0"
            CO_normed="1943.857574" CO2_normed="175080.306656" HC_normed="12.933565" PMx_normed="2.829280" NOx_normed="69.070109" fuel_normed="75.259378" electricity_normed="0"
            traveltime="0.02" CO_perVeh="0.545182" CO2_perVeh="49.103694" HC_perVeh="0.003627" PMx_perVeh="0.000794" NOx_perVeh="0.019372" fuel_perVeh="0.021108" electricity_perVeh="0"/>
        <edge id=":1110673630_0" sampledSeconds="287.51" CO_abs="1433.711378" CO2_abs="126929.212948" HC_abs="9.419086" PMx_abs="1.648656" NOx_abs="47.761902" fuel_abs="54.561934" electricity_abs="0"
            CO_normed="42.997281" CO2_normed="3806.631620" HC_normed="0.282480" PMx_normed="0.049444" NOx_normed="1.432389" fuel_normed="1.636323" electricity_normed="0"
            traveltime="1.29" CO_perVeh="6.451154" CO2_perVeh="571.132981" HC_perVeh="0.042382" PMx_perVeh="0.007418" NOx_perVeh="0.214910" fuel_perVeh="0.245508" electricity_perVeh="0"/>
        <edge id=":1110673630_1" sampledSeconds="339.89" CO_abs="1433.164689" CO2_abs="110137.445736" HC_abs="9.038480" PMx_abs="1.504094" NOx_abs="42.166088" fuel_abs="47.343830" electricity_abs="0"
            CO_normed="52.399306" CO2_normed="4026.840586" HC_normed="0.330465" PMx_normed="0.054993" NOx_normed="1.541675" fuel_normed="1.730983" electricity_normed="0"
            traveltime="1.08" CO_perVeh="4.568647" CO2_perVeh="351.096501" HC_perVeh="0.028813" PMx_perVeh="0.004795" NOx_perVeh="0.134417" fuel_perVeh="0.150923" electricity_perVeh="0"/>
        <edge id=":1110673650_0" sampledSeconds="200.41" CO_abs="3021.342594" CO2_abs="385075.862835" HC_abs="22.545872" PMx_abs="5.178232" NOx_abs="143.152866" fuel_abs="165.528019" electricity_abs="0"
            CO_normed="4234.537623" CO2_normed="539699.877835" HC_normed="31.598980" PMx_normed="7.257508" NOx_normed="200.634710" fuel_normed="231.994420" electricity_normed="0"
            traveltime="0.02" CO_perVeh="0.349194" CO2_perVeh="44.505435" HC_perVeh="0.002606" PMx_perVeh="0.000598" NOx_perVeh="0.016545" fuel_perVeh="0.019131" electricity_perVeh="0"/>
        <edge id=":1110673655_0" sampledSeconds="20.73" CO_abs="341.740691" CO2_abs="39568.022584" HC_abs="2.458053" PMx_abs="0.555730" NOx_abs="14.907097" fuel_abs="17.008624" electricity_abs="0"
            CO_normed="478.963828" CO2_normed="55456.233474" HC_normed="3.445064" PMx_normed="0.778879" NOx_normed="20.892918" fuel_normed="23.838296" electricity_normed="0"
            traveltime="0.02" CO_perVeh="0.390412" CO2_perVeh="45.203377" HC_perVeh="0.002808" PMx_perVeh="0.000635" NOx_perVeh="0.017030" fuel_perVeh="0.019431" electricity_perVeh="0"/>
        <edge id=":1110673663_0" sampledSeconds="180.04" CO_abs="3539.244001" CO2_abs="367446.974984" HC_abs="24.572458" PMx_abs="5.287143" NOx_abs="140.078845" fuel_abs="157.950008" electricity_abs="0"
            CO_normed="90.849781" CO2_normed="9432.092609" HC_normed="0.630757" PMx_normed="0.135717" NOx_normed="3.595721" fuel_normed="4.054460" electricity_normed="0"
            traveltime="1.32" CO_perVeh="25.883264" CO2_perVeh="2687.219928" HC_perVeh="0.179704" PMx_perVeh="0.038666" NOx_perVeh="1.024427" fuel_perVeh="1.155123" electricity_perVeh="0"/>
        <edge id=":1110673663_1" sampledSeconds="170.87" CO_abs="2792.510380" CO2_abs="331071.664963" HC_abs="20.322224" PMx_abs="4.552523" NOx_abs="124.126413" fuel_abs="142.313851" electricity_abs="0"
            CO_normed="71.769311" CO2_normed="8508.754452" HC_normed="0.522294" PMx_normed="0.117003" NOx_normed="3.190129" fuel_normed="3.657557" electricity_normed="0"
            traveltime="1.28" CO_perVeh="20.859427" CO2_perVeh="2473.031143" HC_perVeh="0.151802" PMx_perVeh="0.034006" NOx_perVeh="0.927196" fuel_perVeh="1.063053" electricity_perVeh="0"/>