<?xml version="1.0" encoding="UTF-8"?>

<!-- generated on Tue Nov 10 16:38:33 2020 by Eclipse SUMO sumo Version 1.7.0
<configuration xmlns:xsi="http://www.w3.org/2001/XMLSchema-instance" xsi:noNamespaceSchemaLocation="http://sumo.dlr.de/xsd/sumoConfiguration.xsd">

    <input>
        <net-file value="../dataSets/Porto/8AM9AM_Routing_SaoBento/Porto.net.xml"/>
        <route-files value="../results/Porto/8AM9AM_Routing_SaoBento/cost_PMx-cost_co/solution2/Porto.rou.xml"/>
        <additional-files value="moreOutputInfo.xml"/>
    </input>

    <output>
        <emission-output.precision value="6"/>
        <tripinfo-output value="../results/Porto/8AM9AM_Routing_SaoBento/cost_PMx-cost_co/solution2/Porto-tripinfo"/>
    </output>

    <processing>
        <collision.action value="warn"/>
        <time-to-teleport value="-1"/>
    </processing>

    <emissions>
        <device.emissions.probability value="1"/>
    </emissions>

    <gui_only>
        <quit-on-end value="true"/>
        <start value="true"/>
    </gui_only>

</configuration>
-->

<meandata xmlns:xsi="http://www.w3.org/2001/XMLSchema-instance" xsi:noNamespaceSchemaLocation="http://sumo.dlr.de/xsd/meandata_file.xsd">
    <interval begin="0.00" end="9528.00" id="emissions-detector">
        <edge id=":1092997347_0" sampledSeconds="595.55" CO_abs="72427.447303" CO2_abs="3080041.559521" HC_abs="402.638356" PMx_abs="62.276971" NOx_abs="1332.684254" fuel_abs="1323.985196" electricity_abs="0"
            CO_normed="62194.396013" CO2_normed="2644871.959744" HC_normed="345.750821" PMx_normed="53.478049" NOx_normed="1144.393394" fuel_normed="1136.923399" electricity_normed="0"
            traveltime="0.07" CO_perVeh="8.312779" CO2_perVeh="353.508331" HC_perVeh="0.046212" PMx_perVeh="0.007148" NOx_perVeh="0.152957" fuel_perVeh="0.151959" electricity_perVeh="0"/>
        <edge id=":1103427051_0" sampledSeconds="19.32" CO_abs="1500.207737" CO2_abs="85077.014254" HC_abs="8.846925" PMx_abs="1.645521" NOx_abs="36.140554" fuel_abs="36.570870" electricity_abs="0"
            CO_normed="1954.583171" CO2_normed="110844.715870" HC_normed="11.526438" PMx_normed="2.143908" NOx_normed="47.086624" fuel_normed="47.647273" electricity_normed="0"
            traveltime="0.03" CO_perVeh="2.333013" CO2_perVeh="132.305524" HC_perVeh="0.013758" PMx_perVeh="0.002559" NOx_perVeh="0.056203" fuel_perVeh="0.056872" electricity_perVeh="0"/>
        <edge id=":1105984386_0" sampledSeconds="10.67" CO_abs="213.877552" CO2_abs="16544.681916" HC_abs="1.348937" PMx_abs="0.213390" NOx_abs="6.257235" fuel_abs="7.111937" electricity_abs="0"
            CO_normed="8.322364" CO2_normed="643.783652" HC_normed="0.052490" PMx_normed="0.008303" NOx_normed="0.243480" fuel_normed="0.276738" electricity_normed="0"
            traveltime="1.02" CO_perVeh="20.517200" CO2_perVeh="1587.125681" HC_perVeh="0.129403" PMx_perVeh="0.020470" NOx_perVeh="0.600254" fuel_perVeh="0.682246" electricity_perVeh="0"/>
        <edge id=":1105984390_0" sampledSeconds="10.18" CO_abs="9.882202" CO2_abs="636.905890" HC_abs="0.059588" PMx_abs="0.009405" NOx_abs="0.250394" fuel_abs="0.273781" electricity_abs="0"
            CO_normed="0.297279" CO2_normed="19.159597" HC_normed="0.001793" PMx_normed="0.000283" NOx_normed="0.007532" fuel_normed="0.008236" electricity_normed="0"
            traveltime="1.05" CO_perVeh="1.024350" CO2_perVeh="66.019130" HC_perVeh="0.006177" PMx_perVeh="0.000975" NOx_perVeh="0.025955" fuel_perVeh="0.028379" electricity_perVeh="0"/>
        <edge id=":1105984390_1" sampledSeconds="2402.50" CO_abs="65456.180720" CO2_abs="7588195.407177" HC_abs="480.109828" PMx_abs="138.153654" NOx_abs="2900.558735" fuel_abs="3261.813905" electricity_abs="0"
            CO_normed="1883.591350" CO2_normed="218360.727366" HC_normed="13.815819" PMx_normed="3.975561" NOx_normed="83.467555" fuel_normed="93.863168" electricity_normed="0"
            traveltime="0.65" CO_perVeh="17.671163" CO2_perVeh="2048.580184" HC_perVeh="0.129615" PMx_perVeh="0.037297" NOx_perVeh="0.783062" fuel_perVeh="0.880590" electricity_perVeh="0"/>
        <edge id=":1105984395_0" sampledSeconds="4.08" CO_abs="109.421416" CO2_abs="7352.727046" HC_abs="0.663847" PMx_abs="0.092605" NOx_abs="2.780334" fuel_abs="3.160675" electricity_abs="0"
            CO_normed="44.938157" CO2_normed="3019.683104" HC_normed="0.272635" PMx_normed="0.038032" NOx_normed="1.141852" fuel_normed="1.298054" electricity_normed="0"
            traveltime="0.09" CO_perVeh="2.536349" CO2_perVeh="170.433582" HC_perVeh="0.015388" PMx_perVeh="0.002147" NOx_perVeh="0.064447" fuel_perVeh="0.073263" electricity_perVeh="0"/>
        <edge id=":1105984398_0" sampledSeconds="10.73" CO_abs="771.155622" CO2_abs="51262.270326" HC_abs="4.717414" PMx_abs="0.913415" NOx_abs="21.112646" fuel_abs="22.035420" electricity_abs="0"
            CO_normed="24.099969" CO2_normed="1602.036062" HC_normed="0.147427" PMx_normed="0.028546" NOx_normed="0.659807" fuel_normed="0.688646" electricity_normed="0"
            traveltime="1.14" CO_perVeh="82.004497" CO2_perVeh="5451.217103" HC_perVeh="0.501649" PMx_perVeh="0.097132" NOx_perVeh="2.245114" fuel_perVeh="2.343241" electricity_perVeh="0"/>
        <edge id=":1105984398_1" sampledSeconds="642.23" CO_abs="12221.471105" CO2_abs="1411486.479941" HC_abs="88.029590" PMx_abs="20.516747" NOx_abs="535.733093" fuel_abs="606.737549" electricity_abs="0"
            CO_normed="369.710512" CO2_normed="42698.737729" HC_normed="2.662974" PMx_normed="0.620650" NOx_normed="16.206409" fuel_normed="18.354358" electricity_normed="0"
            traveltime="0.95" CO_perVeh="18.099900" CO2_perVeh="2090.400125" HC_perVeh="0.130371" PMx_perVeh="0.030385" NOx_perVeh="0.793416" fuel_perVeh="0.898573" electricity_perVeh="0"/>
        <edge id=":1106006327_0" sampledSeconds="68.28" CO_abs="9155.770730" CO2_abs="293951.862027" HC_abs="48.603721" PMx_abs="6.119251" NOx_abs="128.589129" fuel_abs="126.359631" electricity_abs="0"
            CO_normed="390.446864" CO2_normed="12535.545742" HC_normed="2.072700" PMx_normed="0.260955" NOx_normed="5.483670" fuel_normed="5.388593" electricity_normed="0"
            traveltime="2.12" CO_perVeh="283.825369" CO2_perVeh="9112.394589" HC_perVeh="1.506697" PMx_perVeh="0.189694" NOx_perVeh="3.986213" fuel_perVeh="3.917100" electricity_perVeh="0"/>
        <edge id=":1106006327_1" sampledSeconds="686.87" CO_abs="92928.003728" CO2_abs="3092479.698670" HC_abs="496.009608" PMx_abs="64.518666" NOx_abs="1353.435277" fuel_abs="1329.345838" electricity_abs="0"
            CO_normed="3455.840199" CO2_normed="115004.253059" HC_normed="18.445785" PMx_normed="2.399343" NOx_normed="50.332040" fuel_normed="49.436194" electricity_normed="0"
            traveltime="2.31" CO_perVeh="311.936816" CO2_perVeh="10380.705824" HC_perVeh="1.664984" PMx_perVeh="0.216574" NOx_perVeh="4.543155" fuel_perVeh="4.462292" electricity_perVeh="0"/>
        <edge id=":1106006327_2" sampledSeconds="0.00" CO_abs="0" CO2_abs="0" HC_abs="0" PMx_abs="0" NOx_abs="0" fuel_abs="0" electricity_abs="0"
            CO_normed="0" CO2_normed="0" HC_normed="0" PMx_normed="0" NOx_normed="0" fuel_normed="0" electricity_normed="0"/>
        <edge id=":1106006327_3" sampledSeconds="0.00" CO_abs="0" CO2_abs="0" HC_abs="0" PMx_abs="0" NOx_abs="0" fuel_abs="0" electricity_abs="0"
            CO_normed="0" CO2_normed="0" HC_normed="0" PMx_normed="0" NOx_normed="0" fuel_normed="0" electricity_normed="0"/>
        <edge id=":1107381198_0" sampledSeconds="0.00" CO_abs="0" CO2_abs="0" HC_abs="0" PMx_abs="0" NOx_abs="0" fuel_abs="0" electricity_abs="0"
            CO_normed="0" CO2_normed="0" HC_normed="0" PMx_normed="0" NOx_normed="0" fuel_normed="0" electricity_normed="0"/>
        <edge id=":1107381198_1" sampledSeconds="105.18" CO_abs="5062.559589" CO2_abs="194819.949929" HC_abs="27.527385" PMx_abs="3.343933" NOx_abs="80.628866" fuel_abs="83.746513" electricity_abs="0"
            CO_normed="208.593881" CO2_normed="8027.214053" HC_normed="1.134218" PMx_normed="0.137781" NOx_normed="3.322171" fuel_normed="3.450628" electricity_normed="0"
            traveltime="1.57" CO_perVeh="75.796224" CO2_perVeh="2916.828208" HC_perVeh="0.412138" PMx_perVeh="0.050065" NOx_perVeh="1.207169" fuel_perVeh="1.253846" electricity_perVeh="0"/>
        <edge id=":1110338277_0" sampledSeconds="160.32" CO_abs="2256.440562" CO2_abs="289397.712868" HC_abs="16.870665" PMx_abs="3.815792" NOx_abs="107.168392" fuel_abs="124.400078" electricity_abs="0"
            CO_normed="3044.855023" CO2_normed="390515.085734" HC_normed="22.765380" PMx_normed="5.149053" NOx_normed="144.613699" fuel_normed="167.866244" electricity_normed="0"
            traveltime="0.02" CO_perVeh="0.305614" CO2_perVeh="39.196198" HC_perVeh="0.002285" PMx_perVeh="0.000517" NOx_perVeh="0.014515" fuel_perVeh="0.016849" electricity_perVeh="0"/>
        <edge id=":1110338293_0" sampledSeconds="6434.68" CO_abs="594975.817554" CO2_abs="10444588.643525" HC_abs="2953.452662" PMx_abs="248.807313" NOx_abs="4718.890401" fuel_abs="4489.951885" electricity_abs="0"
            CO_normed="749339.820597" CO2_normed="13154393.757588" HC_normed="3719.713680" PMx_normed="313.359336" NOx_normed="5943.186903" fuel_normed="5654.851241" electricity_normed="0"
            traveltime="0.43" CO_perVeh="39.769466" CO2_perVeh="698.138811" HC_perVeh="0.197415" PMx_perVeh="0.016631" NOx_perVeh="0.315421" fuel_perVeh="0.300118" electricity_perVeh="0"/>
        <edge id=":1110338295_0" sampledSeconds="0.00" CO_abs="0" CO2_abs="0" HC_abs="0" PMx_abs="0" NOx_abs="0" fuel_abs="0" electricity_abs="0"
            CO_normed="0" CO2_normed="0" HC_normed="0" PMx_normed="0" NOx_normed="0" fuel_normed="0" electricity_normed="0"/>
        <edge id=":1110673403_0" sampledSeconds="200.85" CO_abs="3045.749975" CO2_abs="381557.136204" HC_abs="22.517730" PMx_abs="5.142583" NOx_abs="142.030714" fuel_abs="164.015469" electricity_abs="0"
            CO_normed="3835.957147" CO2_normed="480550.549376" HC_normed="28.359862" PMx_normed="6.476805" NOx_normed="178.879992" fuel_normed="206.568601" electricity_normed="0"
            traveltime="0.02" CO_perVeh="0.352016" CO2_perVeh="44.098867" HC_perVeh="0.002603" PMx_perVeh="0.000594" NOx_perVeh="0.016415" fuel_perVeh="0.018956" electricity_perVeh="0"/>
        <edge id=":1110673412_0" sampledSeconds="963.88" CO_abs="170864.493061" CO2_abs="11655817.518308" HC_abs="1063.265736" PMx_abs="256.165113" NOx_abs="5009.357290" fuel_abs="5010.261851" electricity_abs="0"
            CO_normed="222615.078252" CO2_normed="15186073.375717" HC_normed="1385.302358" PMx_normed="333.751125" NOx_normed="6526.566434" fuel_normed="6527.744964" electricity_normed="0"
            traveltime="0.02" CO_perVeh="2.756639" CO2_perVeh="188.048893" HC_perVeh="0.017154" PMx_perVeh="0.004133" NOx_perVeh="0.080818" fuel_perVeh="0.080833" electricity_perVeh="0"/>
        <edge id=":1110673414_0" sampledSeconds="0.00" CO_abs="0" CO2_abs="0" HC_abs="0" PMx_abs="0" NOx_abs="0" fuel_abs="0" electricity_abs="0"
            CO_normed="0" CO2_normed="0" HC_normed="0" PMx_normed="0" NOx_normed="0" fuel_normed="0" electricity_normed="0"/>
        <edge id=":1110673414_1" sampledSeconds="239.84" CO_abs="15185.813349" CO2_abs="587158.270926" HC_abs="82.779164" PMx_abs="10.804746" NOx_abs="247.624141" fuel_abs="252.398336" electricity_abs="0"
            CO_normed="635.405631" CO2_normed="24567.908438" HC_normed="3.463650" PMx_normed="0.452093" NOx_normed="10.361103" fuel_normed="10.560865" electricity_normed="0"
            traveltime="1.56" CO_perVeh="98.526990" CO2_perVeh="3809.538279" HC_perVeh="0.537079" PMx_perVeh="0.070102" NOx_perVeh="1.606609" fuel_perVeh="1.637584" electricity_perVeh="0"/>
        <edge id=":1110673417_0" sampledSeconds="28.98" CO_abs="490.102024" CO2_abs="55453.334710" HC_abs="3.496956" PMx_abs="0.784072" NOx_abs="20.950019" fuel_abs="23.837049" electricity_abs="0"
            CO_normed="661.346740" CO2_normed="74829.077064" HC_normed="4.718814" PMx_normed="1.058031" NOx_normed="28.270087" fuel_normed="32.165864" electricity_normed="0"
            traveltime="0.02" CO_perVeh="0.373726" CO2_perVeh="42.285829" HC_perVeh="0.002667" PMx_perVeh="0.000598" NOx_perVeh="0.015975" fuel_perVeh="0.018177" electricity_perVeh="0"/>
        <edge id=":1110673446_0" sampledSeconds="1328.62" CO_abs="13383.535789" CO2_abs="1096801.853845" HC_abs="86.895619" PMx_abs="19.941554" NOx_abs="447.278941" fuel_abs="471.464835" electricity_abs="0"
            CO_normed="16855.838526" CO2_normed="1381362.536329" HC_normed="109.440327" PMx_normed="25.115308" NOx_normed="563.323603" fuel_normed="593.784426" electricity_normed="0"
            traveltime="0.02" CO_perVeh="0.229613" CO2_perVeh="18.817173" HC_perVeh="0.001491" PMx_perVeh="0.000342" NOx_perVeh="0.007674" fuel_perVeh="0.008089" electricity_perVeh="0"/>
        <edge id=":1110673451_0" sampledSeconds="36.47" CO_abs="376.532331" CO2_abs="28390.339662" HC_abs="2.362274" PMx_abs="0.389205" NOx_abs="10.885450" fuel_abs="12.203913" electricity_abs="0"
            CO_normed="526.913421" CO2_normed="39728.994768" HC_normed="3.305729" PMx_normed="0.544647" NOx_normed="15.232927" fuel_normed="17.077963" electricity_normed="0"
            traveltime="0.03" CO_perVeh="0.277421" CO2_perVeh="20.917404" HC_perVeh="0.001740" PMx_perVeh="0.000287" NOx_perVeh="0.008020" fuel_perVeh="0.008992" electricity_perVeh="0"/>
        <edge id=":1110673464_0" sampledSeconds="1025.21" CO_abs="3864.217285" CO2_abs="279059.847619" HC_abs="23.971560" PMx_abs="3.920323" NOx_abs="107.782944" fuel_abs="119.957047" electricity_abs="0"
            CO_normed="103.401680" CO2_normed="7467.296712" HC_normed="0.641449" PMx_normed="0.104903" NOx_normed="2.884138" fuel_normed="3.209902" electricity_normed="0"
            traveltime="1.22" CO_perVeh="4.582421" CO2_perVeh="330.925924" HC_perVeh="0.028427" PMx_perVeh="0.004649" NOx_perVeh="0.127815" fuel_perVeh="0.142252" electricity_perVeh="0"/>
        <edge id=":1110673464_1" sampledSeconds="2610.88" CO_abs="63662.091570" CO2_abs="7734654.825620" HC_abs="474.067654" PMx_abs="138.286544" NOx_abs="2934.383118" fuel_abs="3324.771683" electricity_abs="0"
            CO_normed="1669.235738" CO2_normed="202804.556702" HC_normed="12.430171" PMx_normed="3.625907" NOx_normed="76.940249" fuel_normed="87.176333" electricity_normed="0"
            traveltime="0.72" CO_perVeh="17.553344" CO2_perVeh="2132.651511" HC_perVeh="0.130713" PMx_perVeh="0.038129" NOx_perVeh="0.809088" fuel_perVeh="0.916729" electricity_perVeh="0"/>
        <edge id=":1110673479_0" sampledSeconds="134.30" CO_abs="6271.020953" CO2_abs="430951.152796" HC_abs="38.703735" PMx_abs="7.673261" NOx_abs="177.121283" fuel_abs="185.247014" electricity_abs="0"
            CO_normed="7898.011276" CO2_normed="542759.638282" HC_normed="48.745258" PMx_normed="9.664056" NOx_normed="223.074664" fuel_normed="233.308582" electricity_normed="0"
            traveltime="0.03" CO_perVeh="1.325751" CO2_perVeh="91.106970" HC_perVeh="0.008182" PMx_perVeh="0.001622" NOx_perVeh="0.037445" fuel_perVeh="0.039163" electricity_perVeh="0"/>
        <edge id=":1110673511_0" sampledSeconds="63.45" CO_abs="1215.655785" CO2_abs="129807.427537" HC_abs="8.516265" PMx_abs="1.781762" NOx_abs="48.922610" fuel_abs="55.798860" electricity_abs="0"
            CO_normed="1531.052627" CO2_normed="163485.425110" HC_normed="10.725774" PMx_normed="2.244032" NOx_normed="61.615378" fuel_normed="70.275643" electricity_normed="0"
            traveltime="0.02" CO_perVeh="0.465922" CO2_perVeh="49.750997" HC_perVeh="0.003264" PMx_perVeh="0.000683" NOx_perVeh="0.018750" fuel_perVeh="0.021386" electricity_perVeh="0"/>
        <edge id=":1110673517_0" sampledSeconds="181.96" CO_abs="8495.249082" CO2_abs="603772.640412" HC_abs="52.872186" PMx_abs="10.523292" NOx_abs="246.311334" fuel_abs="259.535535" electricity_abs="0"
            CO_normed="10699.306148" CO2_normed="760418.942584" HC_normed="66.589655" PMx_normed="13.253516" NOx_normed="310.215787" fuel_normed="326.870951" electricity_normed="0"
            traveltime="0.03" CO_perVeh="1.300691" CO2_perVeh="92.442478" HC_perVeh="0.008095" PMx_perVeh="0.001611" NOx_perVeh="0.037712" fuel_perVeh="0.039737" electricity_perVeh="0"/>
        <edge id=":1110673534_0" sampledSeconds="739.34" CO_abs="5194.000578" CO2_abs="433044.919502" HC_abs="33.547732" PMx_abs="5.890670" NOx_abs="165.032319" fuel_abs="186.148990" electricity_abs="0"
            CO_normed="126.774466" CO2_normed="10569.702017" HC_normed="0.818829" PMx_normed="0.143779" NOx_normed="4.028087" fuel_normed="4.543499" electricity_normed="0"
            traveltime="1.46" CO_perVeh="10.243429" CO2_perVeh="854.036232" HC_perVeh="0.066162" PMx_perVeh="0.011617" NOx_perVeh="0.325471" fuel_perVeh="0.367117" electricity_perVeh="0"/>
        <edge id=":1110673534_1" sampledSeconds="199.38" CO_abs="2917.774289" CO2_abs="373898.079987" HC_abs="21.750811" PMx_abs="5.084239" NOx_abs="139.124768" fuel_abs="160.723066" electricity_abs="0"
            CO_normed="69.248342" CO2_normed="8873.826310" HC_normed="0.516218" PMx_normed="0.120666" NOx_normed="3.301887" fuel_normed="3.814485" electricity_normed="0"
            traveltime="1.22" CO_perVeh="17.835436" CO2_perVeh="2285.521319" HC_perVeh="0.132956" PMx_perVeh="0.031078" NOx_perVeh="0.850426" fuel_perVeh="0.982450" electricity_perVeh="0"/>
        <edge id=":1110673549_0" sampledSeconds="651.30" CO_abs="1448.162369" CO2_abs="155307.947281" HC_abs="10.151054" PMx_abs="2.325941" NOx_abs="59.207569" fuel_abs="66.760230" electricity_abs="0"
            CO_normed="34.240590" CO2_normed="3672.126697" HC_normed="0.240013" PMx_normed="0.054995" NOx_normed="1.399914" fuel_normed="1.578490" electricity_normed="0"
            traveltime="1.29" CO_perVeh="2.877153" CO2_perVeh="308.559859" HC_perVeh="0.020168" PMx_perVeh="0.004621" NOx_perVeh="0.117631" fuel_perVeh="0.132637" electricity_perVeh="0"/>
        <edge id=":1110673549_1" sampledSeconds="3195.77" CO_abs="72213.282873" CO2_abs="9349076.818135" HC_abs="551.945694" PMx_abs="165.087172" NOx_abs="3501.884136" fuel_abs="4018.739751" electricity_abs="0"
            CO_normed="1651.611120" CO2_normed="213825.471106" HC_normed="12.623711" PMx_normed="3.775757" NOx_normed="80.092617" fuel_normed="91.913773" electricity_normed="0"
            traveltime="0.81" CO_perVeh="18.213743" CO2_perVeh="2358.038280" HC_perVeh="0.139213" PMx_perVeh="0.041639" NOx_perVeh="0.883251" fuel_perVeh="1.013613" electricity_perVeh="0"/>
        <edge id=":1110673556_0" sampledSeconds="461.32" CO_abs="56293.972969" CO2_abs="2727886.767125" HC_abs="321.096041" PMx_abs="54.886895" NOx_abs="1174.508205" fuel_abs="1172.602221" electricity_abs="0"
            CO_normed="986.995967" CO2_normed="47827.735285" HC_normed="5.629741" PMx_normed="0.962326" NOx_normed="20.592522" fuel_normed="20.559104" electricity_normed="0"
            traveltime="2.72" CO_perVeh="331.847558" CO2_perVeh="16080.630203" HC_perVeh="1.892830" PMx_perVeh="0.323553" NOx_perVeh="6.923613" fuel_perVeh="6.912377" electricity_perVeh="0"/>
        <edge id=":1110673556_2" sampledSeconds="172.74" CO_abs="17310.773215" CO2_abs="749884.453689" HC_abs="96.446005" PMx_abs="14.512035" NOx_abs="320.065979" fuel_abs="322.345711" electricity_abs="0"
            CO_normed="317.350530" CO2_normed="13747.290517" HC_normed="1.768101" PMx_normed="0.266043" NOx_normed="5.867624" fuel_normed="5.909417" electricity_normed="0"
            traveltime="2.99" CO_perVeh="299.328005" CO2_perVeh="12966.573755" HC_perVeh="1.667689" PMx_perVeh="0.250934" NOx_perVeh="5.534398" fuel_perVeh="5.573818" electricity_perVeh="0"/>
        <edge id=":1110673556_3" sampledSeconds="247.30" CO_abs="26262.998611" CO2_abs="911003.821775" HC_abs="140.909417" PMx_abs="18.106423" NOx_abs="393.135540" fuel_abs="391.608187" electricity_abs="0"
            CO_normed="1095.259088" CO2_normed="37992.052220" HC_normed="5.876417" PMx_normed="0.755101" NOx_normed="16.395130" fuel_normed="16.331434" electricity_normed="0"
            traveltime="1.84" CO_perVeh="195.792548" CO2_perVeh="6791.599158" HC_perVeh="1.050490" PMx_perVeh="0.134985" NOx_perVeh="2.930854" fuel_perVeh="2.919467" electricity_perVeh="0"/>
        <edge id=":1110673556_4" sampledSeconds="39.05" CO_abs="4812.308098" CO2_abs="181310.946676" HC_abs="26.176714" PMx_abs="3.637776" NOx_abs="78.381642" fuel_abs="77.938738" electricity_abs="0"
            CO_normed="122.606367" CO2_normed="4619.379330" HC_normed="0.666922" PMx_normed="0.092682" NOx_normed="1.996981" fuel_normed="1.985697" electricity_normed="0"
            traveltime="2.69" CO_perVeh="331.351700" CO2_perVeh="12484.173736" HC_perVeh="1.802399" PMx_perVeh="0.250479" NOx_perVeh="5.396972" fuel_perVeh="5.366475" electricity_perVeh="0"/>
        <edge id=":1110673556_5" sampledSeconds="22.59" CO_abs="1117.366345" CO2_abs="50342.238732" HC_abs="6.252051" PMx_abs="0.869467" NOx_abs="20.811077" fuel_abs="21.640262" electricity_abs="0"
            CO_normed="39.678451" CO2_normed="1787.687688" HC_normed="0.222015" PMx_normed="0.030875" NOx_normed="0.739016" fuel_normed="0.768461" electricity_normed="0"
            traveltime="1.56" CO_perVeh="77.250019" CO2_perVeh="3480.451073" HC_perVeh="0.432241" PMx_perVeh="0.060111" NOx_perVeh="1.438790" fuel_perVeh="1.496117" electricity_perVeh="0"/>
        <edge id=":1110673556_6" sampledSeconds="213.59" CO_abs="25977.432280" CO2_abs="1315977.649929" HC_abs="149.582865" PMx_abs="26.520028" NOx_abs="566.308480" fuel_abs="565.681672" electricity_abs="0"
            CO_normed="466.943422" CO2_normed="23654.651500" HC_normed="2.688747" PMx_normed="0.476697" NOx_normed="10.179375" fuel_normed="10.168108" electricity_normed="0"
            traveltime="2.49" CO_perVeh="302.702825" CO2_perVeh="15334.469872" HC_perVeh="1.743019" PMx_perVeh="0.309025" NOx_perVeh="6.598927" fuel_perVeh="6.591623" electricity_perVeh="0"/>
        <edge id=":1110673561_0" sampledSeconds="161.90" CO_abs="16417.887186" CO2_abs="1175241.160510" HC_abs="103.027764" PMx_abs="23.718821" NOx_abs="497.014738" fuel_abs="505.180236" electricity_abs="0"
            CO_normed="370.784933" CO2_normed="26541.887539" HC_normed="2.326800" PMx_normed="0.535671" NOx_normed="11.224683" fuel_normed="11.409094" electricity_normed="0"
            traveltime="1.20" CO_perVeh="121.408963" CO2_perVeh="8690.814378" HC_perVeh="0.761882" PMx_perVeh="0.175399" NOx_perVeh="3.675384" fuel_perVeh="3.735767" electricity_perVeh="0"/>
        <edge id=":1110673561_1" sampledSeconds="5256.67" CO_abs="487398.649535" CO2_abs="33762022.458752" HC_abs="3036.168092" PMx_abs="705.566077" NOx_abs="14433.676643" fuel_abs="14512.663144" electricity_abs="0"
            CO_normed="10731.681878" CO2_normed="743381.798338" HC_normed="66.851211" PMx_normed="15.535354" NOx_normed="317.804791" fuel_normed="319.543938" electricity_normed="0"
            traveltime="1.19" CO_perVeh="110.669290" CO2_perVeh="7666.043133" HC_perVeh="0.689396" PMx_perVeh="0.160207" NOx_perVeh="3.277327" fuel_perVeh="3.295262" electricity_perVeh="0"/>
        <edge id=":1110673562_0" sampledSeconds="300.53" CO_abs="7127.862731" CO2_abs="540885.710617" HC_abs="44.801935" PMx_abs="7.430413" NOx_abs="207.460864" fuel_abs="232.505855" electricity_abs="0"
            CO_normed="9974.618990" CO2_normed="756906.955803" HC_normed="62.695124" PMx_normed="10.398004" NOx_normed="290.317470" fuel_normed="325.365036" electricity_normed="0"
            traveltime="0.03" CO_perVeh="0.638952" CO2_perVeh="48.485771" HC_perVeh="0.004016" PMx_perVeh="0.000666" NOx_perVeh="0.018597" fuel_perVeh="0.020842" electricity_perVeh="0"/>
        <edge id=":1110673564_0" sampledSeconds="27.87" CO_abs="520.886132" CO2_abs="54778.622229" HC_abs="3.621126" PMx_abs="0.786774" NOx_abs="20.843428" fuel_abs="23.547024" electricity_abs="0"
            CO_normed="1968.083620" CO2_normed="206972.124291" HC_normed="13.681835" PMx_normed="2.972697" NOx_normed="78.753506" fuel_normed="88.968605" electricity_normed="0"
            traveltime="7.872338e-03" CO_perVeh="0.147122" CO2_perVeh="15.472002" HC_perVeh="0.001023" PMx_perVeh="0.000222" NOx_perVeh="0.005887" fuel_perVeh="0.006651" electricity_perVeh="0"/>
        <edge id=":1110673588_0" sampledSeconds="63.15" CO_abs="1152.159386" CO2_abs="125793.902722" HC_abs="8.138972" PMx_abs="1.764548" NOx_abs="47.581467" fuel_abs="54.073538" electricity_abs="0"
            CO_normed="1741.298821" CO2_normed="190116.729555" HC_normed="12.300713" PMx_normed="2.666824" NOx_normed="71.911536" fuel_normed="81.723232" electricity_normed="0"
            traveltime="0.02" CO_perVeh="0.371664" CO2_perVeh="40.578678" HC_perVeh="0.002625" PMx_perVeh="0.000569" NOx_perVeh="0.015349" fuel_perVeh="0.017443" electricity_perVeh="0"/>
        <edge id=":1110673601_0" sampledSeconds="29.04" CO_abs="610.791368" CO2_abs="59981.770879" HC_abs="4.178723" PMx_abs="0.922109" NOx_abs="23.258402" fuel_abs="25.783580" electricity_abs="0"
            CO_normed="824.205697" CO2_normed="80939.777185" HC_normed="5.638794" PMx_normed="1.244300" NOx_normed="31.385033" fuel_normed="34.792524" electricity_normed="0"
            traveltime="0.02" CO_perVeh="0.465758" CO2_perVeh="45.738979" HC_perVeh="0.003186" PMx_perVeh="0.000703" NOx_perVeh="0.017736" fuel_perVeh="0.019661" electricity_perVeh="0"/>
        <edge id=":1110673617_0" sampledSeconds="857.56" CO_abs="33520.974602" CO2_abs="3408287.897531" HC_abs="234.557086" PMx_abs="64.096816" NOx_abs="1336.053567" fuel_abs="1465.063527" electricity_abs="0"
            CO_normed="42217.852143" CO2_normed="4292554.027118" HC_normed="295.411948" PMx_normed="80.726468" NOx_normed="1682.687112" fuel_normed="1845.168170" electricity_normed="0"
            traveltime="0.02" CO_perVeh="0.593670" CO2_perVeh="60.362193" HC_perVeh="0.004154" PMx_perVeh="0.001135" NOx_perVeh="0.023662" fuel_perVeh="0.025947" electricity_perVeh="0"/>
        <edge id=":1110673621_0" sampledSeconds="42.22" CO_abs="1126.842266" CO2_abs="106863.263452" HC_abs="7.614048" PMx_abs="1.656867" NOx_abs="41.642277" fuel_abs="45.935913" electricity_abs="0"
            CO_normed="1703.036170" CO2_normed="161506.191616" HC_normed="11.507378" PMx_normed="2.504082" NOx_normed="62.935432" fuel_normed="69.424554" electricity_normed="0"
            traveltime="0.02" CO_perVeh="0.531529" CO2_perVeh="50.407200" HC_perVeh="0.003592" PMx_perVeh="0.000782" NOx_perVeh="0.019643" fuel_perVeh="0.021668" electricity_perVeh="0"/>
        <edge id=":1110673630_0" sampledSeconds="288.18" CO_abs="1540.995332" CO2_abs="130480.342716" HC_abs="9.991412" PMx_abs="1.725541" NOx_abs="49.359424" fuel_abs="56.088431" electricity_abs="0"
            CO_normed="41.529247" CO2_normed="3516.396405" HC_normed="0.269265" PMx_normed="0.046503" NOx_normed="1.330218" fuel_normed="1.511562" electricity_normed="0"
            traveltime="1.30" CO_perVeh="6.933890" CO2_perVeh="587.111709" HC_perVeh="0.044958" PMx_perVeh="0.007764" NOx_perVeh="0.222099" fuel_perVeh="0.252377" electricity_perVeh="0"/>
        <edge id=":1110673630_1" sampledSeconds="337.79" CO_abs="1222.859248" CO2_abs="97107.135899" HC_abs="7.791645" PMx_abs="1.353380" NOx_abs="37.272135" fuel_abs="41.742535" electricity_abs="0"
            CO_normed="40.177174" CO2_normed="3190.465532" HC_normed="0.255995" PMx_normed="0.044465" NOx_normed="1.224580" fuel_normed="1.371456" electricity_normed="0"
            traveltime="1.08" CO_perVeh="3.898238" CO2_perVeh="309.558719" HC_perVeh="0.024838" PMx_perVeh="0.004314" NOx_perVeh="0.118816" fuel_perVeh="0.133067" electricity_perVeh="0"/>
        <edge id=":1110673650_0" sampledSeconds="200.55" CO_abs="2918.074390" CO2_abs="378850.958001" HC_abs="21.883089" PMx_abs="5.068879" NOx_abs="140.517384" fuel_abs="162.852192" electricity_abs="0"
            CO_normed="3675.156662" CO2_normed="477142.264485" HC_normed="27.560565" PMx_normed="6.383979" NOx_normed="176.974035" fuel_normed="205.103516" electricity_normed="0"
            traveltime="0.02" CO_perVeh="0.337259" CO2_perVeh="43.785987" HC_perVeh="0.002529" PMx_perVeh="0.000586" NOx_perVeh="0.016240" fuel_perVeh="0.018822" electricity_perVeh="0"/>
        <edge id=":1110673655_0" sampledSeconds="20.68" CO_abs="299.638416" CO2_abs="39159.292885" HC_abs="2.252246" PMx_abs="0.479785" NOx_abs="14.285626" fuel_abs="16.833006" electricity_abs="0"
            CO_normed="377.378357" CO2_normed="49319.008671" HC_normed="2.836582" PMx_normed="0.604264" NOx_normed="17.991973" fuel_normed="21.200259" electricity_normed="0"
            traveltime="0.02" CO_perVeh="0.342313" CO2_perVeh="44.736435" HC_perVeh="0.002573" PMx_perVeh="0.000548" NOx_perVeh="0.016320" fuel_perVeh="0.019230" electricity_perVeh="0"/>
        <edge id=":1110673663_0" sampledSeconds="180.05" CO_abs="3221.318099" CO2_abs="355310.532759" HC_abs="22.727742" PMx_abs="4.879600" NOx_abs="133.622177" fuel_abs="152.733263" electricity_abs="0"
            CO_normed="74.305416" CO2_normed="8195.867651" HC_normed="0.524256" PMx_normed="0.112557" NOx_normed="3.082233" fuel_normed="3.523064" electricity_normed="0"
            traveltime="1.32" CO_perVeh="23.558202" CO2_perVeh="2598.463477" HC_perVeh="0.166213" PMx_perVeh="0.035686" NOx_perVeh="0.977208" fuel_perVeh="1.116972" electricity_perVeh="0"/>
        <edge id=":1110673663_1" sampledSeconds="170.72" CO_abs="2671.885950" CO2_abs="336554.797199" HC_abs="19.903165" PMx_abs="4.528033" NOx_abs="125.247180" fuel_abs="144.670862" electricity_abs="0"
            CO_normed="61.707133" CO2_normed="7772.723849" HC_normed="0.459663" PMx_normed="0.104575" NOx_normed="2.892580" fuel_normed="3.341170" electricity_normed="0"
            traveltime="1.28" CO_perVeh="19.959042" CO2_perVeh="2514.071193" HC_perVeh="0.148677" PMx_perVeh="0.033825" NOx_perVeh="0.935599" fuel_perVeh="1.080694" electricity_perVeh="0"/>