<?xml version="1.0" encoding="UTF-8"?>

<!-- generated on Mon Nov  9 21:44:22 2020 by Eclipse SUMO sumo Version 1.7.0
<configuration xmlns:xsi="http://www.w3.org/2001/XMLSchema-instance" xsi:noNamespaceSchemaLocation="http://sumo.dlr.de/xsd/sumoConfiguration.xsd">

    <input>
        <net-file value="../dataSets/Porto/6AM7AM_Routing_SaoBento/Porto.net.xml"/>
        <route-files value="../results/Porto/6AM7AM_Routing_SaoBento/cost_co2-ttime/solution3/Porto.rou.xml"/>
        <additional-files value="moreOutputInfo.xml"/>
    </input>

    <output>
        <emission-output.precision value="6"/>
        <tripinfo-output value="../results/Porto/6AM7AM_Routing_SaoBento/cost_co2-ttime/solution3/Porto-tripinfo"/>
    </output>

    <processing>
        <collision.action value="warn"/>
        <time-to-teleport value="-1"/>
    </processing>

    <emissions>
        <device.emissions.probability value="1"/>
    </emissions>

    <gui_only>
        <quit-on-end value="true"/>
        <start value="true"/>
    </gui_only>

</configuration>
-->

<meandata xmlns:xsi="http://www.w3.org/2001/XMLSchema-instance" xsi:noNamespaceSchemaLocation="http://sumo.dlr.de/xsd/meandata_file.xsd">
    <interval begin="0.00" end="4698.00" id="emissions-detector">
        <edge id=":1092997347_0" sampledSeconds="273.61" CO_abs="34784.683443" CO2_abs="1358085.259325" HC_abs="190.473629" PMx_abs="27.755038" NOx_abs="589.899937" fuel_abs="583.787830" electricity_abs="0"
            CO_normed="60579.386003" CO2_normed="2365178.090082" HC_normed="331.720008" PMx_normed="48.336882" NOx_normed="1027.342279" fuel_normed="1016.697719" electricity_normed="0"
            traveltime="0.08" CO_perVeh="9.766334" CO2_perVeh="381.303282" HC_perVeh="0.053478" PMx_perVeh="0.007793" NOx_perVeh="0.165623" fuel_perVeh="0.163907" electricity_perVeh="0"/>
        <edge id=":1103427051_0" sampledSeconds="11.21" CO_abs="813.588944" CO2_abs="45015.028456" HC_abs="4.775734" PMx_abs="0.898856" NOx_abs="19.325544" fuel_abs="19.349955" electricity_abs="0"
            CO_normed="2149.792427" CO2_normed="118945.774756" HC_normed="12.619194" PMx_normed="2.375097" NOx_normed="51.064987" fuel_normed="51.129488" electricity_normed="0"
            traveltime="0.03" CO_perVeh="2.229221" CO2_perVeh="123.340497" HC_perVeh="0.013085" PMx_perVeh="0.002463" NOx_perVeh="0.052952" fuel_perVeh="0.053019" electricity_perVeh="0"/>
        <edge id=":1105984386_0" sampledSeconds="22.87" CO_abs="353.257485" CO2_abs="31538.893542" HC_abs="2.318045" PMx_abs="0.364353" NOx_abs="11.583615" fuel_abs="13.557410" electricity_abs="0"
            CO_normed="27.878001" CO2_normed="2488.953091" HC_normed="0.182933" PMx_normed="0.028754" NOx_normed="0.914143" fuel_normed="1.069909" electricity_normed="0"
            traveltime="0.96" CO_perVeh="14.825943" CO2_perVeh="1323.662933" HC_perVeh="0.097287" PMx_perVeh="0.015292" NOx_perVeh="0.486155" fuel_perVeh="0.568994" electricity_perVeh="0"/>
        <edge id=":1105984390_0" sampledSeconds="23.73" CO_abs="0" CO2_abs="0" HC_abs="0" PMx_abs="0" NOx_abs="0" fuel_abs="0" electricity_abs="0"
            CO_normed="0" CO2_normed="0" HC_normed="0" PMx_normed="0" NOx_normed="0" fuel_normed="0" electricity_normed="0"
            traveltime="1.08" CO_perVeh="0" CO2_perVeh="0" HC_perVeh="0" PMx_perVeh="0" NOx_perVeh="0" fuel_perVeh="0" electricity_perVeh="0"/>
        <edge id=":1105984390_1" sampledSeconds="646.29" CO_abs="14900.794991" CO2_abs="1924507.415336" HC_abs="113.822562" PMx_abs="34.067725" NOx_abs="720.678296" fuel_abs="827.257538" electricity_abs="0"
            CO_normed="869.629376" CO2_normed="112316.704183" HC_normed="6.642830" PMx_normed="1.988236" NOx_normed="42.059703" fuel_normed="48.279804" electricity_normed="0"
            traveltime="0.64" CO_perVeh="14.669977" CO2_perVeh="1894.696242" HC_perVeh="0.112059" PMx_perVeh="0.033540" NOx_perVeh="0.709515" fuel_perVeh="0.814443" electricity_perVeh="0"/>
        <edge id=":1105984395_0" sampledSeconds="9.00" CO_abs="179.765770" CO2_abs="15402.988231" HC_abs="1.167259" PMx_abs="0.191248" NOx_abs="5.753106" fuel_abs="6.621163" electricity_abs="0"
            CO_normed="149.729944" CO2_normed="12829.408822" HC_normed="0.972229" PMx_normed="0.159294" NOx_normed="4.791859" fuel_normed="5.514878" electricity_normed="0"
            traveltime="0.09" CO_perVeh="1.823021" CO2_perVeh="156.203143" HC_perVeh="0.011837" PMx_perVeh="0.001939" NOx_perVeh="0.058343" fuel_perVeh="0.067146" electricity_perVeh="0"/>
        <edge id=":1105984398_0" sampledSeconds="23.58" CO_abs="1347.485479" CO2_abs="97005.946263" HC_abs="8.417769" PMx_abs="1.698580" NOx_abs="39.609708" fuel_abs="41.698602" electricity_abs="0"
            CO_normed="85.405783" CO2_normed="6148.391930" HC_normed="0.533532" PMx_normed="0.107659" NOx_normed="2.510527" fuel_normed="2.642924" electricity_normed="0"
            traveltime="1.10" CO_perVeh="62.846676" CO2_perVeh="4524.353941" HC_perVeh="0.392604" PMx_perVeh="0.079222" NOx_perVeh="1.847395" fuel_perVeh="1.944821" electricity_perVeh="0"/>
        <edge id=":1105984398_1" sampledSeconds="452.71" CO_abs="7595.845148" CO2_abs="898699.104403" HC_abs="55.248003" PMx_abs="12.821195" NOx_abs="339.384646" fuel_abs="386.312474" electricity_abs="0"
            CO_normed="466.018494" CO2_normed="55136.774824" HC_normed="3.389562" PMx_normed="0.786603" NOx_normed="20.821846" fuel_normed="23.700952" electricity_normed="0"
            traveltime="0.96" CO_perVeh="16.039971" CO2_perVeh="1897.762112" HC_perVeh="0.116666" PMx_perVeh="0.027074" NOx_perVeh="0.716671" fuel_perVeh="0.815767" electricity_perVeh="0"/>
        <edge id=":1106006327_0" sampledSeconds="197.43" CO_abs="26648.763650" CO2_abs="870305.075109" HC_abs="141.832841" PMx_abs="18.151932" NOx_abs="380.947816" fuel_abs="374.113285" electricity_abs="0"
            CO_normed="2304.797804" CO2_normed="75270.930101" HC_normed="12.266836" PMx_normed="1.569924" NOx_normed="32.947408" fuel_normed="32.356303" electricity_normed="0"
            traveltime="2.07" CO_perVeh="279.808544" CO2_perVeh="9138.089836" HC_perVeh="1.489226" PMx_perVeh="0.190593" NOx_perVeh="3.999902" fuel_perVeh="3.928141" electricity_perVeh="0"/>
        <edge id=":1106006327_1" sampledSeconds="159.75" CO_abs="21794.267928" CO2_abs="735789.226915" HC_abs="116.593352" PMx_abs="15.389920" NOx_abs="322.272921" fuel_abs="316.289005" electricity_abs="0"
            CO_normed="1643.758706" CO2_normed="55494.405747" HC_normed="8.793658" PMx_normed="1.160733" NOx_normed="24.306342" fuel_normed="23.855025" electricity_normed="0"
            traveltime="2.27" CO_perVeh="309.398439" CO2_perVeh="10445.500566" HC_perVeh="1.655197" PMx_perVeh="0.218480" NOx_perVeh="4.575090" fuel_perVeh="4.490140" electricity_perVeh="0"/>
        <edge id=":1106006327_2" sampledSeconds="0.00" CO_abs="0" CO2_abs="0" HC_abs="0" PMx_abs="0" NOx_abs="0" fuel_abs="0" electricity_abs="0"
            CO_normed="0" CO2_normed="0" HC_normed="0" PMx_normed="0" NOx_normed="0" fuel_normed="0" electricity_normed="0"/>
        <edge id=":1106006327_3" sampledSeconds="0.00" CO_abs="0" CO2_abs="0" HC_abs="0" PMx_abs="0" NOx_abs="0" fuel_abs="0" electricity_abs="0"
            CO_normed="0" CO2_normed="0" HC_normed="0" PMx_normed="0" NOx_normed="0" fuel_normed="0" electricity_normed="0"/>
        <edge id=":1107381198_0" sampledSeconds="0.00" CO_abs="0" CO2_abs="0" HC_abs="0" PMx_abs="0" NOx_abs="0" fuel_abs="0" electricity_abs="0"
            CO_normed="0" CO2_normed="0" HC_normed="0" PMx_normed="0" NOx_normed="0" fuel_normed="0" electricity_normed="0"/>
        <edge id=":1107381198_1" sampledSeconds="36.50" CO_abs="1311.912684" CO2_abs="54977.682597" HC_abs="7.244833" PMx_abs="0.965953" NOx_abs="22.875867" fuel_abs="23.632916" electricity_abs="0"
            CO_normed="109.628907" CO2_normed="4594.164930" HC_normed="0.605408" PMx_normed="0.080719" NOx_normed="1.911603" fuel_normed="1.974865" electricity_normed="0"
            traveltime="1.50" CO_perVeh="54.015083" CO2_perVeh="2263.583645" HC_perVeh="0.298290" PMx_perVeh="0.039771" NOx_perVeh="0.941863" fuel_perVeh="0.973033" electricity_perVeh="0"/>
        <edge id=":1110338277_0" sampledSeconds="96.56" CO_abs="1743.037079" CO2_abs="198227.008627" HC_abs="12.474799" PMx_abs="2.803709" NOx_abs="74.925463" fuel_abs="85.209419" electricity_abs="0"
            CO_normed="4770.216417" CO2_normed="542493.181793" HC_normed="34.140117" PMx_normed="7.672985" NOx_normed="205.050528" fuel_normed="233.194908" electricity_normed="0"
            traveltime="0.02" CO_perVeh="0.393613" CO2_perVeh="44.763631" HC_perVeh="0.002817" PMx_perVeh="0.000633" NOx_perVeh="0.016920" fuel_perVeh="0.019242" electricity_perVeh="0"/>
        <edge id=":1110338293_0" sampledSeconds="123.86" CO_abs="6373.011612" CO2_abs="434568.891592" HC_abs="39.240795" PMx_abs="7.686035" NOx_abs="178.345780" fuel_abs="186.802236" electricity_abs="0"
            CO_normed="16278.446008" CO2_normed="1110009.940210" HC_normed="100.231916" PMx_normed="19.632273" NOx_normed="455.544775" fuel_normed="477.144918" electricity_normed="0"
            traveltime="0.03" CO_perVeh="1.461756" CO2_perVeh="99.675574" HC_perVeh="0.009001" PMx_perVeh="0.001763" NOx_perVeh="0.040907" fuel_perVeh="0.042846" electricity_perVeh="0"/>
        <edge id=":1110338295_0" sampledSeconds="0.00" CO_abs="0" CO2_abs="0" HC_abs="0" PMx_abs="0" NOx_abs="0" fuel_abs="0" electricity_abs="0"
            CO_normed="0" CO2_normed="0" HC_normed="0" PMx_normed="0" NOx_normed="0" fuel_normed="0" electricity_normed="0"/>
        <edge id=":1110673403_0" sampledSeconds="143.72" CO_abs="2375.007899" CO2_abs="292151.287822" HC_abs="17.522150" PMx_abs="4.048053" NOx_abs="109.461118" fuel_abs="125.583511" electricity_abs="0"
            CO_normed="6066.431415" CO2_normed="746235.728792" HC_normed="44.756450" PMx_normed="10.339853" NOx_normed="279.594172" fuel_normed="320.775253" electricity_normed="0"
            traveltime="0.02" CO_perVeh="0.381325" CO2_perVeh="46.907023" HC_perVeh="0.002813" PMx_perVeh="0.000650" NOx_perVeh="0.017575" fuel_perVeh="0.020163" electricity_perVeh="0"/>
        <edge id=":1110673412_0" sampledSeconds="253.08" CO_abs="45183.233724" CO2_abs="3077700.370373" HC_abs="281.065875" PMx_abs="67.675746" NOx_abs="1323.185603" fuel_abs="1322.951778" electricity_abs="0"
            CO_normed="119390.233118" CO2_normed="8132383.063477" HC_normed="742.676379" PMx_normed="178.823481" NOx_normed="3496.328717" fuel_normed="3495.710867" electricity_normed="0"
            traveltime="0.02" CO_perVeh="2.777714" CO2_perVeh="189.206697" HC_perVeh="0.017279" PMx_perVeh="0.004160" NOx_perVeh="0.081345" fuel_perVeh="0.081331" electricity_perVeh="0"/>
        <edge id=":1110673414_0" sampledSeconds="0.00" CO_abs="0" CO2_abs="0" HC_abs="0" PMx_abs="0" NOx_abs="0" fuel_abs="0" electricity_abs="0"
            CO_normed="0" CO2_normed="0" HC_normed="0" PMx_normed="0" NOx_normed="0" fuel_normed="0" electricity_normed="0"/>
        <edge id=":1110673414_1" sampledSeconds="14.47" CO_abs="860.183463" CO2_abs="31209.146693" HC_abs="4.640363" PMx_abs="0.577203" NOx_abs="13.175589" fuel_abs="13.415737" electricity_abs="0"
            CO_normed="72.994952" CO2_normed="2648.400325" HC_normed="0.393780" PMx_normed="0.048981" NOx_normed="1.118077" fuel_normed="1.138456" electricity_normed="0"
            traveltime="1.58" CO_perVeh="93.946017" CO2_perVeh="3408.546137" HC_perVeh="0.506803" PMx_perVeh="0.063040" NOx_perVeh="1.438988" fuel_perVeh="1.465217" electricity_perVeh="0"/>
        <edge id=":1110673417_0" sampledSeconds="29.60" CO_abs="451.689690" CO2_abs="52224.268968" HC_abs="3.265047" PMx_abs="0.730399" NOx_abs="19.679967" fuel_abs="22.449017" electricity_abs="0"
            CO_normed="1236.151314" CO2_normed="142923.560395" HC_normed="8.935543" PMx_normed="1.998903" NOx_normed="53.858695" fuel_normed="61.436829" electricity_normed="0"
            traveltime="0.02" CO_perVeh="0.335250" CO2_perVeh="38.761552" HC_perVeh="0.002423" PMx_perVeh="0.000542" NOx_perVeh="0.014607" fuel_perVeh="0.016662" electricity_perVeh="0"/>
        <edge id=":1110673446_0" sampledSeconds="333.98" CO_abs="3197.698385" CO2_abs="253913.307938" HC_abs="20.590972" PMx_abs="4.688555" NOx_abs="104.185629" fuel_abs="109.145650" electricity_abs="0"
            CO_normed="8167.811966" CO2_normed="648565.282089" HC_normed="52.595076" PMx_normed="11.975876" NOx_normed="266.119103" fuel_normed="278.788378" electricity_normed="0"
            traveltime="0.02" CO_perVeh="0.218446" CO2_perVeh="17.345730" HC_perVeh="0.001407" PMx_perVeh="0.000320" NOx_perVeh="0.007117" fuel_perVeh="0.007456" electricity_perVeh="0"/>
        <edge id=":1110673451_0" sampledSeconds="37.25" CO_abs="355.325187" CO2_abs="25301.585450" HC_abs="2.199600" PMx_abs="0.374374" NOx_abs="9.901411" fuel_abs="10.876149" electricity_abs="0"
            CO_normed="1008.443840" CO2_normed="71808.104015" HC_normed="6.242658" PMx_normed="1.062506" NOx_normed="28.101067" fuel_normed="30.867458" electricity_normed="0"
            traveltime="0.03" CO_perVeh="0.254815" CO2_perVeh="18.144563" HC_perVeh="0.001577" PMx_perVeh="0.000268" NOx_perVeh="0.007101" fuel_perVeh="0.007800" electricity_perVeh="0"/>
        <edge id=":1110673464_0" sampledSeconds="324.16" CO_abs="778.229568" CO2_abs="55398.056411" HC_abs="4.810125" PMx_abs="0.782307" NOx_abs="21.424406" fuel_abs="23.813487" electricity_abs="0"
            CO_normed="42.234029" CO2_normed="3006.417701" HC_normed="0.261042" PMx_normed="0.042455" NOx_normed="1.162689" fuel_normed="1.292343" electricity_normed="0"
            traveltime="1.17" CO_perVeh="2.813197" CO2_perVeh="200.256665" HC_perVeh="0.017388" PMx_perVeh="0.002828" NOx_perVeh="0.077446" fuel_perVeh="0.086083" electricity_perVeh="0"/>
        <edge id=":1110673464_1" sampledSeconds="709.14" CO_abs="16452.529326" CO2_abs="2060738.022594" HC_abs="124.348943" PMx_abs="36.812442" NOx_abs="776.073991" fuel_abs="885.816552" electricity_abs="0"
            CO_normed="874.899526" CO2_normed="109584.288401" HC_normed="6.612529" PMx_normed="1.957583" NOx_normed="41.269446" fuel_normed="47.105248" electricity_normed="0"
            traveltime="0.70" CO_perVeh="16.233572" CO2_perVeh="2033.312829" HC_perVeh="0.122694" PMx_perVeh="0.036323" NOx_perVeh="0.765746" fuel_perVeh="0.874028" electricity_perVeh="0"/>
        <edge id=":1110673479_0" sampledSeconds="133.52" CO_abs="7293.745764" CO2_abs="501702.347937" HC_abs="45.011910" PMx_abs="8.857387" NOx_abs="205.748994" fuel_abs="215.659958" electricity_abs="0"
            CO_normed="18630.257379" CO2_normed="1281487.478767" HC_normed="114.972951" PMx_normed="22.624232" NOx_normed="525.540216" fuel_normed="550.855577" electricity_normed="0"
            traveltime="0.03" CO_perVeh="1.536496" CO2_perVeh="105.688297" HC_perVeh="0.009482" PMx_perVeh="0.001866" NOx_perVeh="0.043343" fuel_perVeh="0.045431" electricity_perVeh="0"/>
        <edge id=":1110673511_0" sampledSeconds="11.87" CO_abs="170.908675" CO2_abs="18166.915245" HC_abs="1.200235" PMx_abs="0.265645" NOx_abs="6.928848" fuel_abs="7.809186" electricity_abs="0"
            CO_normed="436.548339" CO2_normed="46403.359502" HC_normed="3.065734" PMx_normed="0.678531" NOx_normed="17.698206" fuel_normed="19.946836" electricity_normed="0"
            traveltime="0.02" CO_perVeh="0.338433" CO2_perVeh="35.974090" HC_perVeh="0.002377" PMx_perVeh="0.000526" NOx_perVeh="0.013720" fuel_perVeh="0.015464" electricity_perVeh="0"/>
        <edge id=":1110673517_0" sampledSeconds="16.96" CO_abs="823.694231" CO2_abs="59758.033625" HC_abs="5.154488" PMx_abs="1.033631" NOx_abs="24.298801" fuel_abs="25.687374" electricity_abs="0"
            CO_normed="2103.944397" CO2_normed="152638.655493" HC_normed="13.165997" PMx_normed="2.640182" NOx_normed="62.065902" fuel_normed="65.612704" electricity_normed="0"
            traveltime="0.03" CO_perVeh="1.322495" CO2_perVeh="95.945465" HC_perVeh="0.008276" PMx_perVeh="0.001660" NOx_perVeh="0.039013" fuel_perVeh="0.041243" electricity_perVeh="0"/>
        <edge id=":1110673534_0" sampledSeconds="476.19" CO_abs="2769.436888" CO2_abs="238487.893837" HC_abs="18.049245" PMx_abs="3.156060" NOx_abs="90.226749" fuel_abs="102.516638" electricity_abs="0"
            CO_normed="137.091335" CO2_normed="11805.513174" HC_normed="0.893465" PMx_normed="0.156230" NOx_normed="4.466361" fuel_normed="5.074729" electricity_normed="0"
            traveltime="1.43" CO_perVeh="8.343216" CO2_perVeh="718.469511" HC_perVeh="0.054375" PMx_perVeh="0.009508" NOx_perVeh="0.271817" fuel_perVeh="0.308842" electricity_perVeh="0"/>
        <edge id=":1110673534_1" sampledSeconds="184.85" CO_abs="2645.840416" CO2_abs="341940.334695" HC_abs="19.737376" PMx_abs="4.488877" NOx_abs="126.339909" fuel_abs="146.985983" electricity_abs="0"
            CO_normed="127.353261" CO2_normed="16458.746544" HC_normed="0.950027" PMx_normed="0.216065" NOx_normed="6.081168" fuel_normed="7.074933" electricity_normed="0"
            traveltime="1.23" CO_perVeh="17.567430" CO2_perVeh="2270.361063" HC_perVeh="0.131049" PMx_perVeh="0.029805" NOx_perVeh="0.838852" fuel_perVeh="0.975934" electricity_perVeh="0"/>
        <edge id=":1110673549_0" sampledSeconds="60.02" CO_abs="138.439871" CO2_abs="18937.972150" HC_abs="1.069959" PMx_abs="0.262567" NOx_abs="7.049847" fuel_abs="8.140627" electricity_abs="0"
            CO_normed="6.638560" CO2_normed="908.126161" HC_normed="0.051307" PMx_normed="0.012591" NOx_normed="0.338059" fuel_normed="0.390365" electricity_normed="0"
            traveltime="1.25" CO_perVeh="2.884277" CO2_perVeh="394.556518" HC_perVeh="0.022292" PMx_perVeh="0.005470" NOx_perVeh="0.146878" fuel_perVeh="0.169603" electricity_perVeh="0"/>
        <edge id=":1110673549_1" sampledSeconds="639.05" CO_abs="13297.009013" CO2_abs="1748918.445840" HC_abs="102.586819" PMx_abs="30.843548" NOx_abs="653.263237" fuel_abs="751.780000" electricity_abs="0"
            CO_normed="616.784439" CO2_normed="81123.934107" HC_normed="4.758510" PMx_normed="1.430684" NOx_normed="30.301747" fuel_normed="34.871467" electricity_normed="0"
            traveltime="0.80" CO_perVeh="16.738300" CO2_perVeh="2201.541859" HC_perVeh="0.129136" PMx_perVeh="0.038826" NOx_perVeh="0.822329" fuel_perVeh="0.946342" electricity_perVeh="0"/>
        <edge id=":1110673556_0" sampledSeconds="417.88" CO_abs="50899.509855" CO2_abs="2555547.491208" HC_abs="292.508896" PMx_abs="51.438295" NOx_abs="1099.894850" fuel_abs="1098.519368" electricity_abs="0"
            CO_normed="1809.905143" CO2_normed="90871.180493" HC_normed="10.401148" PMx_normed="1.829063" NOx_normed="39.110501" fuel_normed="39.061591" electricity_normed="0"
            traveltime="2.59" CO_perVeh="315.959338" CO2_perVeh="15863.592705" HC_perVeh="1.815753" PMx_perVeh="0.319304" NOx_perVeh="6.827611" fuel_perVeh="6.819073" electricity_perVeh="0"/>
        <edge id=":1110673556_2" sampledSeconds="249.12" CO_abs="23871.216488" CO2_abs="1019623.085185" HC_abs="132.606093" PMx_abs="19.521594" NOx_abs="433.875709" fuel_abs="438.296299" electricity_abs="0"
            CO_normed="887.536143" CO2_normed="37909.770587" HC_normed="4.930318" PMx_normed="0.725816" NOx_normed="16.131577" fuel_normed="16.295936" electricity_normed="0"
            traveltime="3.02" CO_perVeh="289.553282" CO2_perVeh="12367.832634" HC_perVeh="1.608486" PMx_perVeh="0.236793" NOx_perVeh="5.262829" fuel_perVeh="5.316450" electricity_perVeh="0"/>
        <edge id=":1110673556_3" sampledSeconds="416.56" CO_abs="36075.223593" CO2_abs="1284670.759552" HC_abs="194.161660" PMx_abs="24.491110" NOx_abs="547.736868" fuel_abs="552.235094" electricity_abs="0"
            CO_normed="3051.197516" CO2_normed="108655.854081" HC_normed="16.421952" PMx_normed="2.071428" NOx_normed="46.326903" fuel_normed="46.707357" electricity_normed="0"
            traveltime="1.74" CO_perVeh="150.745341" CO2_perVeh="5368.175504" HC_perVeh="0.811332" PMx_perVeh="0.102340" NOx_perVeh="2.288795" fuel_perVeh="2.307591" electricity_perVeh="0"/>
        <edge id=":1110673556_4" sampledSeconds="195.43" CO_abs="19700.849669" CO2_abs="790174.153183" HC_abs="108.240346" PMx_abs="15.381663" NOx_abs="338.393875" fuel_abs="339.665717" electricity_abs="0"
            CO_normed="1017.966050" CO2_normed="40829.226931" HC_normed="5.592906" PMx_normed="0.794789" NOx_normed="17.485209" fuel_normed="17.550927" electricity_normed="0"
            traveltime="2.39" CO_perVeh="240.669874" CO2_perVeh="9652.939711" HC_perVeh="1.322288" PMx_perVeh="0.187906" NOx_perVeh="4.133893" fuel_perVeh="4.149430" electricity_perVeh="0"/>
        <edge id=":1110673556_5" sampledSeconds="24.56" CO_abs="2012.214324" CO2_abs="81775.973865" HC_abs="11.073754" PMx_abs="1.553470" NOx_abs="34.787355" fuel_abs="35.152405" electricity_abs="0"
            CO_normed="144.917922" CO2_normed="5889.434352" HC_normed="0.797522" PMx_normed="0.111880" NOx_normed="2.505355" fuel_normed="2.531646" electricity_normed="0"
            traveltime="1.70" CO_perVeh="139.116052" CO2_perVeh="5653.647576" HC_perVeh="0.765593" PMx_perVeh="0.107400" NOx_perVeh="2.405052" fuel_perVeh="2.430290" electricity_perVeh="0"/>
        <edge id=":1110673556_6" sampledSeconds="484.63" CO_abs="56374.028394" CO2_abs="2782990.341803" HC_abs="322.787005" PMx_abs="55.899015" NOx_abs="1197.308545" fuel_abs="1196.288173" electricity_abs="0"
            CO_normed="2055.113663" CO2_normed="101453.836769" HC_normed="11.767191" PMx_normed="2.037797" NOx_normed="43.647850" fuel_normed="43.610653" electricity_normed="0"
            traveltime="2.60" CO_perVeh="302.519779" CO2_perVeh="14934.352722" HC_perVeh="1.732171" PMx_perVeh="0.299971" NOx_perVeh="6.425113" fuel_perVeh="6.419638" electricity_perVeh="0"/>
        <edge id=":1110673561_0" sampledSeconds="99.61" CO_abs="9841.182204" CO2_abs="714402.225130" HC_abs="61.973746" PMx_abs="14.377581" NOx_abs="301.412666" fuel_abs="307.087498" electricity_abs="0"
            CO_normed="450.755277" CO2_normed="32721.736717" HC_normed="2.838581" PMx_normed="0.658536" NOx_normed="13.805592" fuel_normed="14.065516" electricity_normed="0"
            traveltime="1.18" CO_perVeh="116.135502" CO2_perVeh="8430.639655" HC_perVeh="0.731350" PMx_perVeh="0.169669" NOx_perVeh="3.556962" fuel_perVeh="3.623931" electricity_perVeh="0"/>
        <edge id=":1110673561_1" sampledSeconds="1317.09" CO_abs="121358.444513" CO2_abs="8383064.051695" HC_abs="755.474217" PMx_abs="175.454407" NOx_abs="3586.453917" fuel_abs="3603.474232" electricity_abs="0"
            CO_normed="5419.287683" CO2_normed="374347.544932" HC_normed="33.735865" PMx_normed="7.834955" NOx_normed="160.153878" fuel_normed="160.913924" electricity_normed="0"
            traveltime="1.20" CO_perVeh="110.119276" CO2_perVeh="7606.697264" HC_perVeh="0.685509" PMx_perVeh="0.159205" NOx_perVeh="3.254308" fuel_perVeh="3.269752" electricity_perVeh="0"/>
        <edge id=":1110673562_0" sampledSeconds="104.15" CO_abs="2284.477794" CO2_abs="179960.176912" HC_abs="14.496412" PMx_abs="2.378900" NOx_abs="68.292698" fuel_abs="77.358004" electricity_abs="0"
            CO_normed="6483.547025" CO2_normed="510742.661876" HC_normed="41.142081" PMx_normed="6.751527" NOx_normed="193.820628" fuel_normed="219.548755" electricity_normed="0"
            traveltime="0.03" CO_perVeh="0.582324" CO2_perVeh="45.872668" HC_perVeh="0.003695" PMx_perVeh="0.000606" NOx_perVeh="0.017408" fuel_perVeh="0.019719" electricity_perVeh="0"/>
        <edge id=":1110673564_0" sampledSeconds="28.30" CO_abs="469.849994" CO2_abs="57972.377934" HC_abs="3.479168" PMx_abs="0.791319" NOx_abs="21.638871" fuel_abs="24.919899" electricity_abs="0"
            CO_normed="3600.383093" CO2_normed="444232.781104" HC_normed="26.660294" PMx_normed="6.063748" NOx_normed="165.815106" fuel_normed="190.957078" electricity_normed="0"
            traveltime="7.779513e-03" CO_perVeh="0.129173" CO2_perVeh="15.937937" HC_perVeh="0.000957" PMx_perVeh="0.000218" NOx_perVeh="0.005949" fuel_perVeh="0.006851" electricity_perVeh="0"/>
        <edge id=":1110673588_0" sampledSeconds="11.70" CO_abs="209.729255" CO2_abs="24142.333906" HC_abs="1.510473" PMx_abs="0.322910" NOx_abs="9.017164" fuel_abs="10.377796" electricity_abs="0"
            CO_normed="642.848290" CO2_normed="73999.490898" HC_normed="4.629802" PMx_normed="0.989762" NOx_normed="27.638816" fuel_normed="31.809336" electricity_normed="0"
            traveltime="0.02" CO_perVeh="0.349549" CO2_perVeh="40.237223" HC_perVeh="0.002517" PMx_perVeh="0.000538" NOx_perVeh="0.015029" fuel_perVeh="0.017296" electricity_perVeh="0"/>
        <edge id=":1110673601_0" sampledSeconds="29.57" CO_abs="424.939281" CO2_abs="51302.250585" HC_abs="3.113515" PMx_abs="0.710212" NOx_abs="19.229600" fuel_abs="22.052680" electricity_abs="0"
            CO_normed="1162.942750" CO2_normed="140400.247907" HC_normed="8.520841" PMx_normed="1.943655" NOx_normed="52.626164" fuel_normed="60.352161" electricity_normed="0"
            traveltime="0.02" CO_perVeh="0.315396" CO2_perVeh="38.077217" HC_perVeh="0.002311" PMx_perVeh="0.000527" NOx_perVeh="0.014272" fuel_perVeh="0.016368" electricity_perVeh="0"/>
        <edge id=":1110673617_0" sampledSeconds="238.03" CO_abs="5862.930113" CO2_abs="724691.842963" HC_abs="44.055233" PMx_abs="12.989237" NOx_abs="273.462826" fuel_abs="311.511679" electricity_abs="0"
            CO_normed="14975.555845" CO2_normed="1851064.732983" HC_normed="112.529330" PMx_normed="33.178128" NOx_normed="698.500195" fuel_normed="795.687559" electricity_normed="0"
            traveltime="0.01" CO_perVeh="0.359326" CO2_perVeh="44.414781" HC_perVeh="0.002700" PMx_perVeh="0.000796" NOx_perVeh="0.016760" fuel_perVeh="0.019092" electricity_perVeh="0"/>
        <edge id=":1110673621_0" sampledSeconds="25.79" CO_abs="422.730712" CO2_abs="48873.399435" HC_abs="3.037346" PMx_abs="0.705486" NOx_abs="18.520243" fuel_abs="21.008585" electricity_abs="0"
            CO_normed="1295.726320" CO2_normed="149803.523172" HC_normed="9.309872" PMx_normed="2.162408" NOx_normed="56.767028" fuel_normed="64.394132" electricity_normed="0"
            traveltime="0.02" CO_perVeh="0.320251" CO2_perVeh="37.025303" HC_perVeh="0.002301" PMx_perVeh="0.000534" NOx_perVeh="0.014030" fuel_perVeh="0.015916" electricity_perVeh="0"/>
        <edge id=":1110673630_0" sampledSeconds="54.33" CO_abs="134.923998" CO2_abs="10038.639868" HC_abs="0.840323" PMx_abs="0.122381" NOx_abs="3.756733" fuel_abs="4.315248" electricity_abs="0"
            CO_normed="7.374468" CO2_normed="548.676487" HC_normed="0.045929" PMx_normed="0.006689" NOx_normed="0.205330" fuel_normed="0.235856" electricity_normed="0"
            traveltime="1.27" CO_perVeh="3.149365" CO2_perVeh="234.319611" HC_perVeh="0.019615" PMx_perVeh="0.002857" NOx_perVeh="0.087689" fuel_perVeh="0.100726" electricity_perVeh="0"/>
        <edge id=":1110673630_1" sampledSeconds="7.68" CO_abs="58.852790" CO2_abs="5234.400833" HC_abs="0.385528" PMx_abs="0.059130" NOx_abs="1.910107" fuel_abs="2.250079" electricity_abs="0"
            CO_normed="3.921559" CO2_normed="348.785663" HC_normed="0.025689" PMx_normed="0.003940" NOx_normed="0.127277" fuel_normed="0.149930" electricity_normed="0"
            traveltime="1.09" CO_perVeh="8.329933" CO2_perVeh="740.869041" HC_perVeh="0.054567" PMx_perVeh="0.008369" NOx_perVeh="0.270354" fuel_perVeh="0.318473" electricity_perVeh="0"/>
        <edge id=":1110673650_0" sampledSeconds="143.57" CO_abs="2082.692347" CO2_abs="266222.383737" HC_abs="15.509110" PMx_abs="3.588849" NOx_abs="98.980458" fuel_abs="114.437852" electricity_abs="0"
            CO_normed="5319.776111" CO2_normed="680006.088727" HC_normed="39.614586" PMx_normed="9.166920" NOx_normed="252.823648" fuel_normed="292.306134" electricity_normed="0"
            traveltime="0.02" CO_perVeh="0.334392" CO2_perVeh="42.743976" HC_perVeh="0.002490" PMx_perVeh="0.000576" NOx_perVeh="0.015892" fuel_perVeh="0.018374" electricity_perVeh="0"/>
        <edge id=":1110673655_0" sampledSeconds="44.69" CO_abs="866.608240" CO2_abs="91980.456196" HC_abs="6.064417" PMx_abs="1.329359" NOx_abs="35.067198" fuel_abs="39.538509" electricity_abs="0"
            CO_normed="2213.558723" CO2_normed="234943.693986" HC_normed="15.490210" PMx_normed="3.395553" NOx_normed="89.571386" fuel_normed="100.992361" electricity_normed="0"
            traveltime="0.02" CO_perVeh="0.463799" CO2_perVeh="49.226897" HC_perVeh="0.003246" PMx_perVeh="0.000711" NOx_perVeh="0.018768" fuel_perVeh="0.021161" electricity_perVeh="0"/>
        <edge id=":1110673663_0" sampledSeconds="107.28" CO_abs="1621.621568" CO2_abs="211731.101635" HC_abs="12.211025" PMx_abs="2.817722" NOx_abs="78.427370" fuel_abs="91.014371" electricity_abs="0"
            CO_normed="75.862142" CO2_normed="9905.131556" HC_normed="0.571252" PMx_normed="0.131818" NOx_normed="3.668962" fuel_normed="4.257803" electricity_normed="0"
            traveltime="1.26" CO_perVeh="19.046710" CO2_perVeh="2486.881674" HC_perVeh="0.143424" PMx_perVeh="0.033095" NOx_perVeh="0.921166" fuel_perVeh="1.069007" electricity_perVeh="0"/>
        <edge id=":1110673663_1" sampledSeconds="154.26" CO_abs="2179.078546" CO2_abs="281080.860855" HC_abs="16.389282" PMx_abs="3.816188" NOx_abs="104.590374" fuel_abs="120.824858" electricity_abs="0"
            CO_normed="102.065525" CO2_normed="13165.503230" HC_normed="0.767655" PMx_normed="0.178746" NOx_normed="4.898892" fuel_normed="5.659297" electricity_normed="0"
            traveltime="1.25" CO_perVeh="17.634681" CO2_perVeh="2274.709770" HC_perVeh="0.132634" PMx_perVeh="0.030883" NOx_perVeh="0.846421" fuel_perVeh="0.977802" electricity_perVeh="0"/>
        <edge id=":1110673666_0" sampledSeconds="191.98" CO_abs="4222.551580" CO2_abs="344297.944009" HC_abs="27.069577" PMx_abs="4.564151" NOx_abs="130.574821" fuel_abs="148.000401" electricity_abs="0"
            CO_normed="264.568414" CO2_normed="21572.350135" HC_normed="1.696073" PMx_normed="0.285972" NOx_normed="8.181303" fuel_normed="9.273121" electricity_normed="0"