<?xml version="1.0" encoding="UTF-8"?>

<!-- generated on Tue Nov 10 16:19:22 2020 by Eclipse SUMO sumo Version 1.7.0
<configuration xmlns:xsi="http://www.w3.org/2001/XMLSchema-instance" xsi:noNamespaceSchemaLocation="http://sumo.dlr.de/xsd/sumoConfiguration.xsd">

    <input>
        <net-file value="../dataSets/Porto/8AM9AM_Routing_SaoBento/Porto.net.xml"/>
        <route-files value="../results/Porto/8AM9AM_Routing_SaoBento/cost_co-cost_co2/solution8/Porto.rou.xml"/>
        <additional-files value="moreOutputInfo.xml"/>
    </input>

    <output>
        <emission-output.precision value="6"/>
        <tripinfo-output value="../results/Porto/8AM9AM_Routing_SaoBento/cost_co-cost_co2/solution8/Porto-tripinfo"/>
    </output>

    <processing>
        <collision.action value="warn"/>
        <time-to-teleport value="-1"/>
    </processing>

    <emissions>
        <device.emissions.probability value="1"/>
    </emissions>

    <gui_only>
        <quit-on-end value="true"/>
        <start value="true"/>
    </gui_only>

</configuration>
-->

<meandata xmlns:xsi="http://www.w3.org/2001/XMLSchema-instance" xsi:noNamespaceSchemaLocation="http://sumo.dlr.de/xsd/meandata_file.xsd">
    <interval begin="0.00" end="8471.00" id="emissions-detector">
        <edge id=":1092997347_0" sampledSeconds="581.23" CO_abs="70914.513937" CO2_abs="3074301.411740" HC_abs="395.662788" PMx_abs="62.158715" NOx_abs="1329.684109" fuel_abs="1321.516615" electricity_abs="0"
            CO_normed="68493.644137" CO2_normed="2969351.338327" HC_normed="382.155707" PMx_normed="60.036749" NOx_normed="1284.291538" fuel_normed="1276.402865" electricity_normed="0"
            traveltime="0.07" CO_perVeh="8.108555" CO2_perVeh="351.523851" HC_perVeh="0.045241" PMx_perVeh="0.007107" NOx_perVeh="0.152040" fuel_perVeh="0.151106" electricity_perVeh="0"/>
        <edge id=":1103427051_0" sampledSeconds="19.37" CO_abs="1609.906669" CO2_abs="90476.396691" HC_abs="9.480589" PMx_abs="1.784945" NOx_abs="38.666039" fuel_abs="38.891786" electricity_abs="0"
            CO_normed="2359.231296" CO2_normed="132588.274025" HC_normed="13.893291" PMx_normed="2.615741" NOx_normed="56.662993" fuel_normed="56.993812" electricity_normed="0"
            traveltime="0.03" CO_perVeh="2.503609" CO2_perVeh="140.702247" HC_perVeh="0.014744" PMx_perVeh="0.002776" NOx_perVeh="0.060131" fuel_perVeh="0.060482" electricity_perVeh="0"/>
        <edge id=":1105984386_0" sampledSeconds="10.48" CO_abs="239.692829" CO2_abs="17797.086299" HC_abs="1.495182" PMx_abs="0.233300" NOx_abs="6.763522" fuel_abs="7.650300" electricity_abs="0"
            CO_normed="10.490680" CO2_normed="778.928323" HC_normed="0.065440" PMx_normed="0.010211" NOx_normed="0.296020" fuel_normed="0.334832" electricity_normed="0"
            traveltime="1.00" CO_perVeh="22.993651" CO2_perVeh="1707.268405" HC_perVeh="0.143432" PMx_perVeh="0.022380" NOx_perVeh="0.648822" fuel_perVeh="0.733891" electricity_perVeh="0"/>
        <edge id=":1105984390_0" sampledSeconds="10.67" CO_abs="10.678033" CO2_abs="790.038124" HC_abs="0.066691" PMx_abs="0.011137" NOx_abs="0.305544" fuel_abs="0.339607" electricity_abs="0"
            CO_normed="0.361301" CO2_normed="26.731678" HC_normed="0.002257" PMx_normed="0.000377" NOx_normed="0.010338" fuel_normed="0.011491" electricity_normed="0"
            traveltime="1.11" CO_perVeh="1.106842" CO2_perVeh="81.892208" HC_perVeh="0.006913" PMx_perVeh="0.001154" NOx_perVeh="0.031671" fuel_perVeh="0.035202" electricity_perVeh="0"/>
        <edge id=":1105984390_1" sampledSeconds="2398.62" CO_abs="61722.713451" CO2_abs="7432573.719347" HC_abs="458.407405" PMx_abs="133.664608" NOx_abs="2821.775724" fuel_abs="3194.920565" electricity_abs="0"
            CO_normed="1997.782034" CO2_normed="240570.470928" HC_normed="14.837295" PMx_normed="4.326329" NOx_normed="91.332551" fuel_normed="103.410148" electricity_normed="0"
            traveltime="0.65" CO_perVeh="16.665376" CO2_perVeh="2006.824197" HC_perVeh="0.123772" PMx_perVeh="0.036090" NOx_perVeh="0.761891" fuel_perVeh="0.862641" electricity_perVeh="0"/>
        <edge id=":1105984395_0" sampledSeconds="4.16" CO_abs="52.394702" CO2_abs="4606.921813" HC_abs="0.340610" PMx_abs="0.045206" NOx_abs="1.642472" fuel_abs="1.980359" electricity_abs="0"
            CO_normed="24.202898" CO2_normed="2128.094128" HC_normed="0.157340" PMx_normed="0.020882" NOx_normed="0.758714" fuel_normed="0.914795" electricity_normed="0"
            traveltime="0.10" CO_perVeh="1.214490" CO2_perVeh="106.786799" HC_perVeh="0.007895" PMx_perVeh="0.001048" NOx_perVeh="0.038072" fuel_perVeh="0.045904" electricity_perVeh="0"/>
        <edge id=":1105984398_0" sampledSeconds="11.07" CO_abs="601.891949" CO2_abs="41251.058057" HC_abs="3.710260" PMx_abs="0.726366" NOx_abs="16.919956" fuel_abs="17.732034" electricity_abs="0"
            CO_normed="21.157291" CO2_normed="1450.028741" HC_normed="0.130420" PMx_normed="0.025533" NOx_normed="0.594759" fuel_normed="0.623304" electricity_normed="0"
            traveltime="1.17" CO_perVeh="63.699446" CO2_perVeh="4365.683157" HC_perVeh="0.392664" PMx_perVeh="0.076873" NOx_perVeh="1.790673" fuel_perVeh="1.876617" electricity_perVeh="0"/>
        <edge id=":1105984398_1" sampledSeconds="646.52" CO_abs="12349.922313" CO2_abs="1439791.512883" HC_abs="89.313403" PMx_abs="20.752211" NOx_abs="545.243263" fuel_abs="618.904863" electricity_abs="0"
            CO_normed="420.213118" CO2_normed="48989.723677" HC_normed="3.038939" PMx_normed="0.706106" NOx_normed="18.552212" fuel_normed="21.058589" electricity_normed="0"
            traveltime="0.95" CO_perVeh="18.180978" CO2_perVeh="2119.593708" HC_perVeh="0.131483" PMx_perVeh="0.030550" NOx_perVeh="0.802682" fuel_perVeh="0.911123" electricity_perVeh="0"/>
        <edge id=":1106006327_0" sampledSeconds="704.54" CO_abs="95350.378882" CO2_abs="3095851.103112" HC_abs="507.057978" PMx_abs="64.658142" NOx_abs="1355.600922" fuel_abs="1330.796939" electricity_abs="0"
            CO_normed="4573.582529" CO2_normed="148495.797123" HC_normed="24.321576" PMx_normed="3.101397" NOx_normed="65.022843" fuel_normed="63.833093" electricity_normed="0"
            traveltime="2.09" CO_perVeh="283.435279" CO2_perVeh="9202.621217" HC_perVeh="1.507263" PMx_perVeh="0.192201" NOx_perVeh="4.029613" fuel_perVeh="3.955882" electricity_perVeh="0"/>
        <edge id=":1106006327_1" sampledSeconds="681.10" CO_abs="92289.130265" CO2_abs="3090789.380152" HC_abs="493.082098" PMx_abs="64.502887" NOx_abs="1352.842975" fuel_abs="1328.618696" electricity_abs="0"
            CO_normed="3860.332066" CO2_normed="129283.625474" HC_normed="20.624971" PMx_normed="2.698070" NOx_normed="56.587630" fuel_normed="55.574360" electricity_normed="0"
            traveltime="2.29" CO_perVeh="309.792272" CO2_perVeh="10375.031834" HC_perVeh="1.655157" PMx_perVeh="0.216521" NOx_perVeh="4.541166" fuel_perVeh="4.459851" electricity_perVeh="0"/>
        <edge id=":1106006327_2" sampledSeconds="0.00" CO_abs="0" CO2_abs="0" HC_abs="0" PMx_abs="0" NOx_abs="0" fuel_abs="0" electricity_abs="0"
            CO_normed="0" CO2_normed="0" HC_normed="0" PMx_normed="0" NOx_normed="0" fuel_normed="0" electricity_normed="0"/>
        <edge id=":1106006327_3" sampledSeconds="0.00" CO_abs="0" CO2_abs="0" HC_abs="0" PMx_abs="0" NOx_abs="0" fuel_abs="0" electricity_abs="0"
            CO_normed="0" CO2_normed="0" HC_normed="0" PMx_normed="0" NOx_normed="0" fuel_normed="0" electricity_normed="0"/>
        <edge id=":1107381198_0" sampledSeconds="0.00" CO_abs="0" CO2_abs="0" HC_abs="0" PMx_abs="0" NOx_abs="0" fuel_abs="0" electricity_abs="0"
            CO_normed="0" CO2_normed="0" HC_normed="0" PMx_normed="0" NOx_normed="0" fuel_normed="0" electricity_normed="0"/>
        <edge id=":1107381198_1" sampledSeconds="103.85" CO_abs="4522.005229" CO2_abs="179688.734658" HC_abs="24.734856" PMx_abs="3.143594" NOx_abs="74.718144" fuel_abs="77.241902" electricity_abs="0"
            CO_normed="209.570208" CO2_normed="8327.589977" HC_normed="1.146325" PMx_normed="0.145688" NOx_normed="3.462777" fuel_normed="3.579740" electricity_normed="0"
            traveltime="1.55" CO_perVeh="67.703089" CO2_perVeh="2690.284902" HC_perVeh="0.370328" PMx_perVeh="0.047066" NOx_perVeh="1.118674" fuel_perVeh="1.156459" electricity_perVeh="0"/>
        <edge id=":1110338277_0" sampledSeconds="159.89" CO_abs="2499.856653" CO2_abs="313016.889693" HC_abs="18.562075" PMx_abs="4.228878" NOx_abs="116.570051" fuel_abs="134.552884" electricity_abs="0"
            CO_normed="3794.240835" CO2_normed="475091.827114" HC_normed="28.173209" PMx_normed="6.418520" NOx_normed="176.928084" fuel_normed="204.222128" electricity_normed="0"
            traveltime="0.02" CO_perVeh="0.338583" CO2_perVeh="42.395334" HC_perVeh="0.002514" PMx_perVeh="0.000573" NOx_perVeh="0.015788" fuel_perVeh="0.018224" electricity_perVeh="0"/>
        <edge id=":1110338293_0" sampledSeconds="6957.34" CO_abs="669030.435357" CO2_abs="11609425.345664" HC_abs="3317.997066" PMx_abs="278.181708" NOx_abs="5254.305271" fuel_abs="4990.699716" electricity_abs="0"
            CO_normed="947747.045719" CO2_normed="16445886.453543" HC_normed="4700.267358" PMx_normed="394.071596" NOx_normed="7443.237310" fuel_normed="7069.814259" electricity_normed="0"
            traveltime="0.46" CO_perVeh="44.708340" CO2_perVeh="775.806467" HC_perVeh="0.221727" PMx_perVeh="0.018590" NOx_perVeh="0.351122" fuel_perVeh="0.333506" electricity_perVeh="0"/>
        <edge id=":1110338295_0" sampledSeconds="0.00" CO_abs="0" CO2_abs="0" HC_abs="0" PMx_abs="0" NOx_abs="0" fuel_abs="0" electricity_abs="0"
            CO_normed="0" CO2_normed="0" HC_normed="0" PMx_normed="0" NOx_normed="0" fuel_normed="0" electricity_normed="0"/>
        <edge id=":1110673403_0" sampledSeconds="200.70" CO_abs="2938.713797" CO2_abs="372434.536546" HC_abs="21.869516" PMx_abs="4.993300" NOx_abs="138.471046" fuel_abs="160.094065" electricity_abs="0"
            CO_normed="4162.975512" CO2_normed="527589.946706" HC_normed="30.980308" PMx_normed="7.073498" NOx_normed="196.157780" fuel_normed="226.788900" electricity_normed="0"
            traveltime="0.02" CO_perVeh="0.339644" CO2_perVeh="43.044405" HC_perVeh="0.002528" PMx_perVeh="0.000577" NOx_perVeh="0.016004" fuel_perVeh="0.018503" electricity_perVeh="0"/>
        <edge id=":1110673412_0" sampledSeconds="938.69" CO_abs="166846.919311" CO2_abs="11386534.527556" HC_abs="1038.356456" PMx_abs="250.270075" NOx_abs="4893.290595" fuel_abs="4894.510305" electricity_abs="0"
            CO_normed="244505.151254" CO2_normed="16686351.527606" HC_normed="1521.655319" PMx_normed="366.757282" NOx_normed="7170.853151" fuel_normed="7172.640570" electricity_normed="0"
            traveltime="0.02" CO_perVeh="2.756560" CO2_perVeh="188.122563" HC_perVeh="0.017155" PMx_perVeh="0.004135" NOx_perVeh="0.080844" fuel_perVeh="0.080865" electricity_perVeh="0"/>
        <edge id=":1110673414_0" sampledSeconds="0.00" CO_abs="0" CO2_abs="0" HC_abs="0" PMx_abs="0" NOx_abs="0" fuel_abs="0" electricity_abs="0"
            CO_normed="0" CO2_normed="0" HC_normed="0" PMx_normed="0" NOx_normed="0" fuel_normed="0" electricity_normed="0"/>
        <edge id=":1110673414_1" sampledSeconds="241.08" CO_abs="17900.050161" CO2_abs="695273.925436" HC_abs="97.682280" PMx_abs="12.957741" NOx_abs="294.280225" fuel_abs="298.873068" electricity_abs="0"
            CO_normed="842.430955" CO2_normed="32721.711500" HC_normed="4.597226" PMx_normed="0.609831" NOx_normed="13.849725" fuel_normed="14.065878" electricity_normed="0"
            traveltime="1.56" CO_perVeh="116.137215" CO2_perVeh="4511.002850" HC_perVeh="0.633772" PMx_perVeh="0.084071" NOx_perVeh="1.909318" fuel_perVeh="1.939117" electricity_perVeh="0"/>
        <edge id=":1110673417_0" sampledSeconds="29.26" CO_abs="533.703289" CO2_abs="58243.532900" HC_abs="3.754103" PMx_abs="0.833876" NOx_abs="22.099568" fuel_abs="25.036434" electricity_abs="0"
            CO_normed="810.045972" CO2_normed="88401.065163" HC_normed="5.697914" PMx_normed="1.265643" NOx_normed="33.542356" fuel_normed="37.999883" electricity_normed="0"
            traveltime="0.02" CO_perVeh="0.406980" CO2_perVeh="44.414142" HC_perVeh="0.002863" PMx_perVeh="0.000636" NOx_perVeh="0.016852" fuel_perVeh="0.019092" electricity_perVeh="0"/>
        <edge id=":1110673446_0" sampledSeconds="1314.46" CO_abs="13917.848623" CO2_abs="1124694.888758" HC_abs="90.038303" PMx_abs="20.614516" NOx_abs="460.046306" fuel_abs="483.454656" electricity_abs="0"
            CO_normed="19715.993800" CO2_normed="1593240.309892" HC_normed="127.548063" PMx_normed="29.202479" NOx_normed="651.700587" fuel_normed="684.860804" electricity_normed="0"
            traveltime="0.02" CO_perVeh="0.241525" CO2_perVeh="19.517541" HC_perVeh="0.001562" PMx_perVeh="0.000358" NOx_perVeh="0.007983" fuel_perVeh="0.008390" electricity_perVeh="0"/>
        <edge id=":1110673451_0" sampledSeconds="36.79" CO_abs="342.703098" CO2_abs="23563.773972" HC_abs="2.096197" PMx_abs="0.320651" NOx_abs="9.054630" fuel_abs="10.129184" electricity_abs="0"
            CO_normed="539.413841" CO2_normed="37089.322744" HC_normed="3.299409" PMx_normed="0.504704" NOx_normed="14.251966" fuel_normed="15.943311" electricity_normed="0"
            traveltime="0.03" CO_perVeh="0.252496" CO2_perVeh="17.361292" HC_perVeh="0.001544" PMx_perVeh="0.000236" NOx_perVeh="0.006671" fuel_perVeh="0.007463" electricity_perVeh="0"/>
        <edge id=":1110673464_0" sampledSeconds="1041.87" CO_abs="4337.834801" CO2_abs="309002.769505" HC_abs="26.836913" PMx_abs="4.468046" NOx_abs="120.163050" fuel_abs="132.828209" electricity_abs="0"
            CO_normed="130.558794" CO2_normed="9300.268657" HC_normed="0.807729" PMx_normed="0.134478" NOx_normed="3.616630" fuel_normed="3.997822" electricity_normed="0"
            traveltime="1.24" CO_perVeh="5.144065" CO2_perVeh="366.434039" HC_perVeh="0.031825" PMx_perVeh="0.005298" NOx_perVeh="0.142497" fuel_perVeh="0.157516" electricity_perVeh="0"/>
        <edge id=":1110673464_1" sampledSeconds="2609.18" CO_abs="64829.131488" CO2_abs="7828697.631427" HC_abs="481.759656" PMx_abs="140.129638" NOx_abs="2973.559912" fuel_abs="3365.196214" electricity_abs="0"
            CO_normed="1911.939042" CO2_normed="230883.744795" HC_normed="14.208043" PMx_normed="4.132700" NOx_normed="87.696151" fuel_normed="99.246278" electricity_normed="0"
            traveltime="0.72" CO_perVeh="17.872780" CO2_perVeh="2158.298092" HC_perVeh="0.132817" PMx_perVeh="0.038632" NOx_perVeh="0.819782" fuel_perVeh="0.927753" electricity_perVeh="0"/>
        <edge id=":1110673479_0" sampledSeconds="134.64" CO_abs="6487.951829" CO2_abs="443610.213369" HC_abs="39.993129" PMx_abs="7.923113" NOx_abs="182.497432" fuel_abs="190.688579" electricity_abs="0"
            CO_normed="9190.818315" CO2_normed="628417.254212" HC_normed="56.654179" PMx_normed="11.223864" NOx_normed="258.525461" fuel_normed="270.129022" electricity_normed="0"
            traveltime="0.03" CO_perVeh="1.371612" CO2_perVeh="93.783210" HC_perVeh="0.008455" PMx_perVeh="0.001675" NOx_perVeh="0.038582" fuel_perVeh="0.040313" electricity_perVeh="0"/>
        <edge id=":1110673511_0" sampledSeconds="63.35" CO_abs="1141.221216" CO2_abs="121172.348362" HC_abs="7.975378" PMx_abs="1.691815" NOx_abs="45.848189" fuel_abs="52.086957" electricity_abs="0"
            CO_normed="1616.651469" CO2_normed="171652.482628" HC_normed="11.297902" PMx_normed="2.396622" NOx_normed="64.948443" fuel_normed="73.786268" electricity_normed="0"
            traveltime="0.02" CO_perVeh="0.437389" CO2_perVeh="46.441015" HC_perVeh="0.003057" PMx_perVeh="0.000648" NOx_perVeh="0.017572" fuel_perVeh="0.019963" electricity_perVeh="0"/>
        <edge id=":1110673517_0" sampledSeconds="181.95" CO_abs="8138.185601" CO2_abs="582846.366238" HC_abs="50.739027" PMx_abs="10.062117" NOx_abs="237.078375" fuel_abs="250.540344" electricity_abs="0"
            CO_normed="11528.535853" CO2_normed="825658.882641" HC_normed="71.876794" PMx_normed="14.253973" NOx_normed="335.844705" fuel_normed="354.914901" electricity_normed="0"
            traveltime="0.03" CO_perVeh="1.246022" CO2_perVeh="89.238496" HC_perVeh="0.007769" PMx_perVeh="0.001541" NOx_perVeh="0.036299" fuel_perVeh="0.038360" electricity_perVeh="0"/>
        <edge id=":1110673534_0" sampledSeconds="659.81" CO_abs="4407.181202" CO2_abs="360198.213315" HC_abs="28.289798" PMx_abs="4.856267" NOx_abs="137.042220" fuel_abs="154.835190" electricity_abs="0"
            CO_normed="120.992310" CO2_normed="9888.682133" HC_normed="0.776652" PMx_normed="0.133321" NOx_normed="3.762281" fuel_normed="4.250759" electricity_normed="0"
            traveltime="1.45" CO_perVeh="9.690735" CO2_perVeh="792.022253" HC_perVeh="0.062205" PMx_perVeh="0.010678" NOx_perVeh="0.301335" fuel_perVeh="0.340460" electricity_perVeh="0"/>
        <edge id=":1110673534_1" sampledSeconds="264.85" CO_abs="3925.293472" CO2_abs="501803.973905" HC_abs="29.309300" PMx_abs="6.778736" NOx_abs="186.621811" fuel_abs="215.704506" electricity_abs="0"
            CO_normed="104.784462" CO2_normed="13395.497631" HC_normed="0.782402" PMx_normed="0.180956" NOx_normed="4.981810" fuel_normed="5.758163" electricity_normed="0"
            traveltime="1.23" CO_perVeh="18.212377" CO2_perVeh="2328.244550" HC_perVeh="0.135988" PMx_perVeh="0.031452" NOx_perVeh="0.865878" fuel_perVeh="1.000815" electricity_perVeh="0"/>
        <edge id=":1110673549_0" sampledSeconds="651.59" CO_abs="1387.296390" CO2_abs="130832.283624" HC_abs="9.239024" PMx_abs="1.827539" NOx_abs="49.466676" fuel_abs="56.239483" electricity_abs="0"
            CO_normed="36.894387" CO2_normed="3479.412873" HC_normed="0.245707" PMx_normed="0.048602" NOx_normed="1.315539" fuel_normed="1.495658" electricity_normed="0"
            traveltime="1.29" CO_perVeh="2.756227" CO2_perVeh="259.932551" HC_perVeh="0.018356" PMx_perVeh="0.003631" NOx_perVeh="0.098278" fuel_perVeh="0.111734" electricity_perVeh="0"/>
        <edge id=":1110673549_1" sampledSeconds="3197.66" CO_abs="69011.144568" CO2_abs="9202515.315022" HC_abs="533.775638" PMx_abs="161.026855" NOx_abs="3433.719979" fuel_abs="3955.740559" electricity_abs="0"
            CO_normed="1775.321475" CO2_normed="236736.010697" HC_normed="13.731454" PMx_normed="4.142439" NOx_normed="88.332933" fuel_normed="101.761987" electricity_normed="0"
            traveltime="0.81" CO_perVeh="17.407082" CO2_perVeh="2321.203929" HC_perVeh="0.134637" PMx_perVeh="0.040617" NOx_perVeh="0.866107" fuel_perVeh="0.997779" electricity_perVeh="0"/>
        <edge id=":1110673556_0" sampledSeconds="465.66" CO_abs="57228.920893" CO2_abs="2751990.928484" HC_abs="325.938848" PMx_abs="55.526925" NOx_abs="1186.103303" fuel_abs="1182.963687" electricity_abs="0"
            CO_normed="1128.589750" CO2_normed="54270.964826" HC_normed="6.427716" PMx_normed="1.095025" NOx_normed="23.390691" fuel_normed="23.328776" electricity_normed="0"
            traveltime="2.75" CO_perVeh="337.358986" CO2_perVeh="16222.721916" HC_perVeh="1.921378" PMx_perVeh="0.327326" NOx_perVeh="6.991965" fuel_perVeh="6.973457" electricity_perVeh="0"/>
        <edge id=":1110673556_2" sampledSeconds="177.20" CO_abs="18016.102665" CO2_abs="765241.437423" HC_abs="100.010025" PMx_abs="14.827441" NOx_abs="326.827646" fuel_abs="328.947335" electricity_abs="0"
            CO_normed="371.493035" CO2_normed="15779.320815" HC_normed="2.062212" PMx_normed="0.305743" NOx_normed="6.739204" fuel_normed="6.782912" electricity_normed="0"
            traveltime="3.06" CO_perVeh="311.524159" CO2_perVeh="13232.117949" HC_perVeh="1.729316" PMx_perVeh="0.256388" NOx_perVeh="5.651317" fuel_perVeh="5.687969" electricity_perVeh="0"/>
        <edge id=":1110673556_3" sampledSeconds="335.33" CO_abs="34088.287047" CO2_abs="1183052.415934" HC_abs="182.895541" PMx_abs="23.443228" NOx_abs="510.098754" fuel_abs="508.552306" electricity_abs="0"
            CO_normed="1598.986509" CO2_normed="55493.690555" HC_normed="8.579120" PMx_normed="1.099656" NOx_normed="23.927310" fuel_normed="23.854771" electricity_normed="0"
            traveltime="1.83" CO_perVeh="186.362467" CO2_perVeh="6467.810094" HC_perVeh="0.999900" PMx_perVeh="0.128165" NOx_perVeh="2.788737" fuel_perVeh="2.780282" electricity_perVeh="0"/>
        <edge id=":1110673556_4" sampledSeconds="98.23" CO_abs="11569.129470" CO2_abs="446639.371259" HC_abs="63.186512" PMx_abs="8.931022" NOx_abs="192.888137" fuel_abs="191.993223" electricity_abs="0"
            CO_normed="331.533447" CO2_normed="12799.224935" HC_normed="1.810719" PMx_normed="0.255934" NOx_normed="5.527544" fuel_normed="5.501898" electricity_normed="0"
            traveltime="2.58" CO_perVeh="303.350497" CO2_perVeh="11711.190150" HC_perVeh="1.656794" PMx_perVeh="0.234178" NOx_perVeh="5.057659" fuel_perVeh="5.034194" electricity_perVeh="0"/>
        <edge id=":1110673556_5" sampledSeconds="22.54" CO_abs="1015.599219" CO2_abs="45728.603504" HC_abs="5.679548" PMx_abs="0.777272" NOx_abs="18.822093" fuel_abs="19.657051" electricity_abs="0"
            CO_normed="40.564726" CO2_normed="1826.476672" HC_normed="0.226851" PMx_normed="0.031046" NOx_normed="0.751786" fuel_normed="0.785135" electricity_normed="0"
            traveltime="1.56" CO_perVeh="70.214267" CO2_perVeh="3161.483699" HC_perVeh="0.392660" PMx_perVeh="0.053737" NOx_perVeh="1.301280" fuel_perVeh="1.359006" electricity_perVeh="0"/>
        <edge id=":1110673556_6" sampledSeconds="217.71" CO_abs="26426.429136" CO2_abs="1317207.414054" HC_abs="151.654064" PMx_abs="26.617015" NOx_abs="567.535176" fuel_abs="566.210523" electricity_abs="0"
            CO_normed="534.285749" CO2_normed="26631.110331" HC_normed="3.066120" PMx_normed="0.538139" NOx_normed="11.474345" fuel_normed="11.447563" electricity_normed="0"
            traveltime="2.54" CO_perVeh="307.934775" CO2_perVeh="15348.799736" HC_perVeh="1.767154" PMx_perVeh="0.310156" NOx_perVeh="6.613221" fuel_perVeh="6.597785" electricity_perVeh="0"/>
        <edge id=":1110673561_0" sampledSeconds="101.64" CO_abs="9429.354880" CO2_abs="677000.268672" HC_abs="59.220648" PMx_abs="13.673406" NOx_abs="286.289964" fuel_abs="291.010160" electricity_abs="0"
            CO_normed="239.526660" CO2_normed="17197.317886" HC_normed="1.504337" PMx_normed="0.347335" NOx_normed="7.272404" fuel_normed="7.392308" electricity_normed="0"
            traveltime="1.20" CO_perVeh="111.275540" CO2_perVeh="7989.260267" HC_perVeh="0.698861" PMx_perVeh="0.161359" NOx_perVeh="3.378499" fuel_perVeh="3.434202" electricity_perVeh="0"/>
        <edge id=":1110673561_1" sampledSeconds="5190.83" CO_abs="485584.341227" CO2_abs="33632682.053926" HC_abs="3024.743903" PMx_abs="702.910268" NOx_abs="14379.162219" fuel_abs="14457.065867" electricity_abs="0"
            CO_normed="12025.834118" CO2_normed="832936.775339" HC_normed="74.909888" PMx_normed="17.408062" NOx_normed="356.109959" fuel_normed="358.039297" electricity_normed="0"
            traveltime="1.19" CO_perVeh="111.556068" CO2_perVeh="7726.628444" HC_perVeh="0.694892" PMx_perVeh="0.161484" NOx_perVeh="3.303407" fuel_perVeh="3.321304" electricity_perVeh="0"/>
        <edge id=":1110673562_0" sampledSeconds="302.83" CO_abs="6527.052247" CO2_abs="504194.346442" HC_abs="41.222786" PMx_abs="6.863026" NOx_abs="192.798308" fuel_abs="216.733671" electricity_abs="0"
            CO_normed="10273.564313" CO2_normed="793600.671218" HC_normed="64.884565" PMx_normed="10.802386" NOx_normed="303.464067" fuel_normed="341.138269" electricity_normed="0"
            traveltime="0.03" CO_perVeh="0.585094" CO2_perVeh="45.196704" HC_perVeh="0.003695" PMx_perVeh="0.000615" NOx_perVeh="0.017283" fuel_perVeh="0.019428" electricity_perVeh="0"/>
        <edge id=":1110673564_0" sampledSeconds="28.05" CO_abs="439.194170" CO2_abs="52356.014031" HC_abs="3.207057" PMx_abs="0.713071" NOx_abs="19.587083" fuel_abs="22.505668" electricity_abs="0"
            CO_normed="1866.484491" CO2_normed="222502.243551" HC_normed="13.629331" PMx_normed="3.030405" NOx_normed="83.241057" fuel_normed="95.644440" electricity_normed="0"
            traveltime="7.923193e-03" CO_perVeh="0.124049" CO2_perVeh="14.787746" HC_perVeh="0.000906" PMx_perVeh="0.000201" NOx_perVeh="0.005532" fuel_perVeh="0.006357" electricity_perVeh="0"/>
        <edge id=":1110673588_0" sampledSeconds="62.90" CO_abs="1058.651815" CO2_abs="112426.516568" HC_abs="7.387187" PMx_abs="1.574874" NOx_abs="42.546851" fuel_abs="48.327479" electricity_abs="0"
            CO_normed="1799.620605" CO2_normed="191115.787815" HC_normed="12.557608" PMx_normed="2.677155" NOx_normed="72.326131" fuel_normed="82.152721" electricity_normed="0"
            traveltime="0.02" CO_perVeh="0.341501" CO2_perVeh="36.266618" HC_perVeh="0.002383" PMx_perVeh="0.000508" NOx_perVeh="0.013725" fuel_perVeh="0.015590" electricity_perVeh="0"/>
        <edge id=":1110673601_0" sampledSeconds="29.03" CO_abs="572.454043" CO2_abs="61271.517389" HC_abs="3.996086" PMx_abs="0.881795" NOx_abs="23.300088" fuel_abs="26.338036" electricity_abs="0"
            CO_normed="868.861222" CO2_normed="92996.889641" HC_normed="6.065192" PMx_normed="1.338374" NOx_normed="35.364485" fuel_normed="39.975433" electricity_normed="0"
            traveltime="0.02" CO_perVeh="0.436524" CO2_perVeh="46.722473" HC_perVeh="0.003047" PMx_perVeh="0.000672" NOx_perVeh="0.017767" fuel_perVeh="0.020084" electricity_perVeh="0"/>
        <edge id=":1110673617_0" sampledSeconds="855.25" CO_abs="31915.075145" CO2_abs="3235706.005313" HC_abs="222.691072" PMx_abs="60.912947" NOx_abs="1268.221677" fuel_abs="1390.878609" electricity_abs="0"
            CO_normed="45210.825373" CO2_normed="4583694.022400" HC_normed="315.463684" PMx_normed="86.289147" NOx_normed="1796.560042" fuel_normed="1970.315584" electricity_normed="0"
            traveltime="0.02" CO_perVeh="0.566162" CO2_perVeh="57.400247" HC_perVeh="0.003950" PMx_perVeh="0.001081" NOx_perVeh="0.022498" fuel_perVeh="0.024674" electricity_perVeh="0"/>
        <edge id=":1110673621_0" sampledSeconds="26.10" CO_abs="549.162893" CO2_abs="52874.929821" HC_abs="3.722471" PMx_abs="0.822208" NOx_abs="20.592366" fuel_abs="22.728645" electricity_abs="0"
            CO_normed="933.531538" CO2_normed="89883.011382" HC_normed="6.327894" PMx_normed="1.397685" NOx_normed="35.005321" fuel_normed="38.636818" electricity_normed="0"
            traveltime="0.02" CO_perVeh="0.416032" CO2_perVeh="40.056765" HC_perVeh="0.002820" PMx_perVeh="0.000623" NOx_perVeh="0.015600" fuel_perVeh="0.017219" electricity_perVeh="0"/>
        <edge id=":1110673630_0" sampledSeconds="285.71" CO_abs="1103.806577" CO2_abs="104463.762941" HC_abs="7.401787" PMx_abs="1.317822" NOx_abs="38.940262" fuel_abs="44.904917" electricity_abs="0"
            CO_normed="33.458987" CO2_normed="3166.543592" HC_normed="0.224366" PMx_normed="0.039946" NOx_normed="1.180371" fuel_normed="1.361174" electricity_normed="0"
            traveltime="1.29" CO_perVeh="4.966708" CO2_perVeh="470.047036" HC_perVeh="0.033305" PMx_perVeh="0.005930" NOx_perVeh="0.175216" fuel_perVeh="0.202055" electricity_perVeh="0"/>
        <edge id=":1110673630_1" sampledSeconds="337.73" CO_abs="1354.169839" CO2_abs="115696.104218" HC_abs="8.782199" PMx_abs="1.419599" NOx_abs="43.089073" fuel_abs="49.733415" electricity_abs="0"
            CO_normed="50.042974" CO2_normed="4275.517753" HC_normed="0.324544" PMx_normed="0.052461" NOx_normed="1.592345" fuel_normed="1.837885" electricity_normed="0"
            traveltime="1.08" CO_perVeh="4.316827" CO2_perVeh="368.816410" HC_perVeh="0.027996" PMx_perVeh="0.004525" NOx_perVeh="0.137359" fuel_perVeh="0.158540" electricity_perVeh="0"/>
        <edge id=":1110673650_0" sampledSeconds="199.26" CO_abs="3186.928098" CO2_abs="398630.890575" HC_abs="23.591286" PMx_abs="5.466814" NOx_abs="148.870917" fuel_abs="171.354641" electricity_abs="0"
            CO_normed="4514.595345" CO2_normed="564699.644304" HC_normed="33.419363" PMx_normed="7.744277" NOx_normed="210.890214" fuel_normed="242.740608" electricity_normed="0"
            traveltime="0.02" CO_perVeh="0.368332" CO2_perVeh="46.072068" HC_perVeh="0.002727" PMx_perVeh="0.000632" NOx_perVeh="0.017206" fuel_perVeh="0.019804" electricity_perVeh="0"/>
        <edge id=":1110673655_0" sampledSeconds="20.66" CO_abs="485.097430" CO2_abs="50325.156120" HC_abs="3.377495" PMx_abs="0.771702" NOx_abs="19.450566" fuel_abs="21.632601" electricity_abs="0"
            CO_normed="687.187955" CO2_normed="71290.505659" HC_normed="4.784551" PMx_normed="1.093192" NOx_normed="27.553629" fuel_normed="30.644695" electricity_normed="0"
            traveltime="0.02" CO_perVeh="0.554186" CO2_perVeh="57.492562" HC_perVeh="0.003859" PMx_perVeh="0.000882" NOx_perVeh="0.022221" fuel_perVeh="0.024714" electricity_perVeh="0"/>
        <edge id=":1110673663_0" sampledSeconds="109.98" CO_abs="1546.848096" CO2_abs="181861.998588" HC_abs="11.177673" PMx_abs="2.470766" NOx_abs="68.021785" fuel_abs="78.174907" electricity_abs="0"
            CO_normed="40.132997" CO2_normed="4718.412232" HC_normed="0.290005" PMx_normed="0.064104" NOx_normed="1.764826" fuel_normed="2.028249" electricity_normed="0"
            traveltime="1.29" CO_perVeh="18.168461" CO2_perVeh="2136.054968" HC_perVeh="0.131287" PMx_perVeh="0.029020" NOx_perVeh="0.798948" fuel_perVeh="0.918201" electricity_perVeh="0"/>
        <edge id=":1110673663_1" sampledSeconds="170.89" CO_abs="2612.012574" CO2_abs="330993.069802" HC_abs="19.385786" PMx_abs="4.346801" NOx_abs="122.525265" fuel_abs="142.280235" electricity_abs="0"
            CO_normed="67.851552" CO2_normed="8598.118385" HC_normed="0.503579" PMx_normed="0.112916" NOx_normed="3.182806" fuel_normed="3.695976" electricity_normed="0"
            traveltime="1.28" CO_perVeh="19.497230" CO2_perVeh="2470.680325" HC_perVeh="0.144704" PMx_perVeh="0.032446" NOx_perVeh="0.914583" fuel_perVeh="1.062043" electricity_perVeh="0"/>