<?xml version="1.0" encoding="UTF-8"?>

<!-- generated on Tue Nov 10 00:32:12 2020 by Eclipse SUMO sumo Version 1.7.0
<configuration xmlns:xsi="http://www.w3.org/2001/XMLSchema-instance" xsi:noNamespaceSchemaLocation="http://sumo.dlr.de/xsd/sumoConfiguration.xsd">

    <input>
        <net-file value="../dataSets/Porto/6AM7AM_Routing_SaoBento/Porto.net.xml"/>
        <route-files value="../results/Porto/6AM7AM_Routing_SaoBento/cost_nox-length/solution11/Porto.rou.xml"/>
        <additional-files value="moreOutputInfo.xml"/>
    </input>

    <output>
        <emission-output.precision value="6"/>
        <tripinfo-output value="../results/Porto/6AM7AM_Routing_SaoBento/cost_nox-length/solution11/Porto-tripinfo"/>
    </output>

    <processing>
        <collision.action value="warn"/>
        <time-to-teleport value="-1"/>
    </processing>

    <emissions>
        <device.emissions.probability value="1"/>
    </emissions>

    <gui_only>
        <quit-on-end value="true"/>
        <start value="true"/>
    </gui_only>

</configuration>
-->

<meandata xmlns:xsi="http://www.w3.org/2001/XMLSchema-instance" xsi:noNamespaceSchemaLocation="http://sumo.dlr.de/xsd/meandata_file.xsd">
    <interval begin="0.00" end="4788.00" id="emissions-detector">
        <edge id=":1092997347_0" sampledSeconds="269.36" CO_abs="34748.981262" CO2_abs="1368004.241405" HC_abs="190.555009" PMx_abs="27.957094" NOx_abs="594.144599" fuel_abs="588.051373" electricity_abs="0"
            CO_normed="59379.667228" CO2_normed="2337669.585450" HC_normed="325.623733" PMx_normed="47.773572" NOx_normed="1015.284688" fuel_normed="1004.872475" electricity_normed="0"
            traveltime="0.08" CO_perVeh="9.769602" CO2_perVeh="384.611478" HC_perVeh="0.053574" PMx_perVeh="0.007860" NOx_perVeh="0.167042" fuel_perVeh="0.165329" electricity_perVeh="0"/>
        <edge id=":1103427051_0" sampledSeconds="11.04" CO_abs="850.745239" CO2_abs="48178.014475" HC_abs="5.018508" PMx_abs="0.948556" NOx_abs="20.576028" fuel_abs="20.709587" electricity_abs="0"
            CO_normed="2205.717499" CO2_normed="124910.589772" HC_normed="13.011428" PMx_normed="2.459310" NOx_normed="53.347235" fuel_normed="53.693510" electricity_normed="0"
            traveltime="0.03" CO_perVeh="2.331029" CO2_perVeh="132.007031" HC_perVeh="0.013751" PMx_perVeh="0.002599" NOx_perVeh="0.056378" fuel_perVeh="0.056744" electricity_perVeh="0"/>
        <edge id=":1105984386_0" sampledSeconds="22.67" CO_abs="535.540994" CO2_abs="42079.631472" HC_abs="3.398841" PMx_abs="0.572953" NOx_abs="16.091518" fuel_abs="18.088400" electricity_abs="0"
            CO_normed="41.468836" CO2_normed="3258.374939" HC_normed="0.263184" PMx_normed="0.044366" NOx_normed="1.246023" fuel_normed="1.400649" electricity_normed="0"
            traveltime="0.95" CO_perVeh="22.476241" CO2_perVeh="1766.049540" HC_perVeh="0.142647" PMx_perVeh="0.024046" NOx_perVeh="0.675349" fuel_perVeh="0.759156" electricity_perVeh="0"/>
        <edge id=":1105984390_0" sampledSeconds="23.27" CO_abs="20.517087" CO2_abs="1486.692337" HC_abs="0.126822" PMx_abs="0.017929" NOx_abs="0.555815" fuel_abs="0.639076" electricity_abs="0"
            CO_normed="1.228215" CO2_normed="88.997913" HC_normed="0.007592" PMx_normed="0.001073" NOx_normed="0.033273" fuel_normed="0.038257" electricity_normed="0"
            traveltime="1.06" CO_perVeh="0.930440" CO2_perVeh="67.420767" HC_perVeh="0.005751" PMx_perVeh="0.000813" NOx_perVeh="0.025206" fuel_perVeh="0.028982" electricity_perVeh="0"/>
        <edge id=":1105984390_1" sampledSeconds="646.75" CO_abs="14538.624314" CO2_abs="1906253.637781" HC_abs="111.746223" PMx_abs="33.593417" NOx_abs="712.559920" fuel_abs="819.411154" electricity_abs="0"
            CO_normed="832.543524" CO2_normed="109160.198923" HC_normed="6.399064" PMx_normed="1.923702" NOx_normed="40.804215" fuel_normed="46.922971" electricity_normed="0"
            traveltime="0.64" CO_perVeh="14.301945" CO2_perVeh="1875.221056" HC_perVeh="0.109927" PMx_perVeh="0.033047" NOx_perVeh="0.700960" fuel_perVeh="0.806072" electricity_perVeh="0"/>
        <edge id=":1105984395_0" sampledSeconds="9.01" CO_abs="152.121964" CO2_abs="11141.027629" HC_abs="0.947976" PMx_abs="0.159827" NOx_abs="4.326315" fuel_abs="4.789090" electricity_abs="0"
            CO_normed="124.323278" CO2_normed="9105.122286" HC_normed="0.774743" PMx_normed="0.130620" NOx_normed="3.535726" fuel_normed="3.913934" electricity_normed="0"
            traveltime="0.09" CO_perVeh="1.542683" CO2_perVeh="112.982203" HC_perVeh="0.009614" PMx_perVeh="0.001621" NOx_perVeh="0.043874" fuel_perVeh="0.048567" electricity_perVeh="0"/>
        <edge id=":1105984398_0" sampledSeconds="22.98" CO_abs="1543.511874" CO2_abs="105525.077025" HC_abs="9.521164" PMx_abs="1.921171" NOx_abs="43.655751" fuel_abs="45.360547" electricity_abs="0"
            CO_normed="95.991335" CO2_normed="6562.627227" HC_normed="0.592123" PMx_normed="0.119478" NOx_normed="2.714961" fuel_normed="2.820982" electricity_normed="0"
            traveltime="1.11" CO_perVeh="74.445513" CO2_perVeh="5089.606767" HC_perVeh="0.459218" PMx_perVeh="0.092660" NOx_perVeh="2.105572" fuel_perVeh="2.187796" electricity_perVeh="0"/>
        <edge id=":1105984398_1" sampledSeconds="451.75" CO_abs="8360.265507" CO2_abs="971519.955501" HC_abs="60.430394" PMx_abs="13.958038" NOx_abs="367.768869" fuel_abs="417.615012" electricity_abs="0"
            CO_normed="503.275734" CO2_normed="58484.077819" HC_normed="3.637821" PMx_normed="0.840253" NOx_normed="22.139147" fuel_normed="25.139812" electricity_normed="0"
            traveltime="0.96" CO_perVeh="17.677617" CO2_perVeh="2054.259893" HC_perVeh="0.127779" PMx_perVeh="0.029514" NOx_perVeh="0.777640" fuel_perVeh="0.883039" electricity_perVeh="0"/>
        <edge id=":1106006327_0" sampledSeconds="357.75" CO_abs="48311.012348" CO2_abs="1566742.735695" HC_abs="256.867480" PMx_abs="32.732013" NOx_abs="686.097870" fuel_abs="673.487345" electricity_abs="0"
            CO_normed="4099.782103" CO2_normed="132957.342767" HC_normed="21.798357" PMx_normed="2.777713" NOx_normed="58.223822" fuel_normed="57.153664" electricity_normed="0"
            traveltime="2.10" CO_perVeh="283.334041" CO2_perVeh="9188.620343" HC_perVeh="1.506474" PMx_perVeh="0.191966" NOx_perVeh="4.023821" fuel_perVeh="3.949863" electricity_perVeh="0"/>
        <edge id=":1106006327_1" sampledSeconds="161.46" CO_abs="22010.475785" CO2_abs="737347.916867" HC_abs="117.610085" PMx_abs="15.424501" NOx_abs="322.949205" fuel_abs="316.959173" electricity_abs="0"
            CO_normed="1628.861212" CO2_normed="54566.626966" HC_normed="8.703606" PMx_normed="1.141473" NOx_normed="23.899503" fuel_normed="23.456217" electricity_normed="0"
            traveltime="2.29" CO_perVeh="312.467072" CO2_perVeh="10467.604006" HC_perVeh="1.669627" PMx_perVeh="0.218971" NOx_perVeh="4.584680" fuel_perVeh="4.499644" electricity_perVeh="0"/>
        <edge id=":1106006327_2" sampledSeconds="0.00" CO_abs="0" CO2_abs="0" HC_abs="0" PMx_abs="0" NOx_abs="0" fuel_abs="0" electricity_abs="0"
            CO_normed="0" CO2_normed="0" HC_normed="0" PMx_normed="0" NOx_normed="0" fuel_normed="0" electricity_normed="0"/>
        <edge id=":1106006327_3" sampledSeconds="0.00" CO_abs="0" CO2_abs="0" HC_abs="0" PMx_abs="0" NOx_abs="0" fuel_abs="0" electricity_abs="0"
            CO_normed="0" CO2_normed="0" HC_normed="0" PMx_normed="0" NOx_normed="0" fuel_normed="0" electricity_normed="0"/>
        <edge id=":1107381198_0" sampledSeconds="0.00" CO_abs="0" CO2_abs="0" HC_abs="0" PMx_abs="0" NOx_abs="0" fuel_abs="0" electricity_abs="0"
            CO_normed="0" CO2_normed="0" HC_normed="0" PMx_normed="0" NOx_normed="0" fuel_normed="0" electricity_normed="0"/>
        <edge id=":1107381198_1" sampledSeconds="35.52" CO_abs="1615.255429" CO2_abs="69753.727255" HC_abs="8.976930" PMx_abs="1.264595" NOx_abs="29.264425" fuel_abs="29.984503" electricity_abs="0"
            CO_normed="132.440323" CO2_normed="5719.346943" HC_normed="0.736049" PMx_normed="0.103688" NOx_normed="2.399490" fuel_normed="2.458532" electricity_normed="0"
            traveltime="1.46" CO_perVeh="66.504545" CO2_perVeh="2871.954377" HC_perVeh="0.369605" PMx_perVeh="0.052067" NOx_perVeh="1.204898" fuel_perVeh="1.234545" electricity_perVeh="0"/>
        <edge id=":1110338277_0" sampledSeconds="96.92" CO_abs="1469.281913" CO2_abs="181569.635706" HC_abs="10.828491" PMx_abs="2.466151" NOx_abs="67.768081" fuel_abs="78.049185" electricity_abs="0"
            CO_normed="3945.440154" CO2_normed="487566.153882" HC_normed="29.077579" PMx_normed="6.622318" NOx_normed="181.976587" fuel_normed="209.584278" electricity_normed="0"
            traveltime="0.02" CO_perVeh="0.331132" CO2_perVeh="40.920368" HC_perVeh="0.002440" PMx_perVeh="0.000556" NOx_perVeh="0.015273" fuel_perVeh="0.017590" electricity_perVeh="0"/>
        <edge id=":1110338293_0" sampledSeconds="123.82" CO_abs="6237.569707" CO2_abs="431165.214821" HC_abs="38.518612" PMx_abs="7.476158" NOx_abs="175.924221" fuel_abs="185.339305" electricity_abs="0"
            CO_normed="15633.006785" CO2_normed="1080614.573486" HC_normed="96.537875" PMx_normed="18.737238" NOx_normed="440.912836" fuel_normed="464.509536" electricity_normed="0"
            traveltime="0.03" CO_perVeh="1.430690" CO2_perVeh="98.894885" HC_perVeh="0.008835" PMx_perVeh="0.001715" NOx_perVeh="0.040351" fuel_perVeh="0.042511" electricity_perVeh="0"/>
        <edge id=":1110338295_0" sampledSeconds="0.00" CO_abs="0" CO2_abs="0" HC_abs="0" PMx_abs="0" NOx_abs="0" fuel_abs="0" electricity_abs="0"
            CO_normed="0" CO2_normed="0" HC_normed="0" PMx_normed="0" NOx_normed="0" fuel_normed="0" electricity_normed="0"/>
        <edge id=":1110673403_0" sampledSeconds="143.39" CO_abs="2413.168750" CO2_abs="290761.732581" HC_abs="17.644706" PMx_abs="4.079345" NOx_abs="109.335788" fuel_abs="124.986153" electricity_abs="0"
            CO_normed="6048.041979" CO2_normed="728726.146819" HC_normed="44.222321" PMx_normed="10.223923" NOx_normed="274.024532" fuel_normed="313.248504" electricity_normed="0"
            traveltime="0.02" CO_perVeh="0.387450" CO2_perVeh="46.683714" HC_perVeh="0.002833" PMx_perVeh="0.000655" NOx_perVeh="0.017555" fuel_perVeh="0.020067" electricity_perVeh="0"/>
        <edge id=":1110673412_0" sampledSeconds="252.41" CO_abs="44144.097193" CO2_abs="3027769.043391" HC_abs="275.082562" PMx_abs="66.362090" NOx_abs="1299.794595" fuel_abs="1301.488882" electricity_abs="0"
            CO_normed="114451.898349" CO2_normed="7850062.337026" HC_normed="713.203428" PMx_normed="172.056235" NOx_normed="3369.962653" fuel_normed="3374.355411" electricity_normed="0"
            traveltime="0.02" CO_perVeh="2.723595" CO2_perVeh="186.806791" HC_perVeh="0.016972" PMx_perVeh="0.004094" NOx_perVeh="0.080195" fuel_perVeh="0.080299" electricity_perVeh="0"/>
        <edge id=":1110673414_0" sampledSeconds="0.00" CO_abs="0" CO2_abs="0" HC_abs="0" PMx_abs="0" NOx_abs="0" fuel_abs="0" electricity_abs="0"
            CO_normed="0" CO2_normed="0" HC_normed="0" PMx_normed="0" NOx_normed="0" fuel_normed="0" electricity_normed="0"/>
        <edge id=":1110673414_1" sampledSeconds="131.40" CO_abs="8393.332286" CO2_abs="326572.812322" HC_abs="45.827479" PMx_abs="6.141011" NOx_abs="138.560411" fuel_abs="140.381725" electricity_abs="0"
            CO_normed="698.867791" CO2_normed="27191.967654" HC_normed="3.815809" PMx_normed="0.511329" NOx_normed="11.537183" fuel_normed="11.688834" electricity_normed="0"
            traveltime="1.57" CO_perVeh="100.002363" CO2_perVeh="3890.951966" HC_perVeh="0.546012" PMx_perVeh="0.073167" NOx_perVeh="1.650878" fuel_perVeh="1.672578" electricity_perVeh="0"/>
        <edge id=":1110673417_0" sampledSeconds="29.56" CO_abs="653.114734" CO2_abs="73447.452731" HC_abs="4.669289" PMx_abs="1.054213" NOx_abs="27.873490" fuel_abs="31.571942" electricity_abs="0"
            CO_normed="1753.798964" CO2_normed="197227.316679" HC_normed="12.538369" PMx_normed="2.830863" NOx_normed="74.848255" fuel_normed="84.779650" electricity_normed="0"
            traveltime="0.02" CO_perVeh="0.484750" CO2_perVeh="54.513683" HC_perVeh="0.003466" PMx_perVeh="0.000782" NOx_perVeh="0.020688" fuel_perVeh="0.023433" electricity_perVeh="0"/>
        <edge id=":1110673446_0" sampledSeconds="334.39" CO_abs="3054.798299" CO2_abs="264779.476474" HC_abs="20.152554" PMx_abs="4.655227" NOx_abs="106.690838" fuel_abs="113.816677" electricity_abs="0"
            CO_normed="7656.136088" CO2_normed="663607.710461" HC_normed="50.507655" PMx_normed="11.667235" NOx_normed="267.395584" fuel_normed="285.254830" electricity_normed="0"
            traveltime="0.02" CO_perVeh="0.208351" CO2_perVeh="18.059146" HC_perVeh="0.001374" PMx_perVeh="0.000318" NOx_perVeh="0.007277" fuel_perVeh="0.007763" electricity_perVeh="0"/>
        <edge id=":1110673451_0" sampledSeconds="37.65" CO_abs="288.299492" CO2_abs="22928.425372" HC_abs="1.830424" PMx_abs="0.282159" NOx_abs="8.566382" fuel_abs="9.856084" electricity_abs="0"
            CO_normed="802.839020" CO2_normed="63849.694715" HC_normed="5.097254" PMx_normed="0.785739" NOx_normed="23.855144" fuel_normed="27.446626" electricity_normed="0"
            traveltime="0.03" CO_perVeh="0.206749" CO2_perVeh="16.442695" HC_perVeh="0.001313" PMx_perVeh="0.000202" NOx_perVeh="0.006143" fuel_perVeh="0.007068" electricity_perVeh="0"/>
        <edge id=":1110673464_0" sampledSeconds="322.75" CO_abs="511.674124" CO2_abs="46798.420881" HC_abs="3.396762" PMx_abs="0.651338" NOx_abs="17.769294" fuel_abs="20.116752" electricity_abs="0"
            CO_normed="27.246274" CO2_normed="2491.981772" HC_normed="0.180875" PMx_normed="0.034683" NOx_normed="0.946202" fuel_normed="1.071202" electricity_normed="0"
            traveltime="1.17" CO_perVeh="1.849634" CO2_perVeh="169.170117" HC_perVeh="0.012279" PMx_perVeh="0.002355" NOx_perVeh="0.064234" fuel_perVeh="0.072719" electricity_perVeh="0"/>
        <edge id=":1110673464_1" sampledSeconds="708.68" CO_abs="15795.188920" CO2_abs="1991796.202281" HC_abs="119.653956" PMx_abs="35.472815" NOx_abs="749.552894" fuel_abs="856.181686" electricity_abs="0"
            CO_normed="824.155579" CO2_normed="103927.212320" HC_normed="6.243260" PMx_normed="1.850888" NOx_normed="39.109896" fuel_normed="44.673534" electricity_normed="0"
            traveltime="0.70" CO_perVeh="15.602945" CO2_perVeh="1967.553962" HC_perVeh="0.118198" PMx_perVeh="0.035041" NOx_perVeh="0.740430" fuel_perVeh="0.845761" electricity_perVeh="0"/>
        <edge id=":1110673479_0" sampledSeconds="133.37" CO_abs="6770.933465" CO2_abs="469111.980429" HC_abs="41.866173" PMx_abs="8.277206" NOx_abs="192.297663" fuel_abs="201.650752" electricity_abs="0"
            CO_normed="16969.758057" CO2_normed="1175719.249196" HC_normed="104.927752" PMx_normed="20.744876" NOx_normed="481.949030" fuel_normed="505.390356" electricity_normed="0"
            traveltime="0.03" CO_perVeh="1.426361" CO2_perVeh="98.822831" HC_perVeh="0.008820" PMx_perVeh="0.001744" NOx_perVeh="0.040509" fuel_perVeh="0.042480" electricity_perVeh="0"/>
        <edge id=":1110673511_0" sampledSeconds="11.71" CO_abs="221.955680" CO2_abs="28928.903338" HC_abs="1.663205" PMx_abs="0.370796" NOx_abs="10.640528" fuel_abs="12.435349" electricity_abs="0"
            CO_normed="556.279900" CO2_normed="72503.517139" HC_normed="4.168434" PMx_normed="0.929313" NOx_normed="26.667989" fuel_normed="31.166288" electricity_normed="0"
            traveltime="0.02" CO_perVeh="0.439516" CO2_perVeh="57.284957" HC_perVeh="0.003293" PMx_perVeh="0.000734" NOx_perVeh="0.021070" fuel_perVeh="0.024624" electricity_perVeh="0"/>
        <edge id=":1110673517_0" sampledSeconds="17.26" CO_abs="692.305889" CO2_abs="48302.473796" HC_abs="4.290686" PMx_abs="0.859761" NOx_abs="19.816905" fuel_abs="20.763112" electricity_abs="0"
            CO_normed="1735.102480" CO2_normed="121058.831569" HC_normed="10.753598" PMx_normed="2.154789" NOx_normed="49.666428" fuel_normed="52.037874" electricity_normed="0"
            traveltime="0.03" CO_perVeh="1.111543" CO2_perVeh="77.552808" HC_perVeh="0.006889" PMx_perVeh="0.001380" NOx_perVeh="0.031817" fuel_perVeh="0.033337" electricity_perVeh="0"/>
        <edge id=":1110673534_0" sampledSeconds="475.18" CO_abs="2836.271624" CO2_abs="247889.347115" HC_abs="18.564068" PMx_abs="3.246883" NOx_abs="93.481702" fuel_abs="106.557980" electricity_abs="0"
            CO_normed="137.760663" CO2_normed="12040.243395" HC_normed="0.901676" PMx_normed="0.157705" NOx_normed="4.540503" fuel_normed="5.175632" electricity_normed="0"
            traveltime="1.43" CO_perVeh="8.544563" CO2_perVeh="746.792393" HC_perVeh="0.055926" PMx_perVeh="0.009782" NOx_perVeh="0.281623" fuel_perVeh="0.321017" electricity_perVeh="0"/>
        <edge id=":1110673534_1" sampledSeconds="183.55" CO_abs="2704.192697" CO2_abs="352914.823648" HC_abs="20.368820" PMx_abs="4.726000" NOx_abs="130.866739" fuel_abs="151.703328" electricity_abs="0"
            CO_normed="127.715301" CO2_normed="16667.681625" HC_normed="0.961991" PMx_normed="0.223202" NOx_normed="6.180656" fuel_normed="7.164739" electricity_normed="0"
            traveltime="1.22" CO_perVeh="17.954869" CO2_perVeh="2343.227730" HC_perVeh="0.135242" PMx_perVeh="0.031379" NOx_perVeh="0.868908" fuel_perVeh="1.007256" electricity_perVeh="0"/>
        <edge id=":1110673549_0" sampledSeconds="60.17" CO_abs="42.824468" CO2_abs="3636.875278" HC_abs="0.276626" PMx_abs="0.041570" NOx_abs="1.335496" fuel_abs="1.563361" electricity_abs="0"
            CO_normed="2.014947" CO2_normed="171.119693" HC_normed="0.013016" PMx_normed="0.001956" NOx_normed="0.062837" fuel_normed="0.073558" electricity_normed="0"
            traveltime="1.25" CO_perVeh="0.892211" CO2_perVeh="75.771198" HC_perVeh="0.005763" PMx_perVeh="0.000866" NOx_perVeh="0.027824" fuel_perVeh="0.032571" electricity_perVeh="0"/>
        <edge id=":1110673549_1" sampledSeconds="638.79" CO_abs="14810.805612" CO2_abs="1869806.503358" HC_abs="112.016360" PMx_abs="33.242726" NOx_abs="703.073129" fuel_abs="803.743971" electricity_abs="0"
            CO_normed="674.088624" CO2_normed="85101.062433" HC_normed="5.098234" PMx_normed="1.512986" NOx_normed="31.999178" fuel_normed="36.581040" electricity_normed="0"
            traveltime="0.80" CO_perVeh="18.643898" CO2_perVeh="2353.719479" HC_perVeh="0.141007" PMx_perVeh="0.041846" NOx_perVeh="0.885031" fuel_perVeh="1.011756" electricity_perVeh="0"/>
        <edge id=":1110673556_0" sampledSeconds="412.77" CO_abs="50548.067947" CO2_abs="2557533.743823" HC_abs="290.993169" PMx_abs="51.592793" NOx_abs="1101.271303" fuel_abs="1099.372685" electricity_abs="0"
            CO_normed="1763.622558" CO2_normed="89232.375969" HC_normed="10.152754" PMx_normed="1.800073" NOx_normed="38.423366" fuel_normed="38.357123" electricity_normed="0"
            traveltime="2.56" CO_perVeh="313.777758" CO2_perVeh="15875.922393" HC_perVeh="1.806344" PMx_perVeh="0.320263" NOx_perVeh="6.836155" fuel_perVeh="6.824370" electricity_perVeh="0"/>
        <edge id=":1110673556_2" sampledSeconds="248.37" CO_abs="23419.241743" CO2_abs="1007820.258159" HC_abs="130.325620" PMx_abs="19.553211" NOx_abs="430.565508" fuel_abs="433.222174" electricity_abs="0"
            CO_normed="854.364505" CO2_normed="36766.598379" HC_normed="4.754449" PMx_normed="0.713327" NOx_normed="15.707592" fuel_normed="15.804510" electricity_normed="0"
            traveltime="3.01" CO_perVeh="284.070915" CO2_perVeh="12224.666604" HC_perVeh="1.580825" PMx_perVeh="0.237177" NOx_perVeh="5.222677" fuel_perVeh="5.254902" electricity_perVeh="0"/>
        <edge id=":1110673556_3" sampledSeconds="416.87" CO_abs="35913.605700" CO2_abs="1277553.029592" HC_abs="193.249241" PMx_abs="24.306419" NOx_abs="544.401699" fuel_abs="549.175537" electricity_abs="0"
            CO_normed="2980.431683" CO2_normed="106022.758020" HC_normed="16.037548" PMx_normed="2.017164" NOx_normed="45.179314" fuel_normed="45.575490" electricity_normed="0"
            traveltime="1.73" CO_perVeh="149.120526" CO2_perVeh="5304.657555" HC_perVeh="0.802410" PMx_perVeh="0.100925" NOx_perVeh="2.260466" fuel_perVeh="2.280287" electricity_perVeh="0"/>
        <edge id=":1110673556_4" sampledSeconds="192.02" CO_abs="20102.577332" CO2_abs="815773.118709" HC_abs="110.708523" PMx_abs="16.037213" NOx_abs="350.310035" fuel_abs="350.669299" electricity_abs="0"
            CO_normed="1019.198908" CO2_normed="41359.625566" HC_normed="5.612912" PMx_normed="0.813085" NOx_normed="17.760688" fuel_normed="17.778903" electricity_normed="0"
            traveltime="2.38" CO_perVeh="249.603327" CO2_perVeh="10129.033767" HC_perVeh="1.374611" PMx_perVeh="0.199126" NOx_perVeh="4.349619" fuel_perVeh="4.354080" electricity_perVeh="0"/>
        <edge id=":1110673556_5" sampledSeconds="24.55" CO_abs="2019.782507" CO2_abs="82861.345930" HC_abs="11.135506" PMx_abs="1.579194" NOx_abs="35.258665" fuel_abs="35.618944" electricity_abs="0"
            CO_normed="142.728709" CO2_normed="5855.428934" HC_normed="0.786895" PMx_normed="0.111594" NOx_normed="2.491567" fuel_normed="2.517026" electricity_normed="0"
            traveltime="1.70" CO_perVeh="139.639284" CO2_perVeh="5728.685645" HC_perVeh="0.769862" PMx_perVeh="0.109179" NOx_perVeh="2.437636" fuel_perVeh="2.462544" electricity_perVeh="0"/>
        <edge id=":1110673556_6" sampledSeconds="310.25" CO_abs="37872.785385" CO2_abs="1922699.599296" HC_abs="218.224562" PMx_abs="38.970660" NOx_abs="828.688869" fuel_abs="826.484708" electricity_abs="0"
            CO_normed="1354.699262" CO2_normed="68774.443219" HC_normed="7.805833" PMx_normed="1.393970" NOx_normed="29.641976" fuel_normed="29.563134" electricity_normed="0"
            traveltime="2.46" CO_perVeh="299.921994" CO2_perVeh="15226.234154" HC_perVeh="1.728163" PMx_perVeh="0.308616" NOx_perVeh="6.562549" fuel_perVeh="6.545094" electricity_perVeh="0"/>
        <edge id=":1110673561_0" sampledSeconds="98.58" CO_abs="10382.198926" CO2_abs="733916.008683" HC_abs="64.918883" PMx_abs="15.073069" NOx_abs="311.829732" fuel_abs="315.475284" electricity_abs="0"
            CO_normed="466.596808" CO2_normed="32983.654984" HC_normed="2.917585" PMx_normed="0.677414" NOx_normed="14.014253" fuel_normed="14.178091" electricity_normed="0"
            traveltime="1.16" CO_perVeh="122.520024" CO2_perVeh="8660.921241" HC_perVeh="0.766106" PMx_perVeh="0.177877" NOx_perVeh="3.679894" fuel_perVeh="3.722915" electricity_perVeh="0"/>
        <edge id=":1110673561_1" sampledSeconds="1315.28" CO_abs="119931.035036" CO2_abs="8357000.738967" HC_abs="748.169996" PMx_abs="173.965387" NOx_abs="3567.725699" fuel_abs="3592.271562" electricity_abs="0"
            CO_normed="5254.878237" CO2_normed="366168.951179" HC_normed="32.781692" PMx_normed="7.622438" NOx_normed="156.322874" fuel_normed="157.398372" electricity_normed="0"
            traveltime="1.19" CO_perVeh="108.894131" CO2_perVeh="7587.930276" HC_perVeh="0.679318" PMx_perVeh="0.157956" NOx_perVeh="3.239398" fuel_perVeh="3.261685" electricity_perVeh="0"/>
        <edge id=":1110673562_0" sampledSeconds="104.37" CO_abs="2165.625468" CO2_abs="173677.537450" HC_abs="13.812314" PMx_abs="2.287566" NOx_abs="65.826806" fuel_abs="74.657319" electricity_abs="0"
            CO_normed="6030.703057" CO2_normed="483646.720830" HC_normed="38.463698" PMx_normed="6.370277" NOx_normed="183.310515" fuel_normed="207.901195" electricity_normed="0"
            traveltime="0.03" CO_perVeh="0.552028" CO2_perVeh="44.271195" HC_perVeh="0.003521" PMx_perVeh="0.000583" NOx_perVeh="0.016780" fuel_perVeh="0.019030" electricity_perVeh="0"/>
        <edge id=":1110673564_0" sampledSeconds="28.59" CO_abs="579.681753" CO2_abs="62075.818544" HC_abs="4.072832" PMx_abs="0.904044" NOx_abs="23.698246" fuel_abs="26.683757" electricity_abs="0"
            CO_normed="4358.509422" CO2_normed="466735.477772" HC_normed="30.622794" PMx_normed="6.797323" NOx_normed="178.182301" fuel_normed="200.629750" electricity_normed="0"
            traveltime="7.859674e-03" CO_perVeh="0.159363" CO2_perVeh="17.065517" HC_perVeh="0.001120" PMx_perVeh="0.000249" NOx_perVeh="0.006515" fuel_perVeh="0.007336" electricity_perVeh="0"/>
        <edge id=":1110673588_0" sampledSeconds="11.65" CO_abs="180.149163" CO2_abs="23237.278076" HC_abs="1.350604" PMx_abs="0.318216" NOx_abs="8.662995" fuel_abs="9.988725" electricity_abs="0"
            CO_normed="541.801995" CO2_normed="69886.550605" HC_normed="4.061968" PMx_normed="0.957042" NOx_normed="26.054120" fuel_normed="30.041278" electricity_normed="0"
            traveltime="0.02" CO_perVeh="0.300249" CO2_perVeh="38.728797" HC_perVeh="0.002251" PMx_perVeh="0.000530" NOx_perVeh="0.014438" fuel_perVeh="0.016648" electricity_perVeh="0"/>
        <edge id=":1110673601_0" sampledSeconds="29.89" CO_abs="522.664141" CO2_abs="60272.046012" HC_abs="3.768083" PMx_abs="0.850341" NOx_abs="22.751927" fuel_abs="25.908407" electricity_abs="0"
            CO_normed="1403.501990" CO2_normed="161847.599388" HC_normed="10.118375" PMx_normed="2.283408" NOx_normed="61.095401" fuel_normed="69.571448" electricity_normed="0"
            traveltime="0.02" CO_perVeh="0.387928" CO2_perVeh="44.734719" HC_perVeh="0.002797" PMx_perVeh="0.000631" NOx_perVeh="0.016887" fuel_perVeh="0.019230" electricity_perVeh="0"/>
        <edge id=":1110673617_0" sampledSeconds="238.05" CO_abs="5960.376535" CO2_abs="747017.774422" HC_abs="45.022394" PMx_abs="13.324047" NOx_abs="281.335086" fuel_abs="321.108611" electricity_abs="0"
            CO_normed="14938.287054" CO2_normed="1872224.998552" HC_normed="112.838080" PMx_normed="33.393603" NOx_normed="705.100467" fuel_normed="804.783487" electricity_normed="0"
            traveltime="0.01" CO_perVeh="0.365275" CO2_perVeh="45.780159" HC_perVeh="0.002759" PMx_perVeh="0.000817" NOx_perVeh="0.017241" fuel_perVeh="0.019679" electricity_perVeh="0"/>
        <edge id=":1110673621_0" sampledSeconds="25.62" CO_abs="412.920382" CO2_abs="49784.270646" HC_abs="2.958727" PMx_abs="0.674657" NOx_abs="18.541741" fuel_abs="21.400177" electricity_abs="0"
            CO_normed="1241.865810" CO2_normed="149727.129763" HC_normed="8.898428" PMx_normed="2.029044" NOx_normed="55.764633" fuel_normed="64.361435" electricity_normed="0"
            traveltime="0.02" CO_perVeh="0.312818" CO2_perVeh="37.715357" HC_perVeh="0.002241" PMx_perVeh="0.000511" NOx_perVeh="0.014047" fuel_perVeh="0.016212" electricity_perVeh="0"/>
        <edge id=":1110673630_0" sampledSeconds="54.40" CO_abs="149.654529" CO2_abs="15176.449119" HC_abs="1.020918" PMx_abs="0.160157" NOx_abs="5.451718" fuel_abs="6.523805" electricity_abs="0"
            CO_normed="8.025835" CO2_normed="813.899001" HC_normed="0.054751" PMx_normed="0.008589" NOx_normed="0.292371" fuel_normed="0.349866" electricity_normed="0"
            traveltime="1.27" CO_perVeh="3.493201" CO2_perVeh="354.245166" HC_perVeh="0.023830" PMx_perVeh="0.003738" NOx_perVeh="0.127253" fuel_perVeh="0.152277" electricity_perVeh="0"/>
        <edge id=":1110673630_1" sampledSeconds="7.39" CO_abs="36.980516" CO2_abs="3157.346272" HC_abs="0.240121" PMx_abs="0.040542" NOx_abs="1.187993" fuel_abs="1.357222" electricity_abs="0"
            CO_normed="2.417817" CO2_normed="206.429962" HC_normed="0.015699" PMx_normed="0.002651" NOx_normed="0.077672" fuel_normed="0.088736" electricity_normed="0"
            traveltime="1.05" CO_perVeh="5.234165" CO2_perVeh="446.885934" HC_perVeh="0.033986" PMx_perVeh="0.005738" NOx_perVeh="0.168147" fuel_perVeh="0.192099" electricity_perVeh="0"/>
        <edge id=":1110673650_0" sampledSeconds="143.70" CO_abs="2177.942019" CO2_abs="279351.252964" HC_abs="16.270638" PMx_abs="3.779135" NOx_abs="103.912004" fuel_abs="120.081385" electricity_abs="0"
            CO_normed="5458.501301" CO2_normed="700128.453544" HC_normed="40.778542" PMx_normed="9.471516" NOx_normed="260.431089" fuel_normed="300.955851" electricity_normed="0"
            traveltime="0.02" CO_perVeh="0.349685" CO2_perVeh="44.851923" HC_perVeh="0.002612" PMx_perVeh="0.000607" NOx_perVeh="0.016684" fuel_perVeh="0.019280" electricity_perVeh="0"/>
        <edge id=":1110673655_0" sampledSeconds="44.74" CO_abs="1004.808215" CO2_abs="101551.466740" HC_abs="6.914175" PMx_abs="1.552322" NOx_abs="39.277545" fuel_abs="43.652590" electricity_abs="0"
            CO_normed="2518.316329" CO2_normed="254514.954236" HC_normed="17.328759" PMx_normed="3.890532" NOx_normed="98.439963" fuel_normed="109.404987" electricity_normed="0"
            traveltime="0.02" CO_perVeh="0.537762" CO2_perVeh="54.349193" HC_perVeh="0.003700" PMx_perVeh="0.000831" NOx_perVeh="0.021021" fuel_perVeh="0.023362" electricity_perVeh="0"/>
        <edge id=":1110673663_0" sampledSeconds="107.73" CO_abs="1797.972318" CO2_abs="223782.558607" HC_abs="13.359517" PMx_abs="3.080651" NOx_abs="83.683704" fuel_abs="96.194702" electricity_abs="0"
            CO_normed="82.531067" CO2_normed="10272.134485" HC_normed="0.613233" PMx_normed="0.141409" NOx_normed="3.841275" fuel_normed="4.415558" electricity_normed="0"
            traveltime="1.27" CO_perVeh="21.118033" CO2_perVeh="2628.431721" HC_perVeh="0.156914" PMx_perVeh="0.036184" NOx_perVeh="0.982905" fuel_perVeh="1.129852" electricity_perVeh="0"/>
        <edge id=":1110673663_1" sampledSeconds="153.23" CO_abs="2668.980091" CO2_abs="321289.705875" HC_abs="19.471653" PMx_abs="4.546057" NOx_abs="120.913998" fuel_abs="138.108786" electricity_abs="0"
            CO_normed="122.662100" CO2_normed="14765.966224" HC_normed="0.894886" PMx_normed="0.208930" NOx_normed="5.557016" fuel_normed="6.347261" electricity_normed="0"
            traveltime="1.24" CO_perVeh="21.643413" CO2_perVeh="2605.416855" HC_perVeh="0.157900" PMx_perVeh="0.036865" NOx_perVeh="0.980521" fuel_perVeh="1.119958" electricity_perVeh="0"/>
        <edge id=":1110673666_0" sampledSeconds="192.00" CO_abs="4412.387086" CO2_abs="339495.347066" HC_abs="27.867393" PMx_abs="4.785048" NOx_abs="130.890163" fuel_abs="145.935697" electricity_abs="0"