<?xml version="1.0" encoding="UTF-8"?>

<!-- generated on ter 01 set 2020 16:48:40 by Eclipse SUMO GUI Version 1.6.0
<configuration xmlns:xsi="http://www.w3.org/2001/XMLSchema-instance" xsi:noNamespaceSchemaLocation="http://sumo.dlr.de/xsd/sumoConfiguration.xsd">

    <input>
        <net-file value="../dataSets/Angeja_Estarreja/angeja_estarreja.net.xml"/>
        <route-files value="../results/angeja_estarreja/length-ttime/solution1/angeja_estarreja.rou.xml"/>
        <additional-files value="moreOutputInfo.xml"/>
    </input>

    <output>
        <emission-output.precision value="6"/>
        <tripinfo-output value="../results/angeja_estarreja/length-ttime/solution1/angeja_estarreja-tripinfo"/>
    </output>

    <processing>
        <collision.action value="warn"/>
        <time-to-teleport value="-1"/>
    </processing>

    <emissions>
        <device.emissions.probability value="1"/>
    </emissions>

    <gui_only>
        <gui-settings-file value="gui-settings.xml"/>
        <quit-on-end value="true"/>
        <start value="true"/>
    </gui_only>

</configuration>
-->

<meandata xmlns:xsi="http://www.w3.org/2001/XMLSchema-instance" xsi:noNamespaceSchemaLocation="http://sumo.dlr.de/xsd/meandata_file.xsd">
    <interval begin="0.00" end="19079.00" id="emissions-detector">
        <edge id=":10_0" sampledSeconds="420.89" CO_abs="42172.580769" CO2_abs="2324423.642481" HC_abs="247.156216" PMx_abs="45.429255" NOx_abs="990.713242" fuel_abs="999.167861" electricity_abs="0"
            CO_normed="454.974715" CO2_normed="25076.814503" HC_normed="2.666420" PMx_normed="0.490109" NOx_normed="10.688212" fuel_normed="10.779424" electricity_normed="0"
            traveltime="1.90" CO_perVeh="190.605732" CO2_perVeh="10505.604871" HC_perVeh="1.117062" PMx_perVeh="0.205325" NOx_perVeh="4.477687" fuel_perVeh="4.515899" electricity_perVeh="0"/>
        <edge id=":10_1" sampledSeconds="0.00" CO_abs="0" CO2_abs="0" HC_abs="0" PMx_abs="0" NOx_abs="0" fuel_abs="0" electricity_abs="0"
            CO_normed="0" CO2_normed="0" HC_normed="0" PMx_normed="0" NOx_normed="0" fuel_normed="0" electricity_normed="0"/>
        <edge id=":100_0" sampledSeconds="0.00" CO_abs="0" CO2_abs="0" HC_abs="0" PMx_abs="0" NOx_abs="0" fuel_abs="0" electricity_abs="0"
            CO_normed="0" CO2_normed="0" HC_normed="0" PMx_normed="0" NOx_normed="0" fuel_normed="0" electricity_normed="0"/>
        <edge id=":100_1" sampledSeconds="912.01" CO_abs="22212.449870" CO2_abs="2784757.415617" HC_abs="168.740534" PMx_abs="50.436490" NOx_abs="1041.050443" fuel_abs="1197.039494" electricity_abs="0"
            CO_normed="141.787819" CO2_normed="17775.827705" HC_normed="1.077115" PMx_normed="0.321949" NOx_normed="6.645295" fuel_normed="7.641013" electricity_normed="0"
            traveltime="1.37" CO_perVeh="33.402286" CO2_perVeh="4187.618367" HC_perVeh="0.253746" PMx_perVeh="0.075845" NOx_perVeh="1.565494" fuel_perVeh="1.800065" electricity_perVeh="0"/>
        <edge id=":101_0" sampledSeconds="438.30" CO_abs="11314.091491" CO2_abs="1370963.673232" HC_abs="84.861684" PMx_abs="25.083284" NOx_abs="515.379025" fuel_abs="589.314224" electricity_abs="0"
            CO_normed="261.303076" CO2_normed="31662.906871" HC_normed="1.959912" PMx_normed="0.579308" NOx_normed="11.902867" fuel_normed="13.610427" electricity_normed="0"
            traveltime="0.38" CO_perVeh="9.773906" CO2_perVeh="1184.334578" HC_perVeh="0.073309" PMx_perVeh="0.021669" NOx_perVeh="0.445221" fuel_perVeh="0.509091" electricity_perVeh="0"/>
        <edge id=":102_0" sampledSeconds="341.56" CO_abs="7720.044369" CO2_abs="993160.379452" HC_abs="59.221410" PMx_abs="17.858581" NOx_abs="369.578795" fuel_abs="426.914206" electricity_abs="0"
            CO_normed="179.838085" CO2_normed="23135.626243" HC_normed="1.379560" PMx_normed="0.416015" NOx_normed="8.609321" fuel_normed="9.944947" electricity_normed="0"
            traveltime="0.38" CO_perVeh="8.492727" CO2_perVeh="1092.563643" HC_perVeh="0.065149" PMx_perVeh="0.019646" NOx_perVeh="0.406569" fuel_perVeh="0.469643" electricity_perVeh="0"/>
        <edge id=":103_0" sampledSeconds="434.12" CO_abs="10477.948041" CO2_abs="1305766.215609" HC_abs="79.464973" PMx_abs="23.702606" NOx_abs="488.574780" fuel_abs="561.288982" electricity_abs="0"
            CO_normed="245.599373" CO2_normed="30606.695314" HC_normed="1.862631" PMx_normed="0.555581" NOx_normed="11.452019" fuel_normed="13.156414" electricity_normed="0"
            traveltime="0.37" CO_perVeh="9.002257" CO2_perVeh="1121.864986" HC_perVeh="0.068273" PMx_perVeh="0.020364" NOx_perVeh="0.419765" fuel_perVeh="0.482238" electricity_perVeh="0"/>
        <edge id=":104_0" sampledSeconds="340.87" CO_abs="8482.462470" CO2_abs="1032403.337473" HC_abs="63.706957" PMx_abs="18.864056" NOx_abs="387.704787" fuel_abs="443.782734" electricity_abs="0"
            CO_normed="197.842831" CO2_normed="24079.516979" HC_normed="1.485885" PMx_normed="0.439981" NOx_normed="9.042729" fuel_normed="10.350677" electricity_normed="0"
            traveltime="0.37" CO_perVeh="9.327190" CO2_perVeh="1135.215405" HC_perVeh="0.070051" PMx_perVeh="0.020743" NOx_perVeh="0.426314" fuel_perVeh="0.487977" electricity_perVeh="0"/>
        <edge id=":105_0" sampledSeconds="168.68" CO_abs="4066.474960" CO2_abs="508786.684814" HC_abs="30.880230" PMx_abs="9.223775" NOx_abs="190.239628" fuel_abs="218.704059" electricity_abs="0"
            CO_normed="3487.725642" CO2_normed="436375.087634" HC_normed="26.485291" PMx_normed="7.911027" NOx_normed="163.164321" fuel_normed="187.577635" electricity_normed="0"
            traveltime="0.01" CO_perVeh="0.245908" CO2_perVeh="30.767411" HC_perVeh="0.001867" PMx_perVeh="0.000558" NOx_perVeh="0.011504" fuel_perVeh="0.013225" electricity_perVeh="0"/>
        <edge id=":106_0" sampledSeconds="134.52" CO_abs="3263.634825" CO2_abs="410642.995603" HC_abs="24.839231" PMx_abs="7.432379" NOx_abs="153.416908" fuel_abs="176.516596" electricity_abs="0"
            CO_normed="1986.491713" CO2_normed="249947.972551" HC_normed="15.119010" PMx_normed="4.523900" NOx_normed="93.380980" fuel_normed="107.441174" electricity_normed="0"
            traveltime="0.01" CO_perVeh="0.348946" CO2_perVeh="43.905707" HC_perVeh="0.002656" PMx_perVeh="0.000795" NOx_perVeh="0.016403" fuel_perVeh="0.018873" electricity_perVeh="0"/>
        <edge id=":107_0" sampledSeconds="438.62" CO_abs="10507.321513" CO2_abs="1336795.422148" HC_abs="80.328850" PMx_abs="24.118044" NOx_abs="498.603838" fuel_abs="574.627115" electricity_abs="0"
            CO_normed="242.670429" CO2_normed="30873.778630" HC_normed="1.855224" PMx_normed="0.557015" NOx_normed="11.515438" fuel_normed="13.271223" electricity_normed="0"
            traveltime="0.38" CO_perVeh="9.076961" CO2_perVeh="1154.817646" HC_perVeh="0.069394" PMx_perVeh="0.020835" NOx_perVeh="0.430729" fuel_perVeh="0.496403" electricity_perVeh="0"/>
        <edge id=":108_0" sampledSeconds="92.96" CO_abs="8110.656700" CO2_abs="595371.133235" HC_abs="51.209727" PMx_abs="11.872780" NOx_abs="250.483717" fuel_abs="255.921788" electricity_abs="0"
            CO_normed="127.214696" CO2_normed="9338.326178" HC_normed="0.803219" PMx_normed="0.186223" NOx_normed="3.928808" fuel_normed="4.014103" electricity_normed="0"
            traveltime="0.85" CO_perVeh="74.285755" CO2_perVeh="5453.022568" HC_perVeh="0.469031" PMx_perVeh="0.108743" NOx_perVeh="2.294188" fuel_perVeh="2.343996" electricity_perVeh="0"/>
        <edge id=":108_1" sampledSeconds="402.89" CO_abs="9798.780328" CO2_abs="1208925.171890" HC_abs="74.004175" PMx_abs="22.002513" NOx_abs="453.105170" fuel_abs="519.661413" electricity_abs="0"
            CO_normed="143.327394" CO2_normed="17683.026709" HC_normed="1.082464" PMx_normed="0.321832" NOx_normed="6.627599" fuel_normed="7.601121" electricity_normed="0"
            traveltime="0.60" CO_perVeh="14.556331" CO2_perVeh="1795.888288" HC_perVeh="0.109935" PMx_perVeh="0.032685" NOx_perVeh="0.673099" fuel_perVeh="0.771970" electricity_perVeh="0"/>
        <edge id=":109_0" sampledSeconds="307.11" CO_abs="141.240165" CO2_abs="19448.795778" HC_abs="1.084164" PMx_abs="0.277256" NOx_abs="7.150660" fuel_abs="8.360208" electricity_abs="0"
            CO_normed="2.123545" CO2_normed="292.412466" HC_normed="0.016300" PMx_normed="0.004169" NOx_normed="0.107510" fuel_normed="0.125696" electricity_normed="0"
            traveltime="0.85" CO_perVeh="0.392569" CO2_perVeh="54.056767" HC_perVeh="0.003013" PMx_perVeh="0.000771" NOx_perVeh="0.019875" fuel_perVeh="0.023237" electricity_perVeh="0"/>
        <edge id=":109_1" sampledSeconds="524.33" CO_abs="12131.620942" CO2_abs="1543917.108650" HC_abs="92.637045" PMx_abs="27.837813" NOx_abs="575.595044" fuel_abs="663.659256" electricity_abs="0"
            CO_normed="118.976354" CO2_normed="15141.392058" HC_normed="0.908503" PMx_normed="0.273009" NOx_normed="5.644934" fuel_normed="6.508591" electricity_normed="0"
            traveltime="0.89" CO_perVeh="20.657261" CO2_perVeh="2628.923160" HC_perVeh="0.157739" PMx_perVeh="0.047401" NOx_perVeh="0.980101" fuel_perVeh="1.130054" electricity_perVeh="0"/>
        <edge id=":11_0" sampledSeconds="299.92" CO_abs="18206.704429" CO2_abs="1335173.275608" HC_abs="114.385900" PMx_abs="23.630069" NOx_abs="545.886761" fuel_abs="573.931854" electricity_abs="0"
            CO_normed="188.241496" CO2_normed="13804.530958" HC_normed="1.182651" PMx_normed="0.244314" NOx_normed="5.643995" fuel_normed="5.933956" electricity_normed="0"
            traveltime="1.59" CO_perVeh="96.310828" CO2_perVeh="7062.873125" HC_perVeh="0.605085" PMx_perVeh="0.125000" NOx_perVeh="2.887662" fuel_perVeh="3.036016" electricity_perVeh="0"/>
        <edge id=":11_1" sampledSeconds="50.62" CO_abs="1141.172753" CO2_abs="101018.288107" HC_abs="7.490736" PMx_abs="1.281034" NOx_abs="37.823197" fuel_abs="43.423881" electricity_abs="0"
            CO_normed="12.097017" CO2_normed="1070.845695" HC_normed="0.079406" PMx_normed="0.013580" NOx_normed="0.400945" fuel_normed="0.460315" electricity_normed="0"
            traveltime="1.66" CO_perVeh="37.533028" CO2_perVeh="3322.478803" HC_perVeh="0.246369" PMx_perVeh="0.042133" NOx_perVeh="1.244000" fuel_perVeh="1.428206" electricity_perVeh="0"/>
        <edge id=":110_0" sampledSeconds="94.66" CO_abs="2.945253" CO2_abs="223.964571" HC_abs="0.018454" PMx_abs="0.002728" NOx_abs="0.083763" fuel_abs="0.096274" electricity_abs="0"
            CO_normed="0.038195" CO2_normed="2.904445" HC_normed="0.000239" PMx_normed="0.000035" NOx_normed="0.001086" fuel_normed="0.001249" electricity_normed="0"
            traveltime="0.93" CO_perVeh="0.028836" CO2_perVeh="2.192776" HC_perVeh="0.000181" PMx_perVeh="0.000027" NOx_perVeh="0.000820" fuel_perVeh="0.000943" electricity_perVeh="0"/>
        <edge id=":110_1" sampledSeconds="444.23" CO_abs="10241.630286" CO2_abs="1273936.532432" HC_abs="77.658545" PMx_abs="23.139464" NOx_abs="476.982160" fuel_abs="547.606841" electricity_abs="0"
            CO_normed="131.461521" CO2_normed="16352.243667" HC_normed="0.996825" PMx_normed="0.297018" NOx_normed="6.122541" fuel_normed="7.029079" electricity_normed="0"
            traveltime="0.68" CO_perVeh="15.732644" CO2_perVeh="1956.953103" HC_perVeh="0.119295" PMx_perVeh="0.035546" NOx_perVeh="0.732714" fuel_perVeh="0.841204" electricity_perVeh="0"/>
        <edge id=":111_0" sampledSeconds="340.98" CO_abs="8215.513769" CO2_abs="1072372.218226" HC_abs="63.449194" PMx_abs="19.208645" NOx_abs="398.391468" fuel_abs="460.963792" electricity_abs="0"
            CO_normed="189.740292" CO2_normed="24766.828137" HC_normed="1.465382" PMx_normed="0.443631" NOx_normed="9.200996" fuel_normed="10.646127" electricity_normed="0"
            traveltime="0.38" CO_perVeh="9.130292" CO2_perVeh="1191.778317" HC_perVeh="0.070514" PMx_perVeh="0.021347" NOx_perVeh="0.442751" fuel_perVeh="0.512291" electricity_perVeh="0"/>
        <edge id=":114_0" sampledSeconds="106.59" CO_abs="11101.382580" CO2_abs="786160.674307" HC_abs="69.479089" PMx_abs="16.137713" NOx_abs="334.096457" fuel_abs="337.932749" electricity_abs="0"
            CO_normed="147.514808" CO2_normed="10446.477277" HC_normed="0.923236" PMx_normed="0.214437" NOx_normed="4.439463" fuel_normed="4.490439" electricity_normed="0"
            traveltime="0.99" CO_perVeh="102.700174" CO2_perVeh="7272.863334" HC_perVeh="0.642759" PMx_perVeh="0.149292" NOx_perVeh="3.090765" fuel_perVeh="3.126255" electricity_perVeh="0"/>
        <edge id=":114_1" sampledSeconds="416.50" CO_abs="9555.561924" CO2_abs="1218386.740860" HC_abs="73.044787" PMx_abs="21.949652" NOx_abs="454.375673" fuel_abs="523.728651" electricity_abs="0"
            CO_normed="126.174297" CO2_normed="16087.917411" HC_normed="0.964504" PMx_normed="0.289829" NOx_normed="5.999703" fuel_normed="6.915459" electricity_normed="0"
            traveltime="0.66" CO_perVeh="15.226518" CO2_perVeh="1941.464893" HC_perVeh="0.116395" PMx_perVeh="0.034976" NOx_perVeh="0.724035" fuel_perVeh="0.834547" electricity_perVeh="0"/>
        <edge id=":115_0" sampledSeconds="80.39" CO_abs="78.963174" CO2_abs="12393.003240" HC_abs="0.641649" PMx_abs="0.153191" NOx_abs="4.492270" fuel_abs="5.327242" electricity_abs="0"
            CO_normed="1.784370" CO2_normed="280.050905" HC_normed="0.014500" PMx_normed="0.003462" NOx_normed="0.101514" fuel_normed="0.120382" electricity_normed="0"
            traveltime="0.63" CO_perVeh="0.621376" CO2_perVeh="97.522926" HC_perVeh="0.005049" PMx_perVeh="0.001205" NOx_perVeh="0.035351" fuel_perVeh="0.041921" electricity_perVeh="0"/>
        <edge id=":115_1" sampledSeconds="72.27" CO_abs="1097.689513" CO2_abs="178802.247549" HC_abs="8.989609" PMx_abs="2.631926" NOx_abs="65.943009" fuel_abs="76.859180" electricity_abs="0"
            CO_normed="22.152095" CO2_normed="3608.346670" HC_normed="0.181416" PMx_normed="0.053114" NOx_normed="1.330773" fuel_normed="1.551069" electricity_normed="0"
            traveltime="0.59" CO_perVeh="8.986554" CO2_perVeh="1463.816607" HC_perVeh="0.073596" PMx_perVeh="0.021547" NOx_perVeh="0.539862" fuel_perVeh="0.629230" electricity_perVeh="0"/>
        <edge id=":116_0" sampledSeconds="75.27" CO_abs="125.024239" CO2_abs="19217.224746" HC_abs="0.998786" PMx_abs="0.240999" NOx_abs="6.981864" fuel_abs="8.260690" electricity_abs="0"
            CO_normed="3.153839" CO2_normed="484.770255" HC_normed="0.025195" PMx_normed="0.006079" NOx_normed="0.176123" fuel_normed="0.208383" electricity_normed="0"
            traveltime="0.57" CO_perVeh="0.944027" CO2_perVeh="145.104470" HC_perVeh="0.007542" PMx_perVeh="0.001820" NOx_perVeh="0.052718" fuel_perVeh="0.062374" electricity_perVeh="0"/>
        <edge id=":117_0" sampledSeconds="241.60" CO_abs="13986.052672" CO2_abs="1162991.969386" HC_abs="91.368517" PMx_abs="21.400130" NOx_abs="475.089282" fuel_abs="499.916470" electricity_abs="0"
            CO_normed="316.049841" CO2_normed="26280.712372" HC_normed="2.064700" PMx_normed="0.483589" NOx_normed="10.735831" fuel_normed="11.296863" electricity_normed="0"
            traveltime="0.60" CO_perVeh="34.869060" CO2_perVeh="2899.491212" HC_perVeh="0.227794" PMx_perVeh="0.053353" NOx_perVeh="1.184460" fuel_perVeh="1.246357" electricity_perVeh="0"/>
        <edge id=":117_1" sampledSeconds="75.55" CO_abs="4628.208072" CO2_abs="387828.363105" HC_abs="30.287366" PMx_abs="7.103271" NOx_abs="158.154966" fuel_abs="166.709503" electricity_abs="0"
            CO_normed="98.565754" CO2_normed="8259.480613" HC_normed="0.645022" PMx_normed="0.151277" NOx_normed="3.368186" fuel_normed="3.550369" electricity_normed="0"
            traveltime="0.64" CO_perVeh="39.128910" CO2_perVeh="3278.871816" HC_perVeh="0.256063" PMx_perVeh="0.060054" NOx_perVeh="1.337112" fuel_perVeh="1.409436" electricity_perVeh="0"/>
        <edge id=":118_0" sampledSeconds="898.39" CO_abs="12285.630505" CO2_abs="1943239.434955" HC_abs="99.257481" PMx_abs="28.504618" NOx_abs="718.065867" fuel_abs="835.312946" electricity_abs="0"
            CO_normed="37.275526" CO2_normed="5895.934514" HC_normed="0.301155" PMx_normed="0.086485" NOx_normed="2.178666" fuel_normed="2.534402" electricity_normed="0"
            traveltime="3.92" CO_perVeh="53.599816" CO2_perVeh="8477.975678" HC_perVeh="0.433041" PMx_perVeh="0.124360" NOx_perVeh="3.132782" fuel_perVeh="3.644308" electricity_perVeh="0"/>
        <edge id=":118_4" sampledSeconds="284.21" CO_abs="3609.216836" CO2_abs="603964.686338" HC_abs="29.842908" PMx_abs="8.572852" NOx_abs="220.932464" fuel_abs="259.618085" electricity_abs="0"
            CO_normed="10.971806" CO2_normed="1836.016981" HC_normed="0.090721" PMx_normed="0.026061" NOx_normed="0.671622" fuel_normed="0.789224" electricity_normed="0"
            traveltime="3.94" CO_perVeh="50.039556" CO2_perVeh="8373.596269" HC_perVeh="0.413753" PMx_perVeh="0.118857" NOx_perVeh="3.063092" fuel_perVeh="3.599444" electricity_perVeh="0"/>
        <edge id=":118_5" sampledSeconds="238.71" CO_abs="3645.669751" CO2_abs="560195.179384" HC_abs="29.029558" PMx_abs="8.385633" NOx_abs="208.068179" fuel_abs="240.803024" electricity_abs="0"
            CO_normed="11.192617" CO2_normed="1719.862409" HC_normed="0.089124" PMx_normed="0.025745" NOx_normed="0.638793" fuel_normed="0.739292" electricity_normed="0"
            traveltime="3.82" CO_perVeh="58.346969" CO2_perVeh="8965.620290" HC_perVeh="0.464602" PMx_perVeh="0.134208" NOx_perVeh="3.330018" fuel_perVeh="3.853922" electricity_perVeh="0"/>
        <edge id=":119_0" sampledSeconds="138.82" CO_abs="2032.646685" CO2_abs="314135.158169" HC_abs="16.318723" PMx_abs="4.659728" NOx_abs="116.590847" fuel_abs="135.032806" electricity_abs="0"
            CO_normed="43.583903" CO2_normed="6735.669450" HC_normed="0.349905" PMx_normed="0.099914" NOx_normed="2.499935" fuel_normed="2.895366" electricity_normed="0"
            traveltime="0.56" CO_perVeh="8.148764" CO2_perVeh="1259.349771" HC_perVeh="0.065421" PMx_perVeh="0.018681" NOx_perVeh="0.467406" fuel_perVeh="0.541339" electricity_perVeh="0"/>
        <edge id=":12_0" sampledSeconds="586.36" CO_abs="54174.425434" CO2_abs="3085837.122048" HC_abs="319.976922" PMx_abs="60.481231" NOx_abs="1314.682785" fuel_abs="1326.464510" electricity_abs="0"
            CO_normed="507.553399" CO2_normed="28910.821064" HC_normed="2.997824" PMx_normed="0.566641" NOx_normed="12.317098" fuel_normed="12.427480" electricity_normed="0"
            traveltime="2.11" CO_perVeh="194.552925" CO2_perVeh="11081.956743" HC_perVeh="1.149111" PMx_perVeh="0.217202" NOx_perVeh="4.721331" fuel_perVeh="4.763642" electricity_perVeh="0"/>
        <edge id=":12_1" sampledSeconds="56.38" CO_abs="990.101654" CO2_abs="86514.422926" HC_abs="6.482827" PMx_abs="1.148818" NOx_abs="32.738023" fuel_abs="37.189157" electricity_abs="0"
            CO_normed="9.266936" CO2_normed="809.738670" HC_normed="0.060677" PMx_normed="0.010752" NOx_normed="0.306414" fuel_normed="0.348075" electricity_normed="0"
            traveltime="1.90" CO_perVeh="33.387611" CO2_perVeh="2917.387204" HC_perVeh="0.218610" PMx_perVeh="0.038740" NOx_perVeh="1.103972" fuel_perVeh="1.254070" electricity_perVeh="0"/>
        <edge id=":120_0" sampledSeconds="39.02" CO_abs="461.629208" CO2_abs="77874.156047" HC_abs="3.820178" PMx_abs="1.120409" NOx_abs="28.495678" fuel_abs="33.474684" electricity_abs="0"
            CO_normed="362.935066" CO2_normed="61225.029651" HC_normed="3.003442" PMx_normed="0.880871" NOx_normed="22.403437" fuel_normed="26.317955" electricity_normed="0"
            traveltime="0.02" CO_perVeh="0.177621" CO2_perVeh="29.963603" HC_perVeh="0.001470" PMx_perVeh="0.000431" NOx_perVeh="0.010964" fuel_perVeh="0.012880" electricity_perVeh="0"/>
        <edge id=":121_0" sampledSeconds="372.46" CO_abs="53038.304839" CO2_abs="1424971.103747" HC_abs="274.970215" PMx_abs="30.755282" NOx_abs="630.193276" fuel_abs="612.551030" electricity_abs="0"
            CO_normed="30326.520738" CO2_normed="814777.468085" HC_normed="157.223915" PMx_normed="17.585417" NOx_normed="360.335224" fuel_normed="350.247648" electricity_normed="0"
            traveltime="0.11" CO_perVeh="16.270680" CO2_perVeh="437.141592" HC_perVeh="0.084353" PMx_perVeh="0.009435" NOx_perVeh="0.193326" fuel_perVeh="0.187914" electricity_perVeh="0"/>
        <edge id=":122_0" sampledSeconds="134.70" CO_abs="1309.444579" CO2_abs="126368.465246" HC_abs="8.954872" PMx_abs="2.304466" NOx_abs="50.558625" fuel_abs="54.319902" electricity_abs="0"
            CO_normed="28.830568" CO2_normed="2782.305292" HC_normed="0.197163" PMx_normed="0.050738" NOx_normed="1.113170" fuel_normed="1.195983" electricity_normed="0"
            traveltime="0.54" CO_perVeh="5.207668" CO2_perVeh="502.568067" HC_perVeh="0.035614" PMx_perVeh="0.009165" NOx_perVeh="0.201072" fuel_perVeh="0.216031" electricity_perVeh="0"/>
        <edge id=":123_0" sampledSeconds="312.04" CO_abs="40769.291154" CO2_abs="2488708.492854" HC_abs="245.437887" PMx_abs="51.292547" NOx_abs="1069.289799" fuel_abs="1069.779809" electricity_abs="0"
            CO_normed="155.471347" CO2_normed="9490.546724" HC_normed="0.935963" PMx_normed="0.195601" NOx_normed="4.077675" fuel_normed="4.079544" electricity_normed="0"
            traveltime="4.25" CO_perVeh="555.198705" CO2_perVeh="33891.384740" HC_perVeh="3.342388" PMx_perVeh="0.698505" NOx_perVeh="14.561654" fuel_perVeh="14.568327" electricity_perVeh="0"/>
        <edge id=":123_1" sampledSeconds="0.00" CO_abs="0" CO2_abs="0" HC_abs="0" PMx_abs="0" NOx_abs="0" fuel_abs="0" electricity_abs="0"
            CO_normed="0" CO2_normed="0" HC_normed="0" PMx_normed="0" NOx_normed="0" fuel_normed="0" electricity_normed="0"/>
        <edge id=":123_2" sampledSeconds="265.01" CO_abs="35505.644277" CO2_abs="2175387.316705" HC_abs="213.969966" PMx_abs="44.993362" NOx_abs="935.513563" fuel_abs="935.097299" electricity_abs="0"
            CO_normed="136.697190" CO2_normed="8375.269339" HC_normed="0.823787" PMx_normed="0.173225" NOx_normed="3.601739" fuel_normed="3.600137" electricity_normed="0"
            traveltime="4.17" CO_perVeh="558.077928" CO2_perVeh="34192.750793" HC_perVeh="3.363181" PMx_perVeh="0.707206" NOx_perVeh="14.704408" fuel_perVeh="14.697865" electricity_perVeh="0"/>
        <edge id=":123_3" sampledSeconds="469.02" CO_abs="22360.129953" CO2_abs="2133043.076459" HC_abs="152.263613" PMx_abs="39.538656" NOx_abs="853.506368" fuel_abs="916.895234" electricity_abs="0"
            CO_normed="88.081703" CO2_normed="8402.548064" HC_normed="0.599801" PMx_normed="0.155752" NOx_normed="3.362158" fuel_normed="3.611862" electricity_normed="0"
            traveltime="2.81" CO_perVeh="133.834436" CO2_perVeh="12767.126926" HC_perVeh="0.911359" PMx_perVeh="0.236655" NOx_perVeh="5.108581" fuel_perVeh="5.487989" electricity_perVeh="0"/>
        <edge id=":123_5" sampledSeconds="0.00" CO_abs="0" CO2_abs="0" HC_abs="0" PMx_abs="0" NOx_abs="0" fuel_abs="0" electricity_abs="0"
            CO_normed="0" CO2_normed="0" HC_normed="0" PMx_normed="0" NOx_normed="0" fuel_normed="0" electricity_normed="0"/>
        <edge id=":123_6" sampledSeconds="194.88" CO_abs="9573.064432" CO2_abs="890189.394766" HC_abs="64.693122" PMx_abs="16.683088" NOx_abs="358.097517" fuel_abs="382.650553" electricity_abs="0"
            CO_normed="36.425353" CO2_normed="3387.156011" HC_normed="0.246156" PMx_normed="0.063479" NOx_normed="1.362555" fuel_normed="1.455979" electricity_normed="0"
            traveltime="2.92" CO_perVeh="143.217346" CO2_perVeh="13317.633385" HC_perVeh="0.967838" PMx_perVeh="0.249586" NOx_perVeh="5.357300" fuel_perVeh="5.724624" electricity_perVeh="0"/>
        <edge id=":124_0" sampledSeconds="118.79" CO_abs="4074.838233" CO2_abs="370458.234949" HC_abs="27.218233" PMx_abs="6.998690" NOx_abs="149.303106" fuel_abs="159.242548" electricity_abs="0"
            CO_normed="95.394256" CO2_normed="8672.635704" HC_normed="0.637194" PMx_normed="0.163843" NOx_normed="3.495270" fuel_normed="3.727958" electricity_normed="0"
            traveltime="0.46" CO_perVeh="15.865011" CO2_perVeh="1442.345390" HC_perVeh="0.105972" PMx_perVeh="0.027249" NOx_perVeh="0.581298" fuel_perVeh="0.619996" electricity_perVeh="0"/>
        <edge id=":125_0" sampledSeconds="141.08" CO_abs="5789.959623" CO2_abs="582425.982915" HC_abs="40.055930" PMx_abs="10.850233" NOx_abs="229.967441" fuel_abs="250.357605" electricity_abs="0"
            CO_normed="364.167490" CO2_normed="36632.484905" HC_normed="2.519373" PMx_normed="0.682440" NOx_normed="14.464119" fuel_normed="15.746587" electricity_normed="0"
            traveltime="0.16" CO_perVeh="6.630990" CO2_perVeh="667.027276" HC_perVeh="0.045874" PMx_perVeh="0.012426" NOx_perVeh="0.263372" fuel_perVeh="0.286724" electricity_perVeh="0"/>
        <edge id=":125_3" sampledSeconds="0.00" CO_abs="0" CO2_abs="0" HC_abs="0" PMx_abs="0" NOx_abs="0" fuel_abs="0" electricity_abs="0"
            CO_normed="0" CO2_normed="0" HC_normed="0" PMx_normed="0" NOx_normed="0" fuel_normed="0" electricity_normed="0"/>
        <edge id=":126_0" sampledSeconds="27.93" CO_abs="330.253355" CO2_abs="24515.718494" HC_abs="2.073214" PMx_abs="0.389049" NOx_abs="9.741346" fuel_abs="10.538286" electricity_abs="0"
            CO_normed="10.875257" CO2_normed="807.303614" HC_normed="0.068271" PMx_normed="0.012811" NOx_normed="0.320783" fuel_normed="0.347026" electricity_normed="0"
            traveltime="0.56" CO_perVeh="6.587878" CO2_perVeh="489.038402" HC_perVeh="0.041356" PMx_perVeh="0.007761" NOx_perVeh="0.194320" fuel_perVeh="0.210217" electricity_perVeh="0"/>
        <edge id=":126_1" sampledSeconds="80.90" CO_abs="1372.114898" CO2_abs="193899.158828" HC_abs="10.695050" PMx_abs="3.196403" NOx_abs="72.541737" fuel_abs="83.348437" electricity_abs="0"
            CO_normed="40.202356" CO2_normed="5681.159082" HC_normed="0.313360" PMx_normed="0.093653" NOx_normed="2.125441" fuel_normed="2.442072" electricity_normed="0"
            traveltime="0.35" CO_perVeh="5.937377" CO2_perVeh="839.034975" HC_perVeh="0.046279" PMx_perVeh="0.013831" NOx_perVeh="0.313901" fuel_perVeh="0.360663" electricity_perVeh="0"/>
        <edge id=":127_0" sampledSeconds="234.78" CO_abs="4683.315779" CO2_abs="643499.794427" HC_abs="36.276348" PMx_abs="10.791852" NOx_abs="241.429752" fuel_abs="276.611232" electricity_abs="0"
            CO_normed="108.295441" CO2_normed="14880.075902" HC_normed="0.838842" PMx_normed="0.249547" NOx_normed="5.582742" fuel_normed="6.396266" electricity_normed="0"
            traveltime="0.44" CO_perVeh="8.757914" CO2_perVeh="1203.360159" HC_perVeh="0.067838" PMx_perVeh="0.020181" NOx_perVeh="0.451479" fuel_perVeh="0.517270" electricity_perVeh="0"/>
        <edge id=":128_0" sampledSeconds="229.64" CO_abs="352.291654" CO2_abs="46471.316239" HC_abs="2.666612" PMx_abs="0.741370" NOx_abs="17.553297" fuel_abs="19.975932" electricity_abs="0"
            CO_normed="5.444194" CO2_normed="718.151716" HC_normed="0.041209" PMx_normed="0.011457" NOx_normed="0.271263" fuel_normed="0.308701" electricity_normed="0"
            traveltime="0.75" CO_perVeh="1.158111" CO2_perVeh="152.768132" HC_perVeh="0.008766" PMx_perVeh="0.002437" NOx_perVeh="0.057704" fuel_perVeh="0.065668" electricity_perVeh="0"/>
        <edge id=":128_1" sampledSeconds="141.90" CO_abs="145.174942" CO2_abs="21031.155397" HC_abs="1.142026" PMx_abs="0.261055" NOx_abs="7.667203" fuel_abs="9.040433" electricity_abs="0"
            CO_normed="2.317507" CO2_normed="335.731854" HC_normed="0.018231" PMx_normed="0.004167" NOx_normed="0.122396" fuel_normed="0.144317" electricity_normed="0"
            traveltime="0.85" CO_perVeh="0.870241" CO2_perVeh="126.069822" HC_perVeh="0.006846" PMx_perVeh="0.001565" NOx_perVeh="0.045961" fuel_perVeh="0.054192" electricity_perVeh="0"/>
        <edge id=":129_0" sampledSeconds="104.48" CO_abs="6178.504900" CO2_abs="544065.030229" HC_abs="41.015567" PMx_abs="10.350099" NOx_abs="221.294184" fuel_abs="233.867861" electricity_abs="0"
            CO_normed="143.927993" CO2_normed="12673.970339" HC_normed="0.955456" PMx_normed="0.241105" NOx_normed="5.155038" fuel_normed="5.447941" electricity_normed="0"
            traveltime="0.50" CO_perVeh="29.282870" CO2_perVeh="2578.582689" HC_perVeh="0.194392" PMx_perVeh="0.049054" NOx_perVeh="1.048818" fuel_perVeh="1.108411" electricity_perVeh="0"/>
        <edge id=":13_0" sampledSeconds="60.06" CO_abs="5337.700237" CO2_abs="378479.546382" HC_abs="33.351663" PMx_abs="7.349625" NOx_abs="158.808169" fuel_abs="162.690764" electricity_abs="0"
            CO_normed="37.735708" CO2_normed="2675.720423" HC_normed="0.235785" PMx_normed="0.051959" NOx_normed="1.122719" fuel_normed="1.150168" electricity_normed="0"
            traveltime="2.12" CO_perVeh="188.803037" CO2_perVeh="13387.429884" HC_perVeh="1.179702" PMx_perVeh="0.259968" NOx_perVeh="5.617300" fuel_perVeh="5.754634" electricity_perVeh="0"/>
        <edge id=":13_1" sampledSeconds="534.44" CO_abs="13141.467329" CO2_abs="1008597.729219" HC_abs="83.002552" PMx_abs="14.551567" NOx_abs="391.106682" fuel_abs="433.556002" electricity_abs="0"
            CO_normed="130.921441" CO2_normed="10048.122109" HC_normed="0.826910" PMx_normed="0.144970" NOx_normed="3.896388" fuel_normed="4.319288" electricity_normed="0"
            traveltime="1.87" CO_perVeh="45.879988" CO2_perVeh="3521.254521" HC_perVeh="0.289782" PMx_perVeh="0.050803" NOx_perVeh="1.365446" fuel_perVeh="1.513647" electricity_perVeh="0"/>
        <edge id=":132_0" sampledSeconds="41.23" CO_abs="477.831617" CO2_abs="87321.461953" HC_abs="4.056722" PMx_abs="1.200075" NOx_abs="31.659752" fuel_abs="37.535705" electricity_abs="0"
            CO_normed="901.616343" CO2_normed="164766.110923" HC_normed="7.654593" PMx_normed="2.264410" NOx_normed="59.738513" fuel_normed="70.825796" electricity_normed="0"
            traveltime="6.391698e-03" CO_perVeh="0.074078" CO2_perVeh="13.537366" HC_perVeh="0.000629" PMx_perVeh="0.000186" NOx_perVeh="0.004908" fuel_perVeh="0.005819" electricity_perVeh="0"/>