<?xml version="1.0" encoding="UTF-8"?>

<!-- generated on Tue Nov 10 00:04:45 2020 by Eclipse SUMO sumo Version 1.7.0
<configuration xmlns:xsi="http://www.w3.org/2001/XMLSchema-instance" xsi:noNamespaceSchemaLocation="http://sumo.dlr.de/xsd/sumoConfiguration.xsd">

    <input>
        <net-file value="../dataSets/Porto/6AM7AM_Routing_SaoBento/Porto.net.xml"/>
        <route-files value="../results/Porto/6AM7AM_Routing_SaoBento/cost_hc-length/solution9/Porto.rou.xml"/>
        <additional-files value="moreOutputInfo.xml"/>
    </input>

    <output>
        <emission-output.precision value="6"/>
        <tripinfo-output value="../results/Porto/6AM7AM_Routing_SaoBento/cost_hc-length/solution9/Porto-tripinfo"/>
    </output>

    <processing>
        <collision.action value="warn"/>
        <time-to-teleport value="-1"/>
    </processing>

    <emissions>
        <device.emissions.probability value="1"/>
    </emissions>

    <gui_only>
        <quit-on-end value="true"/>
        <start value="true"/>
    </gui_only>

</configuration>
-->

<meandata xmlns:xsi="http://www.w3.org/2001/XMLSchema-instance" xsi:noNamespaceSchemaLocation="http://sumo.dlr.de/xsd/meandata_file.xsd">
    <interval begin="0.00" end="4790.00" id="emissions-detector">
        <edge id=":1092997347_0" sampledSeconds="267.64" CO_abs="34796.709860" CO2_abs="1377832.532981" HC_abs="191.027920" PMx_abs="28.246219" NOx_abs="598.974805" fuel_abs="592.275863" electricity_abs="0"
            CO_normed="59436.399458" CO2_normed="2353481.267191" HC_normed="326.295556" PMx_normed="48.247480" NOx_normed="1023.111263" fuel_normed="1011.668773" electricity_normed="0"
            traveltime="0.08" CO_perVeh="9.796650" CO2_perVeh="387.914347" HC_perVeh="0.053782" PMx_perVeh="0.007952" NOx_perVeh="0.168635" fuel_perVeh="0.166749" electricity_perVeh="0"/>
        <edge id=":1103427051_0" sampledSeconds="11.02" CO_abs="837.737389" CO2_abs="47354.014039" HC_abs="4.935882" PMx_abs="0.912916" NOx_abs="20.100283" fuel_abs="20.355417" electricity_abs="0"
            CO_normed="2171.085308" CO2_normed="122722.950502" HC_normed="12.791860" PMx_normed="2.365918" NOx_normed="52.092014" fuel_normed="52.753221" electricity_normed="0"
            traveltime="0.03" CO_perVeh="2.295388" CO2_perVeh="129.749283" HC_perVeh="0.013524" PMx_perVeh="0.002501" NOx_perVeh="0.055074" fuel_perVeh="0.055774" electricity_perVeh="0"/>
        <edge id=":1105984386_0" sampledSeconds="22.95" CO_abs="413.114135" CO2_abs="35586.220652" HC_abs="2.675499" PMx_abs="0.383052" NOx_abs="12.908208" fuel_abs="15.297260" electricity_abs="0"
            CO_normed="31.975534" CO2_normed="2754.416585" HC_normed="0.207087" PMx_normed="0.029649" NOx_normed="0.999111" fuel_normed="1.184026" electricity_normed="0"
            traveltime="0.96" CO_perVeh="17.338080" CO2_perVeh="1493.526117" HC_perVeh="0.112289" PMx_perVeh="0.016076" NOx_perVeh="0.541747" fuel_perVeh="0.642014" electricity_perVeh="0"/>
        <edge id=":1105984390_0" sampledSeconds="23.40" CO_abs="0" CO2_abs="0" HC_abs="0" PMx_abs="0" NOx_abs="0" fuel_abs="0" electricity_abs="0"
            CO_normed="0" CO2_normed="0" HC_normed="0" PMx_normed="0" NOx_normed="0" fuel_normed="0" electricity_normed="0"
            traveltime="1.06" CO_perVeh="0" CO2_perVeh="0" HC_perVeh="0" PMx_perVeh="0" NOx_perVeh="0" fuel_perVeh="0" electricity_perVeh="0"/>
        <edge id=":1105984390_1" sampledSeconds="645.97" CO_abs="15870.432943" CO2_abs="1960367.186083" HC_abs="119.092545" PMx_abs="35.163305" NOx_abs="739.221330" fuel_abs="842.671668" electricity_abs="0"
            CO_normed="908.429096" CO2_normed="112212.098859" HC_normed="6.816899" PMx_normed="2.012760" NOx_normed="42.313286" fuel_normed="48.234819" electricity_normed="0"
            traveltime="0.64" CO_perVeh="15.628906" CO2_perVeh="1930.533005" HC_perVeh="0.117280" PMx_perVeh="0.034628" NOx_perVeh="0.727971" fuel_perVeh="0.829847" electricity_perVeh="0"/>
        <edge id=":1105984395_0" sampledSeconds="9.00" CO_abs="181.067096" CO2_abs="13063.318644" HC_abs="1.124122" PMx_abs="0.189470" NOx_abs="5.087446" fuel_abs="5.615407" electricity_abs="0"
            CO_normed="147.917207" CO2_normed="10671.677207" HC_normed="0.918317" PMx_normed="0.154782" NOx_normed="4.156033" fuel_normed="4.587334" electricity_normed="0"
            traveltime="0.09" CO_perVeh="1.836290" CO2_perVeh="132.481507" HC_perVeh="0.011400" PMx_perVeh="0.001922" NOx_perVeh="0.051594" fuel_perVeh="0.056949" electricity_perVeh="0"/>
        <edge id=":1105984398_0" sampledSeconds="23.49" CO_abs="1648.832391" CO2_abs="112331.351380" HC_abs="10.165191" PMx_abs="2.065654" NOx_abs="46.612671" fuel_abs="48.286235" electricity_abs="0"
            CO_normed="102.498426" CO2_normed="6982.994020" HC_normed="0.631911" PMx_normed="0.128410" NOx_normed="2.897642" fuel_normed="3.001678" electricity_normed="0"
            traveltime="1.10" CO_perVeh="77.150926" CO2_perVeh="5256.124149" HC_perVeh="0.475642" PMx_perVeh="0.096655" NOx_perVeh="2.181065" fuel_perVeh="2.259373" electricity_perVeh="0"/>
        <edge id=":1105984398_1" sampledSeconds="453.20" CO_abs="8393.892318" CO2_abs="937221.117952" HC_abs="59.909024" PMx_abs="13.872727" NOx_abs="357.828716" fuel_abs="402.871030" electricity_abs="0"
            CO_normed="505.089037" CO2_normed="56395.780919" HC_normed="3.604930" PMx_normed="0.834769" NOx_normed="21.531770" fuel_normed="24.242119" electricity_normed="0"
            traveltime="0.95" CO_perVeh="17.672866" CO2_perVeh="1973.266065" HC_perVeh="0.126135" PMx_perVeh="0.029208" NOx_perVeh="0.753388" fuel_perVeh="0.848222" electricity_perVeh="0"/>
        <edge id=":1106006327_0" sampledSeconds="36.89" CO_abs="5143.251299" CO2_abs="174167.876720" HC_abs="27.533297" PMx_abs="3.671606" NOx_abs="76.480402" fuel_abs="74.868372" electricity_abs="0"
            CO_normed="436.285732" CO2_normed="14774.109818" HC_normed="2.335562" PMx_normed="0.311451" NOx_normed="6.487590" fuel_normed="6.350847" electricity_normed="0"
            traveltime="2.00" CO_perVeh="279.017919" CO2_perVeh="9448.490006" HC_perVeh="1.493663" PMx_perVeh="0.199182" NOx_perVeh="4.149010" fuel_perVeh="4.061559" electricity_perVeh="0"/>
        <edge id=":1106006327_1" sampledSeconds="160.79" CO_abs="21805.287240" CO2_abs="731568.734176" HC_abs="116.533607" PMx_abs="15.270759" NOx_abs="320.242195" fuel_abs="314.474930" electricity_abs="0"
            CO_normed="1613.002689" CO2_normed="54116.339878" HC_normed="8.620341" PMx_normed="1.129624" NOx_normed="23.689278" fuel_normed="23.262657" electricity_normed="0"
            traveltime="2.28" CO_perVeh="309.554156" CO2_perVeh="10385.561060" HC_perVeh="1.654345" PMx_perVeh="0.216788" NOx_perVeh="4.546251" fuel_perVeh="4.464377" electricity_perVeh="0"/>
        <edge id=":1106006327_2" sampledSeconds="0.00" CO_abs="0" CO2_abs="0" HC_abs="0" PMx_abs="0" NOx_abs="0" fuel_abs="0" electricity_abs="0"
            CO_normed="0" CO2_normed="0" HC_normed="0" PMx_normed="0" NOx_normed="0" fuel_normed="0" electricity_normed="0"/>
        <edge id=":1106006327_3" sampledSeconds="0.00" CO_abs="0" CO2_abs="0" HC_abs="0" PMx_abs="0" NOx_abs="0" fuel_abs="0" electricity_abs="0"
            CO_normed="0" CO2_normed="0" HC_normed="0" PMx_normed="0" NOx_normed="0" fuel_normed="0" electricity_normed="0"/>
        <edge id=":1107381198_0" sampledSeconds="0.00" CO_abs="0" CO2_abs="0" HC_abs="0" PMx_abs="0" NOx_abs="0" fuel_abs="0" electricity_abs="0"
            CO_normed="0" CO2_normed="0" HC_normed="0" PMx_normed="0" NOx_normed="0" fuel_normed="0" electricity_normed="0"/>
        <edge id=":1107381198_1" sampledSeconds="36.68" CO_abs="1613.641315" CO2_abs="66902.097092" HC_abs="8.898363" PMx_abs="1.198879" NOx_abs="27.993170" fuel_abs="28.758769" electricity_abs="0"
            CO_normed="132.252733" CO2_normed="5483.241612" HC_normed="0.729303" PMx_normed="0.098259" NOx_normed="2.294297" fuel_normed="2.357045" electricity_normed="0"
            traveltime="1.51" CO_perVeh="66.438088" CO2_perVeh="2754.544856" HC_perVeh="0.366370" PMx_perVeh="0.049361" NOx_perVeh="1.152556" fuel_perVeh="1.184078" electricity_perVeh="0"/>
        <edge id=":1110338277_0" sampledSeconds="97.22" CO_abs="1239.799803" CO2_abs="162588.178552" HC_abs="9.313490" PMx_abs="2.101341" NOx_abs="59.923990" fuel_abs="69.889953" electricity_abs="0"
            CO_normed="3327.825298" CO2_normed="436413.243951" HC_normed="24.998928" PMx_normed="5.640342" NOx_normed="160.845783" fuel_normed="187.596057" electricity_normed="0"
            traveltime="0.02" CO_perVeh="0.279412" CO2_perVeh="36.642244" HC_perVeh="0.002099" PMx_perVeh="0.000474" NOx_perVeh="0.013505" fuel_perVeh="0.015751" electricity_perVeh="0"/>
        <edge id=":1110338293_0" sampledSeconds="124.09" CO_abs="5914.700527" CO2_abs="412084.627083" HC_abs="36.596096" PMx_abs="7.110921" NOx_abs="167.881501" fuel_abs="177.137400" electricity_abs="0"
            CO_normed="14817.621362" CO2_normed="1032362.322547" HC_normed="91.681241" PMx_normed="17.814416" NOx_normed="420.579962" fuel_normed="443.768017" electricity_normed="0"
            traveltime="0.03" CO_perVeh="1.356635" CO2_perVeh="94.518436" HC_perVeh="0.008394" PMx_perVeh="0.001631" NOx_perVeh="0.038506" fuel_perVeh="0.040629" electricity_perVeh="0"/>
        <edge id=":1110338295_0" sampledSeconds="0.00" CO_abs="0" CO2_abs="0" HC_abs="0" PMx_abs="0" NOx_abs="0" fuel_abs="0" electricity_abs="0"
            CO_normed="0" CO2_normed="0" HC_normed="0" PMx_normed="0" NOx_normed="0" fuel_normed="0" electricity_normed="0"/>
        <edge id=":1110673403_0" sampledSeconds="143.64" CO_abs="2141.219942" CO2_abs="275766.355843" HC_abs="16.038053" PMx_abs="3.738156" NOx_abs="102.635775" fuel_abs="118.540371" electricity_abs="0"
            CO_normed="5364.225324" CO2_normed="690855.171213" HC_normed="40.178838" PMx_normed="9.364899" NOx_normed="257.125114" fuel_normed="296.969613" electricity_normed="0"
            traveltime="0.02" CO_perVeh="0.343787" CO2_perVeh="44.276107" HC_perVeh="0.002575" PMx_perVeh="0.000600" NOx_perVeh="0.016479" fuel_perVeh="0.019032" electricity_perVeh="0"/>
        <edge id=":1110673412_0" sampledSeconds="252.71" CO_abs="45259.020421" CO2_abs="3084188.102102" HC_abs="281.569461" PMx_abs="67.804531" NOx_abs="1325.966517" fuel_abs="1325.740531" electricity_abs="0"
            CO_normed="117293.552312" CO2_normed="7993000.624553" HC_normed="729.717125" PMx_normed="175.722635" NOx_normed="3436.382883" fuel_normed="3435.797214" electricity_normed="0"
            traveltime="0.02" CO_perVeh="2.787885" CO2_perVeh="189.981161" HC_perVeh="0.017344" PMx_perVeh="0.004177" NOx_perVeh="0.081677" fuel_perVeh="0.081664" electricity_perVeh="0"/>
        <edge id=":1110673414_0" sampledSeconds="0.00" CO_abs="0" CO2_abs="0" HC_abs="0" PMx_abs="0" NOx_abs="0" fuel_abs="0" electricity_abs="0"
            CO_normed="0" CO2_normed="0" HC_normed="0" PMx_normed="0" NOx_normed="0" fuel_normed="0" electricity_normed="0"/>
        <edge id=":1110673414_1" sampledSeconds="14.72" CO_abs="992.007930" CO2_abs="36530.596456" HC_abs="5.363997" PMx_abs="0.674210" NOx_abs="15.424756" fuel_abs="15.703233" electricity_abs="0"
            CO_normed="82.564695" CO2_normed="3040.436939" HC_normed="0.446445" PMx_normed="0.056114" NOx_normed="1.283800" fuel_normed="1.306978" electricity_normed="0"
            traveltime="1.61" CO_perVeh="108.343391" CO2_perVeh="3989.734954" HC_perVeh="0.585836" PMx_perVeh="0.073635" NOx_perVeh="1.684634" fuel_perVeh="1.715048" electricity_perVeh="0"/>
        <edge id=":1110673417_0" sampledSeconds="29.95" CO_abs="507.987805" CO2_abs="55612.821866" HC_abs="3.594923" PMx_abs="0.783239" NOx_abs="21.048925" fuel_abs="23.905622" electricity_abs="0"
            CO_normed="1363.522293" CO2_normed="149273.903010" HC_normed="9.649361" PMx_normed="2.102343" NOx_normed="56.498756" fuel_normed="64.166595" electricity_normed="0"
            traveltime="0.02" CO_perVeh="0.377035" CO2_perVeh="41.276581" HC_perVeh="0.002668" PMx_perVeh="0.000581" NOx_perVeh="0.015623" fuel_perVeh="0.017743" electricity_perVeh="0"/>
        <edge id=":1110673446_0" sampledSeconds="335.01" CO_abs="2798.808207" CO2_abs="229540.478214" HC_abs="18.183017" PMx_abs="4.163809" NOx_abs="93.515476" fuel_abs="98.668946" electricity_abs="0"
            CO_normed="7011.628076" CO2_normed="575049.214732" HC_normed="45.552443" PMx_normed="10.431255" NOx_normed="234.276765" fuel_normed="247.187338" electricity_normed="0"
            traveltime="0.02" CO_perVeh="0.190891" CO2_perVeh="15.655680" HC_perVeh="0.001240" PMx_perVeh="0.000284" NOx_perVeh="0.006378" fuel_perVeh="0.006730" electricity_perVeh="0"/>
        <edge id=":1110673451_0" sampledSeconds="37.21" CO_abs="583.284401" CO2_abs="42816.636696" HC_abs="3.636157" PMx_abs="0.608391" NOx_abs="16.579165" fuel_abs="18.405199" electricity_abs="0"
            CO_normed="1623.616984" CO2_normed="119183.400684" HC_normed="10.121522" PMx_normed="1.693503" NOx_normed="46.149382" fuel_normed="51.232288" electricity_normed="0"
            traveltime="0.03" CO_perVeh="0.418292" CO2_perVeh="30.705158" HC_perVeh="0.002608" PMx_perVeh="0.000436" NOx_perVeh="0.011889" fuel_perVeh="0.013199" electricity_perVeh="0"/>
        <edge id=":1110673464_0" sampledSeconds="324.81" CO_abs="551.507888" CO2_abs="47129.618717" HC_abs="3.581243" PMx_abs="0.598771" NOx_abs="17.661565" fuel_abs="20.259226" electricity_abs="0"
            CO_normed="29.355131" CO2_normed="2508.569958" HC_normed="0.190619" PMx_normed="0.031871" NOx_normed="0.940073" fuel_normed="1.078339" electricity_normed="0"
            traveltime="1.17" CO_perVeh="1.993628" CO2_perVeh="170.367354" HC_perVeh="0.012946" PMx_perVeh="0.002164" NOx_perVeh="0.063844" fuel_perVeh="0.073234" electricity_perVeh="0"/>
        <edge id=":1110673464_1" sampledSeconds="709.33" CO_abs="15558.251806" CO2_abs="2000761.896642" HC_abs="118.611455" PMx_abs="35.454481" NOx_abs="749.891515" fuel_abs="860.035797" electricity_abs="0"
            CO_normed="811.453808" CO2_normed="104351.432300" HC_normed="6.186281" PMx_normed="1.849158" NOx_normed="39.111227" fuel_normed="44.855896" electricity_normed="0"
            traveltime="0.70" CO_perVeh="15.361049" CO2_perVeh="1975.401975" HC_perVeh="0.117108" PMx_perVeh="0.035005" NOx_perVeh="0.740387" fuel_perVeh="0.849135" electricity_perVeh="0"/>
        <edge id=":1110673479_0" sampledSeconds="133.72" CO_abs="6922.968899" CO2_abs="480191.330784" HC_abs="42.815503" PMx_abs="8.465573" NOx_abs="196.785717" fuel_abs="206.413285" electricity_abs="0"
            CO_normed="17343.554652" CO2_normed="1202984.544761" HC_normed="107.262220" PMx_normed="21.208117" NOx_normed="492.991359" fuel_normed="517.110527" electricity_normed="0"
            traveltime="0.03" CO_perVeh="1.458393" CO2_perVeh="101.157131" HC_perVeh="0.009020" PMx_perVeh="0.001783" NOx_perVeh="0.041455" fuel_perVeh="0.043483" electricity_perVeh="0"/>
        <edge id=":1110673511_0" sampledSeconds="11.76" CO_abs="176.797485" CO2_abs="22508.921185" HC_abs="1.320014" PMx_abs="0.289507" NOx_abs="8.289973" fuel_abs="9.675665" electricity_abs="0"
            CO_normed="442.916454" CO2_normed="56389.781676" HC_normed="3.306925" PMx_normed="0.725278" NOx_normed="20.768199" fuel_normed="24.239661" electricity_normed="0"
            traveltime="0.02" CO_perVeh="0.350094" CO2_perVeh="44.572121" HC_perVeh="0.002614" PMx_perVeh="0.000573" NOx_perVeh="0.016416" fuel_perVeh="0.019160" electricity_perVeh="0"/>
        <edge id=":1110673517_0" sampledSeconds="17.23" CO_abs="741.442602" CO2_abs="51688.592704" HC_abs="4.593485" PMx_abs="0.916842" NOx_abs="21.192526" fuel_abs="22.218660" electricity_abs="0"
            CO_normed="1857.476248" CO2_normed="129491.255207" HC_normed="11.507687" PMx_normed="2.296889" NOx_normed="53.091924" fuel_normed="55.662614" electricity_normed="0"
            traveltime="0.03" CO_perVeh="1.190435" CO2_perVeh="82.989445" HC_perVeh="0.007375" PMx_perVeh="0.001472" NOx_perVeh="0.034026" fuel_perVeh="0.035674" electricity_perVeh="0"/>
        <edge id=":1110673534_0" sampledSeconds="475.63" CO_abs="2379.261944" CO2_abs="211136.536582" HC_abs="15.618254" PMx_abs="2.739302" NOx_abs="79.372237" fuel_abs="90.759390" electricity_abs="0"
            CO_normed="115.514975" CO2_normed="10250.839277" HC_normed="0.758278" PMx_normed="0.132995" NOx_normed="3.853582" fuel_normed="4.406437" electricity_normed="0"
            traveltime="1.43" CO_perVeh="7.167763" CO2_perVeh="636.069762" HC_perVeh="0.047052" PMx_perVeh="0.008252" NOx_perVeh="0.239117" fuel_perVeh="0.273422" electricity_perVeh="0"/>
        <edge id=":1110673534_1" sampledSeconds="184.41" CO_abs="2976.170920" CO2_abs="374979.062740" HC_abs="22.063422" PMx_abs="5.094478" NOx_abs="139.713761" fuel_abs="161.187768" electricity_abs="0"
            CO_normed="140.501769" CO2_normed="17702.350818" HC_normed="1.041590" PMx_normed="0.240505" NOx_normed="6.595734" fuel_normed="7.609498" electricity_normed="0"
            traveltime="1.22" CO_perVeh="19.760706" CO2_perVeh="2489.726356" HC_perVeh="0.146493" PMx_perVeh="0.033826" NOx_perVeh="0.927649" fuel_perVeh="1.070229" electricity_perVeh="0"/>
        <edge id=":1110673549_0" sampledSeconds="59.33" CO_abs="43.496172" CO2_abs="4013.317528" HC_abs="0.288603" PMx_abs="0.047406" NOx_abs="1.479697" fuel_abs="1.725175" electricity_abs="0"
            CO_normed="2.045697" CO2_normed="188.752944" HC_normed="0.013573" PMx_normed="0.002230" NOx_normed="0.069593" fuel_normed="0.081138" electricity_normed="0"
            traveltime="1.24" CO_perVeh="0.906206" CO2_perVeh="83.614052" HC_perVeh="0.006013" PMx_perVeh="0.000988" NOx_perVeh="0.030828" fuel_perVeh="0.035943" electricity_perVeh="0"/>
        <edge id=":1110673549_1" sampledSeconds="638.98" CO_abs="13092.681988" CO2_abs="1826783.476120" HC_abs="103.286613" PMx_abs="31.637067" NOx_abs="676.718351" fuel_abs="785.250979" electricity_abs="0"
            CO_normed="595.642344" CO2_normed="83108.227315" HC_normed="4.698952" PMx_normed="1.439306" NOx_normed="30.786825" fuel_normed="35.724440" electricity_normed="0"
            traveltime="0.80" CO_perVeh="16.481101" CO2_perVeh="2299.559698" HC_perVeh="0.130017" PMx_perVeh="0.039825" NOx_perVeh="0.851855" fuel_perVeh="0.988476" electricity_perVeh="0"/>
        <edge id=":1110673556_0" sampledSeconds="418.19" CO_abs="50876.142031" CO2_abs="2552682.381416" HC_abs="292.328008" PMx_abs="51.348108" NOx_abs="1098.390828" fuel_abs="1097.287866" electricity_abs="0"
            CO_normed="1774.327910" CO2_normed="89025.924786" HC_normed="10.195068" PMx_normed="1.790788" NOx_normed="38.306865" fuel_normed="38.268399" electricity_normed="0"
            traveltime="2.60" CO_perVeh="315.814282" CO2_perVeh="15845.807501" HC_perVeh="1.814630" PMx_perVeh="0.318744" NOx_perVeh="6.818275" fuel_perVeh="6.811428" electricity_perVeh="0"/>
        <edge id=":1110673556_2" sampledSeconds="249.28" CO_abs="24142.880734" CO2_abs="1042532.227945" HC_abs="134.414626" PMx_abs="20.093919" NOx_abs="444.459441" fuel_abs="448.143621" electricity_abs="0"
            CO_normed="880.396048" CO2_normed="38017.056201" HC_normed="4.901574" PMx_normed="0.732746" NOx_normed="16.207690" fuel_normed="16.342038" electricity_normed="0"
            traveltime="3.02" CO_perVeh="292.848517" CO2_perVeh="12645.716146" HC_perVeh="1.630424" PMx_perVeh="0.243735" NOx_perVeh="5.391208" fuel_perVeh="5.435896" electricity_perVeh="0"/>
        <edge id=":1110673556_3" sampledSeconds="415.35" CO_abs="35082.972365" CO2_abs="1266778.596472" HC_abs="189.261384" PMx_abs="24.244660" NOx_abs="540.651847" fuel_abs="544.543321" electricity_abs="0"
            CO_normed="2910.282656" CO2_normed="105084.704321" HC_normed="15.700041" PMx_normed="2.011198" NOx_normed="44.849384" fuel_normed="45.172198" electricity_normed="0"
            traveltime="1.72" CO_perVeh="145.671239" CO2_perVeh="5259.908012" HC_perVeh="0.785850" PMx_perVeh="0.100668" NOx_perVeh="2.244890" fuel_perVeh="2.261048" electricity_perVeh="0"/>
        <edge id=":1110673556_4" sampledSeconds="195.64" CO_abs="20559.742357" CO2_abs="820303.127018" HC_abs="112.874557" PMx_abs="16.072217" NOx_abs="351.980653" fuel_abs="352.616945" electricity_abs="0"
            CO_normed="1041.941904" CO2_normed="41571.931540" HC_normed="5.720341" PMx_normed="0.814520" NOx_normed="17.837937" fuel_normed="17.870184" electricity_normed="0"
            traveltime="2.43" CO_perVeh="255.279709" CO2_perVeh="10185.280542" HC_perVeh="1.401505" PMx_perVeh="0.199560" NOx_perVeh="4.370362" fuel_perVeh="4.378263" electricity_perVeh="0"/>
        <edge id=":1110673556_5" sampledSeconds="23.29" CO_abs="1555.289175" CO2_abs="66496.846653" HC_abs="8.637108" PMx_abs="1.253832" NOx_abs="28.202172" fuel_abs="28.584433" electricity_abs="0"
            CO_normed="109.859219" CO2_normed="4697.063273" HC_normed="0.610090" PMx_normed="0.088566" NOx_normed="1.992085" fuel_normed="2.019087" electricity_normed="0"
            traveltime="1.61" CO_perVeh="107.526165" CO2_perVeh="4597.312855" HC_perVeh="0.597133" PMx_perVeh="0.086685" NOx_perVeh="1.949780" fuel_perVeh="1.976208" electricity_perVeh="0"/>
        <edge id=":1110673556_6" sampledSeconds="492.88" CO_abs="57948.946532" CO2_abs="2819624.913525" HC_abs="330.806817" PMx_abs="56.674753" NOx_abs="1213.576302" fuel_abs="1212.036429" electricity_abs="0"
            CO_normed="2071.952624" CO2_normed="100815.106884" HC_normed="11.827929" PMx_normed="2.026394" NOx_normed="43.391170" fuel_normed="43.336112" electricity_normed="0"
            traveltime="2.64" CO_perVeh="310.971258" CO2_perVeh="15130.944714" HC_perVeh="1.775208" PMx_perVeh="0.304134" NOx_perVeh="6.512411" fuel_perVeh="6.504147" electricity_perVeh="0"/>
        <edge id=":1110673561_0" sampledSeconds="99.83" CO_abs="10337.946408" CO2_abs="729054.189359" HC_abs="64.653718" PMx_abs="14.919447" NOx_abs="309.686542" fuel_abs="313.385509" electricity_abs="0"
            CO_normed="464.414021" CO2_normed="32751.474439" HC_normed="2.904454" PMx_normed="0.670230" NOx_normed="13.912122" fuel_normed="14.078292" electricity_normed="0"
            traveltime="1.18" CO_perVeh="121.997802" CO2_perVeh="8603.547054" HC_perVeh="0.762977" PMx_perVeh="0.176064" NOx_perVeh="3.654602" fuel_perVeh="3.698253" electricity_perVeh="0"/>
        <edge id=":1110673561_1" sampledSeconds="1321.40" CO_abs="119722.448325" CO2_abs="8285330.087328" HC_abs="745.632040" PMx_abs="173.215895" NOx_abs="3542.898566" fuel_abs="3561.463279" electricity_abs="0"
            CO_normed="5243.548549" CO2_normed="362877.064134" HC_normed="32.656848" PMx_normed="7.586430" NOx_normed="155.170237" fuel_normed="155.983325" electricity_normed="0"
            traveltime="1.20" CO_perVeh="108.490855" CO2_perVeh="7508.053489" HC_perVeh="0.675682" PMx_perVeh="0.156966" NOx_perVeh="3.210527" fuel_perVeh="3.227350" electricity_perVeh="0"/>
        <edge id=":1110673562_0" sampledSeconds="104.21" CO_abs="2176.213206" CO2_abs="174798.943261" HC_abs="13.885433" PMx_abs="2.295913" NOx_abs="66.175160" fuel_abs="75.139379" electricity_abs="0"
            CO_normed="6057.656802" CO2_normed="486566.299962" HC_normed="38.651170" PMx_normed="6.390851" NOx_normed="184.203648" fuel_normed="209.156240" electricity_normed="0"
            traveltime="0.03" CO_perVeh="0.554727" CO2_perVeh="44.557046" HC_perVeh="0.003539" PMx_perVeh="0.000585" NOx_perVeh="0.016868" fuel_perVeh="0.019153" electricity_perVeh="0"/>
        <edge id=":1110673564_0" sampledSeconds="28.97" CO_abs="454.112908" CO2_abs="55661.201028" HC_abs="3.327985" PMx_abs="0.733148" NOx_abs="20.638243" fuel_abs="23.926456" electricity_abs="0"
            CO_normed="3412.957138" CO2_normed="418330.529644" HC_normed="25.011997" PMx_normed="5.510090" NOx_normed="155.109971" fuel_normed="179.823054" electricity_normed="0"
            traveltime="7.963558e-03" CO_perVeh="0.124842" CO2_perVeh="15.302048" HC_perVeh="0.000915" PMx_perVeh="0.000202" NOx_perVeh="0.005674" fuel_perVeh="0.006578" electricity_perVeh="0"/>
        <edge id=":1110673588_0" sampledSeconds="11.69" CO_abs="176.387183" CO2_abs="20109.837873" HC_abs="1.264369" PMx_abs="0.284553" NOx_abs="7.592051" fuel_abs="8.644371" electricity_abs="0"
            CO_normed="530.266271" CO2_normed="60455.462498" HC_normed="3.801026" PMx_normed="0.855443" NOx_normed="22.823703" fuel_normed="25.987252" electricity_normed="0"
            traveltime="0.02" CO_perVeh="0.293979" CO2_perVeh="33.516396" HC_perVeh="0.002107" PMx_perVeh="0.000474" NOx_perVeh="0.012653" fuel_perVeh="0.014407" electricity_perVeh="0"/>
        <edge id=":1110673601_0" sampledSeconds="29.95" CO_abs="478.726201" CO2_abs="57691.990752" HC_abs="3.505043" PMx_abs="0.777951" NOx_abs="21.545130" fuel_abs="24.799388" electricity_abs="0"
            CO_normed="1284.979365" CO2_normed="154854.732111" HC_normed="9.408109" PMx_normed="2.088148" NOx_normed="57.830649" fuel_normed="66.565610" electricity_normed="0"
            traveltime="0.02" CO_perVeh="0.355317" CO2_perVeh="42.819768" HC_perVeh="0.002601" PMx_perVeh="0.000577" NOx_perVeh="0.015991" fuel_perVeh="0.018406" electricity_perVeh="0"/>
        <edge id=":1110673617_0" sampledSeconds="237.80" CO_abs="6398.538111" CO2_abs="776901.506708" HC_abs="47.726514" PMx_abs="13.981946" NOx_abs="294.152097" fuel_abs="333.954154" electricity_abs="0"
            CO_normed="16029.740569" CO2_normed="1946308.576304" HC_normed="119.565379" PMx_normed="35.027840" NOx_normed="736.915484" fuel_normed="836.628360" electricity_normed="0"
            traveltime="0.01" CO_perVeh="0.392539" CO2_perVeh="47.661565" HC_perVeh="0.002928" PMx_perVeh="0.000858" NOx_perVeh="0.018046" fuel_perVeh="0.020488" electricity_perVeh="0"/>
        <edge id=":1110673621_0" sampledSeconds="25.90" CO_abs="399.901395" CO2_abs="47367.231469" HC_abs="2.892632" PMx_abs="0.641106" NOx_abs="17.685538" fuel_abs="20.361204" electricity_abs="0"
            CO_normed="1202.208788" CO2_normed="142398.357654" HC_normed="8.696013" PMx_normed="1.927334" NOx_normed="53.167379" fuel_normed="61.211135" electricity_normed="0"
            traveltime="0.02" CO_perVeh="0.302956" CO2_perVeh="35.884266" HC_perVeh="0.002191" PMx_perVeh="0.000486" NOx_perVeh="0.013398" fuel_perVeh="0.015425" electricity_perVeh="0"/>
        <edge id=":1110673630_0" sampledSeconds="54.16" CO_abs="92.259615" CO2_abs="7192.531660" HC_abs="0.583948" PMx_abs="0.096567" NOx_abs="2.741920" fuel_abs="3.091793" electricity_abs="0"
            CO_normed="4.945732" CO2_normed="385.567799" HC_normed="0.031303" PMx_normed="0.005177" NOx_normed="0.146985" fuel_normed="0.165741" electricity_normed="0"
            traveltime="1.26" CO_perVeh="2.153526" CO2_perVeh="167.888245" HC_perVeh="0.013631" PMx_perVeh="0.002254" NOx_perVeh="0.064002" fuel_perVeh="0.072169" electricity_perVeh="0"/>
        <edge id=":1110673630_1" sampledSeconds="7.34" CO_abs="10.297417" CO2_abs="842.001912" HC_abs="0.066490" PMx_abs="0.013336" NOx_abs="0.333264" fuel_abs="0.361941" electricity_abs="0"
            CO_normed="0.672973" CO2_normed="55.027809" HC_normed="0.004345" PMx_normed="0.000872" NOx_normed="0.021780" fuel_normed="0.023654" electricity_normed="0"
            traveltime="1.04" CO_perVeh="1.457481" CO2_perVeh="119.175655" HC_perVeh="0.009411" PMx_perVeh="0.001888" NOx_perVeh="0.047170" fuel_perVeh="0.051229" electricity_perVeh="0"/>
        <edge id=":1110673650_0" sampledSeconds="142.84" CO_abs="2472.341212" CO2_abs="302410.994896" HC_abs="18.167475" PMx_abs="4.181918" NOx_abs="113.293632" fuel_abs="129.993741" electricity_abs="0"
            CO_normed="6193.756690" CO2_normed="757605.832725" HC_normed="45.513508" PMx_normed="10.476622" NOx_normed="283.825383" fuel_normed="325.662817" electricity_normed="0"
            traveltime="0.02" CO_perVeh="0.396951" CO2_perVeh="48.554080" HC_perVeh="0.002917" PMx_perVeh="0.000671" NOx_perVeh="0.018190" fuel_perVeh="0.020871" electricity_perVeh="0"/>
        <edge id=":1110673655_0" sampledSeconds="44.92" CO_abs="666.281907" CO2_abs="81946.724885" HC_abs="4.910830" PMx_abs="1.085690" NOx_abs="30.437672" fuel_abs="35.225511" electricity_abs="0"
            CO_normed="1669.182232" CO2_normed="205294.509107" HC_normed="12.302706" PMx_normed="2.719892" NOx_normed="76.253041" fuel_normed="88.247626" electricity_normed="0"
            traveltime="0.02" CO_perVeh="0.356587" CO2_perVeh="43.856957" HC_perVeh="0.002628" PMx_perVeh="0.000581" NOx_perVeh="0.016290" fuel_perVeh="0.018852" electricity_perVeh="0"/>
        <edge id=":1110673663_0" sampledSeconds="109.38" CO_abs="1812.351554" CO2_abs="210943.412744" HC_abs="13.073379" PMx_abs="2.924458" NOx_abs="79.273923" fuel_abs="90.675727" electricity_abs="0"
            CO_normed="83.156372" CO2_normed="9678.745222" HC_normed="0.599848" PMx_normed="0.134183" NOx_normed="3.637336" fuel_normed="4.160487" electricity_normed="0"
            traveltime="1.28" CO_perVeh="21.286924" CO2_perVeh="2477.629896" HC_perVeh="0.153553" PMx_perVeh="0.034349" NOx_perVeh="0.931110" fuel_perVeh="1.065029" electricity_perVeh="0"/>
        <edge id=":1110673663_1" sampledSeconds="152.52" CO_abs="2727.174249" CO2_abs="340277.810492" HC_abs="20.219299" PMx_abs="4.740613" NOx_abs="127.426463" fuel_abs="146.271020" electricity_abs="0"
            CO_normed="125.284278" CO2_normed="15632.099752" HC_normed="0.928859" PMx_normed="0.217780" NOx_normed="5.853873" fuel_normed="6.719578" electricity_normed="0"
            traveltime="1.24" CO_perVeh="22.151961" CO2_perVeh="2763.967458" HC_perVeh="0.164235" PMx_perVeh="0.038506" NOx_perVeh="1.035044" fuel_perVeh="1.188113" electricity_perVeh="0"/>
        <edge id=":1110673666_0" sampledSeconds="191.33" CO_abs="4460.322196" CO2_abs="356090.807742" HC_abs="28.435172" PMx_abs="4.816111" NOx_abs="135.751482" fuel_abs="153.069623" electricity_abs="0"
            CO_normed="274.098565" CO2_normed="21882.719482" HC_normed="1.747416" PMx_normed="0.295963" NOx_normed="8.342287" fuel_normed="9.406532" electricity_normed="0"