<?xml version="1.0" encoding="UTF-8"?>

<!-- generated on Mon Nov  9 22:36:13 2020 by Eclipse SUMO sumo Version 1.7.0
<configuration xmlns:xsi="http://www.w3.org/2001/XMLSchema-instance" xsi:noNamespaceSchemaLocation="http://sumo.dlr.de/xsd/sumoConfiguration.xsd">

    <input>
        <net-file value="../dataSets/Porto/6AM7AM_Routing_SaoBento/Porto.net.xml"/>
        <route-files value="../results/Porto/6AM7AM_Routing_SaoBento/cost_co-length/solution7/Porto.rou.xml"/>
        <additional-files value="moreOutputInfo.xml"/>
    </input>

    <output>
        <emission-output.precision value="6"/>
        <tripinfo-output value="../results/Porto/6AM7AM_Routing_SaoBento/cost_co-length/solution7/Porto-tripinfo"/>
    </output>

    <processing>
        <collision.action value="warn"/>
        <time-to-teleport value="-1"/>
    </processing>

    <emissions>
        <device.emissions.probability value="1"/>
    </emissions>

    <gui_only>
        <quit-on-end value="true"/>
        <start value="true"/>
    </gui_only>

</configuration>
-->

<meandata xmlns:xsi="http://www.w3.org/2001/XMLSchema-instance" xsi:noNamespaceSchemaLocation="http://sumo.dlr.de/xsd/meandata_file.xsd">
    <interval begin="0.00" end="4700.00" id="emissions-detector">
        <edge id=":1092997347_0" sampledSeconds="274.17" CO_abs="34934.712728" CO2_abs="1356646.315192" HC_abs="191.102617" PMx_abs="27.646170" NOx_abs="588.703904" fuel_abs="583.169572" electricity_abs="0"
            CO_normed="60814.780378" CO2_normed="2361666.699560" HC_normed="332.673801" PMx_normed="48.126795" NOx_normed="1024.823044" fuel_normed="1015.188809" electricity_normed="0"
            traveltime="0.08" CO_perVeh="9.834073" CO2_perVeh="381.894047" HC_perVeh="0.053795" PMx_perVeh="0.007782" NOx_perVeh="0.165719" fuel_perVeh="0.164161" electricity_perVeh="0"/>
        <edge id=":1103427051_0" sampledSeconds="11.16" CO_abs="899.255986" CO2_abs="49702.178247" HC_abs="5.273441" PMx_abs="0.972083" NOx_abs="21.202350" fuel_abs="21.364784" electricity_abs="0"
            CO_normed="2375.144205" CO2_normed="131275.012244" HC_normed="13.928385" PMx_normed="2.567497" NOx_normed="56.000338" fuel_normed="56.429363" electricity_normed="0"
            traveltime="0.03" CO_perVeh="2.463948" CO2_perVeh="136.183217" HC_perVeh="0.014449" PMx_perVeh="0.002663" NOx_perVeh="0.058094" fuel_perVeh="0.058539" electricity_perVeh="0"/>
        <edge id=":1105984386_0" sampledSeconds="22.99" CO_abs="501.548938" CO2_abs="38006.661536" HC_abs="3.153276" PMx_abs="0.533170" NOx_abs="14.656159" fuel_abs="16.337577" electricity_abs="0"
            CO_normed="39.563866" CO2_normed="2998.093247" HC_normed="0.248741" PMx_normed="0.042058" NOx_normed="1.156127" fuel_normed="1.288763" electricity_normed="0"
            traveltime="0.96" CO_perVeh="21.049620" CO2_perVeh="1595.110147" HC_perVeh="0.132341" PMx_perVeh="0.022377" NOx_perVeh="0.615108" fuel_perVeh="0.685675" electricity_perVeh="0"/>
        <edge id=":1105984390_0" sampledSeconds="22.98" CO_abs="31.045852" CO2_abs="2180.541910" HC_abs="0.189485" PMx_abs="0.022003" NOx_abs="0.788038" fuel_abs="0.937344" electricity_abs="0"
            CO_normed="1.893296" CO2_normed="132.977891" HC_normed="0.011556" PMx_normed="0.001342" NOx_normed="0.048058" fuel_normed="0.057163" electricity_normed="0"
            traveltime="1.04" CO_perVeh="1.407914" CO2_perVeh="98.886505" HC_perVeh="0.008593" PMx_perVeh="0.000998" NOx_perVeh="0.035737" fuel_perVeh="0.042508" electricity_perVeh="0"/>
        <edge id=":1105984390_1" sampledSeconds="646.75" CO_abs="14288.438209" CO2_abs="1863139.712098" HC_abs="109.581766" PMx_abs="32.906799" NOx_abs="696.774825" fuel_abs="800.878420" electricity_abs="0"
            CO_normed="833.536607" CO2_normed="108688.936552" HC_normed="6.392610" PMx_normed="1.919665" NOx_normed="40.647362" fuel_normed="46.720395" electricity_normed="0"
            traveltime="0.64" CO_perVeh="14.068230" CO2_perVeh="1834.425665" HC_perVeh="0.107893" PMx_perVeh="0.032400" NOx_perVeh="0.686036" fuel_perVeh="0.788536" electricity_perVeh="0"/>
        <edge id=":1105984395_0" sampledSeconds="8.98" CO_abs="168.788463" CO2_abs="13407.947586" HC_abs="1.072686" PMx_abs="0.172554" NOx_abs="5.061712" fuel_abs="5.763570" electricity_abs="0"
            CO_normed="140.526935" CO2_normed="11162.953587" HC_normed="0.893078" PMx_normed="0.143662" NOx_normed="4.214192" fuel_normed="4.798532" electricity_normed="0"
            traveltime="0.09" CO_perVeh="1.711700" CO2_perVeh="135.971250" HC_perVeh="0.010878" PMx_perVeh="0.001750" NOx_perVeh="0.051331" fuel_perVeh="0.058449" electricity_perVeh="0"/>
        <edge id=":1105984398_0" sampledSeconds="22.66" CO_abs="1745.135770" CO2_abs="117668.847423" HC_abs="10.737232" PMx_abs="2.204498" NOx_abs="49.092968" fuel_abs="50.580539" electricity_abs="0"
            CO_normed="110.562427" CO2_normed="7454.866000" HC_normed="0.680253" PMx_normed="0.139665" NOx_normed="3.110267" fuel_normed="3.204511" electricity_normed="0"
            traveltime="1.09" CO_perVeh="83.692177" CO2_perVeh="5643.092141" HC_perVeh="0.514930" PMx_perVeh="0.105722" NOx_perVeh="2.354371" fuel_perVeh="2.425711" electricity_perVeh="0"/>
        <edge id=":1105984398_1" sampledSeconds="453.33" CO_abs="7965.299474" CO2_abs="922631.751332" HC_abs="57.483185" PMx_abs="13.216537" NOx_abs="349.131262" fuel_abs="396.600123" electricity_abs="0"
            CO_normed="488.477218" CO2_normed="56580.997646" HC_normed="3.525194" PMx_normed="0.810513" NOx_normed="21.410704" fuel_normed="24.321763" electricity_normed="0"
            traveltime="0.95" CO_perVeh="16.776083" CO2_perVeh="1943.197138" HC_perVeh="0.121068" PMx_perVeh="0.027836" NOx_perVeh="0.735321" fuel_perVeh="0.835298" electricity_perVeh="0"/>
        <edge id=":1106006327_0" sampledSeconds="201.80" CO_abs="27038.446651" CO2_abs="867261.625894" HC_abs="143.513365" PMx_abs="18.049172" NOx_abs="379.355190" fuel_abs="372.805488" electricity_abs="0"
            CO_normed="2337.505594" CO2_normed="74975.790145" HC_normed="12.406900" PMx_normed="1.560372" NOx_normed="32.795703" fuel_normed="32.229474" electricity_normed="0"
            traveltime="2.12" CO_perVeh="283.900165" CO2_perVeh="9106.134016" HC_perVeh="1.506872" PMx_perVeh="0.189514" NOx_perVeh="3.983180" fuel_perVeh="3.914409" electricity_perVeh="0"/>
        <edge id=":1106006327_1" sampledSeconds="160.49" CO_abs="21816.950734" CO2_abs="732976.547616" HC_abs="116.624055" PMx_abs="15.314494" NOx_abs="320.920692" fuel_abs="315.080054" electricity_abs="0"
            CO_normed="1644.769280" CO2_normed="55258.744585" HC_normed="8.792231" PMx_normed="1.154552" NOx_normed="24.194054" fuel_normed="23.753732" electricity_normed="0"
            traveltime="2.28" CO_perVeh="309.719734" CO2_perVeh="10405.546786" HC_perVeh="1.655629" PMx_perVeh="0.217409" NOx_perVeh="4.555883" fuel_perVeh="4.472967" electricity_perVeh="0"/>
        <edge id=":1106006327_2" sampledSeconds="0.00" CO_abs="0" CO2_abs="0" HC_abs="0" PMx_abs="0" NOx_abs="0" fuel_abs="0" electricity_abs="0"
            CO_normed="0" CO2_normed="0" HC_normed="0" PMx_normed="0" NOx_normed="0" fuel_normed="0" electricity_normed="0"/>
        <edge id=":1106006327_3" sampledSeconds="0.00" CO_abs="0" CO2_abs="0" HC_abs="0" PMx_abs="0" NOx_abs="0" fuel_abs="0" electricity_abs="0"
            CO_normed="0" CO2_normed="0" HC_normed="0" PMx_normed="0" NOx_normed="0" fuel_normed="0" electricity_normed="0"/>
        <edge id=":1107381198_0" sampledSeconds="0.00" CO_abs="0" CO2_abs="0" HC_abs="0" PMx_abs="0" NOx_abs="0" fuel_abs="0" electricity_abs="0"
            CO_normed="0" CO2_normed="0" HC_normed="0" PMx_normed="0" NOx_normed="0" fuel_normed="0" electricity_normed="0"/>
        <edge id=":1107381198_1" sampledSeconds="35.57" CO_abs="1337.699428" CO2_abs="57176.897569" HC_abs="7.418287" PMx_abs="1.026724" NOx_abs="23.927079" fuel_abs="24.578223" electricity_abs="0"
            CO_normed="111.736187" CO2_normed="4775.907359" HC_normed="0.619639" PMx_normed="0.085761" NOx_normed="1.998596" fuel_normed="2.052985" electricity_normed="0"
            traveltime="1.46" CO_perVeh="55.076795" CO2_perVeh="2354.131424" HC_perVeh="0.305431" PMx_perVeh="0.042273" NOx_perVeh="0.985144" fuel_perVeh="1.011954" electricity_perVeh="0"/>
        <edge id=":1110338277_0" sampledSeconds="97.03" CO_abs="1257.610269" CO2_abs="161793.349797" HC_abs="9.385089" PMx_abs="2.144752" NOx_abs="59.933347" fuel_abs="69.548232" electricity_abs="0"
            CO_normed="3440.271252" CO2_normed="442595.789718" HC_normed="25.673497" PMx_normed="5.867102" NOx_normed="163.951404" fuel_normed="190.253522" electricity_normed="0"
            traveltime="0.02" CO_perVeh="0.283426" CO2_perVeh="36.463114" HC_perVeh="0.002115" PMx_perVeh="0.000483" NOx_perVeh="0.013507" fuel_perVeh="0.015674" electricity_perVeh="0"/>
        <edge id=":1110338293_0" sampledSeconds="122.90" CO_abs="6624.379773" CO2_abs="453072.639104" HC_abs="40.826764" PMx_abs="8.041781" NOx_abs="186.121050" fuel_abs="194.756130" electricity_abs="0"
            CO_normed="16913.310057" CO2_normed="1156781.206224" HC_normed="104.238545" PMx_normed="20.532206" NOx_normed="475.202682" fuel_normed="497.249694" electricity_normed="0"
            traveltime="0.03" CO_perVeh="1.519411" CO2_perVeh="103.919715" HC_perVeh="0.009364" PMx_perVeh="0.001845" NOx_perVeh="0.042690" fuel_perVeh="0.044671" electricity_perVeh="0"/>
        <edge id=":1110338295_0" sampledSeconds="0.00" CO_abs="0" CO2_abs="0" HC_abs="0" PMx_abs="0" NOx_abs="0" fuel_abs="0" electricity_abs="0"
            CO_normed="0" CO2_normed="0" HC_normed="0" PMx_normed="0" NOx_normed="0" fuel_normed="0" electricity_normed="0"/>
        <edge id=":1110673403_0" sampledSeconds="143.87" CO_abs="2100.291061" CO2_abs="255848.716180" HC_abs="15.408812" PMx_abs="3.539227" NOx_abs="95.863328" fuel_abs="109.978585" electricity_abs="0"
            CO_normed="5362.445262" CO2_normed="653230.764715" HC_normed="39.341648" PMx_normed="9.036324" NOx_normed="244.757433" fuel_normed="280.796386" electricity_normed="0"
            traveltime="0.02" CO_perVeh="0.337216" CO2_perVeh="41.078199" HC_perVeh="0.002474" PMx_perVeh="0.000568" NOx_perVeh="0.015391" fuel_perVeh="0.017658" electricity_perVeh="0"/>
        <edge id=":1110673412_0" sampledSeconds="252.64" CO_abs="44599.512083" CO2_abs="3050766.683448" HC_abs="277.739709" PMx_abs="66.964885" NOx_abs="1310.500359" fuel_abs="1311.374369" electricity_abs="0"
            CO_normed="117797.684152" CO2_normed="8057784.343663" HC_normed="733.575167" PMx_normed="176.869837" NOx_normed="3461.336237" fuel_normed="3463.644700" electricity_normed="0"
            traveltime="0.02" CO_perVeh="2.745388" CO2_perVeh="187.794359" HC_perVeh="0.017097" PMx_perVeh="0.004122" NOx_perVeh="0.080670" fuel_perVeh="0.080724" electricity_perVeh="0"/>
        <edge id=":1110673414_0" sampledSeconds="0.00" CO_abs="0" CO2_abs="0" HC_abs="0" PMx_abs="0" NOx_abs="0" fuel_abs="0" electricity_abs="0"
            CO_normed="0" CO2_normed="0" HC_normed="0" PMx_normed="0" NOx_normed="0" fuel_normed="0" electricity_normed="0"/>
        <edge id=":1110673414_1" sampledSeconds="132.94" CO_abs="8030.481237" CO2_abs="307225.076198" HC_abs="43.705678" PMx_abs="5.702346" NOx_abs="129.884133" fuel_abs="132.065068" electricity_abs="0"
            CO_normed="681.174630" CO2_normed="26059.948501" HC_normed="3.707275" PMx_normed="0.483694" NOx_normed="11.017245" fuel_normed="11.202239" electricity_normed="0"
            traveltime="1.58" CO_perVeh="95.679832" CO2_perVeh="3660.458554" HC_perVeh="0.520735" PMx_perVeh="0.067941" NOx_perVeh="1.547515" fuel_perVeh="1.573500" electricity_perVeh="0"/>
        <edge id=":1110673417_0" sampledSeconds="29.65" CO_abs="527.028234" CO2_abs="58873.090546" HC_abs="3.755381" PMx_abs="0.841190" NOx_abs="22.337501" fuel_abs="25.307049" electricity_abs="0"
            CO_normed="1441.718572" CO2_normed="161051.007572" HC_normed="10.273079" PMx_normed="2.301127" NOx_normed="61.105625" fuel_normed="69.229008" electricity_normed="0"
            traveltime="0.02" CO_perVeh="0.391177" CO2_perVeh="43.697477" HC_perVeh="0.002787" PMx_perVeh="0.000624" NOx_perVeh="0.016580" fuel_perVeh="0.018784" electricity_perVeh="0"/>
        <edge id=":1110673446_0" sampledSeconds="333.32" CO_abs="3327.907429" CO2_abs="280254.573429" HC_abs="21.766459" PMx_abs="4.961448" NOx_abs="113.399150" fuel_abs="120.468722" electricity_abs="0"
            CO_normed="8496.784925" CO2_normed="715543.591733" HC_normed="55.573938" PMx_normed="12.667526" NOx_normed="289.529744" fuel_normed="307.579717" electricity_normed="0"
            traveltime="0.02" CO_perVeh="0.227192" CO2_perVeh="19.132641" HC_perVeh="0.001486" PMx_perVeh="0.000339" NOx_perVeh="0.007742" fuel_perVeh="0.008224" electricity_perVeh="0"/>
        <edge id=":1110673451_0" sampledSeconds="37.72" CO_abs="277.601652" CO2_abs="21108.690761" HC_abs="1.747837" PMx_abs="0.300410" NOx_abs="8.166299" fuel_abs="9.073793" electricity_abs="0"
            CO_normed="787.522416" CO2_normed="59882.810669" HC_normed="4.958403" PMx_normed="0.852226" NOx_normed="23.166805" fuel_normed="25.741258" electricity_normed="0"
            traveltime="0.03" CO_perVeh="0.199077" CO2_perVeh="15.137707" HC_perVeh="0.001253" PMx_perVeh="0.000215" NOx_perVeh="0.005856" fuel_perVeh="0.006507" electricity_perVeh="0"/>
        <edge id=":1110673464_0" sampledSeconds="325.45" CO_abs="655.966793" CO2_abs="54963.834505" HC_abs="4.231722" PMx_abs="0.685583" NOx_abs="20.527388" fuel_abs="23.626886" electricity_abs="0"
            CO_normed="35.583757" CO2_normed="2981.583452" HC_normed="0.229555" PMx_normed="0.037190" NOx_normed="1.113534" fuel_normed="1.281671" electricity_normed="0"
            traveltime="1.18" CO_perVeh="2.371233" CO2_perVeh="198.687010" HC_perVeh="0.015297" PMx_perVeh="0.002478" NOx_perVeh="0.074204" fuel_perVeh="0.085408" electricity_perVeh="0"/>
        <edge id=":1110673464_1" sampledSeconds="708.89" CO_abs="15982.626496" CO2_abs="2020878.472528" HC_abs="121.137574" PMx_abs="35.948023" NOx_abs="760.212445" fuel_abs="868.682836" electricity_abs="0"
            CO_normed="849.549742" CO2_normed="107418.939287" HC_normed="6.439016" PMx_normed="1.910802" NOx_normed="40.408771" fuel_normed="46.174468" electricity_normed="0"
            traveltime="0.70" CO_perVeh="15.782042" CO2_perVeh="1995.516096" HC_perVeh="0.119617" PMx_perVeh="0.035497" NOx_perVeh="0.750672" fuel_perVeh="0.857781" electricity_perVeh="0"/>
        <edge id=":1110673479_0" sampledSeconds="132.76" CO_abs="7041.378970" CO2_abs="485977.464863" HC_abs="43.488110" PMx_abs="8.549407" NOx_abs="199.082403" fuel_abs="208.900545" electricity_abs="0"
            CO_normed="17977.988860" CO2_normed="1240793.527310" HC_normed="111.033474" PMx_normed="21.828274" NOx_normed="508.295497" fuel_normed="533.363095" electricity_normed="0"
            traveltime="0.03" CO_perVeh="1.483332" CO2_perVeh="102.375704" HC_perVeh="0.009161" PMx_perVeh="0.001801" NOx_perVeh="0.041939" fuel_perVeh="0.044007" electricity_perVeh="0"/>
        <edge id=":1110673511_0" sampledSeconds="11.70" CO_abs="156.105752" CO2_abs="19838.713110" HC_abs="1.167509" PMx_abs="0.261115" NOx_abs="7.346078" fuel_abs="8.527843" electricity_abs="0"
            CO_normed="398.567876" CO2_normed="50652.033472" HC_normed="2.980874" PMx_normed="0.666678" NOx_normed="18.755944" fuel_normed="21.773216" electricity_normed="0"
            traveltime="0.02" CO_perVeh="0.309120" CO2_perVeh="39.284580" HC_perVeh="0.002312" PMx_perVeh="0.000517" NOx_perVeh="0.014547" fuel_perVeh="0.016887" electricity_perVeh="0"/>
        <edge id=":1110673517_0" sampledSeconds="17.10" CO_abs="706.791002" CO2_abs="53893.525539" HC_abs="4.473246" PMx_abs="0.865364" NOx_abs="21.440501" fuel_abs="23.166553" electricity_abs="0"
            CO_normed="1804.572770" CO2_normed="137600.490738" HC_normed="11.421053" PMx_normed="2.209440" NOx_normed="54.741704" fuel_normed="59.148646" electricity_normed="0"
            traveltime="0.03" CO_perVeh="1.134800" CO2_perVeh="86.529610" HC_perVeh="0.007182" PMx_perVeh="0.001389" NOx_perVeh="0.034424" fuel_perVeh="0.037195" electricity_perVeh="0"/>
        <edge id=":1110673534_0" sampledSeconds="476.42" CO_abs="2765.373190" CO2_abs="246377.776879" HC_abs="18.172186" PMx_abs="3.147380" NOx_abs="92.347234" fuel_abs="105.908292" electricity_abs="0"
            CO_normed="136.831924" CO2_normed="12190.884556" HC_normed="0.899168" PMx_normed="0.155734" NOx_normed="4.569383" fuel_normed="5.240390" electricity_normed="0"
            traveltime="1.44" CO_perVeh="8.330961" CO2_perVeh="742.237494" HC_perVeh="0.054746" PMx_perVeh="0.009482" NOx_perVeh="0.278205" fuel_perVeh="0.319059" electricity_perVeh="0"/>
        <edge id=":1110673534_1" sampledSeconds="184.26" CO_abs="2981.911340" CO2_abs="369444.112219" HC_abs="22.049478" PMx_abs="5.051843" NOx_abs="138.032415" fuel_abs="158.808515" electricity_abs="0"
            CO_normed="143.468417" CO2_normed="17775.029456" HC_normed="1.060864" PMx_normed="0.243059" NOx_normed="6.641140" fuel_normed="7.640739" electricity_normed="0"
            traveltime="1.22" CO_perVeh="19.798821" CO2_perVeh="2452.976272" HC_perVeh="0.146401" PMx_perVeh="0.033542" NOx_perVeh="0.916486" fuel_perVeh="1.054432" electricity_perVeh="0"/>
        <edge id=":1110673549_0" sampledSeconds="59.04" CO_abs="87.788186" CO2_abs="7778.709380" HC_abs="0.581372" PMx_abs="0.122381" NOx_abs="3.041383" fuel_abs="3.343735" electricity_abs="0"
            CO_normed="4.207886" CO2_normed="372.851087" HC_normed="0.027866" PMx_normed="0.005866" NOx_normed="0.145780" fuel_normed="0.160273" electricity_normed="0"
            traveltime="1.23" CO_perVeh="1.828992" CO2_perVeh="162.062784" HC_perVeh="0.012112" PMx_perVeh="0.002550" NOx_perVeh="0.063365" fuel_perVeh="0.069664" electricity_perVeh="0"/>
        <edge id=":1110673549_1" sampledSeconds="638.81" CO_abs="15118.853035" CO2_abs="1936445.974522" HC_abs="115.318321" PMx_abs="34.380670" NOx_abs="726.500113" fuel_abs="832.389297" electricity_abs="0"
            CO_normed="700.992619" CO2_normed="89784.213954" HC_normed="5.346787" PMx_normed="1.594076" NOx_normed="33.684514" fuel_normed="38.594115" electricity_normed="0"
            traveltime="0.80" CO_perVeh="19.031656" CO2_perVeh="2437.603855" HC_perVeh="0.145163" PMx_perVeh="0.043278" NOx_perVeh="0.914520" fuel_perVeh="1.047814" electricity_perVeh="0"/>
        <edge id=":1110673556_0" sampledSeconds="421.90" CO_abs="52438.819731" CO2_abs="2615007.145675" HC_abs="300.956463" PMx_abs="52.842466" NOx_abs="1127.091257" fuel_abs="1124.078461" electricity_abs="0"
            CO_normed="1863.847075" CO2_normed="92945.902398" HC_normed="10.696977" PMx_normed="1.878194" NOx_normed="40.060508" fuel_normed="39.953423" electricity_normed="0"
            traveltime="2.62" CO_perVeh="325.515766" CO2_perVeh="16232.746255" HC_perVeh="1.868198" PMx_perVeh="0.328021" NOx_perVeh="6.996458" fuel_perVeh="6.977755" electricity_perVeh="0"/>
        <edge id=":1110673556_2" sampledSeconds="244.06" CO_abs="23481.141042" CO2_abs="1025715.048116" HC_abs="131.024610" PMx_abs="19.813955" NOx_abs="437.492390" fuel_abs="440.914284" electricity_abs="0"
            CO_normed="872.661564" CO2_normed="38120.042669" HC_normed="4.869446" PMx_normed="0.736373" NOx_normed="16.259124" fuel_normed="16.386297" electricity_normed="0"
            traveltime="2.96" CO_perVeh="284.821741" CO2_perVeh="12441.726977" HC_perVeh="1.589303" PMx_perVeh="0.240339" NOx_perVeh="5.306699" fuel_perVeh="5.348206" electricity_perVeh="0"/>
        <edge id=":1110673556_3" sampledSeconds="413.54" CO_abs="35040.285314" CO2_abs="1255316.178236" HC_abs="188.792399" PMx_abs="24.033097" NOx_abs="535.855318" fuel_abs="539.616252" electricity_abs="0"
            CO_normed="2962.402591" CO2_normed="106127.900090" HC_normed="15.961031" PMx_normed="2.031824" NOx_normed="45.302690" fuel_normed="45.620650" electricity_normed="0"
            traveltime="1.73" CO_perVeh="146.420707" CO2_perVeh="5245.513301" HC_perVeh="0.788895" PMx_perVeh="0.100426" NOx_perVeh="2.239146" fuel_perVeh="2.254862" electricity_perVeh="0"/>
        <edge id=":1110673556_4" sampledSeconds="201.37" CO_abs="21561.057068" CO2_abs="852679.874201" HC_abs="118.193906" PMx_abs="16.737370" NOx_abs="366.090700" fuel_abs="366.534584" electricity_abs="0"
            CO_normed="1113.611074" CO2_normed="44040.222481" HC_normed="6.104619" PMx_normed="0.864472" NOx_normed="18.908287" fuel_normed="18.931213" electricity_normed="0"
            traveltime="2.46" CO_perVeh="263.394573" CO2_perVeh="10416.523225" HC_perVeh="1.443883" PMx_perVeh="0.204467" NOx_perVeh="4.472244" fuel_perVeh="4.477666" electricity_perVeh="0"/>
        <edge id=":1110673556_5" sampledSeconds="22.63" CO_abs="1808.608530" CO2_abs="79035.552725" HC_abs="10.078043" PMx_abs="1.452276" NOx_abs="33.253418" fuel_abs="33.974365" electricity_abs="0"
            CO_normed="130.198982" CO2_normed="5689.649452" HC_normed="0.725503" PMx_normed="0.104547" NOx_normed="2.393863" fuel_normed="2.445763" electricity_normed="0"
            traveltime="1.56" CO_perVeh="125.039602" CO2_perVeh="5464.186361" HC_perVeh="0.696754" PMx_perVeh="0.100404" NOx_perVeh="2.299002" fuel_perVeh="2.348845" electricity_perVeh="0"/>
        <edge id=":1110673556_6" sampledSeconds="305.62" CO_abs="36875.088033" CO2_abs="1898941.998029" HC_abs="213.116897" PMx_abs="38.390559" NOx_abs="817.566061" fuel_abs="816.272075" electricity_abs="0"
            CO_normed="1343.708291" CO2_normed="69196.420763" HC_normed="7.765865" PMx_normed="1.398931" NOx_normed="29.791666" fuel_normed="29.744514" electricity_normed="0"
            traveltime="2.42" CO_perVeh="292.021034" CO2_perVeh="15038.093063" HC_perVeh="1.687714" PMx_perVeh="0.304022" NOx_perVeh="6.474466" fuel_perVeh="6.464218" electricity_perVeh="0"/>
        <edge id=":1110673561_0" sampledSeconds="99.99" CO_abs="9822.634611" CO2_abs="710487.162838" HC_abs="61.839523" PMx_abs="14.325540" NOx_abs="299.999024" fuel_abs="305.404589" electricity_abs="0"
            CO_normed="449.714293" CO2_normed="32528.567438" HC_normed="2.831228" PMx_normed="0.655873" NOx_normed="13.734996" fuel_normed="13.982482" electricity_normed="0"
            traveltime="1.18" CO_perVeh="115.916622" CO2_perVeh="8384.438120" HC_perVeh="0.729766" PMx_perVeh="0.169055" NOx_perVeh="3.540280" fuel_perVeh="3.604071" electricity_perVeh="0"/>
        <edge id=":1110673561_1" sampledSeconds="1314.20" CO_abs="120754.215917" CO2_abs="8394361.162867" HC_abs="752.889805" PMx_abs="174.986829" NOx_abs="3585.585922" fuel_abs="3608.330851" electricity_abs="0"
            CO_normed="5390.011126" CO2_normed="374692.508386" HC_normed="33.606151" PMx_normed="7.810750" NOx_normed="160.046984" fuel_normed="161.062231" electricity_normed="0"
            traveltime="1.19" CO_perVeh="109.534034" CO2_perVeh="7614.377996" HC_perVeh="0.682933" PMx_perVeh="0.158727" NOx_perVeh="3.252422" fuel_perVeh="3.273054" electricity_perVeh="0"/>
        <edge id=":1110673562_0" sampledSeconds="104.79" CO_abs="2188.350128" CO2_abs="174519.966517" HC_abs="13.945103" PMx_abs="2.361949" NOx_abs="66.553560" fuel_abs="75.019361" electricity_abs="0"
            CO_normed="6208.085470" CO2_normed="495092.103593" HC_normed="39.560577" PMx_normed="6.700566" NOx_normed="188.804425" fuel_normed="212.820882" electricity_normed="0"
            traveltime="0.03" CO_perVeh="0.557820" CO2_perVeh="44.485934" HC_perVeh="0.003555" PMx_perVeh="0.000602" NOx_perVeh="0.016965" fuel_perVeh="0.019123" electricity_perVeh="0"/>
        <edge id=":1110673564_0" sampledSeconds="28.42" CO_abs="422.774608" CO2_abs="52572.025353" HC_abs="3.115732" PMx_abs="0.696488" NOx_abs="19.501049" fuel_abs="22.598537" electricity_abs="0"
            CO_normed="3238.273593" CO2_normed="402679.343129" HC_normed="23.865185" PMx_normed="5.334800" NOx_normed="149.369733" fuel_normed="173.095180" electricity_normed="0"
            traveltime="7.812634e-03" CO_perVeh="0.116227" CO2_perVeh="14.452790" HC_perVeh="0.000857" PMx_perVeh="0.000191" NOx_perVeh="0.005361" fuel_perVeh="0.006213" electricity_perVeh="0"/>
        <edge id=":1110673588_0" sampledSeconds="11.70" CO_abs="146.942699" CO2_abs="17561.505416" HC_abs="1.072277" PMx_abs="0.253940" NOx_abs="6.643436" fuel_abs="7.548938" electricity_abs="0"
            CO_normed="450.207418" CO2_normed="53805.463402" HC_normed="3.285274" PMx_normed="0.778029" NOx_normed="20.354358" fuel_normed="23.128660" electricity_normed="0"
            traveltime="0.02" CO_perVeh="0.244904" CO2_perVeh="29.269176" HC_perVeh="0.001787" PMx_perVeh="0.000423" NOx_perVeh="0.011072" fuel_perVeh="0.012582" electricity_perVeh="0"/>
        <edge id=":1110673601_0" sampledSeconds="29.71" CO_abs="329.833583" CO2_abs="45158.005835" HC_abs="2.524091" PMx_abs="0.570121" NOx_abs="16.527864" fuel_abs="19.411577" electricity_abs="0"
            CO_normed="902.280318" CO2_normed="123532.538758" HC_normed="6.904808" PMx_normed="1.559600" NOx_normed="45.213002" fuel_normed="53.101578" electricity_normed="0"
            traveltime="0.02" CO_perVeh="0.244807" CO2_perVeh="33.516876" HC_perVeh="0.001873" PMx_perVeh="0.000423" NOx_perVeh="0.012267" fuel_perVeh="0.014408" electricity_perVeh="0"/>
        <edge id=":1110673617_0" sampledSeconds="238.77" CO_abs="5727.926331" CO2_abs="703181.659342" HC_abs="42.858639" PMx_abs="12.603821" NOx_abs="265.649479" fuel_abs="302.265431" electricity_abs="0"
            CO_normed="14624.492761" CO2_normed="1795357.428108" HC_normed="109.426312" PMx_normed="32.179968" NOx_normed="678.253990" fuel_normed="771.741526" electricity_normed="0"
            traveltime="0.01" CO_perVeh="0.350797" CO2_perVeh="43.065122" HC_perVeh="0.002625" PMx_perVeh="0.000772" NOx_perVeh="0.016269" fuel_perVeh="0.018512" electricity_perVeh="0"/>
        <edge id=":1110673621_0" sampledSeconds="25.78" CO_abs="550.566245" CO2_abs="64672.701326" HC_abs="3.987861" PMx_abs="0.891094" NOx_abs="24.263110" fuel_abs="27.800087" electricity_abs="0"
            CO_normed="1686.841260" CO2_normed="198146.148744" HC_normed="12.218128" PMx_normed="2.730159" NOx_normed="74.338039" fuel_normed="85.174736" electricity_normed="0"
            traveltime="0.02" CO_perVeh="0.417106" CO2_perVeh="48.995650" HC_perVeh="0.003021" PMx_perVeh="0.000675" NOx_perVeh="0.018382" fuel_perVeh="0.021061" electricity_perVeh="0"/>
        <edge id=":1110673630_0" sampledSeconds="54.91" CO_abs="153.362128" CO2_abs="13036.880868" HC_abs="0.993743" PMx_abs="0.163395" NOx_abs="4.877894" fuel_abs="5.604061" electricity_abs="0"
            CO_normed="8.378664" CO2_normed="712.246504" HC_normed="0.054291" PMx_normed="0.008927" NOx_normed="0.266495" fuel_normed="0.306168" electricity_normed="0"
            traveltime="1.28" CO_perVeh="3.579743" CO2_perVeh="304.303859" HC_perVeh="0.023196" PMx_perVeh="0.003814" NOx_perVeh="0.113859" fuel_perVeh="0.130809" electricity_perVeh="0"/>
        <edge id=":1110673630_1" sampledSeconds="7.52" CO_abs="72.597667" CO2_abs="5283.396804" HC_abs="0.452553" PMx_abs="0.080499" NOx_abs="2.080704" fuel_abs="2.271118" electricity_abs="0"
            CO_normed="4.835367" CO2_normed="351.900620" HC_normed="0.030142" PMx_normed="0.005362" NOx_normed="0.138585" fuel_normed="0.151268" electricity_normed="0"
            traveltime="1.06" CO_perVeh="10.275362" CO2_perVeh="747.803855" HC_perVeh="0.064054" PMx_perVeh="0.011394" NOx_perVeh="0.294500" fuel_perVeh="0.321451" electricity_perVeh="0"/>
        <edge id=":1110673650_0" sampledSeconds="143.49" CO_abs="2149.606342" CO2_abs="271316.980391" HC_abs="15.996129" PMx_abs="3.708512" NOx_abs="101.191413" fuel_abs="116.627763" electricity_abs="0"
            CO_normed="5488.356617" CO2_normed="692724.205255" HC_normed="40.841181" PMx_normed="9.468542" NOx_normed="258.361054" fuel_normed="297.773011" electricity_normed="0"
            traveltime="0.02" CO_perVeh="0.345133" CO2_perVeh="43.561731" HC_perVeh="0.002568" PMx_perVeh="0.000595" NOx_perVeh="0.016247" fuel_perVeh="0.018725" electricity_perVeh="0"/>
        <edge id=":1110673655_0" sampledSeconds="45.04" CO_abs="798.021518" CO2_abs="85760.279135" HC_abs="5.584517" PMx_abs="1.223418" NOx_abs="32.564572" fuel_abs="36.864733" electricity_abs="0"
            CO_normed="2037.501748" CO2_normed="218962.414812" HC_normed="14.258342" PMx_normed="3.123621" NOx_normed="83.143589" fuel_normed="94.122723" electricity_normed="0"
            traveltime="0.02" CO_perVeh="0.427097" CO2_perVeh="45.898499" HC_perVeh="0.002989" PMx_perVeh="0.000655" NOx_perVeh="0.017428" fuel_perVeh="0.019730" electricity_perVeh="0"/>
        <edge id=":1110673663_0" sampledSeconds="109.11" CO_abs="1813.216686" CO2_abs="201408.552061" HC_abs="12.915367" PMx_abs="2.896462" NOx_abs="76.443671" fuel_abs="86.577001" electricity_abs="0"
            CO_normed="84.789183" CO2_normed="9418.216136" HC_normed="0.603945" PMx_normed="0.135444" NOx_normed="3.574640" fuel_normed="4.048492" electricity_normed="0"
            traveltime="1.28" CO_perVeh="21.297085" CO2_perVeh="2365.638459" HC_perVeh="0.151697" PMx_perVeh="0.034020" NOx_perVeh="0.897867" fuel_perVeh="1.016888" electricity_perVeh="0"/>
        <edge id=":1110673663_1" sampledSeconds="154.59" CO_abs="2363.531048" CO2_abs="286117.699866" HC_abs="17.284245" PMx_abs="3.992365" NOx_abs="107.388592" fuel_abs="122.989906" electricity_abs="0"
            CO_normed="110.657959" CO2_normed="13395.720225" HC_normed="0.809230" PMx_normed="0.186918" NOx_normed="5.027817" fuel_normed="5.758254" electricity_normed="0"
            traveltime="1.25" CO_perVeh="19.127729" CO2_perVeh="2315.510923" HC_perVeh="0.139879" PMx_perVeh="0.032310" NOx_perVeh="0.869081" fuel_perVeh="0.995340" electricity_perVeh="0"/>
        <edge id=":1110673666_0" sampledSeconds="191.72" CO_abs="3809.165589" CO2_abs="306047.699092" HC_abs="24.298337" PMx_abs="3.979684" NOx_abs="115.635066" fuel_abs="131.558256" electricity_abs="0"