<?xml version="1.0" encoding="UTF-8"?>

<!-- generated on Tue Nov 10 05:23:19 2020 by Eclipse SUMO sumo Version 1.7.0
<configuration xmlns:xsi="http://www.w3.org/2001/XMLSchema-instance" xsi:noNamespaceSchemaLocation="http://sumo.dlr.de/xsd/sumoConfiguration.xsd">

    <input>
        <net-file value="../dataSets/Porto/8AM9AM_Routing_SaoBento/Porto.net.xml"/>
        <route-files value="../results/Porto/8AM9AM_Routing_SaoBento/cost_hc-ttime/solution1/Porto.rou.xml"/>
        <additional-files value="moreOutputInfo.xml"/>
    </input>

    <output>
        <emission-output.precision value="6"/>
        <tripinfo-output value="../results/Porto/8AM9AM_Routing_SaoBento/cost_hc-ttime/solution1/Porto-tripinfo"/>
    </output>

    <processing>
        <collision.action value="warn"/>
        <time-to-teleport value="-1"/>
    </processing>

    <emissions>
        <device.emissions.probability value="1"/>
    </emissions>

    <gui_only>
        <quit-on-end value="true"/>
        <start value="true"/>
    </gui_only>

</configuration>
-->

<meandata xmlns:xsi="http://www.w3.org/2001/XMLSchema-instance" xsi:noNamespaceSchemaLocation="http://sumo.dlr.de/xsd/meandata_file.xsd">
    <interval begin="0.00" end="9619.00" id="emissions-detector">
        <edge id=":1092997347_0" sampledSeconds="594.26" CO_abs="71573.372412" CO2_abs="3047582.701662" HC_abs="397.968623" PMx_abs="61.529355" NOx_abs="1317.933489" fuel_abs="1310.032521" electricity_abs="0"
            CO_normed="60879.542545" CO2_normed="2592241.143472" HC_normed="338.507840" PMx_normed="52.336209" NOx_normed="1121.020083" fuel_normed="1114.299605" electricity_normed="0"
            traveltime="0.07" CO_perVeh="8.212162" CO2_perVeh="349.672533" HC_perVeh="0.045662" PMx_perVeh="0.007060" NOx_perVeh="0.151217" fuel_perVeh="0.150310" electricity_perVeh="0"/>
        <edge id=":1103427051_0" sampledSeconds="19.46" CO_abs="1618.617583" CO2_abs="90644.016129" HC_abs="9.521869" PMx_abs="1.777666" NOx_abs="38.679185" fuel_abs="38.963858" electricity_abs="0"
            CO_normed="2088.905686" CO2_normed="116980.565786" HC_normed="12.288441" PMx_normed="2.294166" NOx_normed="49.917393" fuel_normed="50.284777" electricity_normed="0"
            traveltime="0.03" CO_perVeh="2.517155" CO2_perVeh="140.962917" HC_perVeh="0.014808" PMx_perVeh="0.002764" NOx_perVeh="0.060151" fuel_perVeh="0.060594" electricity_perVeh="0"/>
        <edge id=":1105984386_0" sampledSeconds="10.49" CO_abs="300.015535" CO2_abs="22927.703736" HC_abs="1.886492" PMx_abs="0.299838" NOx_abs="8.701483" fuel_abs="9.855754" electricity_abs="0"
            CO_normed="11.563707" CO2_normed="883.718420" HC_normed="0.072712" PMx_normed="0.011557" NOx_normed="0.335387" fuel_normed="0.379877" electricity_normed="0"
            traveltime="1.01" CO_perVeh="28.780388" CO2_perVeh="2199.446782" HC_perVeh="0.180971" PMx_perVeh="0.028763" NOx_perVeh="0.834730" fuel_perVeh="0.945459" electricity_perVeh="0"/>
        <edge id=":1105984390_0" sampledSeconds="10.76" CO_abs="17.905049" CO2_abs="1833.574112" HC_abs="0.123152" PMx_abs="0.022439" NOx_abs="0.678155" fuel_abs="0.788182" electricity_abs="0"
            CO_normed="0.533530" CO2_normed="54.636316" HC_normed="0.003670" PMx_normed="0.000669" NOx_normed="0.020207" fuel_normed="0.023486" electricity_normed="0"
            traveltime="1.11" CO_perVeh="1.855966" CO2_perVeh="190.060996" HC_perVeh="0.012765" PMx_perVeh="0.002326" NOx_perVeh="0.070295" fuel_perVeh="0.081700" electricity_perVeh="0"/>
        <edge id=":1105984390_1" sampledSeconds="2399.93" CO_abs="64540.809895" CO2_abs="7546207.779178" HC_abs="474.218481" PMx_abs="136.957757" NOx_abs="2879.506917" fuel_abs="3243.765655" electricity_abs="0"
            CO_normed="1839.679889" CO2_normed="215098.117207" HC_normed="13.517187" PMx_normed="3.903862" NOx_normed="82.077851" fuel_normed="92.460731" electricity_normed="0"
            traveltime="0.65" CO_perVeh="17.430881" CO2_perVeh="2038.044589" HC_perVeh="0.128075" PMx_perVeh="0.036989" NOx_perVeh="0.777684" fuel_perVeh="0.876061" electricity_perVeh="0"/>
        <edge id=":1105984395_0" sampledSeconds="4.15" CO_abs="49.734681" CO2_abs="4926.517150" HC_abs="0.335124" PMx_abs="0.044433" NOx_abs="1.723900" fuel_abs="2.117743" electricity_abs="0"
            CO_normed="20.232245" CO2_normed="2004.124733" HC_normed="0.136330" PMx_normed="0.018076" NOx_normed="0.701289" fuel_normed="0.861506" electricity_normed="0"
            traveltime="0.10" CO_perVeh="1.152832" CO2_perVeh="114.194905" HC_perVeh="0.007768" PMx_perVeh="0.001030" NOx_perVeh="0.039959" fuel_perVeh="0.049089" electricity_perVeh="0"/>
        <edge id=":1105984398_0" sampledSeconds="11.32" CO_abs="536.841367" CO2_abs="37321.810691" HC_abs="3.306677" PMx_abs="0.577820" NOx_abs="14.792140" fuel_abs="16.043137" electricity_abs="0"
            CO_normed="16.618516" CO2_normed="1155.337795" HC_normed="0.102362" PMx_normed="0.017887" NOx_normed="0.457907" fuel_normed="0.496633" electricity_normed="0"
            traveltime="1.20" CO_perVeh="56.980685" CO2_perVeh="3961.360761" HC_perVeh="0.350973" PMx_perVeh="0.061330" NOx_perVeh="1.570047" fuel_perVeh="1.702829" electricity_perVeh="0"/>
        <edge id=":1105984398_1" sampledSeconds="646.50" CO_abs="12128.783834" CO2_abs="1391811.175078" HC_abs="87.294439" PMx_abs="20.222265" NOx_abs="528.470672" fuel_abs="598.280058" electricity_abs="0"
            CO_normed="363.435539" CO2_normed="41705.223876" HC_normed="2.615753" PMx_normed="0.605954" NOx_normed="15.835473" fuel_normed="17.927291" electricity_normed="0"
            traveltime="0.95" CO_perVeh="17.913711" CO2_perVeh="2055.647366" HC_perVeh="0.128930" PMx_perVeh="0.029867" NOx_perVeh="0.780529" fuel_perVeh="0.883635" electricity_perVeh="0"/>
        <edge id=":1106006327_0" sampledSeconds="67.64" CO_abs="9073.251447" CO2_abs="293290.637283" HC_abs="48.214071" PMx_abs="6.104643" NOx_abs="128.299757" fuel_abs="126.075341" electricity_abs="0"
            CO_normed="383.267330" CO2_normed="12389.022833" HC_normed="2.036632" PMx_normed="0.257869" NOx_normed="5.419568" fuel_normed="5.325606" electricity_normed="0"
            traveltime="2.10" CO_perVeh="281.267303" CO2_perVeh="9091.896877" HC_perVeh="1.494618" PMx_perVeh="0.189242" NOx_perVeh="3.977243" fuel_perVeh="3.908287" electricity_perVeh="0"/>
        <edge id=":1106006327_1" sampledSeconds="684.29" CO_abs="92459.024630" CO2_abs="3083915.368699" HC_abs="493.669973" PMx_abs="64.298839" NOx_abs="1349.480091" fuel_abs="1325.664216" electricity_abs="0"
            CO_normed="3405.870851" CO2_normed="113600.781583" HC_normed="18.185095" PMx_normed="2.368547" NOx_normed="49.710182" fuel_normed="48.832887" electricity_normed="0"
            traveltime="2.30" CO_perVeh="310.362566" CO2_perVeh="10351.957441" HC_perVeh="1.657131" PMx_perVeh="0.215836" NOx_perVeh="4.529878" fuel_perVeh="4.449934" electricity_perVeh="0"/>
        <edge id=":1106006327_2" sampledSeconds="0.00" CO_abs="0" CO2_abs="0" HC_abs="0" PMx_abs="0" NOx_abs="0" fuel_abs="0" electricity_abs="0"
            CO_normed="0" CO2_normed="0" HC_normed="0" PMx_normed="0" NOx_normed="0" fuel_normed="0" electricity_normed="0"/>
        <edge id=":1106006327_3" sampledSeconds="0.00" CO_abs="0" CO2_abs="0" HC_abs="0" PMx_abs="0" NOx_abs="0" fuel_abs="0" electricity_abs="0"
            CO_normed="0" CO2_normed="0" HC_normed="0" PMx_normed="0" NOx_normed="0" fuel_normed="0" electricity_normed="0"/>
        <edge id=":1107381198_0" sampledSeconds="0.00" CO_abs="0" CO2_abs="0" HC_abs="0" PMx_abs="0" NOx_abs="0" fuel_abs="0" electricity_abs="0"
            CO_normed="0" CO2_normed="0" HC_normed="0" PMx_normed="0" NOx_normed="0" fuel_normed="0" electricity_normed="0"/>
        <edge id=":1107381198_1" sampledSeconds="104.64" CO_abs="4808.431544" CO2_abs="189304.376342" HC_abs="26.259065" PMx_abs="3.311349" NOx_abs="78.735681" fuel_abs="81.375366" electricity_abs="0"
            CO_normed="196.248650" CO2_normed="7726.163502" HC_normed="1.071723" PMx_normed="0.135148" NOx_normed="3.213474" fuel_normed="3.321209" electricity_normed="0"
            traveltime="1.57" CO_perVeh="71.991440" CO2_perVeh="2834.249496" HC_perVeh="0.393149" PMx_perVeh="0.049577" NOx_perVeh="1.178824" fuel_perVeh="1.218345" electricity_perVeh="0"/>
        <edge id=":1110338277_0" sampledSeconds="160.81" CO_abs="2766.092159" CO2_abs="316174.676661" HC_abs="19.852158" PMx_abs="4.487250" NOx_abs="119.533695" fuel_abs="135.910116" electricity_abs="0"
            CO_normed="3697.270199" CO2_normed="422611.808466" HC_normed="26.535195" PMx_normed="5.997840" NOx_normed="159.773552" fuel_normed="181.662935" electricity_normed="0"
            traveltime="0.02" CO_perVeh="0.374641" CO2_perVeh="42.822824" HC_perVeh="0.002689" PMx_perVeh="0.000608" NOx_perVeh="0.016190" fuel_perVeh="0.018408" electricity_perVeh="0"/>
        <edge id=":1110338293_0" sampledSeconds="6718.96" CO_abs="645354.538884" CO2_abs="11260618.417686" HC_abs="3201.988905" PMx_abs="269.060627" NOx_abs="5091.696223" fuel_abs="4840.751481" electricity_abs="0"
            CO_normed="805099.747022" CO2_normed="14047969.748647" HC_normed="3994.580191" PMx_normed="335.661453" NOx_normed="6352.048517" fuel_normed="6038.987189" electricity_normed="0"
            traveltime="0.45" CO_perVeh="43.178658" CO2_perVeh="753.412841" HC_perVeh="0.214235" PMx_perVeh="0.018002" NOx_perVeh="0.340670" fuel_perVeh="0.323880" electricity_perVeh="0"/>
        <edge id=":1110338295_0" sampledSeconds="0.00" CO_abs="0" CO2_abs="0" HC_abs="0" PMx_abs="0" NOx_abs="0" fuel_abs="0" electricity_abs="0"
            CO_normed="0" CO2_normed="0" HC_normed="0" PMx_normed="0" NOx_normed="0" fuel_normed="0" electricity_normed="0"/>
        <edge id=":1110673403_0" sampledSeconds="200.84" CO_abs="3288.381572" CO2_abs="395253.315921" HC_abs="23.989527" PMx_abs="5.491500" NOx_abs="148.332522" fuel_abs="169.902739" electricity_abs="0"
            CO_normed="4102.357715" CO2_normed="493090.736152" HC_normed="29.927677" PMx_normed="6.850816" NOx_normed="185.049409" fuel_normed="211.958921" electricity_normed="0"
            traveltime="0.02" CO_perVeh="0.380058" CO2_perVeh="45.681782" HC_perVeh="0.002773" PMx_perVeh="0.000635" NOx_perVeh="0.017144" fuel_perVeh="0.019637" electricity_perVeh="0"/>
        <edge id=":1110673412_0" sampledSeconds="962.97" CO_abs="170576.941169" CO2_abs="11641611.220639" HC_abs="1061.600336" PMx_abs="255.770491" NOx_abs="5002.857971" fuel_abs="5004.155309" electricity_abs="0"
            CO_normed="220137.941147" CO2_normed="15024072.469466" HC_normed="1370.047503" PMx_normed="330.084412" NOx_normed="6456.434533" fuel_normed="6458.108812" electricity_normed="0"
            traveltime="0.02" CO_perVeh="2.755691" CO2_perVeh="188.071613" HC_perVeh="0.017150" PMx_perVeh="0.004132" NOx_perVeh="0.080822" fuel_perVeh="0.080843" electricity_perVeh="0"/>
        <edge id=":1110673414_0" sampledSeconds="0.00" CO_abs="0" CO2_abs="0" HC_abs="0" PMx_abs="0" NOx_abs="0" fuel_abs="0" electricity_abs="0"
            CO_normed="0" CO2_normed="0" HC_normed="0" PMx_normed="0" NOx_normed="0" fuel_normed="0" electricity_normed="0"/>
        <edge id=":1110673414_1" sampledSeconds="238.95" CO_abs="15892.549292" CO2_abs="620594.700016" HC_abs="86.792223" PMx_abs="11.490628" NOx_abs="262.163472" fuel_abs="266.771220" electricity_abs="0"
            CO_normed="658.685939" CO2_normed="25721.298414" HC_normed="3.597209" PMx_normed="0.476243" NOx_normed="10.865682" fuel_normed="11.056656" electricity_normed="0"
            traveltime="1.55" CO_perVeh="103.112360" CO2_perVeh="4026.476987" HC_perVeh="0.563116" PMx_perVeh="0.074552" NOx_perVeh="1.700941" fuel_perVeh="1.730837" electricity_perVeh="0"/>
        <edge id=":1110673417_0" sampledSeconds="28.80" CO_abs="510.833871" CO2_abs="56961.289150" HC_abs="3.615453" PMx_abs="0.810898" NOx_abs="21.563214" fuel_abs="24.485250" electricity_abs="0"
            CO_normed="682.801129" CO2_normed="76136.753502" HC_normed="4.832561" PMx_normed="1.083878" NOx_normed="28.822260" fuel_normed="32.727972" electricity_normed="0"
            traveltime="0.02" CO_perVeh="0.389535" CO2_perVeh="43.435717" HC_perVeh="0.002757" PMx_perVeh="0.000618" NOx_perVeh="0.016443" fuel_perVeh="0.018671" electricity_perVeh="0"/>
        <edge id=":1110673446_0" sampledSeconds="1328.14" CO_abs="14330.165783" CO2_abs="1154176.309338" HC_abs="92.624555" PMx_abs="21.321777" NOx_abs="473.106274" fuel_abs="496.127154" electricity_abs="0"
            CO_normed="17877.325023" CO2_normed="1439870.642692" HC_normed="115.551997" PMx_normed="26.599577" NOx_normed="590.214709" fuel_normed="618.933969" electricity_normed="0"
            traveltime="0.02" CO_perVeh="0.245678" CO2_perVeh="19.787292" HC_perVeh="0.001588" PMx_perVeh="0.000366" NOx_perVeh="0.008111" fuel_perVeh="0.008506" electricity_perVeh="0"/>
        <edge id=":1110673451_0" sampledSeconds="36.69" CO_abs="316.427894" CO2_abs="23683.128096" HC_abs="1.984159" PMx_abs="0.340712" NOx_abs="9.187963" fuel_abs="10.180441" electricity_abs="0"
            CO_normed="438.615094" CO2_normed="32828.260867" HC_normed="2.750333" PMx_normed="0.472276" NOx_normed="12.735854" fuel_normed="14.111572" electricity_normed="0"
            traveltime="0.03" CO_perVeh="0.233137" CO2_perVeh="17.449229" HC_perVeh="0.001462" PMx_perVeh="0.000251" NOx_perVeh="0.006769" fuel_perVeh="0.007501" electricity_perVeh="0"/>
        <edge id=":1110673464_0" sampledSeconds="1024.02" CO_abs="3198.917041" CO2_abs="236760.581122" HC_abs="19.979976" PMx_abs="3.317242" NOx_abs="91.243715" fuel_abs="101.774187" electricity_abs="0"
            CO_normed="84.789262" CO2_normed="6275.484722" HC_normed="0.529582" PMx_normed="0.087926" NOx_normed="2.418471" fuel_normed="2.697587" electricity_normed="0"
            traveltime="1.21" CO_perVeh="3.793471" CO2_perVeh="280.765138" HC_perVeh="0.023693" PMx_perVeh="0.003934" NOx_perVeh="0.108202" fuel_perVeh="0.120690" electricity_perVeh="0"/>
        <edge id=":1110673464_1" sampledSeconds="2607.07" CO_abs="61267.894787" CO2_abs="7668864.751466" HC_abs="460.810567" PMx_abs="135.643972" NOx_abs="2895.922610" fuel_abs="3296.492518" electricity_abs="0"
            CO_normed="1591.261492" CO2_normed="199177.223379" HC_normed="11.968260" PMx_normed="3.522971" NOx_normed="75.213456" fuel_normed="85.617135" electricity_normed="0"
            traveltime="0.72" CO_perVeh="16.895594" CO2_perVeh="2114.811161" HC_perVeh="0.127076" PMx_perVeh="0.037406" NOx_perVeh="0.798597" fuel_perVeh="0.909060" electricity_perVeh="0"/>
        <edge id=":1110673479_0" sampledSeconds="134.71" CO_abs="6190.259286" CO2_abs="427388.526739" HC_abs="38.223677" PMx_abs="7.457561" NOx_abs="174.667842" fuel_abs="183.715806" electricity_abs="0"
            CO_normed="7722.539914" CO2_normed="533180.405538" HC_normed="47.685219" PMx_normed="9.303538" NOx_normed="217.903535" fuel_normed="229.191150" electricity_normed="0"
            traveltime="0.03" CO_perVeh="1.308677" CO2_perVeh="90.353799" HC_perVeh="0.008081" PMx_perVeh="0.001577" NOx_perVeh="0.036926" fuel_perVeh="0.038839" electricity_perVeh="0"/>
        <edge id=":1110673511_0" sampledSeconds="63.66" CO_abs="1097.340171" CO2_abs="121398.479283" HC_abs="7.762854" PMx_abs="1.670954" NOx_abs="45.689807" fuel_abs="52.184164" electricity_abs="0"
            CO_normed="1368.965802" CO2_normed="151448.357563" HC_normed="9.684400" PMx_normed="2.084567" NOx_normed="56.999447" fuel_normed="65.101359" electricity_normed="0"
            traveltime="0.02" CO_perVeh="0.420574" CO2_perVeh="46.528011" HC_perVeh="0.002975" PMx_perVeh="0.000640" NOx_perVeh="0.017511" fuel_perVeh="0.020000" electricity_perVeh="0"/>
        <edge id=":1110673517_0" sampledSeconds="182.98" CO_abs="7943.640008" CO2_abs="568066.679332" HC_abs="49.496407" PMx_abs="9.757570" NOx_abs="230.742480" fuel_abs="244.187284" electricity_abs="0"
            CO_normed="9909.936594" CO2_normed="708680.751844" HC_normed="61.748298" PMx_normed="12.172871" NOx_normed="287.858380" fuel_normed="304.631189" electricity_normed="0"
            traveltime="0.03" CO_perVeh="1.216236" CO2_perVeh="86.975607" HC_perVeh="0.007578" PMx_perVeh="0.001494" NOx_perVeh="0.035329" fuel_perVeh="0.037387" electricity_perVeh="0"/>
        <edge id=":1110673534_0" sampledSeconds="736.75" CO_abs="5448.694517" CO2_abs="462883.063479" HC_abs="35.397935" PMx_abs="6.300220" NOx_abs="176.248877" fuel_abs="198.975160" electricity_abs="0"
            CO_normed="131.732847" CO2_normed="11191.103448" HC_normed="0.855814" PMx_normed="0.152320" NOx_normed="4.261161" fuel_normed="4.810614" electricity_normed="0"
            traveltime="1.45" CO_perVeh="10.745727" CO2_perVeh="912.881989" HC_perVeh="0.069811" PMx_perVeh="0.012425" NOx_perVeh="0.347592" fuel_perVeh="0.392412" electricity_perVeh="0"/>
        <edge id=":1110673534_1" sampledSeconds="199.50" CO_abs="3277.395348" CO2_abs="402674.421993" HC_abs="24.129584" PMx_abs="5.566248" NOx_abs="150.712227" fuel_abs="173.092767" electricity_abs="0"
            CO_normed="77.047463" CO2_normed="9466.371775" HC_normed="0.567256" PMx_normed="0.130856" NOx_normed="3.543056" fuel_normed="4.069194" electricity_normed="0"
            traveltime="1.22" CO_perVeh="20.033691" CO2_perVeh="2461.422600" HC_perVeh="0.147497" PMx_perVeh="0.034025" NOx_perVeh="0.921257" fuel_perVeh="1.058062" electricity_perVeh="0"/>
        <edge id=":1110673549_0" sampledSeconds="649.67" CO_abs="1774.633823" CO2_abs="161913.039505" HC_abs="11.722897" PMx_abs="2.430904" NOx_abs="62.332537" fuel_abs="69.599625" electricity_abs="0"
            CO_normed="41.562777" CO2_normed="3792.081186" HC_normed="0.274556" PMx_normed="0.056933" NOx_normed="1.459858" fuel_normed="1.630057" electricity_normed="0"
            traveltime="1.29" CO_perVeh="3.525774" CO2_perVeh="321.682602" HC_perVeh="0.023291" PMx_perVeh="0.004830" NOx_perVeh="0.123840" fuel_perVeh="0.138278" electricity_perVeh="0"/>
        <edge id=":1110673549_1" sampledSeconds="3194.03" CO_abs="68263.335305" CO2_abs="8928304.609135" HC_abs="524.499230" PMx_abs="157.314373" NOx_abs="3340.484201" fuel_abs="3837.869261" electricity_abs="0"
            CO_normed="1546.500401" CO2_normed="202270.026716" HC_normed="11.882488" PMx_normed="3.563945" NOx_normed="75.678402" fuel_normed="86.946621" electricity_normed="0"
            traveltime="0.81" CO_perVeh="17.218125" CO2_perVeh="2251.994666" HC_perVeh="0.132295" PMx_perVeh="0.039680" NOx_perVeh="0.842573" fuel_perVeh="0.968029" electricity_perVeh="0"/>
        <edge id=":1110673556_0" sampledSeconds="474.23" CO_abs="58757.949171" CO2_abs="2794005.048551" HC_abs="333.873256" PMx_abs="56.371833" NOx_abs="1204.528773" fuel_abs="1201.024298" electricity_abs="0"
            CO_normed="1020.450472" CO2_normed="48523.541236" HC_normed="5.798383" PMx_normed="0.979011" NOx_normed="20.919075" fuel_normed="20.858213" electricity_normed="0"
            traveltime="2.80" CO_perVeh="346.372461" CO2_perVeh="16470.391114" HC_perVeh="1.968151" PMx_perVeh="0.332307" NOx_perVeh="7.100581" fuel_perVeh="7.079923" electricity_perVeh="0"/>
        <edge id=":1110673556_2" sampledSeconds="175.30" CO_abs="17257.236333" CO2_abs="738459.452033" HC_abs="95.932570" PMx_abs="14.322291" NOx_abs="315.445051" fuel_abs="317.434681" electricity_abs="0"
            CO_normed="313.376071" CO2_normed="13409.767187" HC_normed="1.742050" PMx_normed="0.260080" NOx_normed="5.728202" fuel_normed="5.764332" electricity_normed="0"
            traveltime="3.03" CO_perVeh="298.404713" CO2_perVeh="12769.123432" HC_perVeh="1.658825" PMx_perVeh="0.247655" NOx_perVeh="5.454540" fuel_perVeh="5.488944" electricity_perVeh="0"/>
        <edge id=":1110673556_3" sampledSeconds="236.57" CO_abs="25751.733024" CO2_abs="878227.313553" HC_abs="137.812786" PMx_abs="17.519049" NOx_abs="379.443891" fuel_abs="377.518999" electricity_abs="0"
            CO_normed="1063.777596" CO2_normed="36278.666748" HC_normed="5.692904" PMx_normed="0.723694" NOx_normed="15.674437" fuel_normed="15.594921" electricity_normed="0"
            traveltime="1.89" CO_perVeh="206.029272" CO2_perVeh="7026.343974" HC_perVeh="1.102585" PMx_perVeh="0.140163" NOx_perVeh="3.035778" fuel_perVeh="3.020378" electricity_perVeh="0"/>
        <edge id=":1110673556_4" sampledSeconds="55.18" CO_abs="5727.450573" CO2_abs="223314.344800" HC_abs="31.315487" PMx_abs="4.362987" NOx_abs="95.750694" fuel_abs="95.994426" electricity_abs="0"
            CO_normed="144.541572" CO2_normed="5635.702331" HC_normed="0.790297" PMx_normed="0.110107" NOx_normed="2.416425" fuel_normed="2.422576" electricity_normed="0"
            traveltime="2.46" CO_perVeh="255.176627" CO2_perVeh="9949.383324" HC_perVeh="1.395207" PMx_perVeh="0.194385" NOx_perVeh="4.266006" fuel_perVeh="4.276865" electricity_perVeh="0"/>
        <edge id=":1110673556_5" sampledSeconds="21.69" CO_abs="1437.669436" CO2_abs="65440.615414" HC_abs="8.064562" PMx_abs="1.153238" NOx_abs="27.202483" fuel_abs="28.130446" electricity_abs="0"
            CO_normed="50.569655" CO2_normed="2301.856909" HC_normed="0.283669" PMx_normed="0.040565" NOx_normed="0.956840" fuel_normed="0.989481" electricity_normed="0"
            traveltime="1.50" CO_perVeh="99.394430" CO2_perVeh="4524.289461" HC_perVeh="0.557550" PMx_perVeh="0.079730" NOx_perVeh="1.880665" fuel_perVeh="1.944821" electricity_perVeh="0"/>
        <edge id=":1110673556_6" sampledSeconds="213.77" CO_abs="26154.063171" CO2_abs="1316097.685866" HC_abs="150.411085" PMx_abs="26.655561" NOx_abs="567.172195" fuel_abs="565.733221" electricity_abs="0"
            CO_normed="465.670828" CO2_normed="23433.005250" HC_normed="2.678056" PMx_normed="0.474600" NOx_normed="10.098452" fuel_normed="10.072831" electricity_normed="0"
            traveltime="2.49" CO_perVeh="304.761022" CO2_perVeh="15335.868594" HC_perVeh="1.752670" PMx_perVeh="0.310605" NOx_perVeh="6.608991" fuel_perVeh="6.592224" electricity_perVeh="0"/>
        <edge id=":1110673561_0" sampledSeconds="163.96" CO_abs="16143.166438" CO2_abs="1139177.115001" HC_abs="100.925033" PMx_abs="23.173146" NOx_abs="483.269506" fuel_abs="489.677901" electricity_abs="0"
            CO_normed="361.131490" CO2_normed="25484.017045" HC_normed="2.257748" PMx_normed="0.518396" NOx_normed="10.811004" fuel_normed="10.954363" electricity_normed="0"
            traveltime="1.21" CO_perVeh="118.859217" CO2_perVeh="8387.555200" HC_perVeh="0.743093" PMx_perVeh="0.170620" NOx_perVeh="3.558226" fuel_perVeh="3.605410" electricity_perVeh="0"/>
        <edge id=":1110673561_1" sampledSeconds="5251.04" CO_abs="489065.918134" CO2_abs="33864352.068429" HC_abs="3046.222724" PMx_abs="708.203192" NOx_abs="14480.717723" fuel_abs="14556.649076" electricity_abs="0"
            CO_normed="10666.518512" CO2_normed="738580.884171" HC_normed="66.438061" PMx_normed="15.445898" NOx_normed="315.824182" fuel_normed="317.480244" electricity_normed="0"
            traveltime="1.19" CO_perVeh="110.997679" CO2_perVeh="7685.803370" HC_perVeh="0.691366" PMx_perVeh="0.160733" NOx_perVeh="3.286522" fuel_perVeh="3.303756" electricity_perVeh="0"/>
        <edge id=":1110673562_0" sampledSeconds="300.55" CO_abs="7178.814842" CO2_abs="551188.292918" HC_abs="45.275269" PMx_abs="7.585552" NOx_abs="211.404767" fuel_abs="236.934453" electricity_abs="0"
            CO_normed="9950.881716" CO2_normed="764027.158635" HC_normed="62.758109" PMx_normed="10.514679" NOx_normed="293.037761" fuel_normed="328.425620" electricity_normed="0"
            traveltime="0.03" CO_perVeh="0.643521" CO2_perVeh="49.409408" HC_perVeh="0.004059" PMx_perVeh="0.000680" NOx_perVeh="0.018951" fuel_perVeh="0.021239" electricity_perVeh="0"/>
        <edge id=":1110673564_0" sampledSeconds="28.09" CO_abs="427.145186" CO2_abs="49042.596345" HC_abs="3.064629" PMx_abs="0.668482" NOx_abs="18.385828" fuel_abs="21.081375" electricity_abs="0"
            CO_normed="1598.630490" CO2_normed="183546.467244" HC_normed="11.469660" PMx_normed="2.501856" NOx_normed="68.810667" fuel_normed="78.899002" electricity_normed="0"
            traveltime="7.935150e-03" CO_perVeh="0.120645" CO2_perVeh="13.851884" HC_perVeh="0.000866" PMx_perVeh="0.000189" NOx_perVeh="0.005193" fuel_perVeh="0.005954" electricity_perVeh="0"/>
        <edge id=":1110673588_0" sampledSeconds="63.11" CO_abs="1234.204629" CO2_abs="124809.281122" HC_abs="8.503053" PMx_abs="1.807648" NOx_abs="47.758625" fuel_abs="53.650264" electricity_abs="0"
            CO_normed="1847.650136" CO2_normed="186844.126017" HC_normed="12.729386" PMx_normed="2.706117" NOx_normed="71.496434" fuel_normed="80.316436" electricity_normed="0"
            traveltime="0.02" CO_perVeh="0.398131" CO2_perVeh="40.261058" HC_perVeh="0.002743" PMx_perVeh="0.000583" NOx_perVeh="0.015406" fuel_perVeh="0.017307" electricity_perVeh="0"/>
        <edge id=":1110673601_0" sampledSeconds="28.99" CO_abs="458.589575" CO2_abs="54100.557973" HC_abs="3.337759" PMx_abs="0.750333" NOx_abs="20.315680" fuel_abs="23.255559" electricity_abs="0"
            CO_normed="612.969298" CO2_normed="72312.984979" HC_normed="4.461383" PMx_normed="1.002926" NOx_normed="27.154756" fuel_normed="31.084317" electricity_normed="0"
            traveltime="0.02" CO_perVeh="0.349697" CO2_perVeh="41.254272" HC_perVeh="0.002545" PMx_perVeh="0.000572" NOx_perVeh="0.015492" fuel_perVeh="0.017733" electricity_perVeh="0"/>
        <edge id=":1110673617_0" sampledSeconds="853.70" CO_abs="32180.160542" CO2_abs="3264037.592963" HC_abs="224.676841" PMx_abs="61.556624" NOx_abs="1279.801594" fuel_abs="1403.056892" electricity_abs="0"
            CO_normed="40145.745556" CO2_normed="4071987.848587" HC_normed="280.291308" PMx_normed="76.793792" NOx_normed="1596.592071" fuel_normed="1750.356866" electricity_normed="0"
            traveltime="0.02" CO_perVeh="0.569971" CO2_perVeh="57.812250" HC_perVeh="0.003979" PMx_perVeh="0.001090" NOx_perVeh="0.022668" fuel_perVeh="0.024851" electricity_perVeh="0"/>
        <edge id=":1110673621_0" sampledSeconds="42.59" CO_abs="845.560458" CO2_abs="82581.027334" HC_abs="5.724178" PMx_abs="1.209302" NOx_abs="31.679418" fuel_abs="35.498111" electricity_abs="0"
            CO_normed="1265.835387" CO2_normed="123626.862835" HC_normed="8.569306" PMx_normed="1.810370" NOx_normed="47.425265" fuel_normed="53.141990" electricity_normed="0"
            traveltime="0.02" CO_perVeh="0.398859" CO2_perVeh="38.954222" HC_perVeh="0.002700" PMx_perVeh="0.000570" NOx_perVeh="0.014943" fuel_perVeh="0.016745" electricity_perVeh="0"/>
        <edge id=":1110673630_0" sampledSeconds="285.20" CO_abs="1475.377871" CO2_abs="134593.040645" HC_abs="9.789421" PMx_abs="1.768548" NOx_abs="50.726115" fuel_abs="57.856251" electricity_abs="0"
            CO_normed="39.384726" CO2_normed="3592.916853" HC_normed="0.261325" PMx_normed="0.047211" NOx_normed="1.354117" fuel_normed="1.544454" electricity_normed="0"
            traveltime="1.28" CO_perVeh="6.638637" CO2_perVeh="605.617279" HC_perVeh="0.044049" PMx_perVeh="0.007958" NOx_perVeh="0.228248" fuel_perVeh="0.260331" electricity_perVeh="0"/>
        <edge id=":1110673630_1" sampledSeconds="336.80" CO_abs="1518.212067" CO2_abs="121447.201038" HC_abs="9.689393" PMx_abs="1.669798" NOx_abs="46.491509" fuel_abs="52.205394" electricity_abs="0"
            CO_normed="49.409126" CO2_normed="3952.412334" HC_normed="0.315334" PMx_normed="0.054342" NOx_normed="1.513033" fuel_normed="1.698987" electricity_normed="0"
            traveltime="1.07" CO_perVeh="4.839761" CO2_perVeh="387.149775" HC_perVeh="0.030888" PMx_perVeh="0.005323" NOx_perVeh="0.148206" fuel_perVeh="0.166421" electricity_perVeh="0"/>
        <edge id=":1110673650_0" sampledSeconds="200.64" CO_abs="2723.021970" CO2_abs="346057.289549" HC_abs="20.314719" PMx_abs="4.700400" NOx_abs="128.912247" fuel_abs="148.755505" electricity_abs="0"
            CO_normed="3397.054126" CO2_normed="431717.171700" HC_normed="25.343241" PMx_normed="5.863895" NOx_normed="160.822015" fuel_normed="185.577094" electricity_normed="0"
            traveltime="0.02" CO_perVeh="0.314715" CO2_perVeh="39.995834" HC_perVeh="0.002348" PMx_perVeh="0.000543" NOx_perVeh="0.014899" fuel_perVeh="0.017193" electricity_perVeh="0"/>
        <edge id=":1110673655_0" sampledSeconds="20.80" CO_abs="360.039086" CO2_abs="37033.260436" HC_abs="2.486031" PMx_abs="0.543810" NOx_abs="14.170494" fuel_abs="15.919028" electricity_abs="0"
            CO_normed="449.159895" CO2_normed="46200.137773" HC_normed="3.101400" PMx_normed="0.678420" NOx_normed="17.678129" fuel_normed="19.859480" electricity_normed="0"
            traveltime="0.02" CO_perVeh="0.411317" CO2_perVeh="42.307609" HC_perVeh="0.002840" PMx_perVeh="0.000621" NOx_perVeh="0.016189" fuel_perVeh="0.018186" electricity_perVeh="0"/>
        <edge id=":1110673663_0" sampledSeconds="179.33" CO_abs="3227.482631" CO2_abs="370928.280030" HC_abs="23.189145" PMx_abs="5.048492" NOx_abs="138.995027" fuel_abs="159.446676" electricity_abs="0"
            CO_normed="73.743304" CO2_normed="8475.174021" HC_normed="0.529838" PMx_normed="0.115351" NOx_normed="3.175835" fuel_normed="3.643126" electricity_normed="0"
            traveltime="1.31" CO_perVeh="23.603285" CO2_perVeh="2712.679472" HC_perVeh="0.169587" PMx_perVeh="0.036921" NOx_perVeh="1.016501" fuel_perVeh="1.166068" electricity_perVeh="0"/>
        <edge id=":1110673663_1" sampledSeconds="170.93" CO_abs="2808.624894" CO2_abs="342867.617547" HC_abs="20.616322" PMx_abs="4.634260" NOx_abs="127.845352" fuel_abs="147.384500" electricity_abs="0"
            CO_normed="64.251462" CO2_normed="7843.605573" HC_normed="0.471629" PMx_normed="0.106016" NOx_normed="2.924652" fuel_normed="3.371639" electricity_normed="0"
            traveltime="1.28" CO_perVeh="20.984785" CO2_perVeh="2561.753036" HC_perVeh="0.154036" PMx_perVeh="0.034625" NOx_perVeh="0.955203" fuel_perVeh="1.101191" electricity_perVeh="0"/>