<?xml version="1.0" encoding="UTF-8"?>

<!-- generated on Mon Nov  9 22:10:44 2020 by Eclipse SUMO sumo Version 1.7.0
<configuration xmlns:xsi="http://www.w3.org/2001/XMLSchema-instance" xsi:noNamespaceSchemaLocation="http://sumo.dlr.de/xsd/sumoConfiguration.xsd">

    <input>
        <net-file value="../dataSets/Porto/6AM7AM_Routing_SaoBento/Porto.net.xml"/>
        <route-files value="../results/Porto/6AM7AM_Routing_SaoBento/cost_hc-ttime/solution2/Porto.rou.xml"/>
        <additional-files value="moreOutputInfo.xml"/>
    </input>

    <output>
        <emission-output.precision value="6"/>
        <tripinfo-output value="../results/Porto/6AM7AM_Routing_SaoBento/cost_hc-ttime/solution2/Porto-tripinfo"/>
    </output>

    <processing>
        <collision.action value="warn"/>
        <time-to-teleport value="-1"/>
    </processing>

    <emissions>
        <device.emissions.probability value="1"/>
    </emissions>

    <gui_only>
        <quit-on-end value="true"/>
        <start value="true"/>
    </gui_only>

</configuration>
-->

<meandata xmlns:xsi="http://www.w3.org/2001/XMLSchema-instance" xsi:noNamespaceSchemaLocation="http://sumo.dlr.de/xsd/meandata_file.xsd">
    <interval begin="0.00" end="4789.00" id="emissions-detector">
        <edge id=":1092997347_0" sampledSeconds="280.43" CO_abs="36025.426062" CO2_abs="1441773.738534" HC_abs="198.124912" PMx_abs="29.438622" NOx_abs="625.935242" fuel_abs="619.761523" electricity_abs="0"
            CO_normed="61548.023796" CO2_normed="2463213.737315" HC_normed="338.488621" PMx_normed="50.294727" NOx_normed="1069.385747" fuel_normed="1058.838192" electricity_normed="0"
            traveltime="0.07" CO_perVeh="9.492655" CO2_perVeh="379.905577" HC_perVeh="0.052206" PMx_perVeh="0.007757" NOx_perVeh="0.164933" fuel_perVeh="0.163306" electricity_perVeh="0"/>
        <edge id=":1103427051_0" sampledSeconds="10.95" CO_abs="855.306698" CO2_abs="48373.483724" HC_abs="5.043079" PMx_abs="0.948236" NOx_abs="20.632935" fuel_abs="20.793618" electricity_abs="0"
            CO_normed="2217.080891" CO2_normed="125391.192032" HC_normed="13.072403" PMx_normed="2.457967" NOx_normed="53.483606" fuel_normed="53.900119" electricity_normed="0"
            traveltime="0.03" CO_perVeh="2.343527" CO2_perVeh="132.542614" HC_perVeh="0.013818" PMx_perVeh="0.002598" NOx_perVeh="0.056534" fuel_perVeh="0.056974" electricity_perVeh="0"/>
        <edge id=":1105984386_0" sampledSeconds="23.03" CO_abs="529.402774" CO2_abs="39826.306915" HC_abs="3.324506" PMx_abs="0.573923" NOx_abs="15.459581" fuel_abs="17.119751" electricity_abs="0"
            CO_normed="40.984972" CO2_normed="3083.248082" HC_normed="0.257374" PMx_normed="0.044432" NOx_normed="1.196840" fuel_normed="1.325366" electricity_normed="0"
            traveltime="0.97" CO_perVeh="22.218624" CO2_perVeh="1671.479254" HC_perVeh="0.139527" PMx_perVeh="0.024087" NOx_perVeh="0.648827" fuel_perVeh="0.718503" electricity_perVeh="0"/>
        <edge id=":1105984390_0" sampledSeconds="22.61" CO_abs="21.031443" CO2_abs="1377.809646" HC_abs="0.126376" PMx_abs="0.015296" NOx_abs="0.508229" fuel_abs="0.592275" electricity_abs="0"
            CO_normed="1.258743" CO2_normed="82.462642" HC_normed="0.007564" PMx_normed="0.000915" NOx_normed="0.030418" fuel_normed="0.035448" electricity_normed="0"
            traveltime="1.03" CO_perVeh="0.953766" CO2_perVeh="62.482991" HC_perVeh="0.005731" PMx_perVeh="0.000694" NOx_perVeh="0.023048" fuel_perVeh="0.026859" electricity_perVeh="0"/>
        <edge id=":1105984390_1" sampledSeconds="645.72" CO_abs="14054.756795" CO2_abs="1878477.518012" HC_abs="108.960861" PMx_abs="32.967401" NOx_abs="699.926623" fuel_abs="807.471606" electricity_abs="0"
            CO_normed="804.667151" CO2_normed="107547.158240" HC_normed="6.238260" PMx_normed="1.887460" NOx_normed="40.072409" fuel_normed="46.229607" electricity_normed="0"
            traveltime="0.64" CO_perVeh="13.832033" CO2_perVeh="1848.709564" HC_perVeh="0.107234" PMx_perVeh="0.032445" NOx_perVeh="0.688835" fuel_perVeh="0.794676" electricity_perVeh="0"/>
        <edge id=":1105984395_0" sampledSeconds="9.06" CO_abs="114.608858" CO2_abs="9468.091307" HC_abs="0.737666" PMx_abs="0.125968" NOx_abs="3.593508" fuel_abs="4.069965" electricity_abs="0"
            CO_normed="93.645739" CO2_normed="7736.281675" HC_normed="0.602740" PMx_normed="0.102927" NOx_normed="2.936219" fuel_normed="3.325527" electricity_normed="0"
            traveltime="0.09" CO_perVeh="1.162259" CO2_perVeh="96.016799" HC_perVeh="0.007481" PMx_perVeh="0.001277" NOx_perVeh="0.036442" fuel_perVeh="0.041274" electricity_perVeh="0"/>
        <edge id=":1105984398_0" sampledSeconds="23.25" CO_abs="1578.613882" CO2_abs="109157.464055" HC_abs="9.765126" PMx_abs="1.974560" NOx_abs="45.061233" fuel_abs="46.921955" electricity_abs="0"
            CO_normed="98.153837" CO2_normed="6787.108633" HC_normed="0.607168" PMx_normed="0.122773" NOx_normed="2.801783" fuel_normed="2.917477" electricity_normed="0"
            traveltime="1.10" CO_perVeh="74.984172" CO2_perVeh="5184.980409" HC_perVeh="0.463844" PMx_perVeh="0.093792" NOx_perVeh="2.140409" fuel_perVeh="2.228793" electricity_perVeh="0"/>
        <edge id=":1105984398_1" sampledSeconds="453.64" CO_abs="8302.196674" CO2_abs="936030.923695" HC_abs="59.332490" PMx_abs="13.638436" NOx_abs="355.968704" fuel_abs="402.359661" electricity_abs="0"
            CO_normed="499.675715" CO2_normed="56335.924038" HC_normed="3.570983" PMx_normed="0.820842" NOx_normed="21.424320" fuel_normed="24.216404" electricity_normed="0"
            traveltime="0.96" CO_perVeh="17.502799" CO2_perVeh="1973.352594" HC_perVeh="0.125086" PMx_perVeh="0.028753" NOx_perVeh="0.750458" fuel_perVeh="0.848260" electricity_perVeh="0"/>
        <edge id=":1106006327_0" sampledSeconds="38.97" CO_abs="5256.937844" CO2_abs="169317.444700" HC_abs="27.921519" PMx_abs="3.532983" NOx_abs="74.116420" fuel_abs="72.783625" electricity_abs="0"
            CO_normed="446.022517" CO2_normed="14365.662113" HC_normed="2.368989" PMx_normed="0.299754" NOx_normed="6.288374" fuel_normed="6.175294" electricity_normed="0"
            traveltime="2.11" CO_perVeh="285.185337" CO2_perVeh="9185.357336" HC_perVeh="1.514724" PMx_perVeh="0.191662" NOx_perVeh="4.020766" fuel_perVeh="3.948463" electricity_perVeh="0"/>
        <edge id=":1106006327_1" sampledSeconds="163.87" CO_abs="22100.009505" CO2_abs="730081.519180" HC_abs="117.826173" PMx_abs="15.217535" NOx_abs="319.431035" fuel_abs="313.835956" electricity_abs="0"
            CO_normed="1635.145548" CO2_normed="54017.603272" HC_normed="8.717776" PMx_normed="1.125922" NOx_normed="23.634209" fuel_normed="23.220237" electricity_normed="0"
            traveltime="2.33" CO_perVeh="313.738118" CO2_perVeh="10364.448126" HC_perVeh="1.672694" PMx_perVeh="0.216033" NOx_perVeh="4.534735" fuel_perVeh="4.455306" electricity_perVeh="0"/>
        <edge id=":1106006327_2" sampledSeconds="0.00" CO_abs="0" CO2_abs="0" HC_abs="0" PMx_abs="0" NOx_abs="0" fuel_abs="0" electricity_abs="0"
            CO_normed="0" CO2_normed="0" HC_normed="0" PMx_normed="0" NOx_normed="0" fuel_normed="0" electricity_normed="0"/>
        <edge id=":1106006327_3" sampledSeconds="0.00" CO_abs="0" CO2_abs="0" HC_abs="0" PMx_abs="0" NOx_abs="0" fuel_abs="0" electricity_abs="0"
            CO_normed="0" CO2_normed="0" HC_normed="0" PMx_normed="0" NOx_normed="0" fuel_normed="0" electricity_normed="0"/>
        <edge id=":1107381198_0" sampledSeconds="0.00" CO_abs="0" CO2_abs="0" HC_abs="0" PMx_abs="0" NOx_abs="0" fuel_abs="0" electricity_abs="0"
            CO_normed="0" CO2_normed="0" HC_normed="0" PMx_normed="0" NOx_normed="0" fuel_normed="0" electricity_normed="0"/>
        <edge id=":1107381198_1" sampledSeconds="35.55" CO_abs="1430.154636" CO2_abs="59254.063910" HC_abs="7.872701" PMx_abs="0.994027" NOx_abs="24.340385" fuel_abs="25.471265" electricity_abs="0"
            CO_normed="117.238790" CO2_normed="4857.429093" HC_normed="0.645375" PMx_normed="0.081487" NOx_normed="1.995335" fuel_normed="2.088040" electricity_normed="0"
            traveltime="1.46" CO_perVeh="58.883432" CO2_perVeh="2439.654122" HC_perVeh="0.324141" PMx_perVeh="0.040927" NOx_perVeh="1.002161" fuel_perVeh="1.048723" electricity_perVeh="0"/>
        <edge id=":1110338277_0" sampledSeconds="96.82" CO_abs="1334.293988" CO2_abs="170533.680629" HC_abs="9.941253" PMx_abs="2.249559" NOx_abs="63.168505" fuel_abs="73.305356" electricity_abs="0"
            CO_normed="3582.210988" CO2_normed="457835.851701" HC_normed="26.689520" PMx_normed="6.039446" NOx_normed="169.589997" fuel_normed="196.804643" electricity_normed="0"
            traveltime="0.02" CO_perVeh="0.300710" CO2_perVeh="38.433148" HC_perVeh="0.002240" PMx_perVeh="0.000507" NOx_perVeh="0.014236" fuel_perVeh="0.016521" electricity_perVeh="0"/>
        <edge id=":1110338293_0" sampledSeconds="123.26" CO_abs="6665.393177" CO2_abs="454218.669849" HC_abs="41.045963" PMx_abs="8.096678" NOx_abs="186.844943" fuel_abs="195.248724" electricity_abs="0"
            CO_normed="16701.757804" CO2_normed="1138154.946375" HC_normed="102.850608" PMx_normed="20.288190" NOx_normed="468.185282" fuel_normed="489.242991" electricity_normed="0"
            traveltime="0.03" CO_perVeh="1.528818" CO2_perVeh="104.182577" HC_perVeh="0.009415" PMx_perVeh="0.001857" NOx_perVeh="0.042856" fuel_perVeh="0.044784" electricity_perVeh="0"/>
        <edge id=":1110338295_0" sampledSeconds="0.00" CO_abs="0" CO2_abs="0" HC_abs="0" PMx_abs="0" NOx_abs="0" fuel_abs="0" electricity_abs="0"
            CO_normed="0" CO2_normed="0" HC_normed="0" PMx_normed="0" NOx_normed="0" fuel_normed="0" electricity_normed="0"/>
        <edge id=":1110673403_0" sampledSeconds="143.65" CO_abs="2206.167647" CO2_abs="275977.195727" HC_abs="16.362896" PMx_abs="3.774182" NOx_abs="103.028980" fuel_abs="118.630999" electricity_abs="0"
            CO_normed="5528.087651" CO2_normed="691527.740390" HC_normed="41.001200" PMx_normed="9.457127" NOx_normed="258.164075" fuel_normed="297.258715" electricity_normed="0"
            traveltime="0.02" CO_perVeh="0.354216" CO2_perVeh="44.310095" HC_perVeh="0.002627" PMx_perVeh="0.000606" NOx_perVeh="0.016542" fuel_perVeh="0.019047" electricity_perVeh="0"/>
        <edge id=":1110673412_0" sampledSeconds="252.45" CO_abs="45087.153044" CO2_abs="3073893.334679" HC_abs="280.532087" PMx_abs="67.588773" NOx_abs="1321.202630" fuel_abs="1321.315323" electricity_abs="0"
            CO_normed="116872.539051" CO2_normed="7967984.104985" HC_normed="727.180474" PMx_normed="175.200052" NOx_normed="3424.751743" fuel_normed="3425.043861" electricity_normed="0"
            traveltime="0.02" CO_perVeh="2.773566" CO2_perVeh="189.092579" HC_perVeh="0.017257" PMx_perVeh="0.004158" NOx_perVeh="0.081275" fuel_perVeh="0.081282" electricity_perVeh="0"/>
        <edge id=":1110673414_0" sampledSeconds="0.00" CO_abs="0" CO2_abs="0" HC_abs="0" PMx_abs="0" NOx_abs="0" fuel_abs="0" electricity_abs="0"
            CO_normed="0" CO2_normed="0" HC_normed="0" PMx_normed="0" NOx_normed="0" fuel_normed="0" electricity_normed="0"/>
        <edge id=":1110673414_1" sampledSeconds="14.34" CO_abs="932.980933" CO2_abs="35640.598457" HC_abs="5.072955" PMx_abs="0.643562" NOx_abs="14.953925" fuel_abs="15.320646" electricity_abs="0"
            CO_normed="77.668100" CO2_normed="2966.981930" HC_normed="0.422310" PMx_normed="0.053575" NOx_normed="1.244873" fuel_normed="1.275402" electricity_normed="0"
            traveltime="1.57" CO_perVeh="101.896684" CO2_perVeh="3892.532705" HC_perVeh="0.554049" PMx_perVeh="0.070287" NOx_perVeh="1.633212" fuel_perVeh="1.673264" electricity_perVeh="0"/>
        <edge id=":1110673417_0" sampledSeconds="29.87" CO_abs="513.164151" CO2_abs="54284.994895" HC_abs="3.581183" PMx_abs="0.777195" NOx_abs="20.661982" fuel_abs="23.334835" electricity_abs="0"
            CO_normed="1377.704071" CO2_normed="145740.224339" HC_normed="9.614487" PMx_normed="2.086555" NOx_normed="55.471717" fuel_normed="62.647589" electricity_normed="0"
            traveltime="0.02" CO_perVeh="0.380877" CO2_perVeh="40.291050" HC_perVeh="0.002658" PMx_perVeh="0.000577" NOx_perVeh="0.015336" fuel_perVeh="0.017319" electricity_perVeh="0"/>
        <edge id=":1110673446_0" sampledSeconds="333.75" CO_abs="3342.479089" CO2_abs="266233.775276" HC_abs="21.525221" PMx_abs="4.926937" NOx_abs="109.272072" fuel_abs="114.441627" electricity_abs="0"
            CO_normed="8375.391328" CO2_normed="667113.239364" HC_normed="53.936657" PMx_normed="12.345634" NOx_normed="273.807655" fuel_normed="286.761228" electricity_normed="0"
            traveltime="0.02" CO_perVeh="0.227983" CO2_perVeh="18.159190" HC_perVeh="0.001468" PMx_perVeh="0.000336" NOx_perVeh="0.007453" fuel_perVeh="0.007806" electricity_perVeh="0"/>
        <edge id=":1110673451_0" sampledSeconds="37.71" CO_abs="430.154788" CO2_abs="30847.292116" HC_abs="2.666409" PMx_abs="0.448707" NOx_abs="12.022683" fuel_abs="13.260037" electricity_abs="0"
            CO_normed="1197.618956" CO2_normed="85883.739448" HC_normed="7.423705" PMx_normed="1.249272" NOx_normed="33.473050" fuel_normed="36.918041" electricity_normed="0"
            traveltime="0.03" CO_perVeh="0.308478" CO2_perVeh="22.121564" HC_perVeh="0.001912" PMx_perVeh="0.000322" NOx_perVeh="0.008622" fuel_perVeh="0.009509" electricity_perVeh="0"/>
        <edge id=":1110673464_0" sampledSeconds="325.87" CO_abs="919.398068" CO2_abs="80506.655893" HC_abs="6.006856" PMx_abs="1.067838" NOx_abs="30.389555" fuel_abs="34.606658" electricity_abs="0"
            CO_normed="48.947054" CO2_normed="4286.025536" HC_normed="0.319794" PMx_normed="0.056850" NOx_normed="1.617884" fuel_normed="1.842394" electricity_normed="0"
            traveltime="1.18" CO_perVeh="3.323503" CO2_perVeh="291.020939" HC_perVeh="0.021714" PMx_perVeh="0.003860" NOx_perVeh="0.109854" fuel_perVeh="0.125099" electricity_perVeh="0"/>
        <edge id=":1110673464_1" sampledSeconds="710.06" CO_abs="15942.078575" CO2_abs="2093509.135473" HC_abs="122.489161" PMx_abs="36.822424" NOx_abs="782.673793" fuel_abs="899.903727" electricity_abs="0"
            CO_normed="831.646240" CO2_normed="109211.543046" HC_normed="6.389860" PMx_normed="1.920906" NOx_normed="40.829539" fuel_normed="46.945042" electricity_normed="0"
            traveltime="0.70" CO_perVeh="15.732306" CO2_perVeh="2065.961881" HC_perVeh="0.120877" PMx_perVeh="0.036338" NOx_perVeh="0.772375" fuel_perVeh="0.888062" electricity_perVeh="0"/>
        <edge id=":1110673479_0" sampledSeconds="132.91" CO_abs="7204.441054" CO2_abs="494401.755520" HC_abs="44.446211" PMx_abs="8.798810" NOx_abs="203.235444" fuel_abs="212.521656" electricity_abs="0"
            CO_normed="18052.472886" CO2_normed="1238843.404936" HC_normed="111.370752" PMx_normed="22.047550" NOx_normed="509.255655" fuel_normed="532.524510" electricity_normed="0"
            traveltime="0.03" CO_perVeh="1.517683" CO2_perVeh="104.150359" HC_perVeh="0.009363" PMx_perVeh="0.001854" NOx_perVeh="0.042813" fuel_perVeh="0.044770" electricity_perVeh="0"/>
        <edge id=":1110673511_0" sampledSeconds="11.82" CO_abs="111.323841" CO2_abs="14550.974175" HC_abs="0.843265" PMx_abs="0.197811" NOx_abs="5.423355" fuel_abs="6.254851" electricity_abs="0"
            CO_normed="278.948861" CO2_normed="36460.991877" HC_normed="2.113004" PMx_normed="0.495664" NOx_normed="13.589530" fuel_normed="15.673044" electricity_normed="0"
            traveltime="0.02" CO_perVeh="0.220443" CO2_perVeh="28.813810" HC_perVeh="0.001670" PMx_perVeh="0.000392" NOx_perVeh="0.010739" fuel_perVeh="0.012386" electricity_perVeh="0"/>
        <edge id=":1110673517_0" sampledSeconds="17.08" CO_abs="784.067278" CO2_abs="56580.506924" HC_abs="4.895423" PMx_abs="0.959366" NOx_abs="22.890454" fuel_abs="24.321526" electricity_abs="0"
            CO_normed="1964.670565" CO2_normed="141776.171036" HC_normed="12.266668" PMx_normed="2.403924" NOx_normed="57.357580" fuel_normed="60.943477" electricity_normed="0"
            traveltime="0.03" CO_perVeh="1.258872" CO2_perVeh="90.843736" HC_perVeh="0.007860" PMx_perVeh="0.001540" NOx_perVeh="0.036752" fuel_perVeh="0.039050" electricity_perVeh="0"/>
        <edge id=":1110673534_0" sampledSeconds="475.59" CO_abs="2558.679735" CO2_abs="232597.392024" HC_abs="16.946912" PMx_abs="3.047969" NOx_abs="87.554903" fuel_abs="99.984489" electricity_abs="0"
            CO_normed="124.251785" CO2_normed="11295.138181" HC_normed="0.822957" PMx_normed="0.148012" NOx_normed="4.251745" fuel_normed="4.855337" electricity_normed="0"
            traveltime="1.43" CO_perVeh="7.708277" CO2_perVeh="700.722718" HC_perVeh="0.051054" PMx_perVeh="0.009182" NOx_perVeh="0.263768" fuel_perVeh="0.301213" electricity_perVeh="0"/>
        <edge id=":1110673534_1" sampledSeconds="183.99" CO_abs="2646.715471" CO2_abs="355533.650792" HC_abs="20.059261" PMx_abs="4.666471" NOx_abs="131.072891" fuel_abs="152.829129" electricity_abs="0"
            CO_normed="124.974629" CO2_normed="16787.858992" HC_normed="0.947173" PMx_normed="0.220345" NOx_normed="6.189100" fuel_normed="7.216402" electricity_normed="0"
            traveltime="1.22" CO_perVeh="17.573241" CO2_perVeh="2360.615802" HC_perVeh="0.133186" PMx_perVeh="0.030984" NOx_perVeh="0.870277" fuel_perVeh="1.014731" electricity_perVeh="0"/>
        <edge id=":1110673549_0" sampledSeconds="59.18" CO_abs="51.055281" CO2_abs="7485.039608" HC_abs="0.356621" PMx_abs="0.073443" NOx_abs="2.562777" fuel_abs="3.217537" electricity_abs="0"
            CO_normed="2.401716" CO2_normed="352.107270" HC_normed="0.016776" PMx_normed="0.003455" NOx_normed="0.120557" fuel_normed="0.151358" electricity_normed="0"
            traveltime="1.23" CO_perVeh="1.063693" CO2_perVeh="155.944424" HC_perVeh="0.007430" PMx_perVeh="0.001530" NOx_perVeh="0.053393" fuel_perVeh="0.067035" electricity_perVeh="0"/>
        <edge id=":1110673549_1" sampledSeconds="639.58" CO_abs="14441.584200" CO2_abs="1854770.574866" HC_abs="109.977057" PMx_abs="32.847685" NOx_abs="695.290802" fuel_abs="797.280832" electricity_abs="0"
            CO_normed="657.146891" CO2_normed="84399.100510" HC_normed="5.004373" PMx_normed="1.494694" NOx_normed="31.638370" fuel_normed="36.279304" electricity_normed="0"
            traveltime="0.81" CO_perVeh="18.180459" CO2_perVeh="2334.964035" HC_perVeh="0.138450" PMx_perVeh="0.041352" NOx_perVeh="0.875299" fuel_perVeh="1.003694" electricity_perVeh="0"/>
        <edge id=":1110673556_0" sampledSeconds="418.81" CO_abs="51866.303259" CO2_abs="2595913.686812" HC_abs="297.906982" PMx_abs="52.473055" NOx_abs="1118.803534" fuel_abs="1115.870839" electricity_abs="0"
            CO_normed="1809.237931" CO2_normed="90552.540141" HC_normed="10.391807" PMx_normed="1.830403" NOx_normed="39.026915" fuel_normed="38.924614" electricity_normed="0"
            traveltime="2.60" CO_perVeh="321.960720" CO2_perVeh="16114.166364" HC_perVeh="1.849261" PMx_perVeh="0.325727" NOx_perVeh="6.944987" fuel_perVeh="6.926782" electricity_perVeh="0"/>
        <edge id=":1110673556_2" sampledSeconds="249.70" CO_abs="23749.929082" CO2_abs="1017080.175761" HC_abs="132.019024" PMx_abs="19.598278" NOx_abs="433.685619" fuel_abs="437.202948" electricity_abs="0"
            CO_normed="866.247490" CO2_normed="37096.664418" HC_normed="4.815221" PMx_normed="0.714821" NOx_normed="15.818114" fuel_normed="15.946404" electricity_normed="0"
            traveltime="3.03" CO_perVeh="288.082089" CO2_perVeh="12336.987630" HC_perVeh="1.601365" PMx_perVeh="0.237723" NOx_perVeh="5.260523" fuel_perVeh="5.303188" electricity_perVeh="0"/>
        <edge id=":1110673556_3" sampledSeconds="398.61" CO_abs="33856.670491" CO2_abs="1219515.003427" HC_abs="182.575905" PMx_abs="23.351555" NOx_abs="520.563180" fuel_abs="524.226426" electricity_abs="0"
            CO_normed="2809.142128" CO2_normed="101185.111307" HC_normed="15.148615" PMx_normed="1.937516" NOx_normed="43.191960" fuel_normed="43.495905" electricity_normed="0"
            traveltime="1.72" CO_perVeh="146.128585" CO2_perVeh="5263.541832" HC_perVeh="0.788015" PMx_perVeh="0.100788" NOx_perVeh="2.246800" fuel_perVeh="2.262611" electricity_perVeh="0"/>
        <edge id=":1110673556_4" sampledSeconds="212.09" CO_abs="21819.031705" CO2_abs="874278.706300" HC_abs="119.859623" PMx_abs="17.030484" NOx_abs="374.488481" fuel_abs="375.819055" electricity_abs="0"
            CO_normed="1105.992001" CO2_normed="44316.597962" HC_normed="6.075603" PMx_normed="0.863264" NOx_normed="18.982569" fuel_normed="19.050014" electricity_normed="0"
            traveltime="2.40" CO_perVeh="246.654552" CO2_perVeh="9883.336038" HC_perVeh="1.354960" PMx_perVeh="0.192522" NOx_perVeh="4.233427" fuel_perVeh="4.248469" electricity_perVeh="0"/>
        <edge id=":1110673556_5" sampledSeconds="23.81" CO_abs="1791.230872" CO2_abs="75159.381149" HC_abs="9.911987" PMx_abs="1.411929" NOx_abs="31.844411" fuel_abs="32.308159" electricity_abs="0"
            CO_normed="126.551589" CO2_normed="5310.057591" HC_normed="0.700288" PMx_normed="0.099754" NOx_normed="2.249828" fuel_normed="2.282592" electricity_normed="0"
            traveltime="1.65" CO_perVeh="123.838184" CO2_perVeh="5196.204129" HC_perVeh="0.685273" PMx_perVeh="0.097615" NOx_perVeh="2.201589" fuel_perVeh="2.233650" electricity_perVeh="0"/>
        <edge id=":1110673556_6" sampledSeconds="541.23" CO_abs="62274.532993" CO2_abs="3096528.450912" HC_abs="357.087903" PMx_abs="62.064406" NOx_abs="1331.406106" fuel_abs="1331.064567" electricity_abs="0"
            CO_normed="2227.078018" CO2_normed="110738.854476" HC_normed="12.770270" PMx_normed="2.219563" NOx_normed="47.614091" fuel_normed="47.601877" electricity_normed="0"
            traveltime="2.57" CO_perVeh="295.325077" CO2_perVeh="14684.694669" HC_perVeh="1.693421" PMx_perVeh="0.294329" NOx_perVeh="6.313939" fuel_perVeh="6.312319" electricity_perVeh="0"/>
        <edge id=":1110673561_0" sampledSeconds="101.28" CO_abs="9422.298078" CO2_abs="675761.392288" HC_abs="59.163289" PMx_abs="13.647617" NOx_abs="285.748420" fuel_abs="290.477638" electricity_abs="0"
            CO_normed="423.368519" CO2_normed="30363.728447" HC_normed="2.658361" PMx_normed="0.613223" NOx_normed="12.839425" fuel_normed="13.051921" electricity_normed="0"
            traveltime="1.20" CO_perVeh="111.192263" CO2_perVeh="7974.640323" HC_perVeh="0.698184" PMx_perVeh="0.161055" NOx_perVeh="3.372109" fuel_perVeh="3.427918" electricity_perVeh="0"/>
        <edge id=":1110673561_1" sampledSeconds="1312.68" CO_abs="122607.542801" CO2_abs="8461128.776573" HC_abs="763.055132" PMx_abs="177.338926" NOx_abs="3621.195146" fuel_abs="3637.030225" electricity_abs="0"
            CO_normed="5371.029886" CO2_normed="370653.994800" HC_normed="33.426915" PMx_normed="7.768630" NOx_normed="158.632552" fuel_normed="159.326234" electricity_normed="0"
            traveltime="1.19" CO_perVeh="111.261768" CO2_perVeh="7678.158521" HC_perVeh="0.692444" PMx_perVeh="0.160928" NOx_perVeh="3.286099" fuel_perVeh="3.300469" electricity_perVeh="0"/>
        <edge id=":1110673562_0" sampledSeconds="103.64" CO_abs="2445.504385" CO2_abs="194581.321580" HC_abs="15.578678" PMx_abs="2.651913" NOx_abs="74.338680" fuel_abs="83.642934" electricity_abs="0"
            CO_normed="6808.670940" CO2_normed="541745.170404" HC_normed="43.373504" PMx_normed="7.383346" NOx_normed="206.970640" fuel_normed="232.875156" electricity_normed="0"
            traveltime="0.03" CO_perVeh="0.623370" CO2_perVeh="49.599665" HC_perVeh="0.003971" PMx_perVeh="0.000676" NOx_perVeh="0.018949" fuel_perVeh="0.021321" electricity_perVeh="0"/>
        <edge id=":1110673564_0" sampledSeconds="28.71" CO_abs="372.063263" CO2_abs="49782.204183" HC_abs="2.826220" PMx_abs="0.623757" NOx_abs="18.225392" fuel_abs="21.399342" electricity_abs="0"
            CO_normed="2796.883998" CO2_normed="374224.128333" HC_normed="21.245334" PMx_normed="4.688922" NOx_normed="137.004406" fuel_normed="160.863712" electricity_normed="0"
            traveltime="7.891914e-03" CO_perVeh="0.102285" CO2_perVeh="13.685829" HC_perVeh="0.000777" PMx_perVeh="0.000171" NOx_perVeh="0.005010" fuel_perVeh="0.005883" electricity_perVeh="0"/>
        <edge id=":1110673588_0" sampledSeconds="11.59" CO_abs="235.592496" CO2_abs="29586.440784" HC_abs="1.754587" PMx_abs="0.399883" NOx_abs="11.018659" fuel_abs="12.717975" electricity_abs="0"
            CO_normed="708.400907" CO2_normed="88963.196344" HC_normed="5.275850" PMx_normed="1.202404" NOx_normed="33.131904" fuel_normed="38.241561" electricity_normed="0"
            traveltime="0.02" CO_perVeh="0.392654" CO2_perVeh="49.310735" HC_perVeh="0.002924" PMx_perVeh="0.000666" NOx_perVeh="0.018364" fuel_perVeh="0.021197" electricity_perVeh="0"/>
        <edge id=":1110673601_0" sampledSeconds="29.71" CO_abs="426.144772" CO2_abs="54383.801077" HC_abs="3.157832" PMx_abs="0.729586" NOx_abs="20.194088" fuel_abs="23.377322" electricity_abs="0"
            CO_normed="1144.081063" CO2_normed="146005.491660" HC_normed="8.477907" PMx_normed="1.958736" NOx_normed="54.215551" fuel_normed="62.761655" electricity_normed="0"
            traveltime="0.02" CO_perVeh="0.316290" CO2_perVeh="40.364385" HC_perVeh="0.002344" PMx_perVeh="0.000542" NOx_perVeh="0.014988" fuel_perVeh="0.017351" electricity_perVeh="0"/>
        <edge id=":1110673617_0" sampledSeconds="238.45" CO_abs="6315.918544" CO2_abs="760012.089290" HC_abs="46.866736" PMx_abs="13.695447" NOx_abs="288.120498" fuel_abs="326.694152" electricity_abs="0"
            CO_normed="15826.064426" CO2_normed="1904394.460530" HC_normed="117.435964" PMx_normed="34.317262" NOx_normed="721.955727" fuel_normed="818.611365" electricity_normed="0"
            traveltime="0.01" CO_perVeh="0.386809" CO2_perVeh="46.545813" HC_perVeh="0.002870" PMx_perVeh="0.000839" NOx_perVeh="0.017646" fuel_perVeh="0.020008" electricity_perVeh="0"/>
        <edge id=":1110673621_0" sampledSeconds="25.88" CO_abs="487.801109" CO2_abs="52027.117382" HC_abs="3.422768" PMx_abs="0.746770" NOx_abs="19.809313" fuel_abs="22.364264" electricity_abs="0"
            CO_normed="1466.764662" CO2_normed="156439.860160" HC_normed="10.291889" PMx_normed="2.245457" NOx_normed="59.564440" fuel_normed="67.246900" electricity_normed="0"
            traveltime="0.02" CO_perVeh="0.369546" CO2_perVeh="39.414483" HC_perVeh="0.002593" PMx_perVeh="0.000566" NOx_perVeh="0.015007" fuel_perVeh="0.016943" electricity_perVeh="0"/>
        <edge id=":1110673630_0" sampledSeconds="54.17" CO_abs="160.847604" CO2_abs="14473.044975" HC_abs="1.060867" PMx_abs="0.181600" NOx_abs="5.405372" fuel_abs="6.221407" electricity_abs="0"
            CO_normed="8.624308" CO2_normed="776.014010" HC_normed="0.056881" PMx_normed="0.009737" NOx_normed="0.289825" fuel_normed="0.333579" electricity_normed="0"
            traveltime="1.26" CO_perVeh="3.754468" CO2_perVeh="337.826469" HC_perVeh="0.024763" PMx_perVeh="0.004239" NOx_perVeh="0.126171" fuel_perVeh="0.145219" electricity_perVeh="0"/>
        <edge id=":1110673630_1" sampledSeconds="7.24" CO_abs="0" CO2_abs="0" HC_abs="0" PMx_abs="0" NOx_abs="0" fuel_abs="0" electricity_abs="0"
            CO_normed="0" CO2_normed="0" HC_normed="0" PMx_normed="0" NOx_normed="0" fuel_normed="0" electricity_normed="0"
            traveltime="1.02" CO_perVeh="0" CO2_perVeh="0" HC_perVeh="0" PMx_perVeh="0" NOx_perVeh="0" fuel_perVeh="0" electricity_perVeh="0"/>
        <edge id=":1110673650_0" sampledSeconds="143.36" CO_abs="2257.444631" CO2_abs="286105.965452" HC_abs="16.798750" PMx_abs="3.910456" NOx_abs="106.699890" fuel_abs="122.984913" electricity_abs="0"
            CO_normed="5656.574562" CO2_normed="716907.827402" HC_normed="42.093339" PMx_normed="9.798596" NOx_normed="267.362430" fuel_normed="308.168503" electricity_normed="0"
            traveltime="0.02" CO_perVeh="0.362667" CO2_perVeh="45.964028" HC_perVeh="0.002699" PMx_perVeh="0.000628" NOx_perVeh="0.017142" fuel_perVeh="0.019758" electricity_perVeh="0"/>
        <edge id=":1110673655_0" sampledSeconds="44.88" CO_abs="816.380018" CO2_abs="89514.955803" HC_abs="5.778561" PMx_abs="1.257359" NOx_abs="33.870087" fuel_abs="38.478731" electricity_abs="0"
            CO_normed="2045.637966" CO2_normed="224301.413582" HC_normed="14.479585" PMx_normed="3.150618" NOx_normed="84.869712" fuel_normed="96.417785" electricity_normed="0"
            traveltime="0.02" CO_perVeh="0.436917" CO2_perVeh="47.907389" HC_perVeh="0.003093" PMx_perVeh="0.000673" NOx_perVeh="0.018127" fuel_perVeh="0.020593" electricity_perVeh="0"/>
        <edge id=":1110673663_0" sampledSeconds="109.24" CO_abs="1797.613153" CO2_abs="216432.331529" HC_abs="13.036704" PMx_abs="2.973631" NOx_abs="80.918242" fuel_abs="93.035178" electricity_abs="0"
            CO_normed="82.497351" CO2_normed="9932.667653" HC_normed="0.598290" PMx_normed="0.136468" NOx_normed="3.713558" fuel_normed="4.269637" electricity_normed="0"
            traveltime="1.28" CO_perVeh="21.113815" CO2_perVeh="2542.099837" HC_perVeh="0.153122" PMx_perVeh="0.034927" NOx_perVeh="0.950423" fuel_perVeh="1.092742" electricity_perVeh="0"/>
        <edge id=":1110673663_1" sampledSeconds="153.79" CO_abs="2440.300735" CO2_abs="310225.303451" HC_abs="18.214455" PMx_abs="4.238176" NOx_abs="115.598612" fuel_abs="133.352813" electricity_abs="0"
            CO_normed="112.128940" CO2_normed="14254.486678" HC_normed="0.836933" PMx_normed="0.194739" NOx_normed="5.311620" fuel_normed="6.127404" electricity_normed="0"
            traveltime="1.25" CO_perVeh="19.775781" CO2_perVeh="2514.012973" HC_perVeh="0.147607" PMx_perVeh="0.034345" NOx_perVeh="0.936791" fuel_perVeh="1.080668" electricity_perVeh="0"/>
        <edge id=":1110673666_0" sampledSeconds="192.06" CO_abs="4219.631762" CO2_abs="337469.792157" HC_abs="26.913565" PMx_abs="4.560287" NOx_abs="128.640140" fuel_abs="145.065169" electricity_abs="0"
            CO_normed="259.361649" CO2_normed="20742.739379" HC_normed="1.654255" PMx_normed="0.280300" NOx_normed="7.906927" fuel_normed="8.916499" electricity_normed="0"