<?xml version="1.0" encoding="UTF-8"?>

<!-- generated on qui 03 set 2020 02:41:26 by Eclipse SUMO GUI Version 1.6.0
<configuration xmlns:xsi="http://www.w3.org/2001/XMLSchema-instance" xsi:noNamespaceSchemaLocation="http://sumo.dlr.de/xsd/sumoConfiguration.xsd">

    <input>
        <net-file value="../dataSets/Angeja_Estarreja/angeja_estarreja.net.xml"/>
        <route-files value="../results/angeja_estarreja/length-ttime/solution5/angeja_estarreja.rou.xml"/>
        <additional-files value="moreOutputInfo.xml"/>
    </input>

    <output>
        <emission-output.precision value="6"/>
        <tripinfo-output value="../results/angeja_estarreja/length-ttime/solution5/angeja_estarreja-tripinfo"/>
    </output>

    <processing>
        <collision.action value="warn"/>
        <time-to-teleport value="-1"/>
    </processing>

    <emissions>
        <device.emissions.probability value="1"/>
    </emissions>

    <gui_only>
        <gui-settings-file value="gui-settings.xml"/>
        <quit-on-end value="true"/>
        <start value="true"/>
        <window-size value="924,923"/>
        <window-pos value="996,27"/>
    </gui_only>

</configuration>
-->

<meandata xmlns:xsi="http://www.w3.org/2001/XMLSchema-instance" xsi:noNamespaceSchemaLocation="http://sumo.dlr.de/xsd/meandata_file.xsd">
    <interval begin="0.00" end="19080.00" id="emissions-detector">
        <edge id=":10_0" sampledSeconds="412.03" CO_abs="42314.708704" CO2_abs="2318197.590573" HC_abs="247.736227" PMx_abs="45.780671" NOx_abs="991.314559" fuel_abs="996.491029" electricity_abs="0"
            CO_normed="456.484123" CO2_normed="25008.334580" HC_normed="2.672538" PMx_normed="0.493874" NOx_normed="10.694139" fuel_normed="10.749981" electricity_normed="0"
            traveltime="1.91" CO_perVeh="195.779404" CO2_perVeh="10725.711168" HC_perVeh="1.146213" PMx_perVeh="0.211816" NOx_perVeh="4.586561" fuel_perVeh="4.610511" electricity_perVeh="0"/>
        <edge id=":10_1" sampledSeconds="0.00" CO_abs="0" CO2_abs="0" HC_abs="0" PMx_abs="0" NOx_abs="0" fuel_abs="0" electricity_abs="0"
            CO_normed="0" CO2_normed="0" HC_normed="0" PMx_normed="0" NOx_normed="0" fuel_normed="0" electricity_normed="0"/>
        <edge id=":100_0" sampledSeconds="0.00" CO_abs="0" CO2_abs="0" HC_abs="0" PMx_abs="0" NOx_abs="0" fuel_abs="0" electricity_abs="0"
            CO_normed="0" CO2_normed="0" HC_normed="0" PMx_normed="0" NOx_normed="0" fuel_normed="0" electricity_normed="0"/>
        <edge id=":100_1" sampledSeconds="911.93" CO_abs="21899.287001" CO2_abs="2761534.990852" HC_abs="166.821601" PMx_abs="49.947345" NOx_abs="1031.450080" fuel_abs="1187.057297" electricity_abs="0"
            CO_normed="139.781493" CO2_normed="17626.669076" HC_normed="1.064810" PMx_normed="0.318810" NOx_normed="6.583668" fuel_normed="7.576897" electricity_normed="0"
            traveltime="1.37" CO_perVeh="32.927595" CO2_perVeh="4152.222178" HC_perVeh="0.250832" PMx_perVeh="0.075100" NOx_perVeh="1.550880" fuel_perVeh="1.784850" electricity_perVeh="0"/>
        <edge id=":101_0" sampledSeconds="437.92" CO_abs="11428.816066" CO2_abs="1415455.012016" HC_abs="86.443285" PMx_abs="25.736762" NOx_abs="530.087948" fuel_abs="608.439133" electricity_abs="0"
            CO_normed="263.938848" CO2_normed="32688.737258" HC_normed="1.996335" PMx_normed="0.594369" NOx_normed="12.241933" fuel_normed="14.051388" electricity_normed="0"
            traveltime="0.38" CO_perVeh="9.873013" CO2_perVeh="1222.769317" HC_perVeh="0.074676" PMx_perVeh="0.022233" NOx_perVeh="0.457927" fuel_perVeh="0.525612" electricity_perVeh="0"/>
        <edge id=":102_0" sampledSeconds="341.29" CO_abs="8228.504546" CO2_abs="1037153.604792" HC_abs="62.603440" PMx_abs="18.754044" NOx_abs="387.237989" fuel_abs="445.824799" electricity_abs="0"
            CO_normed="191.672596" CO2_normed="24159.180172" HC_normed="1.458268" PMx_normed="0.436852" NOx_normed="9.020219" fuel_normed="10.384924" electricity_normed="0"
            traveltime="0.38" CO_perVeh="9.052078" CO2_perVeh="1140.960055" HC_perVeh="0.068869" PMx_perVeh="0.020631" NOx_perVeh="0.425996" fuel_perVeh="0.490446" electricity_perVeh="0"/>
        <edge id=":103_0" sampledSeconds="434.12" CO_abs="10858.206369" CO2_abs="1307221.061556" HC_abs="81.252637" PMx_abs="23.966606" NOx_abs="491.903435" fuel_abs="561.914177" electricity_abs="0"
            CO_normed="254.499153" CO2_normed="30639.190474" HC_normed="1.904433" PMx_normed="0.561739" NOx_normed="11.529437" fuel_normed="13.170378" electricity_normed="0"
            traveltime="0.37" CO_perVeh="9.328953" CO2_perVeh="1123.114065" HC_perVeh="0.069809" PMx_perVeh="0.020591" NOx_perVeh="0.422625" fuel_perVeh="0.482775" electricity_perVeh="0"/>
        <edge id=":104_0" sampledSeconds="340.95" CO_abs="8639.057444" CO2_abs="1063984.329802" HC_abs="65.154907" PMx_abs="19.370090" NOx_abs="398.769356" fuel_abs="457.358001" electricity_abs="0"
            CO_normed="201.484652" CO2_normed="24814.803503" HC_normed="1.519577" PMx_normed="0.451759" NOx_normed="9.300309" fuel_normed="10.666744" electricity_normed="0"
            traveltime="0.37" CO_perVeh="9.499379" CO2_perVeh="1169.941396" HC_perVeh="0.071643" PMx_perVeh="0.021299" NOx_perVeh="0.438481" fuel_perVeh="0.502904" electricity_perVeh="0"/>
        <edge id=":105_0" sampledSeconds="168.71" CO_abs="3979.827747" CO2_abs="501017.970415" HC_abs="30.316794" PMx_abs="9.069398" NOx_abs="187.202207" fuel_abs="215.364653" electricity_abs="0"
            CO_normed="3413.231343" CO2_normed="429689.511505" HC_normed="26.000681" PMx_normed="7.778215" NOx_normed="160.550778" fuel_normed="184.703819" electricity_normed="0"
            traveltime="0.01" CO_perVeh="0.240669" CO2_perVeh="30.297620" HC_perVeh="0.001833" PMx_perVeh="0.000548" NOx_perVeh="0.011321" fuel_perVeh="0.013024" electricity_perVeh="0"/>
        <edge id=":106_0" sampledSeconds="134.69" CO_abs="2983.244270" CO2_abs="377363.013837" HC_abs="22.737151" PMx_abs="6.816964" NOx_abs="140.854369" fuel_abs="162.211066" electricity_abs="0"
            CO_normed="1815.729927" CO2_normed="229679.253705" HC_normed="13.838802" PMx_normed="4.149096" NOx_normed="85.729987" fuel_normed="98.728586" electricity_normed="0"
            traveltime="0.01" CO_perVeh="0.318967" CO2_perVeh="40.347431" HC_perVeh="0.002431" PMx_perVeh="0.000729" NOx_perVeh="0.015060" fuel_perVeh="0.017344" electricity_perVeh="0"/>
        <edge id=":107_0" sampledSeconds="438.46" CO_abs="10805.831882" CO2_abs="1358840.895889" HC_abs="82.231392" PMx_abs="24.598724" NOx_abs="507.718766" fuel_abs="584.103398" electricity_abs="0"
            CO_normed="249.551555" CO2_normed="31381.282093" HC_normed="1.899065" PMx_normed="0.568087" NOx_normed="11.725336" fuel_normed="13.489374" electricity_normed="0"
            traveltime="0.38" CO_perVeh="9.334845" CO2_perVeh="1173.863229" HC_perVeh="0.071037" PMx_perVeh="0.021250" NOx_perVeh="0.438604" fuel_perVeh="0.504590" electricity_perVeh="0"/>
        <edge id=":108_0" sampledSeconds="92.02" CO_abs="8272.612909" CO2_abs="610614.032638" HC_abs="52.298219" PMx_abs="12.121106" NOx_abs="256.487225" fuel_abs="262.474036" electricity_abs="0"
            CO_normed="129.748160" CO2_normed="9576.907302" HC_normed="0.820248" PMx_normed="0.190108" NOx_normed="4.022761" fuel_normed="4.116659" electricity_normed="0"
            traveltime="0.85" CO_perVeh="76.379039" CO2_perVeh="5637.652040" HC_perVeh="0.482857" PMx_perVeh="0.111911" NOx_perVeh="2.368085" fuel_perVeh="2.423359" electricity_perVeh="0"/>
        <edge id=":108_1" sampledSeconds="403.05" CO_abs="9289.538964" CO2_abs="1205093.556289" HC_abs="71.563581" PMx_abs="21.621923" NOx_abs="448.129365" fuel_abs="518.014601" electricity_abs="0"
            CO_normed="135.871566" CO2_normed="17626.057573" HC_normed="1.046710" PMx_normed="0.316249" NOx_normed="6.554474" fuel_normed="7.576636" electricity_normed="0"
            traveltime="0.60" CO_perVeh="13.799840" CO2_perVeh="1790.196328" HC_perVeh="0.106309" PMx_perVeh="0.032120" NOx_perVeh="0.665707" fuel_perVeh="0.769524" electricity_perVeh="0"/>
        <edge id=":109_0" sampledSeconds="306.40" CO_abs="165.104040" CO2_abs="23573.264994" HC_abs="1.300746" PMx_abs="0.328382" NOx_abs="8.657277" fuel_abs="10.133147" electricity_abs="0"
            CO_normed="2.482208" CO2_normed="354.405247" HC_normed="0.019556" PMx_normed="0.004937" NOx_normed="0.130155" fuel_normed="0.152344" electricity_normed="0"
            traveltime="0.85" CO_perVeh="0.458897" CO2_perVeh="65.520447" HC_perVeh="0.003615" PMx_perVeh="0.000913" NOx_perVeh="0.024062" fuel_perVeh="0.028164" electricity_perVeh="0"/>
        <edge id=":109_1" sampledSeconds="524.06" CO_abs="11871.543008" CO2_abs="1556198.237076" HC_abs="91.701648" PMx_abs="27.825197" NOx_abs="577.448966" fuel_abs="668.938523" electricity_abs="0"
            CO_normed="116.419635" CO2_normed="15261.034765" HC_normed="0.899283" PMx_normed="0.272871" NOx_normed="5.662819" fuel_normed="6.560022" electricity_normed="0"
            traveltime="0.89" CO_perVeh="20.214411" CO2_perVeh="2649.834997" HC_perVeh="0.156146" PMx_perVeh="0.047380" NOx_perVeh="0.983258" fuel_perVeh="1.139043" electricity_perVeh="0"/>
        <edge id=":11_0" sampledSeconds="292.47" CO_abs="18041.775620" CO2_abs="1308563.216272" HC_abs="113.044309" PMx_abs="23.402787" NOx_abs="536.853969" fuel_abs="562.493137" electricity_abs="0"
            CO_normed="186.526499" CO2_normed="13528.696989" HC_normed="1.168719" PMx_normed="0.241952" NOx_normed="5.550312" fuel_normed="5.815385" electricity_normed="0"
            traveltime="1.59" CO_perVeh="98.053128" CO2_perVeh="7111.756610" HC_perVeh="0.614371" PMx_perVeh="0.127189" NOx_perVeh="2.917685" fuel_perVeh="3.057028" electricity_perVeh="0"/>
        <edge id=":11_1" sampledSeconds="50.67" CO_abs="1088.186465" CO2_abs="97627.296088" HC_abs="7.165910" PMx_abs="1.201131" NOx_abs="36.306082" fuel_abs="41.966269" electricity_abs="0"
            CO_normed="11.534730" CO2_normed="1034.845199" HC_normed="0.075958" PMx_normed="0.012732" NOx_normed="0.384843" fuel_normed="0.444841" electricity_normed="0"
            traveltime="1.67" CO_perVeh="35.790316" CO2_perVeh="3210.949502" HC_perVeh="0.235686" PMx_perVeh="0.039505" NOx_perVeh="1.194102" fuel_perVeh="1.380265" electricity_perVeh="0"/>
        <edge id=":110_0" sampledSeconds="95.45" CO_abs="0" CO2_abs="0" HC_abs="0" PMx_abs="0" NOx_abs="0" fuel_abs="0" electricity_abs="0"
            CO_normed="0" CO2_normed="0" HC_normed="0" PMx_normed="0" NOx_normed="0" fuel_normed="0" electricity_normed="0"
            traveltime="0.93" CO_perVeh="0" CO2_perVeh="0" HC_perVeh="0" PMx_perVeh="0" NOx_perVeh="0" fuel_perVeh="0" electricity_perVeh="0"/>
        <edge id=":110_1" sampledSeconds="443.64" CO_abs="10114.426378" CO2_abs="1283464.179340" HC_abs="77.346550" PMx_abs="23.194774" NOx_abs="478.896596" fuel_abs="551.702445" electricity_abs="0"
            CO_normed="129.821928" CO2_normed="16473.677055" HC_normed="0.992768" PMx_normed="0.297712" NOx_normed="6.146792" fuel_normed="7.081279" electricity_normed="0"
            traveltime="0.68" CO_perVeh="15.537257" CO2_perVeh="1971.591089" HC_perVeh="0.118816" PMx_perVeh="0.035631" NOx_perVeh="0.735656" fuel_perVeh="0.847497" electricity_perVeh="0"/>
        <edge id=":111_0" sampledSeconds="340.95" CO_abs="8317.531808" CO2_abs="1056538.065608" HC_abs="63.535960" PMx_abs="19.066812" NOx_abs="394.212177" fuel_abs="454.157306" electricity_abs="0"
            CO_normed="192.086368" CO2_normed="24399.853713" HC_normed="1.467309" PMx_normed="0.440332" NOx_normed="9.103997" fuel_normed="10.488379" electricity_normed="0"
            traveltime="0.38" CO_perVeh="9.243652" CO2_perVeh="1174.178847" HC_perVeh="0.070610" PMx_perVeh="0.021190" NOx_perVeh="0.438106" fuel_perVeh="0.504726" electricity_perVeh="0"/>
        <edge id=":114_0" sampledSeconds="106.68" CO_abs="10898.927763" CO2_abs="774424.577647" HC_abs="68.300223" PMx_abs="15.884042" NOx_abs="328.956884" fuel_abs="332.887964" electricity_abs="0"
            CO_normed="144.817005" CO2_normed="10289.989073" HC_normed="0.907524" PMx_normed="0.211056" NOx_normed="4.370939" fuel_normed="4.423173" electricity_normed="0"
            traveltime="0.99" CO_perVeh="100.827241" CO2_perVeh="7164.291347" HC_perVeh="0.631853" PMx_perVeh="0.146945" NOx_perVeh="3.043218" fuel_perVeh="3.079585" electricity_perVeh="0"/>
        <edge id=":114_1" sampledSeconds="416.39" CO_abs="9482.456129" CO2_abs="1196977.635138" HC_abs="72.245120" PMx_abs="21.634021" NOx_abs="447.112125" fuel_abs="514.525812" electricity_abs="0"
            CO_normed="125.202426" CO2_normed="15804.397258" HC_normed="0.953895" PMx_normed="0.285647" NOx_normed="5.903483" fuel_normed="6.793586" electricity_normed="0"
            traveltime="0.66" CO_perVeh="15.110026" CO2_perVeh="1907.350087" HC_perVeh="0.115121" PMx_perVeh="0.034473" NOx_perVeh="0.712461" fuel_perVeh="0.819882" electricity_perVeh="0"/>
        <edge id=":115_0" sampledSeconds="80.41" CO_abs="120.574087" CO2_abs="17613.523996" HC_abs="0.934091" PMx_abs="0.217738" NOx_abs="6.393166" fuel_abs="7.571332" electricity_abs="0"
            CO_normed="2.724530" CO2_normed="398.000768" HC_normed="0.021107" PMx_normed="0.004920" NOx_normed="0.144462" fuel_normed="0.171084" electricity_normed="0"
            traveltime="0.63" CO_perVeh="0.948821" CO2_perVeh="138.604208" HC_perVeh="0.007351" PMx_perVeh="0.001713" NOx_perVeh="0.050309" fuel_perVeh="0.059580" electricity_perVeh="0"/>
        <edge id=":115_1" sampledSeconds="72.33" CO_abs="887.947519" CO2_abs="155654.817714" HC_abs="7.506234" PMx_abs="2.223623" NOx_abs="56.909753" fuel_abs="66.909174" electricity_abs="0"
            CO_normed="17.918424" CO2_normed="3141.051715" HC_normed="0.151473" PMx_normed="0.044872" NOx_normed="1.148416" fuel_normed="1.350200" electricity_normed="0"
            traveltime="0.59" CO_perVeh="7.269337" CO2_perVeh="1274.295198" HC_perVeh="0.061451" PMx_perVeh="0.018204" NOx_perVeh="0.465902" fuel_perVeh="0.547764" electricity_perVeh="0"/>
        <edge id=":116_0" sampledSeconds="75.21" CO_abs="127.098008" CO2_abs="19789.965559" HC_abs="1.014524" PMx_abs="0.243566" NOx_abs="7.159274" fuel_abs="8.506892" electricity_abs="0"
            CO_normed="3.205983" CO2_normed="499.191947" HC_normed="0.025591" PMx_normed="0.006144" NOx_normed="0.180589" fuel_normed="0.214582" electricity_normed="0"
            traveltime="0.57" CO_perVeh="0.959685" CO2_perVeh="149.429093" HC_perVeh="0.007660" PMx_perVeh="0.001839" NOx_perVeh="0.054058" fuel_perVeh="0.064233" electricity_perVeh="0"/>
        <edge id=":117_0" sampledSeconds="240.25" CO_abs="13671.736855" CO2_abs="1138722.545021" HC_abs="89.312534" PMx_abs="20.892679" NOx_abs="464.757480" fuel_abs="489.484236" electricity_abs="0"
            CO_normed="308.930897" CO2_normed="25730.935375" HC_normed="2.018134" PMx_normed="0.472098" NOx_normed="10.501807" fuel_normed="11.060541" electricity_normed="0"
            traveltime="0.60" CO_perVeh="34.326966" CO2_perVeh="2859.102002" HC_perVeh="0.224246" PMx_perVeh="0.052457" NOx_perVeh="1.166912" fuel_perVeh="1.228996" electricity_perVeh="0"/>
        <edge id=":117_1" sampledSeconds="75.65" CO_abs="4525.442700" CO2_abs="384442.143387" HC_abs="29.714716" PMx_abs="6.942765" NOx_abs="156.059390" fuel_abs="165.254028" electricity_abs="0"
            CO_normed="96.372135" CO2_normed="8186.936057" HC_normed="0.632793" PMx_normed="0.147851" NOx_normed="3.323382" fuel_normed="3.519188" electricity_normed="0"
            traveltime="0.64" CO_perVeh="38.260086" CO2_perVeh="3250.243223" HC_perVeh="0.251221" PMx_perVeh="0.058697" NOx_perVeh="1.319395" fuel_perVeh="1.397130" electricity_perVeh="0"/>
        <edge id=":118_0" sampledSeconds="897.73" CO_abs="13264.845634" CO2_abs="2020787.073766" HC_abs="105.999555" PMx_abs="30.248390" NOx_abs="751.177261" fuel_abs="868.646780" electricity_abs="0"
            CO_normed="40.244429" CO2_normed="6130.898536" HC_normed="0.321594" PMx_normed="0.091771" NOx_normed="2.279009" fuel_normed="2.635401" electricity_normed="0"
            traveltime="3.92" CO_perVeh="57.872017" CO2_perVeh="8816.312405" HC_perVeh="0.462456" PMx_perVeh="0.131968" NOx_perVeh="3.277245" fuel_perVeh="3.789742" electricity_perVeh="0"/>
        <edge id=":118_4" sampledSeconds="283.73" CO_abs="3683.774652" CO2_abs="639557.122577" HC_abs="30.910498" PMx_abs="8.990784" NOx_abs="232.937426" fuel_abs="274.917772" electricity_abs="0"
            CO_normed="11.197870" CO2_normed="1944.113987" HC_normed="0.093961" PMx_normed="0.027330" NOx_normed="0.708079" fuel_normed="0.835690" electricity_normed="0"
            traveltime="3.93" CO_perVeh="51.073405" CO2_perVeh="8867.089529" HC_perVeh="0.428556" PMx_perVeh="0.124652" NOx_perVeh="3.229543" fuel_perVeh="3.811576" electricity_perVeh="0"/>
        <edge id=":118_5" sampledSeconds="238.51" CO_abs="3588.177484" CO2_abs="559158.621483" HC_abs="28.621245" PMx_abs="8.326423" NOx_abs="207.160422" fuel_abs="240.357479" electricity_abs="0"
            CO_normed="11.015532" CO2_normed="1716.590086" HC_normed="0.087866" PMx_normed="0.025562" NOx_normed="0.635973" fuel_normed="0.737886" electricity_normed="0"
            traveltime="3.82" CO_perVeh="57.426836" CO2_perVeh="8949.030742" HC_perVeh="0.458068" PMx_perVeh="0.133260" NOx_perVeh="3.315490" fuel_perVeh="3.846791" electricity_perVeh="0"/>
        <edge id=":119_0" sampledSeconds="139.08" CO_abs="1838.256889" CO2_abs="295011.583684" HC_abs="14.972204" PMx_abs="4.304295" NOx_abs="108.965532" fuel_abs="126.812479" electricity_abs="0"
            CO_normed="39.413741" CO2_normed="6325.291245" HC_normed="0.321016" PMx_normed="0.092288" NOx_normed="2.336311" fuel_normed="2.718964" electricity_normed="0"
            traveltime="0.56" CO_perVeh="7.369466" CO2_perVeh="1182.684462" HC_perVeh="0.060023" PMx_perVeh="0.017256" NOx_perVeh="0.436837" fuel_perVeh="0.508384" electricity_perVeh="0"/>
        <edge id=":12_0" sampledSeconds="585.22" CO_abs="53529.936382" CO2_abs="3055863.952669" HC_abs="316.385698" PMx_abs="60.159885" NOx_abs="1303.605730" fuel_abs="1313.579869" electricity_abs="0"
            CO_normed="501.488977" CO2_normed="28628.505674" HC_normed="2.964023" PMx_normed="0.563601" NOx_normed="12.212679" fuel_normed="12.306120" electricity_normed="0"
            traveltime="2.10" CO_perVeh="192.194427" CO2_perVeh="10971.804935" HC_perVeh="1.135954" PMx_perVeh="0.215999" NOx_perVeh="4.680479" fuel_perVeh="4.716290" electricity_perVeh="0"/>
        <edge id=":12_1" sampledSeconds="56.44" CO_abs="1033.051555" CO2_abs="93853.055486" HC_abs="6.837393" PMx_abs="1.192097" NOx_abs="35.118072" fuel_abs="40.343800" electricity_abs="0"
            CO_normed="9.668422" CO2_normed="878.379151" HC_normed="0.063992" PMx_normed="0.011157" NOx_normed="0.328673" fuel_normed="0.377581" electricity_normed="0"
            traveltime="1.90" CO_perVeh="34.836177" CO2_perVeh="3164.877523" HC_perVeh="0.230568" PMx_perVeh="0.040199" NOx_perVeh="1.184238" fuel_perVeh="1.360458" electricity_perVeh="0"/>
        <edge id=":120_0" sampledSeconds="39.09" CO_abs="458.272828" CO2_abs="80345.396447" HC_abs="3.851259" PMx_abs="1.140756" NOx_abs="29.279118" fuel_abs="34.536971" electricity_abs="0"
            CO_normed="360.277381" CO2_normed="63164.619849" HC_normed="3.027719" PMx_normed="0.896821" NOx_normed="23.018175" fuel_normed="27.151707" electricity_normed="0"
            traveltime="0.02" CO_perVeh="0.176329" CO2_perVeh="30.914461" HC_perVeh="0.001482" PMx_perVeh="0.000439" NOx_perVeh="0.011266" fuel_perVeh="0.013289" electricity_perVeh="0"/>
        <edge id=":121_0" sampledSeconds="372.50" CO_abs="53028.787932" CO2_abs="1426782.402858" HC_abs="274.970052" PMx_abs="30.786492" NOx_abs="630.956171" fuel_abs="613.329596" electricity_abs="0"
            CO_normed="30319.489956" CO2_normed="815770.384710" HC_normed="157.215581" PMx_normed="17.602340" NOx_normed="360.752528" fuel_normed="350.674440" electricity_normed="0"
            traveltime="0.11" CO_perVeh="16.217783" CO2_perVeh="436.352551" HC_perVeh="0.084094" PMx_perVeh="0.009415" NOx_perVeh="0.192965" fuel_perVeh="0.187574" electricity_perVeh="0"/>
        <edge id=":122_0" sampledSeconds="135.02" CO_abs="1226.825628" CO2_abs="119778.560635" HC_abs="8.425329" PMx_abs="2.175068" NOx_abs="47.824538" fuel_abs="51.487217" electricity_abs="0"
            CO_normed="27.010097" CO2_normed="2637.074495" HC_normed="0.185494" PMx_normed="0.047887" NOx_normed="1.052917" fuel_normed="1.133555" electricity_normed="0"
            traveltime="0.54" CO_perVeh="4.884400" CO2_perVeh="476.878210" HC_perVeh="0.033544" PMx_perVeh="0.008660" NOx_perVeh="0.190405" fuel_perVeh="0.204988" electricity_perVeh="0"/>
        <edge id=":123_0" sampledSeconds="311.49" CO_abs="40662.233767" CO2_abs="2484632.009387" HC_abs="244.855192" PMx_abs="51.219100" NOx_abs="1067.642116" fuel_abs="1068.027465" electricity_abs="0"
            CO_normed="155.054963" CO2_normed="9474.504696" HC_normed="0.933692" PMx_normed="0.195311" NOx_normed="4.071178" fuel_normed="4.072648" electricity_normed="0"
            traveltime="4.24" CO_perVeh="553.740791" CO2_perVeh="33835.870938" HC_perVeh="3.334453" PMx_perVeh="0.697505" NOx_perVeh="14.539216" fuel_perVeh="14.544463" electricity_perVeh="0"/>
        <edge id=":123_1" sampledSeconds="0.00" CO_abs="0" CO2_abs="0" HC_abs="0" PMx_abs="0" NOx_abs="0" fuel_abs="0" electricity_abs="0"
            CO_normed="0" CO2_normed="0" HC_normed="0" PMx_normed="0" NOx_normed="0" fuel_normed="0" electricity_normed="0"/>
        <edge id=":123_2" sampledSeconds="265.44" CO_abs="34758.443963" CO2_abs="2137437.003571" HC_abs="209.622644" PMx_abs="44.013890" NOx_abs="917.860502" fuel_abs="918.784430" electricity_abs="0"
            CO_normed="133.813446" CO2_normed="8228.728845" HC_normed="0.807008" PMx_normed="0.169445" NOx_normed="3.533590" fuel_normed="3.537147" electricity_normed="0"
            traveltime="4.17" CO_perVeh="546.333429" CO2_perVeh="33596.247545" HC_perVeh="3.294850" PMx_perVeh="0.691811" NOx_perVeh="14.426937" fuel_perVeh="14.441459" electricity_perVeh="0"/>
        <edge id=":123_3" sampledSeconds="469.17" CO_abs="23163.827418" CO2_abs="2175688.331076" HC_abs="156.952229" PMx_abs="40.557816" NOx_abs="873.030837" fuel_abs="935.226284" electricity_abs="0"
            CO_normed="91.242870" CO2_normed="8570.088357" HC_normed="0.618239" PMx_normed="0.159758" NOx_normed="3.438889" fuel_normed="3.683879" electricity_normed="0"
            traveltime="2.81" CO_perVeh="138.644891" CO2_perVeh="13022.376051" HC_perVeh="0.939423" PMx_perVeh="0.242755" NOx_perVeh="5.225443" fuel_perVeh="5.597708" electricity_perVeh="0"/>
        <edge id=":123_5" sampledSeconds="0.00" CO_abs="0" CO2_abs="0" HC_abs="0" PMx_abs="0" NOx_abs="0" fuel_abs="0" electricity_abs="0"
            CO_normed="0" CO2_normed="0" HC_normed="0" PMx_normed="0" NOx_normed="0" fuel_normed="0" electricity_normed="0"/>
        <edge id=":123_6" sampledSeconds="194.62" CO_abs="9206.349313" CO2_abs="887579.598220" HC_abs="62.903033" PMx_abs="16.370358" NOx_abs="354.657491" fuel_abs="381.528904" electricity_abs="0"
            CO_normed="35.028172" CO2_normed="3377.048774" HC_normed="0.239332" PMx_normed="0.062286" NOx_normed="1.349395" fuel_normed="1.451635" electricity_normed="0"
            traveltime="2.91" CO_perVeh="137.731123" CO2_perVeh="13278.589656" HC_perVeh="0.941058" PMx_perVeh="0.244908" NOx_perVeh="5.305835" fuel_perVeh="5.707844" electricity_perVeh="0"/>
        <edge id=":124_0" sampledSeconds="119.26" CO_abs="4370.380176" CO2_abs="376660.899506" HC_abs="28.811410" PMx_abs="7.298817" NOx_abs="153.597139" fuel_abs="161.908649" electricity_abs="0"
            CO_normed="102.307696" CO2_normed="8817.381420" HC_normed="0.674456" PMx_normed="0.170860" NOx_normed="3.595607" fuel_normed="3.790174" electricity_normed="0"
            traveltime="0.46" CO_perVeh="17.006238" CO2_perVeh="1465.681405" HC_perVeh="0.112112" PMx_perVeh="0.028402" NOx_perVeh="0.597685" fuel_perVeh="0.630027" electricity_perVeh="0"/>
        <edge id=":125_0" sampledSeconds="141.28" CO_abs="5782.968020" CO2_abs="598318.232894" HC_abs="40.404983" PMx_abs="11.030622" NOx_abs="235.065441" fuel_abs="257.189021" electricity_abs="0"
            CO_normed="363.708681" CO2_normed="37630.077541" HC_normed="2.541194" PMx_normed="0.693750" NOx_normed="14.783990" fuel_normed="16.175410" electricity_normed="0"
            traveltime="0.16" CO_perVeh="6.622983" CO2_perVeh="685.227982" HC_perVeh="0.046274" PMx_perVeh="0.012633" NOx_perVeh="0.269210" fuel_perVeh="0.294547" electricity_perVeh="0"/>
        <edge id=":125_3" sampledSeconds="0.00" CO_abs="0" CO2_abs="0" HC_abs="0" PMx_abs="0" NOx_abs="0" fuel_abs="0" electricity_abs="0"
            CO_normed="0" CO2_normed="0" HC_normed="0" PMx_normed="0" NOx_normed="0" fuel_normed="0" electricity_normed="0"/>
        <edge id=":126_0" sampledSeconds="27.97" CO_abs="329.531418" CO2_abs="23758.776820" HC_abs="2.051614" PMx_abs="0.376124" NOx_abs="9.452308" fuel_abs="10.212916" electricity_abs="0"
            CO_normed="10.850914" CO2_normed="782.336489" HC_normed="0.067556" PMx_normed="0.012385" NOx_normed="0.311249" fuel_normed="0.336294" electricity_normed="0"
            traveltime="0.55" CO_perVeh="6.523357" CO2_perVeh="470.325327" HC_perVeh="0.040613" PMx_perVeh="0.007446" NOx_perVeh="0.187117" fuel_perVeh="0.202173" electricity_perVeh="0"/>
        <edge id=":126_1" sampledSeconds="80.84" CO_abs="1356.528773" CO2_abs="206125.002503" HC_abs="10.862593" PMx_abs="3.323039" NOx_abs="76.319565" fuel_abs="88.603825" electricity_abs="0"
            CO_normed="39.743606" CO2_normed="6039.054333" HC_normed="0.318252" PMx_normed="0.097358" NOx_normed="2.236012" fuel_normed="2.595917" electricity_normed="0"
            traveltime="0.35" CO_perVeh="5.869933" CO2_perVeh="891.938302" HC_perVeh="0.047004" PMx_perVeh="0.014379" NOx_perVeh="0.330248" fuel_perVeh="0.383404" electricity_perVeh="0"/>
        <edge id=":127_0" sampledSeconds="235.04" CO_abs="5230.207200" CO2_abs="666823.269639" HC_abs="39.325637" PMx_abs="11.431242" NOx_abs="252.940869" fuel_abs="286.636753" electricity_abs="0"
            CO_normed="120.935239" CO2_normed="15418.592065" HC_normed="0.909305" PMx_normed="0.264318" NOx_normed="5.848614" fuel_normed="6.627746" electricity_normed="0"
            traveltime="0.44" CO_perVeh="9.780614" CO2_perVeh="1246.975621" HC_perVeh="0.073540" PMx_perVeh="0.021377" NOx_perVeh="0.473006" fuel_perVeh="0.536018" electricity_perVeh="0"/>
        <edge id=":128_0" sampledSeconds="230.77" CO_abs="238.787101" CO2_abs="37590.250129" HC_abs="1.944953" PMx_abs="0.554119" NOx_abs="13.907013" fuel_abs="16.158392" electricity_abs="0"
            CO_normed="3.689940" CO2_normed="580.876333" HC_normed="0.030055" PMx_normed="0.008563" NOx_normed="0.214903" fuel_normed="0.249693" electricity_normed="0"
            traveltime="0.76" CO_perVeh="0.784980" CO2_perVeh="123.572835" HC_perVeh="0.006394" PMx_perVeh="0.001822" NOx_perVeh="0.045717" fuel_perVeh="0.053119" electricity_perVeh="0"/>
        <edge id=":128_1" sampledSeconds="141.67" CO_abs="70.490736" CO2_abs="13738.000100" HC_abs="0.623357" PMx_abs="0.150630" NOx_abs="4.836460" fuel_abs="5.905416" electricity_abs="0"
            CO_normed="1.125223" CO2_normed="219.295727" HC_normed="0.009950" PMx_normed="0.002404" NOx_normed="0.077203" fuel_normed="0.094266" electricity_normed="0"
            traveltime="0.85" CO_perVeh="0.422552" CO2_perVeh="82.351501" HC_perVeh="0.003737" PMx_perVeh="0.000903" NOx_perVeh="0.028992" fuel_perVeh="0.035400" electricity_perVeh="0"/>
        <edge id=":129_0" sampledSeconds="104.74" CO_abs="5930.011245" CO2_abs="525704.570949" HC_abs="39.459295" PMx_abs="9.967655" NOx_abs="213.542233" fuel_abs="225.975593" electricity_abs="0"
            CO_normed="138.132104" CO2_normed="12245.622431" HC_normed="0.919154" PMx_normed="0.232184" NOx_normed="4.974196" fuel_normed="5.263815" electricity_normed="0"
            traveltime="0.50" CO_perVeh="28.105141" CO2_perVeh="2491.563749" HC_perVeh="0.187016" PMx_perVeh="0.047241" NOx_perVeh="1.012078" fuel_perVeh="1.071006" electricity_perVeh="0"/>
        <edge id=":13_0" sampledSeconds="59.97" CO_abs="5270.297000" CO2_abs="373281.166733" HC_abs="32.926050" PMx_abs="7.278712" NOx_abs="156.824529" fuel_abs="160.456181" electricity_abs="0"
            CO_normed="37.257237" CO2_normed="2638.831353" HC_normed="0.232764" PMx_normed="0.051455" NOx_normed="1.108637" fuel_normed="1.134311" electricity_normed="0"
            traveltime="2.12" CO_perVeh="186.418876" CO2_perVeh="13203.554840" HC_perVeh="1.164647" PMx_perVeh="0.257460" NOx_perVeh="5.547136" fuel_perVeh="5.675593" electricity_perVeh="0"/>
        <edge id=":13_1" sampledSeconds="536.58" CO_abs="14517.203047" CO2_abs="1088075.836795" HC_abs="91.133662" PMx_abs="15.999556" NOx_abs="424.288678" fuel_abs="467.720263" electricity_abs="0"
            CO_normed="144.619584" CO2_normed="10839.352043" HC_normed="0.907869" PMx_normed="0.159387" NOx_normed="4.226741" fuel_normed="4.659404" electricity_normed="0"
            traveltime="1.87" CO_perVeh="50.683008" CO2_perVeh="3798.731495" HC_perVeh="0.318169" PMx_perVeh="0.055858" NOx_perVeh="1.481293" fuel_perVeh="1.632923" electricity_perVeh="0"/>
        <edge id=":132_0" sampledSeconds="41.28" CO_abs="429.694590" CO2_abs="76567.150204" HC_abs="3.645143" PMx_abs="1.071608" NOx_abs="27.891608" fuel_abs="32.912879" electricity_abs="0"
            CO_normed="810.744509" CO2_normed="144466.321140" HC_normed="6.877627" PMx_normed="2.021902" NOx_normed="52.625676" fuel_normed="62.099772" electricity_normed="0"
            traveltime="6.399537e-03" CO_perVeh="0.066615" CO2_perVeh="11.870135" HC_perVeh="0.000565" PMx_perVeh="0.000166" NOx_perVeh="0.004324" fuel_perVeh="0.005102" electricity_perVeh="0"/>