<?xml version="1.0" encoding="UTF-8"?>

<!-- generated on Wed Oct 21 00:27:12 2020 by Eclipse SUMO sumo Version 1.7.0
<configuration xmlns:xsi="http://www.w3.org/2001/XMLSchema-instance" xsi:noNamespaceSchemaLocation="http://sumo.dlr.de/xsd/sumoConfiguration.xsd">

    <input>
        <net-file value="../dataSets/Angeja_Estarreja/angeja_estarreja.net.xml"/>
        <route-files value="../results/angeja_estarreja/length-ttime/solution5/angeja_estarreja.rou.xml"/>
        <additional-files value="moreOutputInfo.xml"/>
    </input>

    <output>
        <emission-output.precision value="6"/>
        <tripinfo-output value="../results/angeja_estarreja/length-ttime/solution5/angeja_estarreja-tripinfo"/>
    </output>

    <processing>
        <collision.action value="warn"/>
        <time-to-teleport value="-1"/>
    </processing>

    <emissions>
        <device.emissions.probability value="1"/>
    </emissions>

    <gui_only>
        <quit-on-end value="true"/>
        <start value="true"/>
    </gui_only>

</configuration>
-->

<meandata xmlns:xsi="http://www.w3.org/2001/XMLSchema-instance" xsi:noNamespaceSchemaLocation="http://sumo.dlr.de/xsd/meandata_file.xsd">
    <interval begin="0.00" end="19079.00" id="emissions-detector">
        <edge id=":10_0" sampledSeconds="410.19" CO_abs="42248.804551" CO2_abs="2321925.721258" HC_abs="247.486217" PMx_abs="45.629858" NOx_abs="991.409147" fuel_abs="998.093822" electricity_abs="0"
            CO_normed="455.797048" CO2_normed="25049.865927" HC_normed="2.669981" PMx_normed="0.492273" NOx_normed="10.695720" fuel_normed="10.767836" electricity_normed="0"
            traveltime="1.91" CO_perVeh="196.761567" CO2_perVeh="10813.696368" HC_perVeh="1.152595" PMx_perVeh="0.212508" NOx_perVeh="4.617201" fuel_perVeh="4.648333" electricity_perVeh="0"/>
        <edge id=":10_1" sampledSeconds="0.00" CO_abs="0" CO2_abs="0" HC_abs="0" PMx_abs="0" NOx_abs="0" fuel_abs="0" electricity_abs="0"
            CO_normed="0" CO2_normed="0" HC_normed="0" PMx_normed="0" NOx_normed="0" fuel_normed="0" electricity_normed="0"/>
        <edge id=":100_0" sampledSeconds="0.00" CO_abs="0" CO2_abs="0" HC_abs="0" PMx_abs="0" NOx_abs="0" fuel_abs="0" electricity_abs="0"
            CO_normed="0" CO2_normed="0" HC_normed="0" PMx_normed="0" NOx_normed="0" fuel_normed="0" electricity_normed="0"/>
        <edge id=":100_1" sampledSeconds="911.47" CO_abs="21756.696875" CO2_abs="2767038.755777" HC_abs="166.217622" PMx_abs="49.921355" NOx_abs="1031.832189" fuel_abs="1189.423220" electricity_abs="0"
            CO_normed="138.878630" CO2_normed="17662.724911" HC_normed="1.061010" PMx_normed="0.318661" NOx_normed="6.586452" fuel_normed="7.592396" electricity_normed="0"
            traveltime="1.37" CO_perVeh="32.713126" CO2_perVeh="4160.488556" HC_perVeh="0.249923" PMx_perVeh="0.075061" NOx_perVeh="1.551451" fuel_perVeh="1.788403" electricity_perVeh="0"/>
        <edge id=":101_0" sampledSeconds="438.45" CO_abs="10715.932408" CO2_abs="1356731.129199" HC_abs="81.731459" PMx_abs="24.506544" NOx_abs="506.380627" fuel_abs="583.196540" electricity_abs="0"
            CO_normed="247.488374" CO2_normed="31334.201068" HC_normed="1.887618" PMx_normed="0.565988" NOx_normed="11.695046" fuel_normed="13.469137" electricity_normed="0"
            traveltime="0.38" CO_perVeh="9.257174" CO2_perVeh="1172.039508" HC_perVeh="0.070605" PMx_perVeh="0.021170" NOx_perVeh="0.437447" fuel_perVeh="0.503806" electricity_perVeh="0"/>
        <edge id=":102_0" sampledSeconds="341.64" CO_abs="7713.943754" CO2_abs="976811.987663" HC_abs="58.860174" PMx_abs="17.650200" NOx_abs="364.519660" fuel_abs="419.886715" electricity_abs="0"
            CO_normed="179.695972" CO2_normed="22754.791194" HC_normed="1.371145" PMx_normed="0.411161" NOx_normed="8.491469" fuel_normed="9.781242" electricity_normed="0"
            traveltime="0.38" CO_perVeh="8.486014" CO2_perVeh="1074.578755" HC_perVeh="0.064751" PMx_perVeh="0.019417" NOx_perVeh="0.401004" fuel_perVeh="0.461912" electricity_perVeh="0"/>
        <edge id=":103_0" sampledSeconds="434.34" CO_abs="10069.831599" CO2_abs="1284131.294856" HC_abs="77.043760" PMx_abs="23.156845" NOx_abs="478.625427" fuel_abs="551.989240" electricity_abs="0"
            CO_normed="236.033268" CO2_normed="30099.580473" HC_normed="1.805878" PMx_normed="0.542788" NOx_normed="11.218810" fuel_normed="12.938431" electricity_normed="0"
            traveltime="0.37" CO_perVeh="8.651612" CO2_perVeh="1103.276226" HC_perVeh="0.066193" PMx_perVeh="0.019895" NOx_perVeh="0.411217" fuel_perVeh="0.474248" electricity_perVeh="0"/>
        <edge id=":104_0" sampledSeconds="340.79" CO_abs="8596.902049" CO2_abs="1052522.792683" HC_abs="64.754150" PMx_abs="19.207185" NOx_abs="394.864734" fuel_abs="452.431189" electricity_abs="0"
            CO_normed="200.511991" CO2_normed="24548.778115" HC_normed="1.510310" PMx_normed="0.447984" NOx_normed="9.209726" fuel_normed="10.552392" electricity_normed="0"
            traveltime="0.37" CO_perVeh="9.453026" CO2_perVeh="1157.338459" HC_perVeh="0.071203" PMx_perVeh="0.021120" NOx_perVeh="0.434187" fuel_perVeh="0.497487" electricity_perVeh="0"/>
        <edge id=":105_0" sampledSeconds="168.71" CO_abs="3658.667132" CO2_abs="479046.088314" HC_abs="28.256023" PMx_abs="8.570615" NOx_abs="177.766080" fuel_abs="205.920027" electricity_abs="0"
            CO_normed="3137.957887" CO2_normed="410867.235735" HC_normed="24.234566" PMx_normed="7.350827" NOx_normed="152.466036" fuel_normed="176.613053" electricity_normed="0"
            traveltime="0.01" CO_perVeh="0.221247" CO2_perVeh="28.968934" HC_perVeh="0.001709" PMx_perVeh="0.000518" NOx_perVeh="0.010750" fuel_perVeh="0.012452" electricity_perVeh="0"/>
        <edge id=":106_0" sampledSeconds="134.52" CO_abs="3129.416678" CO2_abs="389527.563116" HC_abs="23.722246" PMx_abs="7.073022" NOx_abs="145.777714" fuel_abs="167.440024" electricity_abs="0"
            CO_normed="1904.796532" CO2_normed="237095.544538" HC_normed="14.439129" PMx_normed="4.305169" NOx_normed="88.731196" fuel_normed="101.916495" electricity_normed="0"
            traveltime="0.01" CO_perVeh="0.334597" CO2_perVeh="41.648288" HC_perVeh="0.002536" PMx_perVeh="0.000756" NOx_perVeh="0.015587" fuel_perVeh="0.017903" electricity_perVeh="0"/>
        <edge id=":107_0" sampledSeconds="438.52" CO_abs="11472.523380" CO2_abs="1371689.763539" HC_abs="85.587307" PMx_abs="25.187890" NOx_abs="516.856945" fuel_abs="589.626261" electricity_abs="0"
            CO_normed="264.962119" CO2_normed="31679.676192" HC_normed="1.976670" PMx_normed="0.581724" NOx_normed="11.937000" fuel_normed="13.617634" electricity_normed="0"
            traveltime="0.38" CO_perVeh="9.910787" CO2_perVeh="1184.963782" HC_perVeh="0.073936" PMx_perVeh="0.021759" NOx_perVeh="0.446498" fuel_perVeh="0.509361" electricity_perVeh="0"/>
        <edge id=":108_0" sampledSeconds="93.27" CO_abs="8199.914567" CO2_abs="591087.488050" HC_abs="51.518756" PMx_abs="11.934904" NOx_abs="249.774555" fuel_abs="254.080335" electricity_abs="0"
            CO_normed="128.614695" CO2_normed="9271.137708" HC_normed="0.808066" PMx_normed="0.187198" NOx_normed="3.917685" fuel_normed="3.985220" electricity_normed="0"
            traveltime="0.85" CO_perVeh="74.929042" CO2_perVeh="5401.229359" HC_perVeh="0.470767" PMx_perVeh="0.109059" NOx_perVeh="2.282386" fuel_perVeh="2.321731" electricity_perVeh="0"/>
        <edge id=":108_1" sampledSeconds="403.42" CO_abs="9224.096316" CO2_abs="1198248.384171" HC_abs="71.125627" PMx_abs="21.493481" NOx_abs="445.558868" fuel_abs="515.072176" electricity_abs="0"
            CO_normed="134.921454" CO2_normed="17526.856644" HC_normed="1.040359" PMx_normed="0.314387" NOx_normed="6.517218" fuel_normed="7.533994" electricity_normed="0"
            traveltime="0.60" CO_perVeh="13.702624" CO2_perVeh="1780.027656" HC_perVeh="0.105659" PMx_perVeh="0.031929" NOx_perVeh="0.661889" fuel_perVeh="0.765152" electricity_perVeh="0"/>
        <edge id=":109_0" sampledSeconds="308.05" CO_abs="187.400021" CO2_abs="32159.874774" HC_abs="1.572774" PMx_abs="0.410214" NOx_abs="11.595353" fuel_abs="13.824184" electricity_abs="0"
            CO_normed="2.817558" CO2_normed="483.523422" HC_normed="0.023647" PMx_normed="0.006168" NOx_normed="0.174336" fuel_normed="0.207846" electricity_normed="0"
            traveltime="0.86" CO_perVeh="0.520867" CO2_perVeh="89.386404" HC_perVeh="0.004371" PMx_perVeh="0.001140" NOx_perVeh="0.032229" fuel_perVeh="0.038423" electricity_perVeh="0"/>
        <edge id=":109_1" sampledSeconds="524.52" CO_abs="11403.897214" CO2_abs="1487547.551431" HC_abs="88.039342" PMx_abs="26.658145" NOx_abs="552.409547" fuel_abs="639.428704" electricity_abs="0"
            CO_normed="111.839475" CO2_normed="14588.568619" HC_normed="0.863413" PMx_normed="0.261440" NOx_normed="5.417551" fuel_normed="6.270959" electricity_normed="0"
            traveltime="0.89" CO_perVeh="19.418121" CO2_perVeh="2532.939228" HC_perVeh="0.149910" PMx_perVeh="0.045392" NOx_perVeh="0.940622" fuel_perVeh="1.088795" electricity_perVeh="0"/>
        <edge id=":11_0" sampledSeconds="293.00" CO_abs="18386.784565" CO2_abs="1293802.978548" HC_abs="114.391325" PMx_abs="23.915702" NOx_abs="536.390778" fuel_abs="556.147590" electricity_abs="0"
            CO_normed="190.103368" CO2_normed="13376.798051" HC_normed="1.182707" PMx_normed="0.247268" NOx_normed="5.545814" fuel_normed="5.750083" electricity_normed="0"
            traveltime="1.59" CO_perVeh="99.928177" CO2_perVeh="7031.537927" HC_perVeh="0.621692" PMx_perVeh="0.129977" NOx_perVeh="2.915167" fuel_perVeh="3.022541" electricity_perVeh="0"/>
        <edge id=":11_1" sampledSeconds="51.88" CO_abs="1040.310968" CO2_abs="88164.473608" HC_abs="6.746997" PMx_abs="1.166869" NOx_abs="33.364790" fuel_abs="37.898479" electricity_abs="0"
            CO_normed="11.027830" CO2_normed="934.588665" HC_normed="0.071522" PMx_normed="0.012369" NOx_normed="0.353684" fuel_normed="0.401743" electricity_normed="0"
            traveltime="1.71" CO_perVeh="34.215697" CO2_perVeh="2899.718459" HC_perVeh="0.221908" PMx_perVeh="0.038378" NOx_perVeh="1.097364" fuel_perVeh="1.246476" electricity_perVeh="0"/>
        <edge id=":110_0" sampledSeconds="95.35" CO_abs="11.599695" CO2_abs="1104.745873" HC_abs="0.077498" PMx_abs="0.011664" NOx_abs="0.397684" fuel_abs="0.474891" electricity_abs="0"
            CO_normed="0.150429" CO2_normed="14.326704" HC_normed="0.001005" PMx_normed="0.000151" NOx_normed="0.005157" fuel_normed="0.006159" electricity_normed="0"
            traveltime="0.93" CO_perVeh="0.113569" CO2_perVeh="10.816266" HC_perVeh="0.000759" PMx_perVeh="0.000114" NOx_perVeh="0.003894" fuel_perVeh="0.004650" electricity_perVeh="0"/>
        <edge id=":110_1" sampledSeconds="444.05" CO_abs="10253.019799" CO2_abs="1274041.316303" HC_abs="77.649719" PMx_abs="23.141451" NOx_abs="476.935386" fuel_abs="547.651889" electricity_abs="0"
            CO_normed="131.607717" CO2_normed="16353.588672" HC_normed="0.996711" PMx_normed="0.297044" NOx_normed="6.121940" fuel_normed="7.029657" electricity_normed="0"
            traveltime="0.68" CO_perVeh="15.750181" CO2_perVeh="1957.119184" HC_perVeh="0.119282" PMx_perVeh="0.035549" NOx_perVeh="0.732645" fuel_perVeh="0.841276" electricity_perVeh="0"/>
        <edge id=":111_0" sampledSeconds="340.94" CO_abs="8435.783075" CO2_abs="1015659.400991" HC_abs="63.091456" PMx_abs="18.615504" NOx_abs="382.117866" fuel_abs="436.585241" electricity_abs="0"
            CO_normed="194.827492" CO2_normed="23457.024905" HC_normed="1.457120" PMx_normed="0.429932" NOx_normed="8.825152" fuel_normed="10.083096" electricity_normed="0"
            traveltime="0.38" CO_perVeh="9.375097" CO2_perVeh="1128.751752" HC_perVeh="0.070117" PMx_perVeh="0.020688" NOx_perVeh="0.424666" fuel_perVeh="0.485198" electricity_perVeh="0"/>
        <edge id=":114_0" sampledSeconds="106.95" CO_abs="10709.520246" CO2_abs="760006.826969" HC_abs="67.115978" PMx_abs="15.611091" NOx_abs="323.021667" fuel_abs="326.690441" electricity_abs="0"
            CO_normed="142.307754" CO2_normed="10098.945811" HC_normed="0.891835" PMx_normed="0.207440" NOx_normed="4.292301" fuel_normed="4.341052" electricity_normed="0"
            traveltime="0.99" CO_perVeh="99.075011" CO2_perVeh="7030.911067" HC_perVeh="0.620898" PMx_perVeh="0.144420" NOx_perVeh="2.988311" fuel_perVeh="3.022251" electricity_perVeh="0"/>
        <edge id=":114_1" sampledSeconds="416.08" CO_abs="10269.928987" CO2_abs="1226442.601229" HC_abs="76.624702" PMx_abs="22.534118" NOx_abs="462.297052" fuel_abs="527.191184" electricity_abs="0"
            CO_normed="135.606999" CO2_normed="16194.289232" HC_normed="1.011774" PMx_normed="0.297547" NOx_normed="6.104299" fuel_normed="6.961179" electricity_normed="0"
            traveltime="0.66" CO_perVeh="16.364842" CO2_perVeh="1954.301679" HC_perVeh="0.122099" PMx_perVeh="0.035907" NOx_perVeh="0.736657" fuel_perVeh="0.840064" electricity_perVeh="0"/>
        <edge id=":115_0" sampledSeconds="80.69" CO_abs="119.085897" CO2_abs="15735.121968" HC_abs="0.905558" PMx_abs="0.211001" NOx_abs="5.839450" fuel_abs="6.763870" electricity_abs="0"
            CO_normed="2.691044" CO2_normed="355.574437" HC_normed="0.020463" PMx_normed="0.004768" NOx_normed="0.131957" fuel_normed="0.152847" electricity_normed="0"
            traveltime="0.63" CO_perVeh="0.937110" CO2_perVeh="123.822701" HC_perVeh="0.007126" PMx_perVeh="0.001660" NOx_perVeh="0.045952" fuel_perVeh="0.053226" electricity_perVeh="0"/>
        <edge id=":115_1" sampledSeconds="72.28" CO_abs="1061.636150" CO2_abs="163994.136813" HC_abs="8.538630" PMx_abs="2.428250" NOx_abs="60.864984" fuel_abs="70.493831" electricity_abs="0"
            CO_normed="21.424514" CO2_normed="3309.509279" HC_normed="0.172315" PMx_normed="0.049004" NOx_normed="1.228295" fuel_normed="1.422612" electricity_normed="0"
            traveltime="0.59" CO_perVeh="8.691269" CO2_perVeh="1342.566482" HC_perVeh="0.069903" PMx_perVeh="0.019879" NOx_perVeh="0.498282" fuel_perVeh="0.577110" electricity_perVeh="0"/>
        <edge id=":116_0" sampledSeconds="74.37" CO_abs="80.673593" CO2_abs="11873.824512" HC_abs="0.639389" PMx_abs="0.151751" NOx_abs="4.344356" fuel_abs="5.104065" electricity_abs="0"
            CO_normed="2.035058" CO2_normed="299.526962" HC_normed="0.016129" PMx_normed="0.003828" NOx_normed="0.109590" fuel_normed="0.128754" electricity_normed="0"
            traveltime="0.56" CO_perVeh="0.609146" CO2_perVeh="89.656287" HC_perVeh="0.004828" PMx_perVeh="0.001146" NOx_perVeh="0.032803" fuel_perVeh="0.038540" electricity_perVeh="0"/>
        <edge id=":117_0" sampledSeconds="241.09" CO_abs="13084.954133" CO2_abs="1096265.171287" HC_abs="85.631012" PMx_abs="20.026371" NOx_abs="446.795847" fuel_abs="471.233849" electricity_abs="0"
            CO_normed="295.687266" CO2_normed="24772.853475" HC_normed="1.935047" PMx_normed="0.452546" NOx_normed="10.096470" fuel_normed="10.648707" electricity_normed="0"
            traveltime="0.60" CO_perVeh="32.828337" CO2_perVeh="2750.377402" HC_perVeh="0.214836" PMx_perVeh="0.050243" NOx_perVeh="1.120949" fuel_perVeh="1.182260" electricity_perVeh="0"/>
        <edge id=":117_1" sampledSeconds="76.06" CO_abs="4607.044081" CO2_abs="379093.837819" HC_abs="29.974227" PMx_abs="6.989226" NOx_abs="155.062502" fuel_abs="162.954915" electricity_abs="0"
            CO_normed="98.115029" CO2_normed="8073.463681" HC_normed="0.638353" PMx_normed="0.148848" NOx_normed="3.302326" fuel_normed="3.470409" electricity_normed="0"
            traveltime="0.64" CO_perVeh="38.949980" CO2_perVeh="3205.026292" HC_perVeh="0.253415" PMx_perVeh="0.059090" NOx_perVeh="1.310967" fuel_perVeh="1.377693" electricity_perVeh="0"/>
        <edge id=":118_0" sampledSeconds="898.72" CO_abs="13262.214523" CO2_abs="2068025.769414" HC_abs="106.728835" PMx_abs="30.589676" NOx_abs="765.978881" fuel_abs="888.952882" electricity_abs="0"
            CO_normed="40.238556" CO2_normed="6274.545632" HC_normed="0.323823" PMx_normed="0.092811" NOx_normed="2.324038" fuel_normed="2.697150" electricity_normed="0"
            traveltime="3.92" CO_perVeh="57.863036" CO2_perVeh="9022.795533" HC_perVeh="0.465658" PMx_perVeh="0.133463" NOx_perVeh="3.341966" fuel_perVeh="3.878501" electricity_perVeh="0"/>
        <edge id=":118_4" sampledSeconds="283.22" CO_abs="4457.937297" CO2_abs="643237.770486" HC_abs="35.043032" PMx_abs="9.778308" NOx_abs="240.663469" fuel_abs="276.499355" electricity_abs="0"
            CO_normed="13.551866" CO2_normed="1955.404838" HC_normed="0.106529" PMx_normed="0.029725" NOx_normed="0.731603" fuel_normed="0.840542" electricity_normed="0"
            traveltime="3.93" CO_perVeh="61.806699" CO2_perVeh="8918.116336" HC_perVeh="0.485851" PMx_perVeh="0.135571" NOx_perVeh="3.336659" fuel_perVeh="3.833502" electricity_perVeh="0"/>
        <edge id=":118_5" sampledSeconds="238.67" CO_abs="3866.444830" CO2_abs="556783.796691" HC_abs="30.110612" PMx_abs="8.554054" NOx_abs="208.647078" fuel_abs="239.336473" electricity_abs="0"
            CO_normed="11.870422" CO2_normed="1709.389079" HC_normed="0.092443" PMx_normed="0.026262" NOx_normed="0.640570" fuel_normed="0.734790" electricity_normed="0"
            traveltime="3.82" CO_perVeh="61.880354" CO2_perVeh="8911.022958" HC_perVeh="0.481904" PMx_perVeh="0.136903" NOx_perVeh="3.339283" fuel_perVeh="3.830451" electricity_perVeh="0"/>
        <edge id=":119_0" sampledSeconds="139.12" CO_abs="1846.875259" CO2_abs="311267.531316" HC_abs="15.242843" PMx_abs="4.448540" NOx_abs="114.179048" fuel_abs="133.800254" electricity_abs="0"
            CO_normed="39.600602" CO2_normed="6674.181946" HC_normed="0.326836" PMx_normed="0.095385" NOx_normed="2.448221" fuel_normed="2.868938" electricity_normed="0"
            traveltime="0.56" CO_perVeh="7.403992" CO2_perVeh="1247.849426" HC_perVeh="0.061107" PMx_perVeh="0.017834" NOx_perVeh="0.457736" fuel_perVeh="0.536396" electricity_perVeh="0"/>
        <edge id=":12_0" sampledSeconds="594.35" CO_abs="55039.510597" CO2_abs="3105638.071764" HC_abs="324.339637" PMx_abs="60.753832" NOx_abs="1322.944504" fuel_abs="1334.976620" electricity_abs="0"
            CO_normed="515.658273" CO2_normed="29096.333679" HC_normed="3.038697" PMx_normed="0.569195" NOx_normed="12.394501" fuel_normed="12.507229" electricity_normed="0"
            traveltime="2.14" CO_perVeh="198.287237" CO2_perVeh="11188.478702" HC_perVeh="1.168477" PMx_perVeh="0.218874" NOx_perVeh="4.766085" fuel_perVeh="4.809433" electricity_perVeh="0"/>
        <edge id=":12_1" sampledSeconds="56.37" CO_abs="1271.064789" CO2_abs="107426.414131" HC_abs="8.245230" PMx_abs="1.467317" NOx_abs="40.968583" fuel_abs="46.178370" electricity_abs="0"
            CO_normed="11.896633" CO2_normed="1005.466127" HC_normed="0.077172" PMx_normed="0.013733" NOx_normed="0.383449" fuel_normed="0.432210" electricity_normed="0"
            traveltime="1.90" CO_perVeh="42.862080" CO2_perVeh="3622.568762" HC_perVeh="0.278041" PMx_perVeh="0.049480" NOx_perVeh="1.381518" fuel_perVeh="1.557199" electricity_perVeh="0"/>
        <edge id=":120_0" sampledSeconds="38.95" CO_abs="600.141471" CO2_abs="96496.059821" HC_abs="4.895893" PMx_abs="1.418269" NOx_abs="35.632355" fuel_abs="41.479395" electricity_abs="0"
            CO_normed="471.834062" CO2_normed="75865.658437" HC_normed="3.849174" PMx_normed="1.115050" NOx_normed="28.014326" fuel_normed="32.611296" electricity_normed="0"
            traveltime="0.01" CO_perVeh="0.230916" CO2_perVeh="37.128744" HC_perVeh="0.001884" PMx_perVeh="0.000546" NOx_perVeh="0.013710" fuel_perVeh="0.015960" electricity_perVeh="0"/>
        <edge id=":121_0" sampledSeconds="372.49" CO_abs="53186.415035" CO2_abs="1433955.986487" HC_abs="275.866778" PMx_abs="30.977772" NOx_abs="634.354497" fuel_abs="616.413150" electricity_abs="0"
            CO_normed="30411.207964" CO2_normed="819914.891568" HC_normed="157.736557" PMx_normed="17.712633" NOx_normed="362.714549" fuel_normed="352.455951" electricity_normed="0"
            traveltime="0.11" CO_perVeh="16.272441" CO2_perVeh="438.720369" HC_perVeh="0.084402" PMx_perVeh="0.009478" NOx_perVeh="0.194081" fuel_perVeh="0.188592" electricity_perVeh="0"/>
        <edge id=":122_0" sampledSeconds="135.24" CO_abs="951.442724" CO2_abs="94331.449539" HC_abs="6.553958" PMx_abs="1.695788" NOx_abs="37.559894" fuel_abs="40.548701" electricity_abs="0"
            CO_normed="20.948297" CO2_normed="2076.933440" HC_normed="0.144301" PMx_normed="0.037337" NOx_normed="0.826971" fuel_normed="0.892777" electricity_normed="0"
            traveltime="0.54" CO_perVeh="3.786203" CO2_perVeh="375.385678" HC_perVeh="0.026081" PMx_perVeh="0.006748" NOx_perVeh="0.149467" fuel_perVeh="0.161361" electricity_perVeh="0"/>
        <edge id=":123_0" sampledSeconds="310.52" CO_abs="40098.515829" CO2_abs="2469689.995489" HC_abs="241.903285" PMx_abs="50.683269" NOx_abs="1059.207417" fuel_abs="1061.604721" electricity_abs="0"
            CO_normed="152.913384" CO2_normed="9418.020778" HC_normed="0.922484" PMx_normed="0.193278" NOx_normed="4.039227" fuel_normed="4.048369" electricity_normed="0"
            traveltime="4.23" CO_perVeh="546.064045" CO2_perVeh="33632.389677" HC_perVeh="3.294254" PMx_perVeh="0.690208" NOx_perVeh="14.424351" fuel_perVeh="14.456998" electricity_perVeh="0"/>
        <edge id=":123_1" sampledSeconds="0.00" CO_abs="0" CO2_abs="0" HC_abs="0" PMx_abs="0" NOx_abs="0" fuel_abs="0" electricity_abs="0"
            CO_normed="0" CO2_normed="0" HC_normed="0" PMx_normed="0" NOx_normed="0" fuel_normed="0" electricity_normed="0"/>
        <edge id=":123_2" sampledSeconds="273.36" CO_abs="36219.623727" CO2_abs="2187511.648446" HC_abs="217.464685" PMx_abs="45.100829" NOx_abs="940.704103" fuel_abs="940.309551" electricity_abs="0"
            CO_normed="139.446020" CO2_normed="8421.948174" HC_normed="0.837242" PMx_normed="0.173639" NOx_normed="3.621723" fuel_normed="3.620204" electricity_normed="0"
            traveltime="4.30" CO_perVeh="569.300261" CO2_perVeh="34383.321111" HC_perVeh="3.418111" PMx_perVeh="0.708895" NOx_perVeh="14.785993" fuel_perVeh="14.779791" electricity_perVeh="0"/>
        <edge id=":123_3" sampledSeconds="469.45" CO_abs="23015.084469" CO2_abs="2166102.125641" HC_abs="156.036604" PMx_abs="40.368284" NOx_abs="868.963101" fuel_abs="931.105614" electricity_abs="0"
            CO_normed="90.661720" CO2_normed="8532.775275" HC_normed="0.614664" PMx_normed="0.159020" NOx_normed="3.423046" fuel_normed="3.667840" electricity_normed="0"
            traveltime="2.81" CO_perVeh="137.754604" CO2_perVeh="12964.998728" HC_perVeh="0.933942" PMx_perVeh="0.241621" NOx_perVeh="5.201096" fuel_perVeh="5.573044" electricity_perVeh="0"/>
        <edge id=":123_5" sampledSeconds="0.00" CO_abs="0" CO2_abs="0" HC_abs="0" PMx_abs="0" NOx_abs="0" fuel_abs="0" electricity_abs="0"
            CO_normed="0" CO2_normed="0" HC_normed="0" PMx_normed="0" NOx_normed="0" fuel_normed="0" electricity_normed="0"/>
        <edge id=":123_6" sampledSeconds="194.67" CO_abs="9183.383861" CO2_abs="879949.078055" HC_abs="62.701148" PMx_abs="16.327707" NOx_abs="352.029006" fuel_abs="378.248833" electricity_abs="0"
            CO_normed="34.942625" CO2_normed="3348.191774" HC_normed="0.238577" PMx_normed="0.062127" NOx_normed="1.339465" fuel_normed="1.439231" electricity_normed="0"
            traveltime="2.91" CO_perVeh="137.387549" CO2_perVeh="13164.433645" HC_perVeh="0.938037" PMx_perVeh="0.244270" NOx_perVeh="5.266512" fuel_perVeh="5.658773" electricity_perVeh="0"/>
        <edge id=":124_0" sampledSeconds="118.52" CO_abs="4432.484895" CO2_abs="402498.964949" HC_abs="29.685024" PMx_abs="7.642963" NOx_abs="162.417571" fuel_abs="173.015315" electricity_abs="0"
            CO_normed="103.766965" CO2_normed="9422.727220" HC_normed="0.694943" PMx_normed="0.178926" NOx_normed="3.802287" fuel_normed="4.050386" electricity_normed="0"
            traveltime="0.46" CO_perVeh="17.267493" CO2_perVeh="1568.002677" HC_perVeh="0.115643" PMx_perVeh="0.029774" NOx_perVeh="0.632725" fuel_perVeh="0.674010" electricity_perVeh="0"/>
        <edge id=":125_0" sampledSeconds="141.17" CO_abs="5849.693289" CO2_abs="585796.274700" HC_abs="40.544168" PMx_abs="10.950001" NOx_abs="231.595518" fuel_abs="251.806320" electricity_abs="0"
            CO_normed="367.924522" CO2_normed="36844.464052" HC_normed="2.550081" PMx_normed="0.688715" NOx_normed="14.566519" fuel_normed="15.837706" electricity_normed="0"
            traveltime="0.16" CO_perVeh="6.699401" CO2_perVeh="670.887125" HC_perVeh="0.046433" PMx_perVeh="0.012541" NOx_perVeh="0.265236" fuel_perVeh="0.288383" electricity_perVeh="0"/>
        <edge id=":125_3" sampledSeconds="0.00" CO_abs="0" CO2_abs="0" HC_abs="0" PMx_abs="0" NOx_abs="0" fuel_abs="0" electricity_abs="0"
            CO_normed="0" CO2_normed="0" HC_normed="0" PMx_normed="0" NOx_normed="0" fuel_normed="0" electricity_normed="0"/>
        <edge id=":126_0" sampledSeconds="26.82" CO_abs="123.710266" CO2_abs="7993.179654" HC_abs="0.753289" PMx_abs="0.153416" NOx_abs="3.368433" fuel_abs="3.435906" electricity_abs="0"
            CO_normed="4.073784" CO2_normed="263.215733" HC_normed="0.024806" PMx_normed="0.005052" NOx_normed="0.110923" fuel_normed="0.113145" electricity_normed="0"
            traveltime="0.57" CO_perVeh="2.610889" CO2_perVeh="168.695044" HC_perVeh="0.015898" PMx_perVeh="0.003238" NOx_perVeh="0.071090" fuel_perVeh="0.072514" electricity_perVeh="0"/>
        <edge id=":126_1" sampledSeconds="80.81" CO_abs="1253.195042" CO2_abs="197592.239874" HC_abs="10.200509" PMx_abs="3.149890" NOx_abs="72.914214" fuel_abs="84.935993" electricity_abs="0"
            CO_normed="36.718057" CO2_normed="5789.364714" HC_normed="0.298870" PMx_normed="0.092290" NOx_normed="2.136354" fuel_normed="2.488587" electricity_normed="0"
            traveltime="0.35" CO_perVeh="5.422790" CO2_perVeh="855.015572" HC_perVeh="0.044139" PMx_perVeh="0.013630" NOx_perVeh="0.315512" fuel_perVeh="0.367533" electricity_perVeh="0"/>
        <edge id=":127_0" sampledSeconds="234.53" CO_abs="5123.595525" CO2_abs="651236.456652" HC_abs="38.564444" PMx_abs="11.229776" NOx_abs="247.119706" fuel_abs="279.936658" electricity_abs="0"
            CO_normed="118.476324" CO2_normed="15058.975914" HC_normed="0.891751" PMx_normed="0.259674" NOx_normed="5.714314" fuel_normed="6.473162" electricity_normed="0"
            traveltime="0.44" CO_perVeh="9.581247" CO2_perVeh="1217.827904" HC_perVeh="0.072116" PMx_perVeh="0.021000" NOx_perVeh="0.462120" fuel_perVeh="0.523488" electricity_perVeh="0"/>
        <edge id=":128_0" sampledSeconds="229.83" CO_abs="236.212233" CO2_abs="35076.715096" HC_abs="1.851158" PMx_abs="0.522421" NOx_abs="13.011012" fuel_abs="15.077932" electricity_abs="0"
            CO_normed="3.650342" CO2_normed="542.063474" HC_normed="0.028607" PMx_normed="0.008073" NOx_normed="0.201068" fuel_normed="0.233009" electricity_normed="0"
            traveltime="0.76" CO_perVeh="0.776516" CO2_perVeh="115.309931" HC_perVeh="0.006085" PMx_perVeh="0.001717" NOx_perVeh="0.042772" fuel_perVeh="0.049567" electricity_perVeh="0"/>
        <edge id=":128_1" sampledSeconds="142.50" CO_abs="95.587608" CO2_abs="14146.719394" HC_abs="0.759312" PMx_abs="0.178003" NOx_abs="5.164204" fuel_abs="6.081091" electricity_abs="0"
            CO_normed="1.525917" CO2_normed="225.831831" HC_normed="0.012121" PMx_normed="0.002842" NOx_normed="0.082439" fuel_normed="0.097076" electricity_normed="0"
            traveltime="0.85" CO_perVeh="0.572993" CO2_perVeh="84.801541" HC_perVeh="0.004552" PMx_perVeh="0.001067" NOx_perVeh="0.030956" fuel_perVeh="0.036453" electricity_perVeh="0"/>
        <edge id=":129_0" sampledSeconds="104.58" CO_abs="6103.587927" CO2_abs="551255.289625" HC_abs="40.809742" PMx_abs="10.324830" NOx_abs="223.009516" fuel_abs="236.958742" electricity_abs="0"
            CO_normed="142.182805" CO2_normed="12841.467108" HC_normed="0.950661" PMx_normed="0.240516" NOx_normed="5.194997" fuel_normed="5.519943" electricity_normed="0"
            traveltime="0.50" CO_perVeh="28.927803" CO2_perVeh="2612.660745" HC_perVeh="0.193417" PMx_perVeh="0.048934" NOx_perVeh="1.056948" fuel_perVeh="1.123060" electricity_perVeh="0"/>
        <edge id=":13_0" sampledSeconds="60.77" CO_abs="4973.610661" CO2_abs="356641.177379" HC_abs="31.158351" PMx_abs="6.844125" NOx_abs="149.082602" fuel_abs="153.303545" electricity_abs="0"
            CO_normed="35.161719" CO2_normed="2521.330653" HC_normed="0.220279" PMx_normed="0.048386" NOx_normed="1.053963" fuel_normed="1.083803" electricity_normed="0"
            traveltime="2.15" CO_perVeh="175.924603" CO2_perVeh="12614.971671" HC_perVeh="1.102121" PMx_perVeh="0.242088" NOx_perVeh="5.273291" fuel_perVeh="5.422593" electricity_perVeh="0"/>
        <edge id=":13_1" sampledSeconds="532.79" CO_abs="14884.436546" CO2_abs="1120024.590828" HC_abs="93.560554" PMx_abs="16.553183" NOx_abs="437.170924" fuel_abs="481.453588" electricity_abs="0"
            CO_normed="148.285716" CO2_normed="11158.208597" HC_normed="0.932094" PMx_normed="0.164911" NOx_normed="4.355301" fuel_normed="4.796466" electricity_normed="0"
            traveltime="1.86" CO_perVeh="52.004619" CO2_perVeh="3913.245331" HC_perVeh="0.326891" PMx_perVeh="0.057835" NOx_perVeh="1.527428" fuel_perVeh="1.682147" electricity_perVeh="0"/>
        <edge id=":132_0" sampledSeconds="40.97" CO_abs="560.183194" CO2_abs="94435.345498" HC_abs="4.652649" PMx_abs="1.349293" NOx_abs="34.643942" fuel_abs="40.593617" electricity_abs="0"
            CO_normed="1057.004821" CO2_normed="178189.236225" HC_normed="8.779044" PMx_normed="2.545970" NOx_normed="65.369354" fuel_normed="76.595744" electricity_normed="0"
            traveltime="6.351733e-03" CO_perVeh="0.086843" CO2_perVeh="14.640004" HC_perVeh="0.000721" PMx_perVeh="0.000209" NOx_perVeh="0.005371" fuel_perVeh="0.006293" electricity_perVeh="0"/>