<?xml version="1.0" encoding="UTF-8"?>

<!-- generated on Mon Nov  9 22:14:09 2020 by Eclipse SUMO sumo Version 1.7.0
<configuration xmlns:xsi="http://www.w3.org/2001/XMLSchema-instance" xsi:noNamespaceSchemaLocation="http://sumo.dlr.de/xsd/sumoConfiguration.xsd">

    <input>
        <net-file value="../dataSets/Porto/6AM7AM_Routing_SaoBento/Porto.net.xml"/>
        <route-files value="../results/Porto/6AM7AM_Routing_SaoBento/cost_hc-ttime/solution5/Porto.rou.xml"/>
        <additional-files value="moreOutputInfo.xml"/>
    </input>

    <output>
        <emission-output.precision value="6"/>
        <tripinfo-output value="../results/Porto/6AM7AM_Routing_SaoBento/cost_hc-ttime/solution5/Porto-tripinfo"/>
    </output>

    <processing>
        <collision.action value="warn"/>
        <time-to-teleport value="-1"/>
    </processing>

    <emissions>
        <device.emissions.probability value="1"/>
    </emissions>

    <gui_only>
        <quit-on-end value="true"/>
        <start value="true"/>
    </gui_only>

</configuration>
-->

<meandata xmlns:xsi="http://www.w3.org/2001/XMLSchema-instance" xsi:noNamespaceSchemaLocation="http://sumo.dlr.de/xsd/meandata_file.xsd">
    <interval begin="0.00" end="4699.00" id="emissions-detector">
        <edge id=":1092997347_0" sampledSeconds="277.62" CO_abs="35582.204453" CO2_abs="1435863.490572" HC_abs="195.985794" PMx_abs="29.359004" NOx_abs="623.512571" fuel_abs="617.220639" electricity_abs="0"
            CO_normed="61955.123929" CO2_normed="2500100.875457" HC_normed="341.247102" PMx_normed="51.119394" NOx_normed="1085.649392" fuel_normed="1074.693986" electricity_normed="0"
            traveltime="0.07" CO_perVeh="9.368333" CO2_perVeh="378.044218" HC_perVeh="0.051601" PMx_perVeh="0.007730" NOx_perVeh="0.164163" fuel_perVeh="0.162506" electricity_perVeh="0"/>
        <edge id=":1103427051_0" sampledSeconds="10.88" CO_abs="914.449369" CO2_abs="52299.483947" HC_abs="5.406642" PMx_abs="1.028405" NOx_abs="22.320615" fuel_abs="22.481218" electricity_abs="0"
            CO_normed="2415.787459" CO2_normed="138164.497369" HC_normed="14.283237" PMx_normed="2.716835" NOx_normed="58.966481" fuel_normed="59.390763" electricity_normed="0"
            traveltime="0.03" CO_perVeh="2.505577" CO2_perVeh="143.299795" HC_perVeh="0.014814" PMx_perVeh="0.002818" NOx_perVeh="0.061158" fuel_perVeh="0.061598" electricity_perVeh="0"/>
        <edge id=":1105984386_0" sampledSeconds="22.70" CO_abs="495.234104" CO2_abs="40949.160729" HC_abs="3.181255" PMx_abs="0.508170" NOx_abs="15.307947" fuel_abs="17.602511" electricity_abs="0"
            CO_normed="39.074045" CO2_normed="3230.894901" HC_normed="0.251002" PMx_normed="0.040095" NOx_normed="1.207799" fuel_normed="1.388841" electricity_normed="0"
            traveltime="0.95" CO_perVeh="20.784592" CO2_perVeh="1718.604559" HC_perVeh="0.133515" PMx_perVeh="0.021328" NOx_perVeh="0.642463" fuel_perVeh="0.738764" electricity_perVeh="0"/>
        <edge id=":1105984390_0" sampledSeconds="23.45" CO_abs="0" CO2_abs="0" HC_abs="0" PMx_abs="0" NOx_abs="0" fuel_abs="0" electricity_abs="0"
            CO_normed="0" CO2_normed="0" HC_normed="0" PMx_normed="0" NOx_normed="0" fuel_normed="0" electricity_normed="0"
            traveltime="1.06" CO_perVeh="0" CO2_perVeh="0" HC_perVeh="0" PMx_perVeh="0" NOx_perVeh="0" fuel_perVeh="0" electricity_perVeh="0"/>
        <edge id=":1105984390_1" sampledSeconds="646.67" CO_abs="15027.645956" CO2_abs="1892548.543316" HC_abs="113.793892" PMx_abs="33.750193" NOx_abs="712.283750" fuel_abs="813.519648" electricity_abs="0"
            CO_normed="876.845918" CO2_normed="110428.038374" HC_normed="6.639743" PMx_normed="1.969285" NOx_normed="41.560940" fuel_normed="47.467939" electricity_normed="0"
            traveltime="0.64" CO_perVeh="14.803641" CO2_perVeh="1864.337793" HC_perVeh="0.112098" PMx_perVeh="0.033247" NOx_perVeh="0.701666" fuel_perVeh="0.801393" electricity_perVeh="0"/>
        <edge id=":1105984395_0" sampledSeconds="9.01" CO_abs="170.855645" CO2_abs="12649.718263" HC_abs="1.067870" PMx_abs="0.180558" NOx_abs="4.897078" fuel_abs="5.437618" electricity_abs="0"
            CO_normed="142.278265" CO2_normed="10533.921590" HC_normed="0.889258" PMx_normed="0.150357" NOx_normed="4.077991" fuel_normed="4.528120" electricity_normed="0"
            traveltime="0.09" CO_perVeh="1.732663" CO2_perVeh="128.281975" HC_perVeh="0.010829" PMx_perVeh="0.001831" NOx_perVeh="0.049662" fuel_perVeh="0.055143" electricity_perVeh="0"/>
        <edge id=":1105984398_0" sampledSeconds="22.14" CO_abs="1537.661947" CO2_abs="107831.935174" HC_abs="9.540154" PMx_abs="1.907750" NOx_abs="44.211335" fuel_abs="46.352218" electricity_abs="0"
            CO_normed="97.438732" CO2_normed="6833.105941" HC_normed="0.604542" PMx_normed="0.120890" NOx_normed="2.801589" fuel_normed="2.937252" electricity_normed="0"
            traveltime="1.10" CO_perVeh="76.199168" CO2_perVeh="5343.634699" HC_perVeh="0.472764" PMx_perVeh="0.094539" NOx_perVeh="2.190902" fuel_perVeh="2.296994" electricity_perVeh="0"/>
        <edge id=":1105984398_1" sampledSeconds="452.30" CO_abs="8056.439212" CO2_abs="930640.162458" HC_abs="57.854365" PMx_abs="13.436787" NOx_abs="352.653952" fuel_abs="400.042429" electricity_abs="0"
            CO_normed="494.171565" CO2_normed="57084.264302" HC_normed="3.548712" PMx_normed="0.824195" NOx_normed="21.631337" fuel_normed="24.538085" electricity_normed="0"
            traveltime="0.95" CO_perVeh="17.009507" CO2_perVeh="1964.854419" HC_perVeh="0.122148" PMx_perVeh="0.028369" NOx_perVeh="0.744556" fuel_perVeh="0.844607" electricity_perVeh="0"/>
        <edge id=":1106006327_0" sampledSeconds="133.55" CO_abs="18095.902871" CO2_abs="592585.504161" HC_abs="96.354569" PMx_abs="12.377082" NOx_abs="259.495774" fuel_abs="254.731423" electricity_abs="0"
            CO_normed="1564.745065" CO2_normed="51240.617810" HC_normed="8.331739" PMx_normed="1.070241" NOx_normed="22.438490" fuel_normed="22.026518" electricity_normed="0"
            traveltime="2.07" CO_perVeh="280.483012" CO2_perVeh="9184.961280" HC_perVeh="1.493477" PMx_perVeh="0.191842" NOx_perVeh="4.022135" fuel_perVeh="3.948288" electricity_perVeh="0"/>
        <edge id=":1106006327_1" sampledSeconds="164.16" CO_abs="22034.913790" CO2_abs="725994.602552" HC_abs="117.426148" PMx_abs="15.105216" NOx_abs="317.489718" fuel_abs="312.079226" electricity_abs="0"
            CO_normed="1661.554930" CO2_normed="54744.026816" HC_normed="8.854584" PMx_normed="1.139017" NOx_normed="23.940489" fuel_normed="23.532508" electricity_normed="0"
            traveltime="2.33" CO_perVeh="312.814001" CO2_perVeh="10306.429077" HC_perVeh="1.667016" PMx_perVeh="0.214438" NOx_perVeh="4.507176" fuel_perVeh="4.430367" electricity_perVeh="0"/>
        <edge id=":1106006327_2" sampledSeconds="0.00" CO_abs="0" CO2_abs="0" HC_abs="0" PMx_abs="0" NOx_abs="0" fuel_abs="0" electricity_abs="0"
            CO_normed="0" CO2_normed="0" HC_normed="0" PMx_normed="0" NOx_normed="0" fuel_normed="0" electricity_normed="0"/>
        <edge id=":1106006327_3" sampledSeconds="0.00" CO_abs="0" CO2_abs="0" HC_abs="0" PMx_abs="0" NOx_abs="0" fuel_abs="0" electricity_abs="0"
            CO_normed="0" CO2_normed="0" HC_normed="0" PMx_normed="0" NOx_normed="0" fuel_normed="0" electricity_normed="0"/>
        <edge id=":1107381198_0" sampledSeconds="0.00" CO_abs="0" CO2_abs="0" HC_abs="0" PMx_abs="0" NOx_abs="0" fuel_abs="0" electricity_abs="0"
            CO_normed="0" CO2_normed="0" HC_normed="0" PMx_normed="0" NOx_normed="0" fuel_normed="0" electricity_normed="0"/>
        <edge id=":1107381198_1" sampledSeconds="35.83" CO_abs="1375.521325" CO2_abs="58276.198342" HC_abs="7.615793" PMx_abs="1.047483" NOx_abs="24.397490" fuel_abs="25.050780" electricity_abs="0"
            CO_normed="114.919849" CO2_normed="4868.766343" HC_normed="0.636272" PMx_normed="0.087513" NOx_normed="2.038322" fuel_normed="2.092902" electricity_normed="0"
            traveltime="1.48" CO_perVeh="56.634027" CO2_perVeh="2399.392685" HC_perVeh="0.313563" PMx_perVeh="0.043128" NOx_perVeh="1.004512" fuel_perVeh="1.031410" electricity_perVeh="0"/>
        <edge id=":1110338277_0" sampledSeconds="96.56" CO_abs="1361.552374" CO2_abs="174941.146711" HC_abs="10.179809" PMx_abs="2.336874" NOx_abs="64.914931" fuel_abs="75.199901" electricity_abs="0"
            CO_normed="3725.403996" CO2_normed="478664.250873" HC_normed="27.853428" PMx_normed="6.394025" NOx_normed="177.616630" fuel_normed="205.757794" electricity_normed="0"
            traveltime="0.02" CO_perVeh="0.307229" CO2_perVeh="39.474790" HC_perVeh="0.002297" PMx_perVeh="0.000527" NOx_perVeh="0.014648" fuel_perVeh="0.016969" electricity_perVeh="0"/>
        <edge id=":1110338293_0" sampledSeconds="124.31" CO_abs="5958.126448" CO2_abs="416101.283262" HC_abs="36.879846" PMx_abs="7.132677" NOx_abs="169.173585" fuel_abs="178.864052" electricity_abs="0"
            CO_normed="15215.475076" CO2_normed="1062612.342871" HC_normed="94.181349" PMx_normed="18.214967" NOx_normed="432.024479" fuel_normed="456.771360" electricity_normed="0"
            traveltime="0.03" CO_perVeh="1.366595" CO2_perVeh="95.439722" HC_perVeh="0.008459" PMx_perVeh="0.001636" NOx_perVeh="0.038803" fuel_perVeh="0.041025" electricity_perVeh="0"/>
        <edge id=":1110338295_0" sampledSeconds="0.00" CO_abs="0" CO2_abs="0" HC_abs="0" PMx_abs="0" NOx_abs="0" fuel_abs="0" electricity_abs="0"
            CO_normed="0" CO2_normed="0" HC_normed="0" PMx_normed="0" NOx_normed="0" fuel_normed="0" electricity_normed="0"/>
        <edge id=":1110673403_0" sampledSeconds="143.47" CO_abs="2195.356716" CO2_abs="270770.588813" HC_abs="16.232286" PMx_abs="3.735622" NOx_abs="101.373702" fuel_abs="116.392872" electricity_abs="0"
            CO_normed="5606.358926" CO2_normed="691476.285541" HC_normed="41.452955" PMx_normed="9.539787" NOx_normed="258.881555" fuel_normed="297.236532" electricity_normed="0"
            traveltime="0.02" CO_perVeh="0.352479" CO2_perVeh="43.474004" HC_perVeh="0.002606" PMx_perVeh="0.000600" NOx_perVeh="0.016276" fuel_perVeh="0.018688" electricity_perVeh="0"/>
        <edge id=":1110673412_0" sampledSeconds="251.73" CO_abs="45141.984534" CO2_abs="3075416.408740" HC_abs="280.821949" PMx_abs="67.654317" NOx_abs="1322.202953" fuel_abs="1321.969982" electricity_abs="0"
            CO_normed="119255.853646" CO2_normed="8124618.643339" HC_normed="741.873925" PMx_normed="178.728813" NOx_normed="3492.988700" fuel_normed="3492.373239" electricity_normed="0"
            traveltime="0.02" CO_perVeh="2.780658" CO2_perVeh="189.439656" HC_perVeh="0.017298" PMx_perVeh="0.004167" NOx_perVeh="0.081445" fuel_perVeh="0.081431" electricity_perVeh="0"/>
        <edge id=":1110673414_0" sampledSeconds="0.00" CO_abs="0" CO2_abs="0" HC_abs="0" PMx_abs="0" NOx_abs="0" fuel_abs="0" electricity_abs="0"
            CO_normed="0" CO2_normed="0" HC_normed="0" PMx_normed="0" NOx_normed="0" fuel_normed="0" electricity_normed="0"/>
        <edge id=":1110673414_1" sampledSeconds="13.89" CO_abs="1115.815343" CO2_abs="42740.295350" HC_abs="6.068566" PMx_abs="0.764739" NOx_abs="17.882830" fuel_abs="18.372566" electricity_abs="0"
            CO_normed="94.667658" CO2_normed="3626.158843" HC_normed="0.514867" PMx_normed="0.064882" NOx_normed="1.517210" fuel_normed="1.558760" electricity_normed="0"
            traveltime="1.52" CO_perVeh="121.865173" CO2_perVeh="4667.935015" HC_perVeh="0.662786" PMx_perVeh="0.083522" NOx_perVeh="1.953096" fuel_perVeh="2.006583" electricity_perVeh="0"/>
        <edge id=":1110673417_0" sampledSeconds="29.68" CO_abs="456.876626" CO2_abs="56725.285814" HC_abs="3.368182" PMx_abs="0.779578" NOx_abs="21.207474" fuel_abs="24.383811" electricity_abs="0"
            CO_normed="1250.080454" CO2_normed="155208.577001" HC_normed="9.215831" PMx_normed="2.133038" NOx_normed="58.026712" fuel_normed="66.717629" electricity_normed="0"
            traveltime="0.02" CO_perVeh="0.339100" CO2_perVeh="42.102266" HC_perVeh="0.002500" PMx_perVeh="0.000579" NOx_perVeh="0.015740" fuel_perVeh="0.018098" electricity_perVeh="0"/>
        <edge id=":1110673446_0" sampledSeconds="333.23" CO_abs="3898.047296" CO2_abs="307204.792192" HC_abs="25.047684" PMx_abs="5.701953" NOx_abs="126.290766" fuel_abs="132.053182" electricity_abs="0"
            CO_normed="9954.579176" CO2_normed="784519.579975" HC_normed="63.965144" PMx_normed="14.561275" NOx_normed="322.513129" fuel_normed="337.228812" electricity_normed="0"
            traveltime="0.02" CO_perVeh="0.266329" CO2_perVeh="20.989368" HC_perVeh="0.001711" PMx_perVeh="0.000390" NOx_perVeh="0.008629" fuel_perVeh="0.009022" electricity_perVeh="0"/>
        <edge id=":1110673451_0" sampledSeconds="37.01" CO_abs="399.681460" CO2_abs="28918.184003" HC_abs="2.483568" PMx_abs="0.420582" NOx_abs="11.265125" fuel_abs="12.430787" electricity_abs="0"
            CO_normed="1134.089410" CO2_normed="82054.859907" HC_normed="7.047082" PMx_normed="1.193395" NOx_normed="31.964603" fuel_normed="35.272149" electricity_normed="0"
            traveltime="0.03" CO_perVeh="0.286624" CO2_perVeh="20.738140" HC_perVeh="0.001781" PMx_perVeh="0.000302" NOx_perVeh="0.008079" fuel_perVeh="0.008915" electricity_perVeh="0"/>
        <edge id=":1110673464_0" sampledSeconds="321.66" CO_abs="433.025432" CO2_abs="39104.596908" HC_abs="2.855570" PMx_abs="0.468139" NOx_abs="14.415704" fuel_abs="16.809604" electricity_abs="0"
            CO_normed="23.495017" CO2_normed="2121.730271" HC_normed="0.154937" PMx_normed="0.025400" NOx_normed="0.782165" fuel_normed="0.912052" electricity_normed="0"
            traveltime="1.16" CO_perVeh="1.565330" CO2_perVeh="141.357959" HC_perVeh="0.010323" PMx_perVeh="0.001692" NOx_perVeh="0.052111" fuel_perVeh="0.060764" electricity_perVeh="0"/>
        <edge id=":1110673464_1" sampledSeconds="708.66" CO_abs="16832.715306" CO2_abs="2163035.931578" HC_abs="128.518323" PMx_abs="38.348677" NOx_abs="811.505622" fuel_abs="929.789921" electricity_abs="0"
            CO_normed="894.926263" CO2_normed="114999.726841" HC_normed="6.832791" PMx_normed="2.038841" NOx_normed="43.144417" fuel_normed="49.433107" electricity_normed="0"
            traveltime="0.70" CO_perVeh="16.619399" CO2_perVeh="2135.624329" HC_perVeh="0.126890" PMx_perVeh="0.037863" NOx_perVeh="0.801222" fuel_perVeh="0.918007" electricity_perVeh="0"/>
        <edge id=":1110673479_0" sampledSeconds="133.83" CO_abs="7284.417393" CO2_abs="501317.458453" HC_abs="44.959908" PMx_abs="8.847863" NOx_abs="205.577572" fuel_abs="215.494512" electricity_abs="0"
            CO_normed="18602.470465" CO2_normed="1280231.858148" HC_normed="114.815682" PMx_normed="22.595096" NOx_normed="524.990607" fuel_normed="550.315842" electricity_normed="0"
            traveltime="0.03" CO_perVeh="1.534543" CO2_perVeh="105.608051" HC_perVeh="0.009471" PMx_perVeh="0.001864" NOx_perVeh="0.043307" fuel_perVeh="0.045396" electricity_perVeh="0"/>
        <edge id=":1110673511_0" sampledSeconds="11.68" CO_abs="186.183459" CO2_abs="23494.493446" HC_abs="1.387171" PMx_abs="0.327609" NOx_abs="8.803015" fuel_abs="10.099285" electricity_abs="0"
            CO_normed="475.463185" CO2_normed="59998.706395" HC_normed="3.542467" PMx_normed="0.836627" NOx_normed="22.480567" fuel_normed="25.790897" electricity_normed="0"
            traveltime="0.02" CO_perVeh="0.368680" CO2_perVeh="46.523749" HC_perVeh="0.002747" PMx_perVeh="0.000649" NOx_perVeh="0.017432" fuel_perVeh="0.019999" electricity_perVeh="0"/>
        <edge id=":1110673517_0" sampledSeconds="16.99" CO_abs="847.212257" CO2_abs="60894.124130" HC_abs="5.292255" PMx_abs="1.075526" NOx_abs="24.908574" fuel_abs="26.175702" electricity_abs="0"
            CO_normed="2163.555455" CO2_normed="155507.446171" HC_normed="13.515016" PMx_normed="2.746607" NOx_normed="63.609894" fuel_normed="66.845802" electricity_normed="0"
            traveltime="0.03" CO_perVeh="1.360255" CO2_perVeh="97.769533" HC_perVeh="0.008497" PMx_perVeh="0.001727" NOx_perVeh="0.039992" fuel_perVeh="0.042027" electricity_perVeh="0"/>
        <edge id=":1110673534_0" sampledSeconds="477.04" CO_abs="2737.022690" CO2_abs="243380.914952" HC_abs="18.031073" PMx_abs="3.283277" NOx_abs="92.278913" fuel_abs="104.619806" electricity_abs="0"
            CO_normed="135.457950" CO2_normed="12045.161264" HC_normed="0.892376" PMx_normed="0.162493" NOx_normed="4.566974" fuel_normed="5.177737" electricity_normed="0"
            traveltime="1.44" CO_perVeh="8.245552" CO2_perVeh="733.209151" HC_perVeh="0.054320" PMx_perVeh="0.009891" NOx_perVeh="0.277999" fuel_perVeh="0.315178" electricity_perVeh="0"/>
        <edge id=":1110673534_1" sampledSeconds="184.99" CO_abs="2417.644347" CO2_abs="347480.651367" HC_abs="18.775256" PMx_abs="4.369729" NOx_abs="126.724206" fuel_abs="149.367636" electricity_abs="0"
            CO_normed="116.344647" CO2_normed="16721.861394" HC_normed="0.903524" PMx_normed="0.210285" NOx_normed="6.098367" fuel_normed="7.188040" electricity_normed="0"
            traveltime="1.23" CO_perVeh="16.052291" CO2_perVeh="2307.146777" HC_perVeh="0.124661" PMx_perVeh="0.029013" NOx_perVeh="0.841403" fuel_perVeh="0.991747" electricity_perVeh="0"/>
        <edge id=":1110673549_0" sampledSeconds="59.57" CO_abs="0" CO2_abs="0" HC_abs="0" PMx_abs="0" NOx_abs="0" fuel_abs="0" electricity_abs="0"
            CO_normed="0" CO2_normed="0" HC_normed="0" PMx_normed="0" NOx_normed="0" fuel_normed="0" electricity_normed="0"
            traveltime="1.24" CO_perVeh="0" CO2_perVeh="0" HC_perVeh="0" PMx_perVeh="0" NOx_perVeh="0" fuel_perVeh="0" electricity_perVeh="0"/>
        <edge id=":1110673549_1" sampledSeconds="638.95" CO_abs="13544.129954" CO2_abs="1752200.256163" HC_abs="103.558120" PMx_abs="30.951156" NOx_abs="656.341286" fuel_abs="753.190614" electricity_abs="0"
            CO_normed="628.113496" CO2_normed="81258.865059" HC_normed="4.802542" PMx_normed="1.435370" NOx_normed="30.438044" fuel_normed="34.929463" electricity_normed="0"
            traveltime="0.80" CO_perVeh="17.049391" CO2_perVeh="2205.674947" HC_perVeh="0.130359" PMx_perVeh="0.038961" NOx_perVeh="0.826204" fuel_perVeh="0.948119" electricity_perVeh="0"/>
        <edge id=":1110673556_0" sampledSeconds="416.10" CO_abs="51515.541397" CO2_abs="2591199.412309" HC_abs="296.204507" PMx_abs="52.359524" NOx_abs="1116.488484" fuel_abs="1113.844202" electricity_abs="0"
            CO_normed="1831.420409" CO2_normed="92119.297578" HC_normed="10.530317" PMx_normed="1.861425" NOx_normed="39.692096" fuel_normed="39.598089" electricity_normed="0"
            traveltime="2.58" CO_perVeh="319.783361" CO2_perVeh="16084.902447" HC_perVeh="1.838693" PMx_perVeh="0.325022" NOx_perVeh="6.930616" fuel_perVeh="6.914202" electricity_perVeh="0"/>
        <edge id=":1110673556_2" sampledSeconds="246.67" CO_abs="23993.796608" CO2_abs="1041642.385068" HC_abs="133.719720" PMx_abs="20.082640" NOx_abs="444.132582" fuel_abs="447.760992" electricity_abs="0"
            CO_normed="891.903847" CO2_normed="38720.210286" HC_normed="4.970665" PMx_normed="0.746517" NOx_normed="16.509416" fuel_normed="16.644292" electricity_normed="0"
            traveltime="2.99" CO_perVeh="291.040155" CO2_perVeh="12634.922522" HC_perVeh="1.621995" PMx_perVeh="0.243599" NOx_perVeh="5.387243" fuel_perVeh="5.431255" electricity_perVeh="0"/>
        <edge id=":1110673556_3" sampledSeconds="420.16" CO_abs="35701.369354" CO2_abs="1270153.916457" HC_abs="192.135322" PMx_abs="24.289924" NOx_abs="542.018688" fuel_abs="545.994726" electricity_abs="0"
            CO_normed="3018.934790" CO2_normed="107405.175664" HC_normed="16.247108" PMx_normed="2.053974" NOx_normed="45.833510" fuel_normed="46.169727" electricity_normed="0"
            traveltime="1.74" CO_perVeh="148.238942" CO2_perVeh="5273.922989" HC_perVeh="0.797783" PMx_perVeh="0.100856" NOx_perVeh="2.250566" fuel_perVeh="2.267075" electricity_perVeh="0"/>
        <edge id=":1110673556_4" sampledSeconds="191.59" CO_abs="19793.880486" CO2_abs="798655.891960" HC_abs="108.859398" PMx_abs="15.507103" NOx_abs="341.734299" fuel_abs="343.311655" electricity_abs="0"
            CO_normed="1022.555404" CO2_normed="41258.706154" HC_normed="5.623696" PMx_normed="0.801100" NOx_normed="17.654055" fuel_normed="17.735541" electricity_normed="0"
            traveltime="2.38" CO_perVeh="245.770398" CO2_perVeh="9916.497997" HC_perVeh="1.351651" PMx_perVeh="0.192544" NOx_perVeh="4.243138" fuel_perVeh="4.262724" electricity_perVeh="0"/>
        <edge id=":1110673556_5" sampledSeconds="25.65" CO_abs="2423.896943" CO2_abs="95714.890449" HC_abs="13.284114" PMx_abs="1.880159" NOx_abs="41.106035" fuel_abs="41.144185" electricity_abs="0"
            CO_normed="174.529795" CO2_normed="6891.836001" HC_normed="0.956507" PMx_normed="0.135379" NOx_normed="2.959791" fuel_normed="2.962538" electricity_normed="0"
            traveltime="1.77" CO_perVeh="167.578060" CO2_perVeh="6617.325759" HC_perVeh="0.918408" PMx_perVeh="0.129986" NOx_perVeh="2.841899" fuel_perVeh="2.844536" electricity_perVeh="0"/>
        <edge id=":1110673556_6" sampledSeconds="544.63" CO_abs="62877.591985" CO2_abs="3114390.343281" HC_abs="360.272714" PMx_abs="62.523707" NOx_abs="1339.568209" fuel_abs="1338.742699" electricity_abs="0"
            CO_normed="2291.713089" CO2_normed="113510.853229" HC_normed="13.130937" PMx_normed="2.278815" NOx_normed="48.823530" fuel_normed="48.793442" electricity_normed="0"
            traveltime="2.59" CO_perVeh="298.451409" CO2_perVeh="14782.598332" HC_perVeh="1.710051" PMx_perVeh="0.296772" NOx_perVeh="6.358323" fuel_perVeh="6.354404" electricity_perVeh="0"/>
        <edge id=":1110673561_0" sampledSeconds="100.10" CO_abs="9676.139726" CO2_abs="697179.290214" HC_abs="60.852242" PMx_abs="14.101723" NOx_abs="294.696492" fuel_abs="299.684128" electricity_abs="0"
            CO_normed="443.101526" CO2_normed="31926.079639" HC_normed="2.786620" PMx_normed="0.645763" NOx_normed="13.495099" fuel_normed="13.723499" electricity_normed="0"
            traveltime="1.18" CO_perVeh="114.187840" CO2_perVeh="8227.392307" HC_perVeh="0.718116" PMx_perVeh="0.166414" NOx_perVeh="3.477705" fuel_perVeh="3.536564" electricity_perVeh="0"/>
        <edge id=":1110673561_1" sampledSeconds="1313.34" CO_abs="122916.245120" CO2_abs="8498878.993962" HC_abs="765.380904" PMx_abs="177.834195" NOx_abs="3635.245227" fuel_abs="3653.257497" electricity_abs="0"
            CO_normed="5487.683518" CO2_normed="379438.520350" HC_normed="34.170977" PMx_normed="7.939535" NOx_normed="162.298118" fuel_normed="163.102289" electricity_normed="0"
            traveltime="1.19" CO_perVeh="111.551839" CO2_perVeh="7713.102392" HC_perVeh="0.694616" PMx_perVeh="0.161392" NOx_perVeh="3.299143" fuel_perVeh="3.315490" electricity_perVeh="0"/>
        <edge id=":1110673562_0" sampledSeconds="104.23" CO_abs="2427.408176" CO2_abs="190344.366842" HC_abs="15.388728" PMx_abs="2.546012" NOx_abs="72.437666" fuel_abs="81.821733" electricity_abs="0"
            CO_normed="6887.729802" CO2_normed="540098.934077" HC_normed="43.665256" PMx_normed="7.224267" NOx_normed="205.540657" fuel_normed="232.167789" electricity_normed="0"
            traveltime="0.03" CO_perVeh="0.618757" CO2_perVeh="48.519646" HC_perVeh="0.003923" PMx_perVeh="0.000649" NOx_perVeh="0.018465" fuel_perVeh="0.020857" electricity_perVeh="0"/>
        <edge id=":1110673564_0" sampledSeconds="28.27" CO_abs="470.481382" CO2_abs="55711.674582" HC_abs="3.427325" PMx_abs="0.774959" NOx_abs="20.937757" fuel_abs="23.948105" electricity_abs="0"
            CO_normed="3604.454086" CO2_normed="426818.532658" HC_normed="26.257436" PMx_normed="5.937116" NOx_normed="160.408436" fuel_normed="183.471332" electricity_normed="0"
            traveltime="7.770505e-03" CO_perVeh="0.129342" CO2_perVeh="15.315924" HC_perVeh="0.000942" PMx_perVeh="0.000213" NOx_perVeh="0.005756" fuel_perVeh="0.006584" electricity_perVeh="0"/>
        <edge id=":1110673588_0" sampledSeconds="11.62" CO_abs="124.926192" CO2_abs="19886.321379" HC_abs="0.998989" PMx_abs="0.230236" NOx_abs="7.103068" fuel_abs="8.548330" electricity_abs="0"
            CO_normed="382.834044" CO2_normed="60941.270028" HC_normed="3.061384" PMx_normed="0.705555" NOx_normed="21.767222" fuel_normed="26.196203" electricity_normed="0"
            traveltime="0.02" CO_perVeh="0.208210" CO2_perVeh="33.143869" HC_perVeh="0.001665" PMx_perVeh="0.000384" NOx_perVeh="0.011838" fuel_perVeh="0.014247" electricity_perVeh="0"/>
        <edge id=":1110673601_0" sampledSeconds="29.78" CO_abs="474.014054" CO2_abs="54083.260539" HC_abs="3.404277" PMx_abs="0.769570" NOx_abs="20.450561" fuel_abs="23.248105" electricity_abs="0"
            CO_normed="1296.970932" CO2_normed="147979.614159" HC_normed="9.314593" PMx_normed="2.105656" NOx_normed="55.955690" fuel_normed="63.610173" electricity_normed="0"
            traveltime="0.02" CO_perVeh="0.351820" CO2_perVeh="40.141320" HC_perVeh="0.002527" PMx_perVeh="0.000571" NOx_perVeh="0.015179" fuel_perVeh="0.017255" electricity_perVeh="0"/>
        <edge id=":1110673617_0" sampledSeconds="238.58" CO_abs="5872.612598" CO2_abs="727149.200483" HC_abs="44.108011" PMx_abs="13.015109" NOx_abs="274.325080" fuel_abs="312.567989" electricity_abs="0"
            CO_normed="14997.095376" CO2_normed="1856946.245114" HC_normed="112.640165" PMx_normed="33.237138" NOx_normed="700.553513" fuel_normed="798.215762" electricity_normed="0"
            traveltime="0.01" CO_perVeh="0.359670" CO2_perVeh="44.534449" HC_perVeh="0.002701" PMx_perVeh="0.000797" NOx_perVeh="0.016801" fuel_perVeh="0.019143" electricity_perVeh="0"/>
        <edge id=":1110673621_0" sampledSeconds="25.71" CO_abs="510.569245" CO2_abs="52974.837350" HC_abs="3.554621" PMx_abs="0.797319" NOx_abs="20.393761" fuel_abs="22.771606" electricity_abs="0"
            CO_normed="1564.630162" CO2_normed="162340.425163" HC_normed="10.893071" PMx_normed="2.443369" NOx_normed="62.496309" fuel_normed="69.783172" electricity_normed="0"
            traveltime="0.02" CO_perVeh="0.386795" CO2_perVeh="40.132453" HC_perVeh="0.002693" PMx_perVeh="0.000604" NOx_perVeh="0.015450" fuel_perVeh="0.017251" electricity_perVeh="0"/>
        <edge id=":1110673630_0" sampledSeconds="54.22" CO_abs="235.521238" CO2_abs="20487.804657" HC_abs="1.536014" PMx_abs="0.252148" NOx_abs="7.632353" fuel_abs="8.806934" electricity_abs="0"
            CO_normed="12.870017" CO2_normed="1119.552507" HC_normed="0.083935" PMx_normed="0.013779" NOx_normed="0.417069" fuel_normed="0.481253" electricity_normed="0"
            traveltime="1.27" CO_perVeh="5.497482" CO2_perVeh="478.221599" HC_perVeh="0.035853" PMx_perVeh="0.005886" NOx_perVeh="0.178153" fuel_perVeh="0.205569" electricity_perVeh="0"/>
        <edge id=":1110673630_1" sampledSeconds="7.34" CO_abs="48.521463" CO2_abs="4155.220725" HC_abs="0.315947" PMx_abs="0.056477" NOx_abs="1.583796" fuel_abs="1.786165" electricity_abs="0"
            CO_normed="3.232460" CO2_normed="276.817355" HC_normed="0.021048" PMx_normed="0.003762" NOx_normed="0.105511" fuel_normed="0.118993" electricity_normed="0"
            traveltime="1.04" CO_perVeh="6.867653" CO2_perVeh="588.123549" HC_perVeh="0.044719" PMx_perVeh="0.007994" NOx_perVeh="0.224168" fuel_perVeh="0.252811" electricity_perVeh="0"/>
        <edge id=":1110673650_0" sampledSeconds="143.05" CO_abs="2232.030180" CO2_abs="295835.920759" HC_abs="16.882366" PMx_abs="3.896422" NOx_abs="109.300937" fuel_abs="127.167557" electricity_abs="0"
            CO_normed="5700.013229" CO2_normed="755486.496937" HC_normed="43.113087" PMx_normed="9.950429" NOx_normed="279.125611" fuel_normed="324.752221" electricity_normed="0"
            traveltime="0.02" CO_perVeh="0.358367" CO2_perVeh="47.498408" HC_perVeh="0.002711" PMx_perVeh="0.000626" NOx_perVeh="0.017549" fuel_perVeh="0.020418" electricity_perVeh="0"/>
        <edge id=":1110673655_0" sampledSeconds="45.33" CO_abs="716.071863" CO2_abs="79175.290312" HC_abs="5.081004" PMx_abs="1.098658" NOx_abs="29.857412" fuel_abs="34.034158" electricity_abs="0"
            CO_normed="1828.657663" CO2_normed="202192.697114" HC_normed="12.975538" PMx_normed="2.805682" NOx_normed="76.247913" fuel_normed="86.914216" electricity_normed="0"
            traveltime="0.02" CO_perVeh="0.383234" CO2_perVeh="42.373717" HC_perVeh="0.002719" PMx_perVeh="0.000588" NOx_perVeh="0.015979" fuel_perVeh="0.018215" electricity_perVeh="0"/>
        <edge id=":1110673663_0" sampledSeconds="108.60" CO_abs="1673.964231" CO2_abs="211907.326695" HC_abs="12.443410" PMx_abs="2.847246" NOx_abs="78.745781" fuel_abs="91.090115" electricity_abs="0"
            CO_normed="78.294153" CO2_normed="9911.265979" HC_normed="0.581999" PMx_normed="0.133171" NOx_normed="3.683074" fuel_normed="4.260440" electricity_normed="0"
            traveltime="1.28" CO_perVeh="19.661500" CO2_perVeh="2488.951520" HC_perVeh="0.146154" PMx_perVeh="0.033442" NOx_perVeh="0.924906" fuel_perVeh="1.069896" electricity_perVeh="0"/>
        <edge id=":1110673663_1" sampledSeconds="154.33" CO_abs="2583.202442" CO2_abs="321981.517200" HC_abs="19.037555" PMx_abs="4.413127" NOx_abs="120.104782" fuel_abs="138.406315" electricity_abs="0"
            CO_normed="120.968473" CO2_normed="15078.033327" HC_normed="0.891507" PMx_normed="0.206662" NOx_normed="5.624372" fuel_normed="6.481412" electricity_normed="0"
            traveltime="1.25" CO_perVeh="20.894016" CO2_perVeh="2604.320505" HC_perVeh="0.153984" PMx_perVeh="0.035695" NOx_perVeh="0.971457" fuel_perVeh="1.119488" electricity_perVeh="0"/>
        <edge id=":1110673666_0" sampledSeconds="191.43" CO_abs="4004.378491" CO2_abs="330936.810692" HC_abs="25.752246" PMx_abs="4.274864" NOx_abs="124.754340" fuel_abs="142.257094" electricity_abs="0"
            CO_normed="250.845156" CO2_normed="20730.781579" HC_normed="1.613191" PMx_normed="0.267789" NOx_normed="7.814951" fuel_normed="8.911371" electricity_normed="0"