<?xml version="1.0" encoding="UTF-8"?>

<!-- generated on Tue Nov 10 01:56:35 2020 by Eclipse SUMO sumo Version 1.7.0
<configuration xmlns:xsi="http://www.w3.org/2001/XMLSchema-instance" xsi:noNamespaceSchemaLocation="http://sumo.dlr.de/xsd/sumoConfiguration.xsd">

    <input>
        <net-file value="../dataSets/Porto/6AM7AM_Routing_SaoBento/Porto.net.xml"/>
        <route-files value="../results/Porto/6AM7AM_Routing_SaoBento/cost_co2-cost_hc/solution7/Porto.rou.xml"/>
        <additional-files value="moreOutputInfo.xml"/>
    </input>

    <output>
        <emission-output.precision value="6"/>
        <tripinfo-output value="../results/Porto/6AM7AM_Routing_SaoBento/cost_co2-cost_hc/solution7/Porto-tripinfo"/>
    </output>

    <processing>
        <collision.action value="warn"/>
        <time-to-teleport value="-1"/>
    </processing>

    <emissions>
        <device.emissions.probability value="1"/>
    </emissions>

    <gui_only>
        <quit-on-end value="true"/>
        <start value="true"/>
    </gui_only>

</configuration>
-->

<meandata xmlns:xsi="http://www.w3.org/2001/XMLSchema-instance" xsi:noNamespaceSchemaLocation="http://sumo.dlr.de/xsd/meandata_file.xsd">
    <interval begin="0.00" end="4698.00" id="emissions-detector">
        <edge id=":1092997347_0" sampledSeconds="267.31" CO_abs="34225.493040" CO2_abs="1351749.765047" HC_abs="187.788323" PMx_abs="27.610883" NOx_abs="586.966000" fuel_abs="581.064140" electricity_abs="0"
            CO_normed="59605.526019" CO2_normed="2354144.488065" HC_normed="327.043405" PMx_normed="48.085830" NOx_normed="1022.232672" fuel_normed="1011.954268" electricity_normed="0"
            traveltime="0.08" CO_perVeh="9.635040" CO2_perVeh="380.539803" HC_perVeh="0.052866" PMx_perVeh="0.007773" NOx_perVeh="0.165241" fuel_perVeh="0.163579" electricity_perVeh="0"/>
        <edge id=":1103427051_0" sampledSeconds="10.79" CO_abs="910.968213" CO2_abs="52004.560715" HC_abs="5.384298" PMx_abs="1.025863" NOx_abs="22.219890" fuel_abs="22.354440" electricity_abs="0"
            CO_normed="2407.103219" CO2_normed="137414.614124" HC_normed="14.227236" PMx_normed="2.710695" NOx_normed="58.712881" fuel_normed="59.068411" electricity_normed="0"
            traveltime="0.03" CO_perVeh="2.496112" CO2_perVeh="142.495889" HC_perVeh="0.014753" PMx_perVeh="0.002811" NOx_perVeh="0.060884" fuel_perVeh="0.061253" electricity_perVeh="0"/>
        <edge id=":1105984386_0" sampledSeconds="22.85" CO_abs="485.433141" CO2_abs="40321.676756" HC_abs="3.123300" PMx_abs="0.504273" NOx_abs="15.095363" fuel_abs="17.332772" electricity_abs="0"
            CO_normed="38.308900" CO2_normed="3182.063501" HC_normed="0.246481" PMx_normed="0.039796" NOx_normed="1.191280" fuel_normed="1.367849" electricity_normed="0"
            traveltime="0.96" CO_perVeh="20.373253" CO2_perVeh="1692.269542" HC_perVeh="0.131082" PMx_perVeh="0.021164" NOx_perVeh="0.633541" fuel_perVeh="0.727443" electricity_perVeh="0"/>
        <edge id=":1105984390_0" sampledSeconds="24.34" CO_abs="6.479518" CO2_abs="797.678256" HC_abs="0.047151" PMx_abs="0.007078" NOx_abs="0.276562" fuel_abs="0.342894" electricity_abs="0"
            CO_normed="0.395314" CO2_normed="48.666219" HC_normed="0.002877" PMx_normed="0.000432" NOx_normed="0.016873" fuel_normed="0.020920" electricity_normed="0"
            traveltime="1.10" CO_perVeh="0.293843" CO2_perVeh="36.174317" HC_perVeh="0.002138" PMx_perVeh="0.000321" NOx_perVeh="0.012542" fuel_perVeh="0.015550" electricity_perVeh="0"/>
        <edge id=":1105984390_1" sampledSeconds="645.76" CO_abs="14297.445854" CO2_abs="1867419.872747" HC_abs="109.797110" PMx_abs="32.969315" NOx_abs="698.365152" fuel_abs="802.718271" electricity_abs="0"
            CO_normed="834.417152" CO2_normed="108985.002480" HC_normed="6.407899" PMx_normed="1.924131" NOx_normed="40.757480" fuel_normed="46.847661" electricity_normed="0"
            traveltime="0.64" CO_perVeh="14.070179" CO2_perVeh="1837.736002" HC_perVeh="0.108052" PMx_perVeh="0.032445" NOx_perVeh="0.687264" fuel_perVeh="0.789959" electricity_perVeh="0"/>
        <edge id=":1105984395_0" sampledSeconds="8.97" CO_abs="197.697580" CO2_abs="15911.565437" HC_abs="1.259615" PMx_abs="0.196054" NOx_abs="5.943350" fuel_abs="6.839792" electricity_abs="0"
            CO_normed="164.665650" CO2_normed="13253.011359" HC_normed="1.049154" PMx_normed="0.163297" NOx_normed="4.950317" fuel_normed="5.696979" electricity_normed="0"
            traveltime="0.09" CO_perVeh="2.004870" CO2_perVeh="161.360672" HC_perVeh="0.012774" PMx_perVeh="0.001988" NOx_perVeh="0.060272" fuel_perVeh="0.069363" electricity_perVeh="0"/>
        <edge id=":1105984398_0" sampledSeconds="23.12" CO_abs="1732.697938" CO2_abs="117121.874496" HC_abs="10.666457" PMx_abs="2.189179" NOx_abs="48.853173" fuel_abs="50.345422" electricity_abs="0"
            CO_normed="109.821165" CO2_normed="7423.371616" HC_normed="0.676057" PMx_normed="0.138754" NOx_normed="3.096392" fuel_normed="3.190973" electricity_normed="0"
            traveltime="1.09" CO_perVeh="82.051807" CO2_perVeh="5546.299351" HC_perVeh="0.505109" PMx_perVeh="0.103668" NOx_perVeh="2.313439" fuel_perVeh="2.384104" electricity_perVeh="0"/>
        <edge id=":1105984398_1" sampledSeconds="451.10" CO_abs="7666.589505" CO2_abs="915928.466194" HC_abs="55.772646" PMx_abs="13.044011" NOx_abs="345.527191" fuel_abs="393.718600" electricity_abs="0"
            CO_normed="470.358785" CO2_normed="56193.826552" HC_normed="3.421750" PMx_normed="0.800273" NOx_normed="21.198702" fuel_normed="24.155330" electricity_normed="0"
            traveltime="0.95" CO_perVeh="16.206021" CO2_perVeh="1936.135490" HC_perVeh="0.117895" PMx_perVeh="0.027573" NOx_perVeh="0.730393" fuel_perVeh="0.832262" electricity_perVeh="0"/>
        <edge id=":1106006327_0" sampledSeconds="524.15" CO_abs="70486.146346" CO2_abs="2294776.373503" HC_abs="374.966951" PMx_abs="47.833477" NOx_abs="1004.304270" fuel_abs="986.443204" electricity_abs="0"
            CO_normed="6096.204591" CO2_normed="198470.578821" HC_normed="32.430135" PMx_normed="4.137021" NOx_normed="86.860250" fuel_normed="85.315483" electricity_normed="0"
            traveltime="2.08" CO_perVeh="279.792144" CO2_perVeh="9109.029708" HC_perVeh="1.488417" PMx_perVeh="0.189873" NOx_perVeh="3.986549" fuel_perVeh="3.915650" electricity_perVeh="0"/>
        <edge id=":1106006327_1" sampledSeconds="164.69" CO_abs="22220.791485" CO2_abs="731865.250059" HC_abs="118.417087" PMx_abs="15.259718" NOx_abs="320.243556" fuel_abs="314.602768" electricity_abs="0"
            CO_normed="1675.927798" CO2_normed="55198.453107" HC_normed="8.931207" PMx_normed="1.150912" NOx_normed="24.153284" fuel_normed="23.727846" electricity_normed="0"
            traveltime="2.34" CO_perVeh="315.452774" CO2_perVeh="10389.770485" HC_perVeh="1.681083" PMx_perVeh="0.216631" NOx_perVeh="4.546270" fuel_perVeh="4.466192" electricity_perVeh="0"/>
        <edge id=":1106006327_2" sampledSeconds="0.00" CO_abs="0" CO2_abs="0" HC_abs="0" PMx_abs="0" NOx_abs="0" fuel_abs="0" electricity_abs="0"
            CO_normed="0" CO2_normed="0" HC_normed="0" PMx_normed="0" NOx_normed="0" fuel_normed="0" electricity_normed="0"/>
        <edge id=":1106006327_3" sampledSeconds="0.00" CO_abs="0" CO2_abs="0" HC_abs="0" PMx_abs="0" NOx_abs="0" fuel_abs="0" electricity_abs="0"
            CO_normed="0" CO2_normed="0" HC_normed="0" PMx_normed="0" NOx_normed="0" fuel_normed="0" electricity_normed="0"/>
        <edge id=":1107381198_0" sampledSeconds="0.00" CO_abs="0" CO2_abs="0" HC_abs="0" PMx_abs="0" NOx_abs="0" fuel_abs="0" electricity_abs="0"
            CO_normed="0" CO2_normed="0" HC_normed="0" PMx_normed="0" NOx_normed="0" fuel_normed="0" electricity_normed="0"/>
        <edge id=":1107381198_1" sampledSeconds="36.33" CO_abs="1120.917558" CO2_abs="47460.702534" HC_abs="6.204899" PMx_abs="0.850256" NOx_abs="19.851683" fuel_abs="20.401604" electricity_abs="0"
            CO_normed="93.668556" CO2_normed="3966.014660" HC_normed="0.518507" PMx_normed="0.071051" NOx_normed="1.658890" fuel_normed="1.704843" electricity_normed="0"
            traveltime="1.50" CO_perVeh="46.151284" CO2_perVeh="1954.088731" HC_perVeh="0.255473" PMx_perVeh="0.035007" NOx_perVeh="0.817349" fuel_perVeh="0.839991" electricity_perVeh="0"/>
        <edge id=":1110338277_0" sampledSeconds="96.57" CO_abs="1505.660268" CO2_abs="188745.899108" HC_abs="11.172692" PMx_abs="2.549293" NOx_abs="70.282927" fuel_abs="81.133974" electricity_abs="0"
            CO_normed="4120.580920" CO2_normed="516545.974571" HC_normed="30.576606" PMx_normed="6.976719" NOx_normed="192.345175" fuel_normed="222.041528" electricity_normed="0"
            traveltime="0.02" CO_perVeh="0.340186" CO2_perVeh="42.644893" HC_perVeh="0.002524" PMx_perVeh="0.000576" NOx_perVeh="0.015880" fuel_perVeh="0.018331" electricity_perVeh="0"/>
        <edge id=":1110338293_0" sampledSeconds="124.13" CO_abs="6114.818972" CO2_abs="421226.275125" HC_abs="37.755381" PMx_abs="7.457650" NOx_abs="172.872005" fuel_abs="181.066766" electricity_abs="0"
            CO_normed="15618.950121" CO2_normed="1075929.182951" HC_normed="96.437754" PMx_normed="19.048915" NOx_normed="441.563230" fuel_normed="462.494932" electricity_normed="0"
            traveltime="0.03" CO_perVeh="1.402541" CO2_perVeh="96.615656" HC_perVeh="0.008660" PMx_perVeh="0.001711" NOx_perVeh="0.039651" fuel_perVeh="0.041531" electricity_perVeh="0"/>
        <edge id=":1110338295_0" sampledSeconds="0.00" CO_abs="0" CO2_abs="0" HC_abs="0" PMx_abs="0" NOx_abs="0" fuel_abs="0" electricity_abs="0"
            CO_normed="0" CO2_normed="0" HC_normed="0" PMx_normed="0" NOx_normed="0" fuel_normed="0" electricity_normed="0"/>
        <edge id=":1110673403_0" sampledSeconds="143.26" CO_abs="2289.164251" CO2_abs="280388.922836" HC_abs="16.852971" PMx_abs="3.853763" NOx_abs="104.945912" fuel_abs="120.527413" electricity_abs="0"
            CO_normed="5847.162839" CO2_normed="716191.373783" HC_normed="43.047179" PMx_normed="9.843585" NOx_normed="268.061079" fuel_normed="307.860571" electricity_normed="0"
            traveltime="0.02" CO_perVeh="0.367540" CO2_perVeh="45.018291" HC_perVeh="0.002706" PMx_perVeh="0.000619" NOx_perVeh="0.016850" fuel_perVeh="0.019351" electricity_perVeh="0"/>
        <edge id=":1110673412_0" sampledSeconds="253.98" CO_abs="44478.596460" CO2_abs="3044494.976389" HC_abs="277.022732" PMx_abs="66.776686" NOx_abs="1307.524057" fuel_abs="1308.678517" electricity_abs="0"
            CO_normed="117528.329925" CO2_normed="8044642.558828" HC_normed="731.992951" PMx_normed="176.447841" NOx_normed="3454.945321" fuel_normed="3457.995818" electricity_normed="0"
            traveltime="0.02" CO_perVeh="2.731360" CO2_perVeh="186.957603" HC_perVeh="0.017012" PMx_perVeh="0.004101" NOx_perVeh="0.080293" fuel_perVeh="0.080364" electricity_perVeh="0"/>
        <edge id=":1110673414_0" sampledSeconds="0.00" CO_abs="0" CO2_abs="0" HC_abs="0" PMx_abs="0" NOx_abs="0" fuel_abs="0" electricity_abs="0"
            CO_normed="0" CO2_normed="0" HC_normed="0" PMx_normed="0" NOx_normed="0" fuel_normed="0" electricity_normed="0"/>
        <edge id=":1110673414_1" sampledSeconds="132.80" CO_abs="9150.915400" CO2_abs="346253.549838" HC_abs="49.695801" PMx_abs="6.348813" NOx_abs="145.917600" fuel_abs="148.842213" electricity_abs="0"
            CO_normed="776.544375" CO2_normed="29382.989001" HC_normed="4.217173" PMx_normed="0.538759" NOx_normed="12.382531" fuel_normed="12.630713" electricity_normed="0"
            traveltime="1.58" CO_perVeh="109.028587" CO2_perVeh="4125.438125" HC_perVeh="0.592101" PMx_perVeh="0.075643" NOx_perVeh="1.738535" fuel_perVeh="1.773381" electricity_perVeh="0"/>
        <edge id=":1110673417_0" sampledSeconds="30.02" CO_abs="569.659037" CO2_abs="62350.118916" HC_abs="4.033629" PMx_abs="0.872897" NOx_abs="23.564775" fuel_abs="26.801712" electricity_abs="0"
            CO_normed="1559.001195" CO2_normed="170635.246076" HC_normed="11.038940" PMx_normed="2.388881" NOx_normed="64.490354" fuel_normed="73.348966" electricity_normed="0"
            traveltime="0.02" CO_perVeh="0.422809" CO2_perVeh="46.277093" HC_perVeh="0.002994" PMx_perVeh="0.000648" NOx_perVeh="0.017490" fuel_perVeh="0.019893" electricity_perVeh="0"/>
        <edge id=":1110673446_0" sampledSeconds="334.79" CO_abs="3425.753583" CO2_abs="270051.836024" HC_abs="22.007556" PMx_abs="5.014944" NOx_abs="111.001496" fuel_abs="116.082836" electricity_abs="0"
            CO_normed="8750.328436" CO2_normed="689787.576052" HC_normed="56.213425" PMx_normed="12.809563" NOx_normed="283.528726" fuel_normed="296.507882" electricity_normed="0"
            traveltime="0.02" CO_perVeh="0.233651" CO2_perVeh="18.418695" HC_perVeh="0.001501" PMx_perVeh="0.000342" NOx_perVeh="0.007571" fuel_perVeh="0.007917" electricity_perVeh="0"/>
        <edge id=":1110673451_0" sampledSeconds="37.78" CO_abs="281.148370" CO2_abs="21426.353750" HC_abs="1.765849" PMx_abs="0.276515" NOx_abs="8.102652" fuel_abs="9.210387" electricity_abs="0"
            CO_normed="797.923569" CO2_normed="60809.858806" HC_normed="5.011632" PMx_normed="0.784774" NOx_normed="22.996031" fuel_normed="26.139882" electricity_normed="0"
            traveltime="0.03" CO_perVeh="0.201620" CO2_perVeh="15.365513" HC_perVeh="0.001266" PMx_perVeh="0.000198" NOx_perVeh="0.005811" fuel_perVeh="0.006605" electricity_perVeh="0"/>
        <edge id=":1110673464_0" sampledSeconds="324.93" CO_abs="577.748988" CO2_abs="45005.946476" HC_abs="3.643910" PMx_abs="0.540846" NOx_abs="16.737023" fuel_abs="19.346424" electricity_abs="0"
            CO_normed="31.354074" CO2_normed="2442.444427" HC_normed="0.197753" PMx_normed="0.029351" NOx_normed="0.908308" fuel_normed="1.049918" electricity_normed="0"
            traveltime="1.17" CO_perVeh="2.088486" CO2_perVeh="162.690559" HC_perVeh="0.013172" PMx_perVeh="0.001955" NOx_perVeh="0.060502" fuel_perVeh="0.069935" electricity_perVeh="0"/>
        <edge id=":1110673464_1" sampledSeconds="709.79" CO_abs="16183.411638" CO2_abs="2031317.908554" HC_abs="122.340997" PMx_abs="36.236193" NOx_abs="764.864597" fuel_abs="873.170213" electricity_abs="0"
            CO_normed="860.588599" CO2_normed="108019.808964" HC_normed="6.505752" PMx_normed="1.926939" NOx_normed="40.673362" fuel_normed="46.432751" electricity_normed="0"
            traveltime="0.70" CO_perVeh="15.981194" CO2_perVeh="2005.935827" HC_perVeh="0.120812" PMx_perVeh="0.035783" NOx_perVeh="0.755307" fuel_perVeh="0.862260" electricity_perVeh="0"/>
        <edge id=":1110673479_0" sampledSeconds="133.75" CO_abs="6424.838416" CO2_abs="447569.864883" HC_abs="39.766310" PMx_abs="7.799282" NOx_abs="182.794983" fuel_abs="192.390861" electricity_abs="0"
            CO_normed="16410.826094" CO2_normed="1143218.045677" HC_normed="101.574227" PMx_normed="19.921537" NOx_normed="466.909280" fuel_normed="491.419823" electricity_normed="0"
            traveltime="0.03" CO_perVeh="1.353452" CO2_perVeh="94.284783" HC_perVeh="0.008377" PMx_perVeh="0.001643" NOx_perVeh="0.038507" fuel_perVeh="0.040529" electricity_perVeh="0"/>
        <edge id=":1110673511_0" sampledSeconds="11.78" CO_abs="171.603279" CO2_abs="24017.236071" HC_abs="1.330386" PMx_abs="0.311173" NOx_abs="8.821672" fuel_abs="10.324013" electricity_abs="0"
            CO_normed="438.322552" CO2_normed="61346.707717" HC_normed="3.398177" PMx_normed="0.794823" NOx_normed="22.533006" fuel_normed="26.370404" electricity_normed="0"
            traveltime="0.02" CO_perVeh="0.339808" CO2_perVeh="47.558883" HC_perVeh="0.002634" PMx_perVeh="0.000616" NOx_perVeh="0.017469" fuel_perVeh="0.020444" electricity_perVeh="0"/>
        <edge id=":1110673517_0" sampledSeconds="17.42" CO_abs="545.822458" CO2_abs="43616.645069" HC_abs="3.499474" PMx_abs="0.685447" NOx_abs="17.218545" fuel_abs="18.748960" electricity_abs="0"
            CO_normed="1394.182524" CO2_normed="111409.055094" HC_normed="8.938631" PMx_normed="1.750822" NOx_normed="43.980957" fuel_normed="47.890064" electricity_normed="0"
            traveltime="0.03" CO_perVeh="0.876354" CO2_perVeh="70.029401" HC_perVeh="0.005619" PMx_perVeh="0.001101" NOx_perVeh="0.027646" fuel_perVeh="0.030103" electricity_perVeh="0"/>
        <edge id=":1110673534_0" sampledSeconds="475.20" CO_abs="2719.372002" CO2_abs="248938.394464" HC_abs="18.042380" PMx_abs="3.179301" NOx_abs="93.177250" fuel_abs="107.008956" electricity_abs="0"
            CO_normed="134.613047" CO2_normed="12322.828837" HC_normed="0.893125" PMx_normed="0.157380" NOx_normed="4.612415" fuel_normed="5.297106" electricity_normed="0"
            traveltime="1.43" CO_perVeh="8.192378" CO2_perVeh="749.951609" HC_perVeh="0.054354" PMx_perVeh="0.009578" NOx_perVeh="0.280706" fuel_perVeh="0.322375" electricity_perVeh="0"/>
        <edge id=":1110673534_1" sampledSeconds="184.35" CO_abs="3163.349193" CO2_abs="390899.109607" HC_abs="23.419608" PMx_abs="5.436652" NOx_abs="146.502921" fuel_abs="168.031006" electricity_abs="0"
            CO_normed="152.262712" CO2_normed="18815.298216" HC_normed="1.127265" PMx_normed="0.261684" NOx_normed="7.051682" fuel_normed="8.087901" electricity_normed="0"
            traveltime="1.22" CO_perVeh="21.003503" CO2_perVeh="2595.429752" HC_perVeh="0.155498" PMx_perVeh="0.036097" NOx_perVeh="0.972727" fuel_perVeh="1.115666" electricity_perVeh="0"/>
        <edge id=":1110673549_0" sampledSeconds="60.29" CO_abs="114.925107" CO2_abs="9723.391412" HC_abs="0.746692" PMx_abs="0.135446" NOx_abs="3.696030" fuel_abs="4.179701" electricity_abs="0"
            CO_normed="5.510965" CO2_normed="466.262493" HC_normed="0.035806" PMx_normed="0.006495" NOx_normed="0.177234" fuel_normed="0.200428" electricity_normed="0"
            traveltime="1.26" CO_perVeh="2.394367" CO2_perVeh="202.578578" HC_perVeh="0.015557" PMx_perVeh="0.002822" NOx_perVeh="0.077004" fuel_perVeh="0.087081" electricity_perVeh="0"/>
        <edge id=":1110673549_1" sampledSeconds="639.07" CO_abs="13694.199844" CO2_abs="1829273.664916" HC_abs="105.692557" PMx_abs="31.961690" NOx_abs="681.749453" fuel_abs="786.321154" electricity_abs="0"
            CO_normed="635.208216" CO2_normed="84851.227117" HC_normed="4.902571" PMx_normed="1.482549" NOx_normed="31.623086" fuel_normed="36.473665" electricity_normed="0"
            traveltime="0.80" CO_perVeh="17.238778" CO2_perVeh="2302.759016" HC_perVeh="0.133050" PMx_perVeh="0.040235" NOx_perVeh="0.858212" fuel_perVeh="0.989851" electricity_perVeh="0"/>
        <edge id=":1110673556_0" sampledSeconds="411.52" CO_abs="51030.533672" CO2_abs="2583296.176768" HC_abs="293.841121" PMx_abs="52.302107" NOx_abs="1113.525626" fuel_abs="1110.446530" electricity_abs="0"
            CO_normed="1814.564140" CO2_normed="91857.879360" HC_normed="10.448520" PMx_normed="1.859779" NOx_normed="39.595190" fuel_normed="39.485702" electricity_normed="0"
            traveltime="2.55" CO_perVeh="316.772670" CO2_perVeh="16035.843015" HC_perVeh="1.824022" PMx_perVeh="0.324666" NOx_perVeh="6.912224" fuel_perVeh="6.893111" electricity_perVeh="0"/>
        <edge id=":1110673556_2" sampledSeconds="248.03" CO_abs="23757.336750" CO2_abs="1024898.761953" HC_abs="132.272784" PMx_abs="19.911021" NOx_abs="438.075155" fuel_abs="440.563454" electricity_abs="0"
            CO_normed="883.302074" CO2_normed="38105.921202" HC_normed="4.917926" PMx_normed="0.740295" NOx_normed="16.287713" fuel_normed="16.380229" electricity_normed="0"
            traveltime="3.01" CO_perVeh="288.172285" CO2_perVeh="12431.840367" HC_perVeh="1.604445" PMx_perVeh="0.241517" NOx_perVeh="5.313774" fuel_perVeh="5.343957" electricity_perVeh="0"/>
        <edge id=":1110673556_3" sampledSeconds="413.60" CO_abs="35534.689150" CO2_abs="1284706.532990" HC_abs="191.746589" PMx_abs="24.636371" NOx_abs="548.622941" fuel_abs="552.249794" electricity_abs="0"
            CO_normed="3005.479786" CO2_normed="108658.879754" HC_normed="16.217688" PMx_normed="2.083714" NOx_normed="46.401846" fuel_normed="46.708600" electricity_normed="0"
            traveltime="1.72" CO_perVeh="147.546854" CO2_perVeh="5334.348247" HC_perVeh="0.796169" PMx_perVeh="0.102295" NOx_perVeh="2.277988" fuel_perVeh="2.293047" electricity_perVeh="0"/>
        <edge id=":1110673556_4" sampledSeconds="191.29" CO_abs="19676.459381" CO2_abs="798969.972513" HC_abs="108.354716" PMx_abs="15.610769" NOx_abs="342.500791" fuel_abs="343.446410" electricity_abs="0"
            CO_normed="1016.705776" CO2_normed="41283.717251" HC_normed="5.598815" PMx_normed="0.806627" NOx_normed="17.697418" fuel_normed="17.746280" electricity_normed="0"
            traveltime="2.38" CO_perVeh="244.312440" CO2_perVeh="9920.397773" HC_perVeh="1.345385" PMx_perVeh="0.193831" NOx_perVeh="4.252656" fuel_perVeh="4.264397" electricity_perVeh="0"/>
        <edge id=":1110673556_5" sampledSeconds="23.53" CO_abs="1451.022903" CO2_abs="61475.703984" HC_abs="8.033912" PMx_abs="1.103558" NOx_abs="25.704457" fuel_abs="26.426134" electricity_abs="0"
            CO_normed="104.501405" CO2_normed="4427.426611" HC_normed="0.578595" PMx_normed="0.079477" NOx_normed="1.851213" fuel_normed="1.903187" electricity_normed="0"
            traveltime="1.63" CO_perVeh="100.317633" CO2_perVeh="4250.172127" HC_perVeh="0.555431" PMx_perVeh="0.076295" NOx_perVeh="1.777098" fuel_perVeh="1.826992" electricity_perVeh="0"/>
        <edge id=":1110673556_6" sampledSeconds="314.68" CO_abs="37302.599160" CO2_abs="1884833.491835" HC_abs="214.660495" PMx_abs="37.896990" NOx_abs="810.512951" fuel_abs="810.208325" electricity_abs="0"
            CO_normed="1359.865232" CO2_normed="68711.553377" HC_normed="7.825442" PMx_normed="1.381534" NOx_normed="29.547227" fuel_normed="29.536122" electricity_normed="0"
            traveltime="2.49" CO_perVeh="295.406578" CO2_perVeh="14926.365043" HC_perVeh="1.699938" PMx_perVeh="0.300114" NOx_perVeh="6.418611" fuel_perVeh="6.416198" electricity_perVeh="0"/>
        <edge id=":1110673561_0" sampledSeconds="99.58" CO_abs="10485.702633" CO2_abs="741803.430715" HC_abs="65.631277" PMx_abs="15.193710" NOx_abs="314.997890" fuel_abs="318.865767" electricity_abs="0"
            CO_normed="480.276221" CO2_normed="33976.793047" HC_normed="3.006107" PMx_normed="0.695917" NOx_normed="14.427836" fuel_normed="14.604996" electricity_normed="0"
            traveltime="1.18" CO_perVeh="123.741468" CO2_perVeh="8754.000477" HC_perVeh="0.774513" PMx_perVeh="0.179301" NOx_perVeh="3.717281" fuel_perVeh="3.762926" electricity_perVeh="0"/>
        <edge id=":1110673561_1" sampledSeconds="1316.40" CO_abs="122753.911621" CO2_abs="8481150.672244" HC_abs="764.172828" PMx_abs="177.491621" NOx_abs="3627.994008" fuel_abs="3645.636962" electricity_abs="0"
            CO_normed="5481.602570" CO2_normed="378727.624264" HC_normed="34.124304" PMx_normed="7.925927" NOx_normed="162.008860" fuel_normed="162.796710" electricity_normed="0"
            traveltime="1.19" CO_perVeh="111.374686" CO2_perVeh="7694.952294" HC_perVeh="0.693334" PMx_perVeh="0.161038" NOx_perVeh="3.291681" fuel_perVeh="3.307688" electricity_perVeh="0"/>
        <edge id=":1110673562_0" sampledSeconds="104.62" CO_abs="1961.221519" CO2_abs="152745.526557" HC_abs="12.404109" PMx_abs="2.019072" NOx_abs="58.000050" fuel_abs="65.659481" electricity_abs="0"
            CO_normed="5566.117551" CO2_normed="433505.112975" HC_normed="35.203942" PMx_normed="5.730304" NOx_normed="164.609195" fuel_normed="186.347328" electricity_normed="0"
            traveltime="0.03" CO_perVeh="0.499929" CO2_perVeh="38.935910" HC_perVeh="0.003162" PMx_perVeh="0.000515" NOx_perVeh="0.014785" fuel_perVeh="0.016737" electricity_perVeh="0"/>
        <edge id=":1110673564_0" sampledSeconds="28.63" CO_abs="473.280310" CO2_abs="57523.410568" HC_abs="3.475038" PMx_abs="0.765169" NOx_abs="21.393259" fuel_abs="24.726937" electricity_abs="0"
            CO_normed="3626.669041" CO2_normed="440792.418144" HC_normed="26.628642" PMx_normed="5.863368" NOx_normed="163.933016" fuel_normed="189.478444" electricity_normed="0"
            traveltime="7.870839e-03" CO_perVeh="0.130115" CO2_perVeh="15.814405" HC_perVeh="0.000955" PMx_perVeh="0.000210" NOx_perVeh="0.005881" fuel_perVeh="0.006798" electricity_perVeh="0"/>
        <edge id=":1110673588_0" sampledSeconds="11.68" CO_abs="123.991719" CO2_abs="17285.279493" HC_abs="0.962163" PMx_abs="0.222611" NOx_abs="6.352932" fuel_abs="7.430226" electricity_abs="0"
            CO_normed="380.051246" CO2_normed="52981.699597" HC_normed="2.949160" PMx_normed="0.682334" NOx_normed="19.472588" fuel_normed="22.774639" electricity_normed="0"
            traveltime="0.02" CO_perVeh="0.206653" CO2_perVeh="28.808799" HC_perVeh="0.001604" PMx_perVeh="0.000371" NOx_perVeh="0.010588" fuel_perVeh="0.012384" electricity_perVeh="0"/>
        <edge id=":1110673601_0" sampledSeconds="30.05" CO_abs="330.217405" CO2_abs="44223.566612" HC_abs="2.509529" PMx_abs="0.548697" NOx_abs="16.154961" fuel_abs="19.009919" electricity_abs="0"
            CO_normed="903.714845" CO2_normed="121027.823240" HC_normed="6.867897" PMx_normed="1.501633" NOx_normed="44.211715" fuel_normed="52.024955" electricity_normed="0"
            traveltime="0.02" CO_perVeh="0.245092" CO2_perVeh="32.823323" HC_perVeh="0.001863" PMx_perVeh="0.000407" NOx_perVeh="0.011990" fuel_perVeh="0.014109" electricity_perVeh="0"/>
        <edge id=":1110673617_0" sampledSeconds="238.46" CO_abs="5997.953215" CO2_abs="744498.173792" HC_abs="45.132432" PMx_abs="13.322361" NOx_abs="280.797905" fuel_abs="320.025519" electricity_abs="0"
            CO_normed="15320.442440" CO2_normed="1901655.616327" HC_normed="115.280797" PMx_normed="34.029020" NOx_normed="717.236028" fuel_normed="817.434277" electricity_normed="0"
            traveltime="0.01" CO_perVeh="0.367334" CO2_perVeh="45.595479" HC_perVeh="0.002764" PMx_perVeh="0.000816" NOx_perVeh="0.017197" fuel_perVeh="0.019599" electricity_perVeh="0"/>
        <edge id=":1110673621_0" sampledSeconds="25.66" CO_abs="540.377355" CO2_abs="56212.927491" HC_abs="3.756955" PMx_abs="0.847873" NOx_abs="21.640950" fuel_abs="24.163517" electricity_abs="0"
            CO_normed="1656.329056" CO2_normed="172300.160892" HC_normed="11.515571" PMx_normed="2.598846" NOx_normed="66.332413" fuel_normed="74.064420" electricity_normed="0"
            traveltime="0.02" CO_perVeh="0.409377" CO2_perVeh="42.585551" HC_perVeh="0.002846" PMx_perVeh="0.000642" NOx_perVeh="0.016395" fuel_perVeh="0.018306" electricity_perVeh="0"/>
        <edge id=":1110673630_0" sampledSeconds="54.36" CO_abs="193.552239" CO2_abs="17274.880434" HC_abs="1.274980" PMx_abs="0.225612" NOx_abs="6.512510" fuel_abs="7.425796" electricity_abs="0"
            CO_normed="10.578880" CO2_normed="944.183757" HC_normed="0.069686" PMx_normed="0.012331" NOx_normed="0.355951" fuel_normed="0.405868" electricity_normed="0"
            traveltime="1.27" CO_perVeh="4.517852" CO2_perVeh="403.226265" HC_perVeh="0.029760" PMx_perVeh="0.005266" NOx_perVeh="0.152014" fuel_perVeh="0.173331" electricity_perVeh="0"/>
        <edge id=":1110673630_1" sampledSeconds="7.48" CO_abs="9.357748" CO2_abs="753.797298" HC_abs="0.059392" PMx_abs="0.008041" NOx_abs="0.273797" fuel_abs="0.324031" electricity_abs="0"
            CO_normed="0.623538" CO2_normed="50.228039" HC_normed="0.003957" PMx_normed="0.000536" NOx_normed="0.018244" fuel_normed="0.021591" electricity_normed="0"
            traveltime="1.06" CO_perVeh="1.324481" CO2_perVeh="106.691310" HC_perVeh="0.008406" PMx_perVeh="0.001138" NOx_perVeh="0.038753" fuel_perVeh="0.045863" electricity_perVeh="0"/>
        <edge id=":1110673650_0" sampledSeconds="143.59" CO_abs="2041.520931" CO2_abs="257626.396607" HC_abs="15.165964" PMx_abs="3.505694" NOx_abs="96.030130" fuel_abs="110.742772" electricity_abs="0"
            CO_normed="5214.612850" CO2_normed="658049.544336" HC_normed="38.738095" PMx_normed="8.954518" NOx_normed="245.287689" fuel_normed="282.867872" electricity_normed="0"
            traveltime="0.02" CO_perVeh="0.327780" CO2_perVeh="41.363617" HC_perVeh="0.002435" PMx_perVeh="0.000563" NOx_perVeh="0.015418" fuel_perVeh="0.017780" electricity_perVeh="0"/>
        <edge id=":1110673655_0" sampledSeconds="44.78" CO_abs="956.218648" CO2_abs="96578.061185" HC_abs="6.599809" PMx_abs="1.443211" NOx_abs="37.186279" fuel_abs="41.514789" electricity_abs="0"
            CO_normed="2442.448655" CO2_normed="246687.257178" HC_normed="16.857750" PMx_normed="3.686362" NOx_normed="94.984109" fuel_normed="106.040330" electricity_normed="0"
            traveltime="0.02" CO_perVeh="0.511757" CO2_perVeh="51.687483" HC_perVeh="0.003532" PMx_perVeh="0.000772" NOx_perVeh="0.019902" fuel_perVeh="0.022218" electricity_perVeh="0"/>
        <edge id=":1110673663_0" sampledSeconds="109.61" CO_abs="1806.923638" CO2_abs="231100.423763" HC_abs="13.483404" PMx_abs="3.018233" NOx_abs="85.384709" fuel_abs="99.340539" electricity_abs="0"
            CO_normed="84.530880" CO2_normed="10811.260521" HC_normed="0.630776" PMx_normed="0.141198" NOx_normed="3.994438" fuel_normed="4.647315" electricity_normed="0"
            traveltime="1.29" CO_perVeh="21.223171" CO2_perVeh="2714.383500" HC_perVeh="0.158369" PMx_perVeh="0.035451" NOx_perVeh="1.002884" fuel_perVeh="1.166801" electricity_perVeh="0"/>
        <edge id=":1110673663_1" sampledSeconds="154.26" CO_abs="2948.785154" CO2_abs="333615.901865" HC_abs="21.150898" PMx_abs="4.872657" NOx_abs="126.923980" fuel_abs="143.407193" electricity_abs="0"
            CO_normed="138.117695" CO2_normed="15626.183939" HC_normed="0.990684" PMx_normed="0.228230" NOx_normed="5.944973" fuel_normed="6.717027" electricity_normed="0"
            traveltime="1.25" CO_perVeh="23.887734" CO2_perVeh="2702.580077" HC_perVeh="0.171341" PMx_perVeh="0.039473" NOx_perVeh="1.028195" fuel_perVeh="1.161723" electricity_perVeh="0"/>
        <edge id=":1110673666_0" sampledSeconds="192.64" CO_abs="4199.976858" CO2_abs="329632.646195" HC_abs="26.653591" PMx_abs="4.520866" NOx_abs="126.142332" fuel_abs="141.696243" electricity_abs="0"