<?xml version="1.0" encoding="UTF-8"?>

<!-- generated on Mon Nov  9 23:37:54 2020 by Eclipse SUMO sumo Version 1.7.0
<configuration xmlns:xsi="http://www.w3.org/2001/XMLSchema-instance" xsi:noNamespaceSchemaLocation="http://sumo.dlr.de/xsd/sumoConfiguration.xsd">

    <input>
        <net-file value="../dataSets/Porto/6AM7AM_Routing_SaoBento/Porto.net.xml"/>
        <route-files value="../results/Porto/6AM7AM_Routing_SaoBento/cost_PMx-length/solution11/Porto.rou.xml"/>
        <additional-files value="moreOutputInfo.xml"/>
    </input>

    <output>
        <emission-output.precision value="6"/>
        <tripinfo-output value="../results/Porto/6AM7AM_Routing_SaoBento/cost_PMx-length/solution11/Porto-tripinfo"/>
    </output>

    <processing>
        <collision.action value="warn"/>
        <time-to-teleport value="-1"/>
    </processing>

    <emissions>
        <device.emissions.probability value="1"/>
    </emissions>

    <gui_only>
        <quit-on-end value="true"/>
        <start value="true"/>
    </gui_only>

</configuration>
-->

<meandata xmlns:xsi="http://www.w3.org/2001/XMLSchema-instance" xsi:noNamespaceSchemaLocation="http://sumo.dlr.de/xsd/meandata_file.xsd">
    <interval begin="0.00" end="4788.00" id="emissions-detector">
        <edge id=":1092997347_0" sampledSeconds="303.76" CO_abs="38729.569959" CO2_abs="1525034.450241" HC_abs="212.384181" PMx_abs="31.125956" NOx_abs="662.051477" fuel_abs="655.552559" electricity_abs="0"
            CO_normed="66181.766847" CO2_normed="2606005.554068" HC_normed="362.925805" PMx_normed="53.188578" NOx_normed="1131.325148" fuel_normed="1120.219684" electricity_normed="0"
            traveltime="0.08" CO_perVeh="9.621318" CO2_perVeh="378.853705" HC_perVeh="0.052761" PMx_perVeh="0.007732" NOx_perVeh="0.164469" fuel_perVeh="0.162854" electricity_perVeh="0"/>
        <edge id=":1103427051_0" sampledSeconds="11.20" CO_abs="861.013162" CO2_abs="48196.477844" HC_abs="5.061473" PMx_abs="0.929392" NOx_abs="20.468087" fuel_abs="20.717561" electricity_abs="0"
            CO_normed="2232.339026" CO2_normed="124958.459538" HC_normed="13.122824" PMx_normed="2.409623" NOx_normed="53.067376" fuel_normed="53.714184" electricity_normed="0"
            traveltime="0.03" CO_perVeh="2.359163" CO2_perVeh="132.057621" HC_perVeh="0.013868" PMx_perVeh="0.002547" NOx_perVeh="0.056082" fuel_perVeh="0.056766" electricity_perVeh="0"/>
        <edge id=":1105984386_0" sampledSeconds="22.88" CO_abs="593.203675" CO2_abs="46618.067507" HC_abs="3.755182" PMx_abs="0.584552" NOx_abs="17.510033" fuel_abs="20.039373" electricity_abs="0"
            CO_normed="45.933862" CO2_normed="3609.802119" HC_normed="0.290777" PMx_normed="0.045264" NOx_normed="1.355864" fuel_normed="1.551720" electricity_normed="0"
            traveltime="0.96" CO_perVeh="24.896299" CO2_perVeh="1956.524185" HC_perVeh="0.157602" PMx_perVeh="0.024533" NOx_perVeh="0.734883" fuel_perVeh="0.841037" electricity_perVeh="0"/>
        <edge id=":1105984390_0" sampledSeconds="23.52" CO_abs="18.270841" CO2_abs="1360.984867" HC_abs="0.113959" PMx_abs="0.017277" NOx_abs="0.513931" fuel_abs="0.585037" electricity_abs="0"
            CO_normed="1.093748" CO2_normed="81.472683" HC_normed="0.006822" PMx_normed="0.001034" NOx_normed="0.030765" fuel_normed="0.035022" electricity_normed="0"
            traveltime="1.07" CO_perVeh="0.828574" CO2_perVeh="61.719995" HC_perVeh="0.005168" PMx_perVeh="0.000784" NOx_perVeh="0.023307" fuel_perVeh="0.026531" electricity_perVeh="0"/>
        <edge id=":1105984390_1" sampledSeconds="647.09" CO_abs="13514.723020" CO2_abs="1769509.643219" HC_abs="103.881785" PMx_abs="31.193096" NOx_abs="661.792417" fuel_abs="760.631157" electricity_abs="0"
            CO_normed="773.910577" CO2_normed="101329.655625" HC_normed="5.948713" PMx_normed="1.786249" NOx_normed="37.897051" fuel_normed="43.556978" electricity_normed="0"
            traveltime="0.64" CO_perVeh="13.310032" CO2_perVeh="1742.709062" HC_perVeh="0.102308" PMx_perVeh="0.030721" NOx_perVeh="0.651769" fuel_perVeh="0.749111" electricity_perVeh="0"/>
        <edge id=":1105984395_0" sampledSeconds="8.98" CO_abs="183.566341" CO2_abs="14408.305775" HC_abs="1.165500" PMx_abs="0.200469" NOx_abs="5.536701" fuel_abs="6.193565" electricity_abs="0"
            CO_normed="150.021527" CO2_normed="11775.339797" HC_normed="0.952517" PMx_normed="0.163835" NOx_normed="4.524927" fuel_normed="5.061756" electricity_normed="0"
            traveltime="0.09" CO_perVeh="1.861563" CO2_perVeh="146.115976" HC_perVeh="0.011819" PMx_perVeh="0.002033" NOx_perVeh="0.056148" fuel_perVeh="0.062810" electricity_perVeh="0"/>
        <edge id=":1105984398_0" sampledSeconds="23.41" CO_abs="1582.252438" CO2_abs="110068.338025" HC_abs="9.799327" PMx_abs="1.969173" NOx_abs="45.292268" fuel_abs="47.313525" electricity_abs="0"
            CO_normed="98.400619" CO2_normed="6845.173606" HC_normed="0.609422" PMx_normed="0.122463" NOx_normed="2.816736" fuel_normed="2.942438" electricity_normed="0"
            traveltime="1.11" CO_perVeh="74.904906" CO2_perVeh="5210.709941" HC_perVeh="0.463907" PMx_perVeh="0.093222" NOx_perVeh="2.144167" fuel_perVeh="2.239854" electricity_perVeh="0"/>
        <edge id=":1105984398_1" sampledSeconds="454.43" CO_abs="7830.361552" CO2_abs="906116.374471" HC_abs="56.378660" PMx_abs="13.187407" NOx_abs="343.946758" fuel_abs="389.500555" electricity_abs="0"
            CO_normed="471.376292" CO2_normed="54546.878072" HC_normed="3.393913" PMx_normed="0.793863" NOx_normed="20.705091" fuel_normed="23.447363" electricity_normed="0"
            traveltime="0.96" CO_perVeh="16.462869" CO2_perVeh="1905.055750" HC_perVeh="0.118533" PMx_perVeh="0.027726" NOx_perVeh="0.723128" fuel_perVeh="0.818902" electricity_perVeh="0"/>
        <edge id=":1106006327_0" sampledSeconds="38.03" CO_abs="5221.375592" CO2_abs="172324.589583" HC_abs="27.838301" PMx_abs="3.616635" NOx_abs="75.569283" fuel_abs="74.076148" electricity_abs="0"
            CO_normed="443.097778" CO2_normed="14623.855597" HC_normed="2.362421" PMx_normed="0.306916" NOx_normed="6.412981" fuel_normed="6.286270" electricity_normed="0"
            traveltime="2.06" CO_perVeh="283.256109" CO2_perVeh="9348.492920" HC_perVeh="1.510209" PMx_perVeh="0.196200" NOx_perVeh="4.099583" fuel_perVeh="4.018581" electricity_perVeh="0"/>
        <edge id=":1106006327_1" sampledSeconds="161.48" CO_abs="21745.087756" CO2_abs="725406.596505" HC_abs="116.103045" PMx_abs="15.104301" NOx_abs="317.308533" fuel_abs="311.826213" electricity_abs="0"
            CO_normed="1609.221461" CO2_normed="53682.922600" HC_normed="8.592079" PMx_normed="1.117777" NOx_normed="23.482071" fuel_normed="23.076358" electricity_normed="0"
            traveltime="2.29" CO_perVeh="308.699547" CO2_perVeh="10298.081573" HC_perVeh="1.648232" PMx_perVeh="0.214425" NOx_perVeh="4.504604" fuel_perVeh="4.426775" electricity_perVeh="0"/>
        <edge id=":1106006327_2" sampledSeconds="0.00" CO_abs="0" CO2_abs="0" HC_abs="0" PMx_abs="0" NOx_abs="0" fuel_abs="0" electricity_abs="0"
            CO_normed="0" CO2_normed="0" HC_normed="0" PMx_normed="0" NOx_normed="0" fuel_normed="0" electricity_normed="0"/>
        <edge id=":1106006327_3" sampledSeconds="0.00" CO_abs="0" CO2_abs="0" HC_abs="0" PMx_abs="0" NOx_abs="0" fuel_abs="0" electricity_abs="0"
            CO_normed="0" CO2_normed="0" HC_normed="0" PMx_normed="0" NOx_normed="0" fuel_normed="0" electricity_normed="0"/>
        <edge id=":1107381198_0" sampledSeconds="0.00" CO_abs="0" CO2_abs="0" HC_abs="0" PMx_abs="0" NOx_abs="0" fuel_abs="0" electricity_abs="0"
            CO_normed="0" CO2_normed="0" HC_normed="0" PMx_normed="0" NOx_normed="0" fuel_normed="0" electricity_normed="0"/>
        <edge id=":1107381198_1" sampledSeconds="34.87" CO_abs="1597.841690" CO2_abs="68855.623382" HC_abs="8.867045" PMx_abs="1.198163" NOx_abs="28.558959" fuel_abs="29.598522" electricity_abs="0"
            CO_normed="131.012511" CO2_normed="5645.708331" HC_normed="0.727039" PMx_normed="0.098241" NOx_normed="2.341647" fuel_normed="2.426884" electricity_normed="0"
            traveltime="1.44" CO_perVeh="65.787573" CO2_perVeh="2834.976950" HC_perVeh="0.365081" PMx_perVeh="0.049332" NOx_perVeh="1.175852" fuel_perVeh="1.218653" electricity_perVeh="0"/>
        <edge id=":1110338277_0" sampledSeconds="96.70" CO_abs="1428.797870" CO2_abs="178987.279297" HC_abs="10.594916" PMx_abs="2.420466" NOx_abs="66.706725" fuel_abs="76.939143" electricity_abs="0"
            CO_normed="3836.728975" CO2_normed="480631.791883" HC_normed="28.450366" PMx_normed="6.499639" NOx_normed="179.126544" fuel_normed="206.603498" electricity_normed="0"
            traveltime="0.02" CO_perVeh="0.322009" CO2_perVeh="40.338507" HC_perVeh="0.002388" PMx_perVeh="0.000546" NOx_perVeh="0.015034" fuel_perVeh="0.017340" electricity_perVeh="0"/>
        <edge id=":1110338293_0" sampledSeconds="124.81" CO_abs="5690.222100" CO2_abs="398003.957717" HC_abs="35.230975" PMx_abs="6.796892" NOx_abs="161.668646" fuel_abs="171.084819" electricity_abs="0"
            CO_normed="14261.208270" CO2_normed="997503.653425" HC_normed="88.298183" PMx_normed="17.034817" NOx_normed="405.184577" fuel_normed="428.784008" electricity_normed="0"
            traveltime="0.03" CO_perVeh="1.305147" CO2_perVeh="91.288801" HC_perVeh="0.008081" PMx_perVeh="0.001559" NOx_perVeh="0.037081" fuel_perVeh="0.039241" electricity_perVeh="0"/>
        <edge id=":1110338295_0" sampledSeconds="0.00" CO_abs="0" CO2_abs="0" HC_abs="0" PMx_abs="0" NOx_abs="0" fuel_abs="0" electricity_abs="0"
            CO_normed="0" CO2_normed="0" HC_normed="0" PMx_normed="0" NOx_normed="0" fuel_normed="0" electricity_normed="0"/>
        <edge id=":1110673403_0" sampledSeconds="143.69" CO_abs="2038.063702" CO2_abs="267780.916236" HC_abs="15.313072" PMx_abs="3.545293" NOx_abs="99.056686" fuel_abs="115.107855" electricity_abs="0"
            CO_normed="5107.929077" CO2_normed="671130.115880" HC_normed="38.378626" PMx_normed="8.885447" NOx_normed="248.262372" fuel_normed="288.490864" electricity_normed="0"
            traveltime="0.02" CO_perVeh="0.327226" CO2_perVeh="42.994215" HC_perVeh="0.002459" PMx_perVeh="0.000569" NOx_perVeh="0.015904" fuel_perVeh="0.018481" electricity_perVeh="0"/>
        <edge id=":1110673412_0" sampledSeconds="252.88" CO_abs="45150.575064" CO2_abs="3074180.048530" HC_abs="280.834528" PMx_abs="67.614104" NOx_abs="1321.902986" fuel_abs="1321.438544" electricity_abs="0"
            CO_normed="117061.382068" CO2_normed="7970391.621806" HC_normed="728.116484" PMx_normed="175.302319" NOx_normed="3427.282827" fuel_normed="3426.078673" electricity_normed="0"
            traveltime="0.02" CO_perVeh="2.781657" CO2_perVeh="189.395489" HC_perVeh="0.017302" PMx_perVeh="0.004166" NOx_perVeh="0.081440" fuel_perVeh="0.081412" electricity_perVeh="0"/>
        <edge id=":1110673414_0" sampledSeconds="0.00" CO_abs="0" CO2_abs="0" HC_abs="0" PMx_abs="0" NOx_abs="0" fuel_abs="0" electricity_abs="0"
            CO_normed="0" CO2_normed="0" HC_normed="0" PMx_normed="0" NOx_normed="0" fuel_normed="0" electricity_normed="0"/>
        <edge id=":1110673414_1" sampledSeconds="231.17" CO_abs="14991.383414" CO2_abs="570195.296677" HC_abs="81.491286" PMx_abs="10.491133" NOx_abs="240.526968" fuel_abs="245.106765" electricity_abs="0"
            CO_normed="1248.252143" CO2_normed="47477.106111" HC_normed="6.785343" PMx_normed="0.873540" NOx_normed="20.027391" fuel_normed="20.408727" electricity_normed="0"
            traveltime="1.59" CO_perVeh="103.408595" CO2_perVeh="3933.132327" HC_perVeh="0.562116" PMx_perVeh="0.072366" NOx_perVeh="1.659123" fuel_perVeh="1.690714" electricity_perVeh="0"/>
        <edge id=":1110673417_0" sampledSeconds="29.35" CO_abs="421.890099" CO2_abs="55847.207936" HC_abs="3.188325" PMx_abs="0.724548" NOx_abs="20.575016" fuel_abs="24.006408" electricity_abs="0"
            CO_normed="1132.895002" CO2_normed="149965.649668" HC_normed="8.561560" PMx_normed="1.945618" NOx_normed="55.249776" fuel_normed="64.464039" electricity_normed="0"
            traveltime="0.02" CO_perVeh="0.313132" CO2_perVeh="41.450545" HC_perVeh="0.002366" PMx_perVeh="0.000538" NOx_perVeh="0.015271" fuel_perVeh="0.017818" electricity_perVeh="0"/>
        <edge id=":1110673446_0" sampledSeconds="335.21" CO_abs="3068.629975" CO2_abs="249031.939532" HC_abs="19.886084" PMx_abs="4.578501" NOx_abs="101.870747" fuel_abs="107.047366" electricity_abs="0"
            CO_normed="7690.801942" CO2_normed="624140.199328" HC_normed="49.839808" PMx_normed="11.474939" NOx_normed="255.315155" fuel_normed="268.289137" electricity_normed="0"
            traveltime="0.02" CO_perVeh="0.209294" CO2_perVeh="16.985048" HC_perVeh="0.001356" PMx_perVeh="0.000312" NOx_perVeh="0.006948" fuel_perVeh="0.007301" electricity_perVeh="0"/>
        <edge id=":1110673451_0" sampledSeconds="36.94" CO_abs="382.425158" CO2_abs="28624.400553" HC_abs="2.400850" PMx_abs="0.426671" NOx_abs="11.204558" fuel_abs="12.304475" electricity_abs="0"
            CO_normed="1064.954490" CO2_normed="79711.502516" HC_normed="6.685742" PMx_normed="1.188166" NOx_normed="31.201777" fuel_normed="34.264760" electricity_normed="0"
            traveltime="0.03" CO_perVeh="0.274249" CO2_perVeh="20.527459" HC_perVeh="0.001722" PMx_perVeh="0.000306" NOx_perVeh="0.008035" fuel_perVeh="0.008824" electricity_perVeh="0"/>
        <edge id=":1110673464_0" sampledSeconds="324.21" CO_abs="622.624021" CO2_abs="48944.666715" HC_abs="3.949476" PMx_abs="0.651150" NOx_abs="18.592789" fuel_abs="21.039438" electricity_abs="0"
            CO_normed="33.154275" CO2_normed="2606.267797" HC_normed="0.210307" PMx_normed="0.034673" NOx_normed="0.990052" fuel_normed="1.120335" electricity_normed="0"
            traveltime="1.17" CO_perVeh="2.250704" CO2_perVeh="176.928513" HC_perVeh="0.014277" PMx_perVeh="0.002354" NOx_perVeh="0.067210" fuel_perVeh="0.076055" electricity_perVeh="0"/>
        <edge id=":1110673464_1" sampledSeconds="708.93" CO_abs="15706.987887" CO2_abs="2080339.393779" HC_abs="121.306173" PMx_abs="36.558828" NOx_abs="776.415690" fuel_abs="894.242744" electricity_abs="0"
            CO_normed="819.553458" CO2_normed="108547.186518" HC_normed="6.329469" PMx_normed="1.907553" NOx_normed="40.511533" fuel_normed="46.659470" electricity_normed="0"
            traveltime="0.70" CO_perVeh="15.505411" CO2_perVeh="2053.641129" HC_perVeh="0.119749" PMx_perVeh="0.036090" NOx_perVeh="0.766451" fuel_perVeh="0.882766" electricity_perVeh="0"/>
        <edge id=":1110673479_0" sampledSeconds="133.72" CO_abs="6767.428832" CO2_abs="465652.505536" HC_abs="41.765460" PMx_abs="8.208656" NOx_abs="190.864788" fuel_abs="200.163722" electricity_abs="0"
            CO_normed="16960.974516" CO2_normed="1167048.886054" HC_normed="104.675338" PMx_normed="20.573074" NOx_normed="478.357865" fuel_normed="501.663465" electricity_normed="0"
            traveltime="0.03" CO_perVeh="1.425629" CO2_perVeh="98.094519" HC_perVeh="0.008798" PMx_perVeh="0.001729" NOx_perVeh="0.040208" fuel_perVeh="0.042167" electricity_perVeh="0"/>
        <edge id=":1110673511_0" sampledSeconds="11.75" CO_abs="251.629933" CO2_abs="29261.306380" HC_abs="1.804608" PMx_abs="0.401468" NOx_abs="10.959893" fuel_abs="12.578214" electricity_abs="0"
            CO_normed="630.651462" CO2_normed="73336.607468" HC_normed="4.522827" PMx_normed="1.006185" NOx_normed="27.468403" fuel_normed="31.524347" electricity_normed="0"
            traveltime="0.02" CO_perVeh="0.498277" CO2_perVeh="57.943181" HC_perVeh="0.003573" PMx_perVeh="0.000795" NOx_perVeh="0.021703" fuel_perVeh="0.024907" electricity_perVeh="0"/>
        <edge id=":1110673517_0" sampledSeconds="17.10" CO_abs="741.513046" CO2_abs="55076.640959" HC_abs="4.668390" PMx_abs="0.938285" NOx_abs="22.281260" fuel_abs="23.675056" electricity_abs="0"
            CO_normed="1858.428687" CO2_normed="138036.694132" HC_normed="11.700225" PMx_normed="2.351591" NOx_normed="55.842756" fuel_normed="59.335980" electricity_normed="0"
            traveltime="0.03" CO_perVeh="1.190548" CO2_perVeh="88.429180" HC_perVeh="0.007495" PMx_perVeh="0.001506" NOx_perVeh="0.035774" fuel_perVeh="0.038012" electricity_perVeh="0"/>
        <edge id=":1110673534_0" sampledSeconds="474.40" CO_abs="2287.990796" CO2_abs="204446.134831" HC_abs="15.063135" PMx_abs="2.634751" NOx_abs="76.744893" fuel_abs="87.883462" electricity_abs="0"
            CO_normed="111.130092" CO2_normed="9930.161393" HC_normed="0.731632" PMx_normed="0.127973" NOx_normed="3.727579" fuel_normed="4.268591" electricity_normed="0"
            traveltime="1.43" CO_perVeh="6.892799" CO2_perVeh="615.914263" HC_perVeh="0.045379" PMx_perVeh="0.007937" NOx_perVeh="0.231202" fuel_perVeh="0.264758" electricity_perVeh="0"/>
        <edge id=":1110673534_1" sampledSeconds="184.70" CO_abs="2894.616470" CO2_abs="353306.401607" HC_abs="21.271105" PMx_abs="4.901314" NOx_abs="132.444648" fuel_abs="151.871517" electricity_abs="0"
            CO_normed="136.708754" CO2_normed="16686.175313" HC_normed="1.004605" PMx_normed="0.231482" NOx_normed="6.255179" fuel_normed="7.172683" electricity_normed="0"
            traveltime="1.23" CO_perVeh="19.219214" CO2_perVeh="2345.827667" HC_perVeh="0.141233" PMx_perVeh="0.032543" NOx_perVeh="0.879385" fuel_perVeh="1.008372" electricity_perVeh="0"/>
        <edge id=":1110673549_0" sampledSeconds="60.80" CO_abs="15.919397" CO2_abs="1021.018483" HC_abs="0.095807" PMx_abs="0.014718" NOx_abs="0.398983" fuel_abs="0.438897" electricity_abs="0"
            CO_normed="0.749028" CO2_normed="48.040242" HC_normed="0.004508" PMx_normed="0.000692" NOx_normed="0.018773" fuel_normed="0.020651" electricity_normed="0"
            traveltime="1.27" CO_perVeh="0.331667" CO2_perVeh="21.272050" HC_perVeh="0.001996" PMx_perVeh="0.000307" NOx_perVeh="0.008312" fuel_perVeh="0.009144" electricity_perVeh="0"/>
        <edge id=":1110673549_1" sampledSeconds="638.73" CO_abs="13684.883311" CO2_abs="1849977.263524" HC_abs="106.450507" PMx_abs="32.293578" NOx_abs="688.278900" fuel_abs="795.220749" electricity_abs="0"
            CO_normed="622.844186" CO2_normed="84198.568312" HC_normed="4.844914" PMx_normed="1.469787" NOx_normed="31.325843" fuel_normed="36.193120" electricity_normed="0"
            traveltime="0.80" CO_perVeh="17.226557" CO2_perVeh="2328.754890" HC_perVeh="0.134000" PMx_perVeh="0.040651" NOx_perVeh="0.866407" fuel_perVeh="1.001025" electricity_perVeh="0"/>
        <edge id=":1110673556_0" sampledSeconds="421.36" CO_abs="52479.345105" CO2_abs="2616401.267854" HC_abs="301.191111" PMx_abs="52.955885" NOx_abs="1128.183060" fuel_abs="1124.677621" electricity_abs="0"
            CO_normed="1831.004836" CO2_normed="91286.264426" HC_normed="10.508561" PMx_normed="1.847631" NOx_normed="39.362317" fuel_normed="39.240013" electricity_normed="0"
            traveltime="2.62" CO_perVeh="325.766185" CO2_perVeh="16241.343278" HC_perVeh="1.869648" PMx_perVeh="0.328724" NOx_perVeh="7.003210" fuel_perVeh="6.981450" electricity_perVeh="0"/>
        <edge id=":1110673556_2" sampledSeconds="247.81" CO_abs="23992.259444" CO2_abs="1035229.981841" HC_abs="133.550398" PMx_abs="19.922670" NOx_abs="441.179434" fuel_abs="445.004731" electricity_abs="0"
            CO_normed="875.268938" CO2_normed="37766.540873" HC_normed="4.872093" PMx_normed="0.726805" NOx_normed="16.094802" fuel_normed="16.234353" electricity_normed="0"
            traveltime="3.01" CO_perVeh="291.021509" CO2_perVeh="12557.141300" HC_perVeh="1.619941" PMx_perVeh="0.241658" NOx_perVeh="5.351422" fuel_perVeh="5.397822" electricity_perVeh="0"/>
        <edge id=":1110673556_3" sampledSeconds="363.69" CO_abs="32530.854204" CO2_abs="1137687.608699" HC_abs="174.580010" PMx_abs="21.669108" NOx_abs="484.974383" fuel_abs="489.052697" electricity_abs="0"
            CO_normed="2699.700759" CO2_normed="94415.476497" HC_normed="14.488208" PMx_normed="1.798296" NOx_normed="40.247505" fuel_normed="40.585960" electricity_normed="0"
            traveltime="1.75" CO_perVeh="156.924617" CO2_perVeh="5488.057319" HC_perVeh="0.842151" PMx_perVeh="0.104529" NOx_perVeh="2.339453" fuel_perVeh="2.359127" electricity_perVeh="0"/>
        <edge id=":1110673556_4" sampledSeconds="184.24" CO_abs="19328.538044" CO2_abs="778252.139938" HC_abs="106.282043" PMx_abs="15.220319" NOx_abs="333.699597" fuel_abs="334.540730" electricity_abs="0"
            CO_normed="979.955184" CO2_normed="39457.315234" HC_normed="5.388490" PMx_normed="0.771669" NOx_normed="16.918540" fuel_normed="16.961186" electricity_normed="0"
            traveltime="2.41" CO_perVeh="252.405885" CO2_perVeh="10162.973509" HC_perVeh="1.387907" PMx_perVeh="0.198758" NOx_perVeh="4.357688" fuel_perVeh="4.368672" electricity_perVeh="0"/>
        <edge id=":1110673556_5" sampledSeconds="25.12" CO_abs="1860.804569" CO2_abs="72865.139392" HC_abs="10.172309" PMx_abs="1.374404" NOx_abs="30.919346" fuel_abs="31.322048" electricity_abs="0"
            CO_normed="131.494472" CO2_normed="5149.043148" HC_normed="0.718830" PMx_normed="0.097123" NOx_normed="2.184927" fuel_normed="2.213385" electricity_normed="0"
            traveltime="1.74" CO_perVeh="128.648217" CO2_perVeh="5037.589884" HC_perVeh="0.703271" PMx_perVeh="0.095021" NOx_perVeh="2.137634" fuel_perVeh="2.165475" electricity_perVeh="0"/>
        <edge id=":1110673556_6" sampledSeconds="306.07" CO_abs="36589.256714" CO2_abs="1882648.422984" HC_abs="211.415539" PMx_abs="38.003314" NOx_abs="810.167100" fuel_abs="809.268295" electricity_abs="0"
            CO_normed="1308.787789" CO2_normed="67341.823504" HC_normed="7.562277" PMx_normed="1.359368" NOx_normed="28.979457" fuel_normed="28.947307" electricity_normed="0"
            traveltime="2.42" CO_perVeh="289.757480" CO2_perVeh="14909.061056" HC_perVeh="1.674241" PMx_perVeh="0.300956" NOx_perVeh="6.415872" fuel_perVeh="6.408754" electricity_perVeh="0"/>
        <edge id=":1110673561_0" sampledSeconds="100.36" CO_abs="9655.184517" CO2_abs="694244.208145" HC_abs="60.600923" PMx_abs="14.037574" NOx_abs="293.448662" fuel_abs="298.422482" electricity_abs="0"
            CO_normed="433.923325" CO2_normed="31200.724831" HC_normed="2.723527" PMx_normed="0.630877" NOx_normed="13.188170" fuel_normed="13.411704" electricity_normed="0"
            traveltime="1.18" CO_perVeh="113.940549" CO2_perVeh="8192.755489" HC_perVeh="0.715150" PMx_perVeh="0.165657" NOx_perVeh="3.462979" fuel_perVeh="3.521675" electricity_perVeh="0"/>
        <edge id=":1110673561_1" sampledSeconds="1316.17" CO_abs="123108.665932" CO2_abs="8473540.238728" HC_abs="765.711573" PMx_abs="177.793952" NOx_abs="3628.457410" fuel_abs="3642.365228" electricity_abs="0"
            CO_normed="5394.108783" CO2_normed="371275.226472" HC_normed="33.550291" PMx_normed="7.790190" NOx_normed="158.983885" fuel_normed="159.593268" electricity_normed="0"
            traveltime="1.20" CO_perVeh="111.806425" CO2_perVeh="7695.609695" HC_perVeh="0.695414" PMx_perVeh="0.161471" NOx_perVeh="3.295340" fuel_perVeh="3.307971" electricity_perVeh="0"/>
        <edge id=":1110673562_0" sampledSeconds="104.44" CO_abs="2377.760461" CO2_abs="186987.046492" HC_abs="15.098118" PMx_abs="2.561358" NOx_abs="71.542881" fuel_abs="80.378453" electricity_abs="0"
            CO_normed="6621.443779" CO2_normed="520710.238072" HC_normed="42.044327" PMx_normed="7.132716" NOx_normed="199.228294" fuel_normed="223.833062" electricity_normed="0"
            traveltime="0.03" CO_perVeh="0.606105" CO2_perVeh="47.664059" HC_perVeh="0.003849" PMx_perVeh="0.000653" NOx_perVeh="0.018237" fuel_perVeh="0.020489" electricity_perVeh="0"/>
        <edge id=":1110673564_0" sampledSeconds="27.97" CO_abs="572.158198" CO2_abs="64478.696085" HC_abs="4.095091" PMx_abs="0.926528" NOx_abs="24.445037" fuel_abs="27.716655" electricity_abs="0"
            CO_normed="4301.941341" CO2_normed="484802.226200" HC_normed="30.790160" PMx_normed="6.966379" NOx_normed="183.797268" fuel_normed="208.395900" electricity_normed="0"
            traveltime="7.689409e-03" CO_perVeh="0.157294" CO2_perVeh="17.726102" HC_perVeh="0.001126" PMx_perVeh="0.000255" NOx_perVeh="0.006720" fuel_perVeh="0.007620" electricity_perVeh="0"/>
        <edge id=":1110673588_0" sampledSeconds="11.67" CO_abs="137.047077" CO2_abs="17518.885829" HC_abs="1.020144" PMx_abs="0.230796" NOx_abs="6.479814" fuel_abs="7.530643" electricity_abs="0"
            CO_normed="412.171660" CO2_normed="52688.378434" HC_normed="3.068103" PMx_normed="0.694123" NOx_normed="19.488163" fuel_normed="22.648552" electricity_normed="0"
            traveltime="0.02" CO_perVeh="0.228412" CO2_perVeh="29.198143" HC_perVeh="0.001700" PMx_perVeh="0.000385" NOx_perVeh="0.010800" fuel_perVeh="0.012551" electricity_perVeh="0"/>
        <edge id=":1110673601_0" sampledSeconds="29.25" CO_abs="474.529560" CO2_abs="58675.216239" HC_abs="3.497387" PMx_abs="0.808483" NOx_abs="21.937615" fuel_abs="25.222004" electricity_abs="0"
            CO_normed="1274.246939" CO2_normed="157559.656927" HC_normed="9.391480" PMx_normed="2.171008" NOx_normed="58.908740" fuel_normed="67.728261" electricity_normed="0"
            traveltime="0.02" CO_perVeh="0.352202" CO2_perVeh="43.549531" HC_perVeh="0.002596" PMx_perVeh="0.000600" NOx_perVeh="0.016282" fuel_perVeh="0.018720" electricity_perVeh="0"/>
        <edge id=":1110673617_0" sampledSeconds="238.29" CO_abs="6018.894528" CO2_abs="729258.256115" HC_abs="44.870353" PMx_abs="13.143342" NOx_abs="276.101888" fuel_abs="313.474513" electricity_abs="0"
            CO_normed="15084.948692" CO2_normed="1827714.927605" HC_normed="112.457026" PMx_normed="32.940706" NOx_normed="691.984681" fuel_normed="785.650409" electricity_normed="0"
            traveltime="0.01" CO_perVeh="0.368804" CO2_perVeh="44.684840" HC_perVeh="0.002749" PMx_perVeh="0.000805" NOx_perVeh="0.016918" fuel_perVeh="0.019208" electricity_perVeh="0"/>
        <edge id=":1110673621_0" sampledSeconds="25.76" CO_abs="560.081174" CO2_abs="61005.751296" HC_abs="3.934462" PMx_abs="0.883158" NOx_abs="23.206478" fuel_abs="26.223781" electricity_abs="0"
            CO_normed="1684.454658" CO2_normed="183475.943747" HC_normed="11.832970" PMx_normed="2.656115" NOx_normed="69.793920" fuel_normed="78.868513" electricity_normed="0"
            traveltime="0.02" CO_perVeh="0.424304" CO2_perVeh="46.216478" HC_perVeh="0.002981" PMx_perVeh="0.000669" NOx_perVeh="0.017581" fuel_perVeh="0.019867" electricity_perVeh="0"/>
        <edge id=":1110673630_0" sampledSeconds="54.12" CO_abs="185.644297" CO2_abs="21755.142428" HC_abs="1.332538" PMx_abs="0.224583" NOx_abs="7.738272" fuel_abs="9.351735" electricity_abs="0"
            CO_normed="9.955933" CO2_normed="1166.708270" HC_normed="0.071463" PMx_normed="0.012044" NOx_normed="0.414996" fuel_normed="0.501525" electricity_normed="0"
            traveltime="1.26" CO_perVeh="4.333266" CO2_perVeh="507.803504" HC_perVeh="0.031104" PMx_perVeh="0.005242" NOx_perVeh="0.180625" fuel_perVeh="0.218286" electricity_perVeh="0"/>
        <edge id=":1110673630_1" sampledSeconds="7.18" CO_abs="0.542484" CO2_abs="48.702624" HC_abs="0.003539" PMx_abs="0.000427" NOx_abs="0.017036" fuel_abs="0.020936" electricity_abs="0"
            CO_normed="0.035468" CO2_normed="3.184219" HC_normed="0.000231" PMx_normed="0.000028" NOx_normed="0.001114" fuel_normed="0.001369" electricity_normed="0"
            traveltime="1.02" CO_perVeh="0.076782" CO2_perVeh="6.893295" HC_perVeh="0.000501" PMx_perVeh="0.000060" NOx_perVeh="0.002411" fuel_perVeh="0.002963" electricity_perVeh="0"/>
        <edge id=":1110673650_0" sampledSeconds="143.42" CO_abs="2286.420879" CO2_abs="285588.036236" HC_abs="16.910251" PMx_abs="3.960143" NOx_abs="106.872352" fuel_abs="122.762216" electricity_abs="0"
            CO_normed="5730.378143" CO2_normed="715759.489314" HC_normed="42.381582" PMx_normed="9.925170" NOx_normed="267.850506" fuel_normed="307.674726" electricity_normed="0"
            traveltime="0.02" CO_perVeh="0.367100" CO2_perVeh="45.853043" HC_perVeh="0.002715" PMx_perVeh="0.000636" NOx_perVeh="0.017159" fuel_perVeh="0.019710" electricity_perVeh="0"/>
        <edge id=":1110673655_0" sampledSeconds="44.81" CO_abs="850.449016" CO2_abs="92454.823772" HC_abs="5.996751" PMx_abs="1.312504" NOx_abs="35.051051" fuel_abs="39.742443" electricity_abs="0"
            CO_normed="2131.451169" CO2_normed="231716.350305" HC_normed="15.029452" PMx_normed="3.289485" NOx_normed="87.847245" fuel_normed="99.605120" electricity_normed="0"
            traveltime="0.02" CO_perVeh="0.455151" CO2_perVeh="49.480773" HC_perVeh="0.003209" PMx_perVeh="0.000702" NOx_perVeh="0.018759" fuel_perVeh="0.021270" electricity_perVeh="0"/>
        <edge id=":1110673663_0" sampledSeconds="108.67" CO_abs="1833.735481" CO2_abs="223079.628221" HC_abs="13.485041" PMx_abs="3.072516" NOx_abs="83.502656" fuel_abs="95.892564" electricity_abs="0"
            CO_normed="84.172679" CO2_normed="10239.868362" HC_normed="0.618994" PMx_normed="0.141036" NOx_normed="3.832964" fuel_normed="4.401689" electricity_normed="0"
            traveltime="1.28" CO_perVeh="21.538088" CO2_perVeh="2620.175472" HC_perVeh="0.158388" PMx_perVeh="0.036088" NOx_perVeh="0.980778" fuel_perVeh="1.126303" electricity_perVeh="0"/>
        <edge id=":1110673663_1" sampledSeconds="153.50" CO_abs="2584.403444" CO2_abs="326203.516731" HC_abs="19.187237" PMx_abs="4.496342" NOx_abs="121.822497" fuel_abs="140.221118" electricity_abs="0"
            CO_normed="118.775091" CO2_normed="14991.797192" HC_normed="0.881815" PMx_normed="0.206645" NOx_normed="5.598769" fuel_normed="6.444341" electricity_normed="0"
            traveltime="1.24" CO_perVeh="20.932399" CO2_perVeh="2642.088332" HC_perVeh="0.155407" PMx_perVeh="0.036418" NOx_perVeh="0.986702" fuel_perVeh="1.135722" electricity_perVeh="0"/>
        <edge id=":1110673666_0" sampledSeconds="192.57" CO_abs="4208.071739" CO2_abs="336860.597430" HC_abs="26.848426" PMx_abs="4.559860" NOx_abs="128.473484" fuel_abs="144.803283" electricity_abs="0"