<?xml version="1.0" encoding="UTF-8"?>

<!-- generated on Sun Nov  1 00:09:44 2020 by Eclipse SUMO sumo Version 1.7.0
<configuration xmlns:xsi="http://www.w3.org/2001/XMLSchema-instance" xsi:noNamespaceSchemaLocation="http://sumo.dlr.de/xsd/sumoConfiguration.xsd">

    <input>
        <net-file value="../dataSets/Porto/8AM9AM_Routing_SaoBento/Porto.net.xml"/>
        <route-files value="../results/Porto/8AM9AM_Routing_SaoBento_fewerv/cost_co-ttime/solution6/Porto.rou.xml"/>
        <additional-files value="moreOutputInfo.xml"/>
    </input>

    <output>
        <emission-output.precision value="6"/>
        <tripinfo-output value="../results/Porto/8AM9AM_Routing_SaoBento_fewerv/cost_co-ttime/solution6/Porto-tripinfo"/>
    </output>

    <processing>
        <collision.action value="warn"/>
        <time-to-teleport value="-1"/>
    </processing>

    <emissions>
        <device.emissions.probability value="1"/>
    </emissions>

    <gui_only>
        <quit-on-end value="true"/>
        <start value="true"/>
    </gui_only>

</configuration>
-->

<meandata xmlns:xsi="http://www.w3.org/2001/XMLSchema-instance" xsi:noNamespaceSchemaLocation="http://sumo.dlr.de/xsd/meandata_file.xsd">
    <interval begin="0.00" end="8472.00" id="emissions-detector">
        <edge id=":1092997347_0" sampledSeconds="602.10" CO_abs="73780.222670" CO2_abs="3122921.710491" HC_abs="409.815462" PMx_abs="63.219698" NOx_abs="1351.786559" fuel_abs="1342.417810" electricity_abs="0"
            CO_normed="71253.112287" CO2_normed="3015955.811059" HC_normed="395.778517" PMx_normed="61.054306" NOx_normed="1305.485346" fuel_normed="1296.437494" electricity_normed="0"
            traveltime="0.07" CO_perVeh="8.443695" CO2_perVeh="357.399275" HC_perVeh="0.046901" PMx_perVeh="0.007235" NOx_perVeh="0.154704" fuel_perVeh="0.153632" electricity_perVeh="0"/>
        <edge id=":1103427051_0" sampledSeconds="19.45" CO_abs="1564.865507" CO2_abs="87187.430169" HC_abs="9.198597" PMx_abs="1.730594" NOx_abs="37.352682" fuel_abs="37.477998" electricity_abs="0"
            CO_normed="2292.955222" CO2_normed="127753.389912" HC_normed="13.478456" PMx_normed="2.535793" NOx_normed="54.731877" fuel_normed="54.915500" electricity_normed="0"
            traveltime="0.03" CO_perVeh="2.433564" CO2_perVeh="135.587488" HC_perVeh="0.014305" PMx_perVeh="0.002691" NOx_perVeh="0.058088" fuel_perVeh="0.058283" electricity_perVeh="0"/>
        <edge id=":1105984386_0" sampledSeconds="10.45" CO_abs="205.151899" CO2_abs="14131.178736" HC_abs="1.254928" PMx_abs="0.189935" NOx_abs="5.417805" fuel_abs="6.074467" electricity_abs="0"
            CO_normed="8.977861" CO2_normed="618.408874" HC_normed="0.054918" PMx_normed="0.008312" NOx_normed="0.237094" fuel_normed="0.265831" electricity_normed="0"
            traveltime="1.00" CO_perVeh="19.680571" CO2_perVeh="1355.628069" HC_perVeh="0.120387" PMx_perVeh="0.018221" NOx_perVeh="0.519739" fuel_perVeh="0.582734" electricity_perVeh="0"/>
        <edge id=":1105984390_0" sampledSeconds="11.13" CO_abs="60.294229" CO2_abs="3681.698245" HC_abs="0.358304" PMx_abs="0.052019" NOx_abs="1.434355" fuel_abs="1.582626" electricity_abs="0"
            CO_normed="2.039871" CO2_normed="124.558998" HC_normed="0.012122" PMx_normed="0.001760" NOx_normed="0.048527" fuel_normed="0.053543" electricity_normed="0"
            traveltime="1.15" CO_perVeh="6.249860" CO2_perVeh="381.630189" HC_perVeh="0.037140" PMx_perVeh="0.005392" NOx_perVeh="0.148680" fuel_perVeh="0.164049" electricity_perVeh="0"/>
        <edge id=":1105984390_1" sampledSeconds="2391.45" CO_abs="63047.141484" CO2_abs="7547337.219540" HC_abs="467.624927" PMx_abs="136.075502" NOx_abs="2868.644731" fuel_abs="3244.251854" electricity_abs="0"
            CO_normed="2040.408990" CO2_normed="244256.192257" HC_normed="15.133852" PMx_normed="4.403842" NOx_normed="92.838602" fuel_normed="104.994461" electricity_normed="0"
            traveltime="0.65" CO_perVeh="17.028985" CO2_perVeh="2038.530102" HC_perVeh="0.126305" PMx_perVeh="0.036754" NOx_perVeh="0.774819" fuel_perVeh="0.876270" electricity_perVeh="0"/>
        <edge id=":1105984395_0" sampledSeconds="4.14" CO_abs="117.541646" CO2_abs="8234.135096" HC_abs="0.722049" PMx_abs="0.109763" NOx_abs="3.149207" fuel_abs="3.539548" electricity_abs="0"
            CO_normed="54.290082" CO2_normed="3803.178545" HC_normed="0.333499" PMx_normed="0.050697" NOx_normed="1.454554" fuel_normed="1.634845" electricity_normed="0"
            traveltime="0.10" CO_perVeh="2.724573" CO2_perVeh="190.864306" HC_perVeh="0.016737" PMx_perVeh="0.002544" NOx_perVeh="0.072997" fuel_perVeh="0.082045" electricity_perVeh="0"/>
        <edge id=":1105984398_0" sampledSeconds="10.63" CO_abs="648.005014" CO2_abs="45039.354115" HC_abs="4.006737" PMx_abs="0.777392" NOx_abs="18.358709" fuel_abs="19.360475" electricity_abs="0"
            CO_normed="22.775537" CO2_normed="1583.005438" HC_normed="0.140825" PMx_normed="0.027323" NOx_normed="0.645257" fuel_normed="0.680466" electricity_normed="0"
            traveltime="1.14" CO_perVeh="69.677147" CO2_perVeh="4842.884931" HC_perVeh="0.430827" PMx_perVeh="0.083590" NOx_perVeh="1.974032" fuel_perVeh="2.081747" electricity_perVeh="0"/>
        <edge id=":1105984398_1" sampledSeconds="644.02" CO_abs="12218.759309" CO2_abs="1401921.503597" HC_abs="87.851555" PMx_abs="20.351450" NOx_abs="532.112409" fuel_abs="602.626077" electricity_abs="0"
            CO_normed="415.701149" CO2_normed="47695.544660" HC_normed="2.988846" PMx_normed="0.692388" NOx_normed="18.103290" fuel_normed="20.502274" electricity_normed="0"
            traveltime="0.95" CO_perVeh="18.110361" CO2_perVeh="2077.895421" HC_perVeh="0.130212" PMx_perVeh="0.030164" NOx_perVeh="0.788685" fuel_perVeh="0.893198" electricity_perVeh="0"/>
        <edge id=":1106006327_0" sampledSeconds="85.03" CO_abs="11364.104137" CO2_abs="364506.307121" HC_abs="60.323709" PMx_abs="7.615183" NOx_abs="159.616594" fuel_abs="156.688490" electricity_abs="0"
            CO_normed="545.027024" CO2_normed="17481.869710" HC_normed="2.893149" PMx_normed="0.365227" NOx_normed="7.655276" fuel_normed="7.514843" electricity_normed="0"
            traveltime="2.13" CO_perVeh="284.536152" CO2_perVeh="9126.563842" HC_perVeh="1.510394" PMx_perVeh="0.190670" NOx_perVeh="3.996504" fuel_perVeh="3.923190" electricity_perVeh="0"/>
        <edge id=":1106006327_1" sampledSeconds="681.59" CO_abs="92603.742890" CO2_abs="3102703.633351" HC_abs="494.810208" PMx_abs="64.818362" NOx_abs="1358.451689" fuel_abs="1333.740069" electricity_abs="0"
            CO_normed="3873.034684" CO2_normed="129766.663972" HC_normed="20.694813" PMx_normed="2.710946" NOx_normed="56.815528" fuel_normed="55.781995" electricity_normed="0"
            traveltime="2.29" CO_perVeh="310.848350" CO2_perVeh="10415.025098" HC_perVeh="1.660958" PMx_perVeh="0.217580" NOx_perVeh="4.559994" fuel_perVeh="4.477043" electricity_perVeh="0"/>
        <edge id=":1106006327_2" sampledSeconds="0.00" CO_abs="0" CO2_abs="0" HC_abs="0" PMx_abs="0" NOx_abs="0" fuel_abs="0" electricity_abs="0"
            CO_normed="0" CO2_normed="0" HC_normed="0" PMx_normed="0" NOx_normed="0" fuel_normed="0" electricity_normed="0"/>
        <edge id=":1106006327_3" sampledSeconds="0.00" CO_abs="0" CO2_abs="0" HC_abs="0" PMx_abs="0" NOx_abs="0" fuel_abs="0" electricity_abs="0"
            CO_normed="0" CO2_normed="0" HC_normed="0" PMx_normed="0" NOx_normed="0" fuel_normed="0" electricity_normed="0"/>
        <edge id=":1107381198_0" sampledSeconds="0.00" CO_abs="0" CO2_abs="0" HC_abs="0" PMx_abs="0" NOx_abs="0" fuel_abs="0" electricity_abs="0"
            CO_normed="0" CO2_normed="0" HC_normed="0" PMx_normed="0" NOx_normed="0" fuel_normed="0" electricity_normed="0"/>
        <edge id=":1107381198_1" sampledSeconds="102.52" CO_abs="4934.176175" CO2_abs="193119.259162" HC_abs="26.906825" PMx_abs="3.315553" NOx_abs="79.906015" fuel_abs="83.015373" electricity_abs="0"
            CO_normed="228.645085" CO2_normed="8948.964901" HC_normed="1.246837" PMx_normed="0.153640" NOx_normed="3.702770" fuel_normed="3.846854" electricity_normed="0"
            traveltime="1.53" CO_perVeh="73.874078" CO2_perVeh="2891.365606" HC_perVeh="0.402847" PMx_perVeh="0.049640" NOx_perVeh="1.196346" fuel_perVeh="1.242899" electricity_perVeh="0"/>
        <edge id=":1110338277_0" sampledSeconds="160.30" CO_abs="2241.762200" CO2_abs="284367.436315" HC_abs="16.697059" PMx_abs="3.831743" NOx_abs="105.807917" fuel_abs="122.237668" electricity_abs="0"
            CO_normed="3402.107749" CO2_normed="431557.218204" HC_normed="25.339527" PMx_normed="5.815069" NOx_normed="160.574540" fuel_normed="185.508399" electricity_normed="0"
            traveltime="0.02" CO_perVeh="0.304151" CO2_perVeh="38.581540" HC_perVeh="0.002265" PMx_perVeh="0.000520" NOx_perVeh="0.014355" fuel_perVeh="0.016585" electricity_perVeh="0"/>
        <edge id=":1110338293_0" sampledSeconds="6654.88" CO_abs="620341.256313" CO2_abs="10841190.906422" HC_abs="3078.238957" PMx_abs="258.740362" NOx_abs="4901.076557" fuel_abs="4660.446131" electricity_abs="0"
            CO_normed="878670.334720" CO2_normed="15355794.485018" HC_normed="4360.111837" PMx_normed="366.487766" NOx_normed="6942.034783" fuel_normed="6601.198486" electricity_normed="0"
            traveltime="0.44" CO_perVeh="41.458352" CO2_perVeh="724.533318" HC_perVeh="0.205723" PMx_perVeh="0.017292" NOx_perVeh="0.327546" fuel_perVeh="0.311465" electricity_perVeh="0"/>
        <edge id=":1110338295_0" sampledSeconds="0.00" CO_abs="0" CO2_abs="0" HC_abs="0" PMx_abs="0" NOx_abs="0" fuel_abs="0" electricity_abs="0"
            CO_normed="0" CO2_normed="0" HC_normed="0" PMx_normed="0" NOx_normed="0" fuel_normed="0" electricity_normed="0"/>
        <edge id=":1110673403_0" sampledSeconds="200.75" CO_abs="2912.702623" CO2_abs="371401.503568" HC_abs="21.705889" PMx_abs="4.977743" NOx_abs="137.963886" fuel_abs="159.650001" electricity_abs="0"
            CO_normed="4125.641109" CO2_normed="526064.452645" HC_normed="30.744886" PMx_normed="7.050628" NOx_normed="195.416269" fuel_normed="226.133146" electricity_normed="0"
            traveltime="0.02" CO_perVeh="0.336639" CO2_perVeh="42.925220" HC_perVeh="0.002509" PMx_perVeh="0.000575" NOx_perVeh="0.015945" fuel_perVeh="0.018452" electricity_perVeh="0"/>
        <edge id=":1110673412_0" sampledSeconds="952.37" CO_abs="168885.066204" CO2_abs="11524993.482592" HC_abs="1051.052586" PMx_abs="253.268273" NOx_abs="4952.517958" fuel_abs="4954.027071" electricity_abs="0"
            CO_normed="247462.732544" CO2_normed="16887262.111837" HC_normed="1540.079007" PMx_normed="371.107170" NOx_normed="7256.790990" fuel_normed="7259.002253" electricity_normed="0"
            traveltime="0.02" CO_perVeh="2.754228" CO2_perVeh="187.953013" HC_perVeh="0.017141" PMx_perVeh="0.004130" NOx_perVeh="0.080767" fuel_perVeh="0.080792" electricity_perVeh="0"/>
        <edge id=":1110673414_0" sampledSeconds="0.00" CO_abs="0" CO2_abs="0" HC_abs="0" PMx_abs="0" NOx_abs="0" fuel_abs="0" electricity_abs="0"
            CO_normed="0" CO2_normed="0" HC_normed="0" PMx_normed="0" NOx_normed="0" fuel_normed="0" electricity_normed="0"/>
        <edge id=":1110673414_1" sampledSeconds="7.20" CO_abs="376.388111" CO2_abs="14264.880576" HC_abs="2.043107" PMx_abs="0.253936" NOx_abs="5.963825" fuel_abs="6.131981" electricity_abs="0"
            CO_normed="17.711882" CO2_normed="671.269544" HC_normed="0.096143" PMx_normed="0.011950" NOx_normed="0.280643" fuel_normed="0.288556" electricity_normed="0"
            traveltime="1.57" CO_perVeh="82.215400" CO2_perVeh="3115.913682" HC_perVeh="0.446281" PMx_perVeh="0.055468" NOx_perVeh="1.302693" fuel_perVeh="1.339424" electricity_perVeh="0"/>
        <edge id=":1110673417_0" sampledSeconds="28.71" CO_abs="652.968501" CO2_abs="69728.477256" HC_abs="4.576292" PMx_abs="1.020153" NOx_abs="26.611928" fuel_abs="29.973306" electricity_abs="0"
            CO_normed="990.947745" CO2_normed="105820.230559" HC_normed="6.944999" PMx_normed="1.548189" NOx_normed="40.386373" fuel_normed="45.487616" electricity_normed="0"
            traveltime="0.02" CO_perVeh="0.497920" CO2_perVeh="53.171311" HC_perVeh="0.003490" PMx_perVeh="0.000778" NOx_perVeh="0.020293" fuel_perVeh="0.022856" electricity_perVeh="0"/>
        <edge id=":1110673446_0" sampledSeconds="1328.62" CO_abs="14159.003301" CO2_abs="1129215.473445" HC_abs="91.267862" PMx_abs="20.871881" NOx_abs="463.273961" fuel_abs="485.397713" electricity_abs="0"
            CO_normed="20055.245469" CO2_normed="1599455.344823" HC_normed="129.274592" PMx_normed="29.563571" NOx_normed="656.195413" fuel_normed="687.532172" electricity_normed="0"
            traveltime="0.02" CO_perVeh="0.242839" CO2_perVeh="19.367041" HC_perVeh="0.001565" PMx_perVeh="0.000358" NOx_perVeh="0.007946" fuel_perVeh="0.008325" electricity_perVeh="0"/>
        <edge id=":1110673451_0" sampledSeconds="36.81" CO_abs="314.304828" CO2_abs="21354.206269" HC_abs="1.917641" PMx_abs="0.296323" NOx_abs="8.242978" fuel_abs="9.179368" electricity_abs="0"
            CO_normed="494.656639" CO2_normed="33607.501211" HC_normed="3.018007" PMx_normed="0.466356" NOx_normed="12.972896" fuel_normed="14.446597" electricity_normed="0"
            traveltime="0.03" CO_perVeh="0.231573" CO2_perVeh="15.733329" HC_perVeh="0.001413" PMx_perVeh="0.000218" NOx_perVeh="0.006073" fuel_perVeh="0.006763" electricity_perVeh="0"/>
        <edge id=":1110673464_0" sampledSeconds="1037.80" CO_abs="4485.582314" CO2_abs="334608.662830" HC_abs="28.070557" PMx_abs="4.661290" NOx_abs="128.713208" fuel_abs="143.835298" electricity_abs="0"
            CO_normed="134.989717" CO2_normed="10069.758088" HC_normed="0.844759" PMx_normed="0.140277" NOx_normed="3.873513" fuel_normed="4.328599" electricity_normed="0"
            traveltime="1.23" CO_perVeh="5.319273" CO2_perVeh="396.799045" HC_perVeh="0.033288" PMx_perVeh="0.005528" NOx_perVeh="0.152636" fuel_perVeh="0.170569" electricity_perVeh="0"/>
        <edge id=":1110673464_1" sampledSeconds="2599.15" CO_abs="62063.853643" CO2_abs="7698903.539331" HC_abs="466.334082" PMx_abs="136.972826" NOx_abs="2911.213564" fuel_abs="3309.404391" electricity_abs="0"
            CO_normed="1830.169489" CO2_normed="227029.060103" HC_normed="13.751489" PMx_normed="4.039122" NOx_normed="85.847300" fuel_normed="97.589347" electricity_normed="0"
            traveltime="0.72" CO_perVeh="17.112174" CO2_perVeh="2122.732824" HC_perVeh="0.128577" PMx_perVeh="0.037766" NOx_perVeh="0.802676" fuel_perVeh="0.912465" electricity_perVeh="0"/>
        <edge id=":1110673479_0" sampledSeconds="134.45" CO_abs="6445.494187" CO2_abs="438819.873570" HC_abs="39.671235" PMx_abs="7.766391" NOx_abs="180.142446" fuel_abs="188.629546" electricity_abs="0"
            CO_normed="9129.595166" CO2_normed="621557.894575" HC_normed="56.191551" PMx_normed="11.000554" NOx_normed="255.159272" fuel_normed="267.180661" electricity_normed="0"
            traveltime="0.03" CO_perVeh="1.362636" CO2_perVeh="92.770489" HC_perVeh="0.008387" PMx_perVeh="0.001642" NOx_perVeh="0.038084" fuel_perVeh="0.039878" electricity_perVeh="0"/>
        <edge id=":1110673511_0" sampledSeconds="63.51" CO_abs="1243.956582" CO2_abs="131150.143633" HC_abs="8.649440" PMx_abs="1.872766" NOx_abs="49.855487" fuel_abs="56.375938" electricity_abs="0"
            CO_normed="1761.978161" CO2_normed="185765.075968" HC_normed="12.251331" PMx_normed="2.652643" NOx_normed="70.616837" fuel_normed="79.852603" electricity_normed="0"
            traveltime="0.02" CO_perVeh="0.476764" CO2_perVeh="50.265146" HC_perVeh="0.003315" PMx_perVeh="0.000718" NOx_perVeh="0.019108" fuel_perVeh="0.021607" electricity_perVeh="0"/>
        <edge id=":1110673517_0" sampledSeconds="182.52" CO_abs="7982.777631" CO2_abs="572929.963941" HC_abs="49.786654" PMx_abs="9.823384" NOx_abs="232.570762" fuel_abs="246.277806" electricity_abs="0"
            CO_normed="11307.050469" CO2_normed="811515.529662" HC_normed="70.519339" PMx_normed="13.914141" NOx_normed="329.420343" fuel_normed="348.835419" electricity_normed="0"
            traveltime="0.03" CO_perVeh="1.222228" CO2_perVeh="87.720215" HC_perVeh="0.007623" PMx_perVeh="0.001504" NOx_perVeh="0.035608" fuel_perVeh="0.037707" electricity_perVeh="0"/>
        <edge id=":1110673534_0" sampledSeconds="736.66" CO_abs="5340.171651" CO2_abs="452926.817468" HC_abs="34.648677" PMx_abs="6.027517" NOx_abs="171.613829" fuel_abs="194.695575" electricity_abs="0"
            CO_normed="146.588808" CO2_normed="12432.934138" HC_normed="0.951113" PMx_normed="0.165457" NOx_normed="4.710835" fuel_normed="5.344434" electricity_normed="0"
            traveltime="1.45" CO_perVeh="10.531702" CO2_perVeh="893.246624" HC_perVeh="0.068333" PMx_perVeh="0.011887" NOx_perVeh="0.338451" fuel_perVeh="0.383972" electricity_perVeh="0"/>
        <edge id=":1110673534_1" sampledSeconds="199.88" CO_abs="3071.701583" CO2_abs="397062.980506" HC_abs="22.986409" PMx_abs="5.243812" NOx_abs="146.898118" fuel_abs="170.680889" electricity_abs="0"
            CO_normed="81.988419" CO2_normed="10598.218977" HC_normed="0.613542" PMx_normed="0.139965" NOx_normed="3.920936" fuel_normed="4.555734" electricity_normed="0"
            traveltime="1.22" CO_perVeh="18.776345" CO2_perVeh="2427.121067" HC_perVeh="0.140509" PMx_perVeh="0.032054" NOx_perVeh="0.897942" fuel_perVeh="1.043319" electricity_perVeh="0"/>
        <edge id=":1110673549_0" sampledSeconds="650.53" CO_abs="1379.174749" CO2_abs="130283.332872" HC_abs="9.273251" PMx_abs="1.872201" NOx_abs="49.670536" fuel_abs="56.003436" electricity_abs="0"
            CO_normed="36.674067" CO2_normed="3464.404856" HC_normed="0.246588" PMx_normed="0.049784" NOx_normed="1.320805" fuel_normed="1.489205" electricity_normed="0"
            traveltime="1.29" CO_perVeh="2.740091" CO2_perVeh="258.841917" HC_perVeh="0.018424" PMx_perVeh="0.003720" NOx_perVeh="0.098684" fuel_perVeh="0.111265" electricity_perVeh="0"/>
        <edge id=":1110673549_1" sampledSeconds="3196.15" CO_abs="71970.801736" CO2_abs="9308944.395901" HC_abs="550.150296" PMx_abs="164.403456" NOx_abs="3488.922928" fuel_abs="4001.488537" electricity_abs="0"
            CO_normed="1851.240536" CO2_normed="239445.647371" HC_normed="14.151024" PMx_normed="4.228803" NOx_normed="89.742443" fuel_normed="102.926709" electricity_normed="0"
            traveltime="0.81" CO_perVeh="18.151904" CO2_perVeh="2347.827957" HC_perVeh="0.138755" PMx_perVeh="0.041465" NOx_perVeh="0.879948" fuel_perVeh="1.009224" electricity_perVeh="0"/>
        <edge id=":1110673556_0" sampledSeconds="470.14" CO_abs="58465.331266" CO2_abs="2795617.566184" HC_abs="332.636474" PMx_abs="56.674683" NOx_abs="1207.286007" fuel_abs="1201.716726" electricity_abs="0"
            CO_normed="1152.836435" CO2_normed="55124.801657" HC_normed="6.559023" PMx_normed="1.117528" NOx_normed="23.805617" fuel_normed="23.695801" electricity_normed="0"
            traveltime="2.77" CO_perVeh="344.647506" CO2_perVeh="16479.896751" HC_perVeh="1.960860" PMx_perVeh="0.334092" NOx_perVeh="7.116835" fuel_perVeh="7.084005" electricity_perVeh="0"/>
        <edge id=":1110673556_2" sampledSeconds="171.08" CO_abs="16736.956073" CO2_abs="729809.103276" HC_abs="93.347605" PMx_abs="14.030107" NOx_abs="310.836074" fuel_abs="313.716165" electricity_abs="0"
            CO_normed="345.076225" CO2_normed="15046.927836" HC_normed="1.924606" PMx_normed="0.289267" NOx_normed="6.408701" fuel_normed="6.468081" electricity_normed="0"
            traveltime="2.96" CO_perVeh="289.405887" CO2_perVeh="12619.442260" HC_perVeh="1.614113" PMx_perVeh="0.242601" NOx_perVeh="5.374800" fuel_perVeh="5.424601" electricity_perVeh="0"/>
        <edge id=":1110673556_3" sampledSeconds="353.89" CO_abs="36402.093217" CO2_abs="1266838.547005" HC_abs="195.353429" PMx_abs="24.893486" NOx_abs="544.903567" fuel_abs="544.569226" electricity_abs="0"
            CO_normed="1707.319157" CO2_normed="59416.850224" HC_normed="9.162403" PMx_normed="1.167546" NOx_normed="25.556890" fuel_normed="25.541209" electricity_normed="0"
            traveltime="1.81" CO_perVeh="186.573907" CO2_perVeh="6493.006221" HC_perVeh="1.001257" PMx_perVeh="0.127588" NOx_perVeh="2.792828" fuel_perVeh="2.791114" electricity_perVeh="0"/>
        <edge id=":1110673556_4" sampledSeconds="73.28" CO_abs="8484.726704" CO2_abs="320414.026984" HC_abs="46.174064" PMx_abs="6.446093" NOx_abs="138.644459" fuel_abs="137.733861" electricity_abs="0"
            CO_normed="243.115843" CO2_normed="9180.935216" HC_normed="1.323042" PMx_normed="0.184702" NOx_normed="3.972628" fuel_normed="3.946537" electricity_normed="0"
            traveltime="2.64" CO_perVeh="306.021299" CO2_perVeh="11556.473205" HC_perVeh="1.665374" PMx_perVeh="0.232493" NOx_perVeh="5.000533" fuel_perVeh="4.967690" electricity_perVeh="0"/>
        <edge id=":1110673556_5" sampledSeconds="21.90" CO_abs="1219.991244" CO2_abs="57536.557614" HC_abs="6.887451" PMx_abs="0.992158" NOx_abs="23.755808" fuel_abs="24.732788" electricity_abs="0"
            CO_normed="48.722733" CO2_normed="2297.834789" HC_normed="0.275064" PMx_normed="0.039624" NOx_normed="0.948735" fuel_normed="0.987752" electricity_normed="0"
            traveltime="1.51" CO_perVeh="84.345074" CO2_perVeh="3977.836082" HC_perVeh="0.476169" PMx_perVeh="0.068594" NOx_perVeh="1.642377" fuel_perVeh="1.709921" electricity_perVeh="0"/>
        <edge id=":1110673556_6" sampledSeconds="556.55" CO_abs="66484.092121" CO2_abs="3182550.483582" HC_abs="378.260035" PMx_abs="64.064251" NOx_abs="1371.222891" fuel_abs="1368.043335" electricity_abs="0"
            CO_normed="1344.007167" CO2_normed="64336.753684" HC_normed="7.646704" PMx_normed="1.295089" NOx_normed="27.719915" fuel_normed="27.655639" electricity_normed="0"
            traveltime="2.70" CO_perVeh="322.794967" CO2_perVeh="15451.986244" HC_perVeh="1.836536" PMx_perVeh="0.311046" NOx_perVeh="6.657590" fuel_perVeh="6.642153" electricity_perVeh="0"/>
        <edge id=":1110673561_0" sampledSeconds="104.87" CO_abs="8900.387560" CO2_abs="637775.908760" HC_abs="55.872833" PMx_abs="12.808408" NOx_abs="269.275209" fuel_abs="274.149601" electricity_abs="0"
            CO_normed="226.063023" CO2_normed="16199.019304" HC_normed="1.419127" PMx_normed="0.325324" NOx_normed="6.839384" fuel_normed="6.963190" electricity_normed="0"
            traveltime="1.24" CO_perVeh="105.033212" CO2_perVeh="7526.374749" HC_perVeh="0.659354" PMx_perVeh="0.151152" NOx_perVeh="3.177709" fuel_perVeh="3.235231" electricity_perVeh="0"/>
        <edge id=":1110673561_1" sampledSeconds="5247.86" CO_abs="489242.003110" CO2_abs="33862382.454134" HC_abs="3047.053236" PMx_abs="708.140057" NOx_abs="14479.954355" fuel_abs="14555.802637" electricity_abs="0"
            CO_normed="12114.988488" CO2_normed="838526.477697" HC_normed="75.453486" PMx_normed="17.535511" NOx_normed="358.563818" fuel_normed="360.442031" electricity_normed="0"
            traveltime="1.19" CO_perVeh="111.170464" CO2_perVeh="7694.549402" HC_perVeh="0.692382" PMx_perVeh="0.160911" NOx_perVeh="3.290280" fuel_perVeh="3.307515" electricity_perVeh="0"/>
        <edge id=":1110673562_0" sampledSeconds="301.89" CO_abs="6622.489037" CO2_abs="501533.120963" HC_abs="41.609995" PMx_abs="6.962036" NOx_abs="192.839458" fuel_abs="215.589597" electricity_abs="0"
            CO_normed="10422.551208" CO2_normed="789318.729876" HC_normed="65.486299" PMx_normed="10.956934" NOx_normed="303.493010" fuel_normed="339.297446" electricity_normed="0"
            traveltime="0.03" CO_perVeh="0.593651" CO2_perVeh="44.958269" HC_perVeh="0.003730" PMx_perVeh="0.000624" NOx_perVeh="0.017286" fuel_perVeh="0.019326" electricity_perVeh="0"/>
        <edge id=":1110673564_0" sampledSeconds="28.06" CO_abs="417.466576" CO2_abs="49467.240333" HC_abs="3.008964" PMx_abs="0.656932" NOx_abs="18.393842" fuel_abs="21.263927" electricity_abs="0"
            CO_normed="1773.937293" CO2_normed="210200.737960" HC_normed="12.785967" PMx_normed="2.791494" NOx_normed="78.160804" fuel_normed="90.356632" electricity_normed="0"
            traveltime="7.926557e-03" CO_perVeh="0.117912" CO2_perVeh="13.971823" HC_perVeh="0.000850" PMx_perVeh="0.000186" NOx_perVeh="0.005195" fuel_perVeh="0.006006" electricity_perVeh="0"/>
        <edge id=":1110673588_0" sampledSeconds="63.17" CO_abs="1121.789933" CO2_abs="121468.528301" HC_abs="7.890895" PMx_abs="1.661480" NOx_abs="45.727708" fuel_abs="52.214307" electricity_abs="0"
            CO_normed="1906.725099" CO2_normed="206462.087764" HC_normed="13.412287" PMx_normed="2.824046" NOx_normed="77.724150" fuel_normed="88.749531" electricity_normed="0"
            traveltime="0.02" CO_perVeh="0.361868" CO2_perVeh="39.183396" HC_perVeh="0.002545" PMx_perVeh="0.000536" NOx_perVeh="0.014751" fuel_perVeh="0.016843" electricity_perVeh="0"/>
        <edge id=":1110673601_0" sampledSeconds="29.17" CO_abs="348.547067" CO2_abs="41881.368410" HC_abs="2.541411" PMx_abs="0.553139" NOx_abs="15.574574" fuel_abs="18.003075" electricity_abs="0"
            CO_normed="528.956495" CO2_normed="63559.340971" HC_normed="3.856856" PMx_normed="0.839446" NOx_normed="23.636039" fuel_normed="27.321543" electricity_normed="0"
            traveltime="0.02" CO_perVeh="0.265784" CO2_perVeh="31.936554" HC_perVeh="0.001938" PMx_perVeh="0.000422" NOx_perVeh="0.011876" fuel_perVeh="0.013728" electricity_perVeh="0"/>
        <edge id=":1110673617_0" sampledSeconds="853.86" CO_abs="32610.836435" CO2_abs="3282472.350773" HC_abs="227.133235" PMx_abs="61.964882" NOx_abs="1288.326378" fuel_abs="1410.981169" electricity_abs="0"
            CO_normed="46190.986452" CO2_normed="4649394.264551" HC_normed="321.718464" PMx_normed="87.768954" NOx_normed="1824.824898" fuel_normed="1998.556896" electricity_normed="0"
            traveltime="0.02" CO_perVeh="0.577755" CO2_perVeh="58.154391" HC_perVeh="0.004024" PMx_perVeh="0.001098" NOx_perVeh="0.022825" fuel_perVeh="0.024998" electricity_perVeh="0"/>
        <edge id=":1110673621_0" sampledSeconds="26.23" CO_abs="634.348730" CO2_abs="66327.566368" HC_abs="4.422311" PMx_abs="0.976215" NOx_abs="25.384816" fuel_abs="28.511400" electricity_abs="0"
            CO_normed="1078.213140" CO2_normed="112738.073147" HC_normed="7.516675" PMx_normed="1.659289" NOx_normed="43.146996" fuel_normed="48.461303" electricity_normed="0"
            traveltime="0.02" CO_perVeh="0.480567" CO2_perVeh="50.248156" HC_perVeh="0.003350" PMx_perVeh="0.000740" NOx_perVeh="0.019231" fuel_perVeh="0.021600" electricity_perVeh="0"/>
        <edge id=":1110673630_0" sampledSeconds="286.07" CO_abs="1267.078844" CO2_abs="118912.901089" HC_abs="8.485802" PMx_abs="1.563210" NOx_abs="44.726480" fuel_abs="51.115954" electricity_abs="0"
            CO_normed="38.403621" CO2_normed="3604.105661" HC_normed="0.257194" PMx_normed="0.047379" NOx_normed="1.355605" fuel_normed="1.549263" electricity_normed="0"
            traveltime="1.29" CO_perVeh="5.701372" CO2_perVeh="535.062741" HC_perVeh="0.038183" PMx_perVeh="0.007034" NOx_perVeh="0.201252" fuel_perVeh="0.230002" electricity_perVeh="0"/>
        <edge id=":1110673630_1" sampledSeconds="337.51" CO_abs="975.423942" CO2_abs="87106.402187" HC_abs="6.411894" PMx_abs="1.060814" NOx_abs="32.327315" fuel_abs="37.443756" electricity_abs="0"
            CO_normed="36.042269" CO2_normed="3218.613211" HC_normed="0.236922" PMx_normed="0.039197" NOx_normed="1.194506" fuel_normed="1.383560" electricity_normed="0"
            traveltime="1.08" CO_perVeh="3.109460" CO2_perVeh="277.678067" HC_perVeh="0.020440" PMx_perVeh="0.003382" NOx_perVeh="0.103053" fuel_perVeh="0.119363" electricity_perVeh="0"/>
        <edge id=":1110673650_0" sampledSeconds="200.25" CO_abs="2872.086094" CO2_abs="371872.709339" HC_abs="21.570906" PMx_abs="4.990331" NOx_abs="138.093872" fuel_abs="159.852521" electricity_abs="0"
            CO_normed="4068.110614" CO2_normed="526731.882916" HC_normed="30.553691" PMx_normed="7.068457" NOx_normed="195.600385" fuel_normed="226.420002" electricity_normed="0"
            traveltime="0.02" CO_perVeh="0.331945" CO2_perVeh="42.979699" HC_perVeh="0.002493" PMx_perVeh="0.000577" NOx_perVeh="0.015960" fuel_perVeh="0.018475" electricity_perVeh="0"/>
        <edge id=":1110673655_0" sampledSeconds="20.56" CO_abs="464.147605" CO2_abs="52266.947835" HC_abs="3.312155" PMx_abs="0.737272" NOx_abs="19.758740" fuel_abs="22.467359" electricity_abs="0"
            CO_normed="657.432869" CO2_normed="74032.504015" HC_normed="4.691437" PMx_normed="1.044295" NOx_normed="27.986885" fuel_normed="31.823455" electricity_normed="0"
            traveltime="0.02" CO_perVeh="0.530252" CO2_perVeh="59.710908" HC_perVeh="0.003784" PMx_perVeh="0.000842" NOx_perVeh="0.022573" fuel_perVeh="0.025667" electricity_perVeh="0"/>
        <edge id=":1110673663_0" sampledSeconds="109.92" CO_abs="1584.571830" CO2_abs="221137.447194" HC_abs="12.245874" PMx_abs="2.810910" NOx_abs="80.983542" fuel_abs="95.057885" electricity_abs="0"
            CO_normed="41.106887" CO2_normed="5736.737104" HC_normed="0.317682" PMx_normed="0.072920" NOx_normed="2.100871" fuel_normed="2.465987" electricity_normed="0"
            traveltime="1.29" CO_perVeh="18.611544" CO2_perVeh="2597.363640" HC_perVeh="0.143834" PMx_perVeh="0.033015" NOx_perVeh="0.951190" fuel_perVeh="1.116500" electricity_perVeh="0"/>
        <edge id=":1110673663_1" sampledSeconds="170.91" CO_abs="2775.070241" CO2_abs="336512.377720" HC_abs="20.311611" PMx_abs="4.602639" NOx_abs="125.746483" fuel_abs="144.652585" electricity_abs="0"
            CO_normed="72.078748" CO2_normed="8740.460160" HC_normed="0.527567" PMx_normed="0.119547" NOx_normed="3.266097" fuel_normed="3.757158" electricity_normed="0"
            traveltime="1.28" CO_perVeh="20.714060" CO2_perVeh="2511.841904" HC_perVeh="0.151613" PMx_perVeh="0.034356" NOx_perVeh="0.938614" fuel_perVeh="1.079736" electricity_perVeh="0"/>