<?xml version="1.0" encoding="UTF-8"?>

<!-- generated on Mon Nov  9 20:14:48 2020 by Eclipse SUMO sumo Version 1.7.0
<configuration xmlns:xsi="http://www.w3.org/2001/XMLSchema-instance" xsi:noNamespaceSchemaLocation="http://sumo.dlr.de/xsd/sumoConfiguration.xsd">

    <input>
        <net-file value="../dataSets/Angeja_Estarreja/angeja_estarreja.net.xml"/>
        <route-files value="../results/angeja_estarreja/cost_nox-ttime/solution1/angeja_estarreja.rou.xml"/>
        <additional-files value="moreOutputInfo.xml"/>
    </input>

    <output>
        <emission-output.precision value="6"/>
        <tripinfo-output value="../results/angeja_estarreja/cost_nox-ttime/solution1/angeja_estarreja-tripinfo"/>
    </output>

    <processing>
        <collision.action value="warn"/>
        <time-to-teleport value="-1"/>
    </processing>

    <emissions>
        <device.emissions.probability value="1"/>
    </emissions>

    <gui_only>
        <quit-on-end value="true"/>
        <start value="true"/>
    </gui_only>

</configuration>
-->

<meandata xmlns:xsi="http://www.w3.org/2001/XMLSchema-instance" xsi:noNamespaceSchemaLocation="http://sumo.dlr.de/xsd/meandata_file.xsd">
    <interval begin="0.00" end="19078.00" id="emissions-detector">
        <edge id=":10_0" sampledSeconds="423.56" CO_abs="43423.081656" CO2_abs="2378739.733006" HC_abs="254.152233" PMx_abs="46.626786" NOx_abs="1015.030888" fuel_abs="1022.515957" electricity_abs="0"
            CO_normed="468.490176" CO2_normed="25664.143424" HC_normed="2.742040" PMx_normed="0.503055" NOx_normed="10.951134" fuel_normed="11.031890" electricity_normed="0"
            traveltime="1.92" CO_perVeh="196.912282" CO2_perVeh="10786.960548" HC_perVeh="1.152514" PMx_perVeh="0.211440" NOx_perVeh="4.602899" fuel_perVeh="4.636842" electricity_perVeh="0"/>
        <edge id=":10_1" sampledSeconds="0.00" CO_abs="0" CO2_abs="0" HC_abs="0" PMx_abs="0" NOx_abs="0" fuel_abs="0" electricity_abs="0"
            CO_normed="0" CO2_normed="0" HC_normed="0" PMx_normed="0" NOx_normed="0" fuel_normed="0" electricity_normed="0"/>
        <edge id=":100_0" sampledSeconds="0.00" CO_abs="0" CO2_abs="0" HC_abs="0" PMx_abs="0" NOx_abs="0" fuel_abs="0" electricity_abs="0"
            CO_normed="0" CO2_normed="0" HC_normed="0" PMx_normed="0" NOx_normed="0" fuel_normed="0" electricity_normed="0"/>
        <edge id=":100_1" sampledSeconds="911.84" CO_abs="22668.074351" CO2_abs="2806913.739009" HC_abs="171.370617" PMx_abs="51.017384" NOx_abs="1051.451391" fuel_abs="1206.563347" electricity_abs="0"
            CO_normed="144.703773" CO2_normed="17918.196413" HC_normed="1.093960" PMx_normed="0.325674" NOx_normed="6.712038" fuel_normed="7.702210" electricity_normed="0"
            traveltime="1.37" CO_perVeh="34.083463" CO2_perVeh="4220.444135" HC_perVeh="0.257671" PMx_perVeh="0.076709" NOx_perVeh="1.580951" fuel_perVeh="1.814175" electricity_perVeh="0"/>
        <edge id=":101_0" sampledSeconds="438.34" CO_abs="11326.230935" CO2_abs="1421035.848881" HC_abs="86.140462" PMx_abs="25.743060" NOx_abs="531.268372" fuel_abs="610.838136" electricity_abs="0"
            CO_normed="261.597152" CO2_normed="32821.062332" HC_normed="1.989550" PMx_normed="0.594577" NOx_normed="12.270480" fuel_normed="14.108269" electricity_normed="0"
            traveltime="0.38" CO_perVeh="9.784393" CO2_perVeh="1227.590435" HC_perVeh="0.074414" PMx_perVeh="0.022239" NOx_perVeh="0.458947" fuel_perVeh="0.527685" electricity_perVeh="0"/>
        <edge id=":102_0" sampledSeconds="341.92" CO_abs="7698.111105" CO2_abs="954585.156047" HC_abs="58.248032" PMx_abs="17.347801" NOx_abs="357.482518" fuel_abs="410.332338" electricity_abs="0"
            CO_normed="179.336551" CO2_normed="22238.183738" HC_normed="1.356956" PMx_normed="0.404137" NOx_normed="8.327976" fuel_normed="9.559174" electricity_normed="0"
            traveltime="0.38" CO_perVeh="8.468597" CO2_perVeh="1050.127293" HC_perVeh="0.064078" PMx_perVeh="0.019084" NOx_perVeh="0.393262" fuel_perVeh="0.451402" electricity_perVeh="0"/>
        <edge id=":103_0" sampledSeconds="434.18" CO_abs="10276.778197" CO2_abs="1294207.689965" HC_abs="78.227620" PMx_abs="23.419175" NOx_abs="483.341392" fuel_abs="556.320560" electricity_abs="0"
            CO_normed="240.896649" CO2_normed="30337.357679" HC_normed="1.833724" PMx_normed="0.548966" NOx_normed="11.329944" fuel_normed="13.040639" electricity_normed="0"
            traveltime="0.37" CO_perVeh="8.829413" CO2_perVeh="1111.933477" HC_perVeh="0.067210" PMx_perVeh="0.020121" NOx_perVeh="0.415268" fuel_perVeh="0.477969" electricity_perVeh="0"/>
        <edge id=":104_0" sampledSeconds="341.02" CO_abs="8433.631377" CO2_abs="1045957.424312" HC_abs="63.814698" PMx_abs="19.010340" NOx_abs="391.584903" fuel_abs="449.609090" electricity_abs="0"
            CO_normed="196.714217" CO2_normed="24396.927839" HC_normed="1.488476" PMx_normed="0.443416" NOx_normed="9.133707" fuel_normed="10.487120" electricity_normed="0"
            traveltime="0.37" CO_perVeh="9.273496" CO2_perVeh="1150.119277" HC_perVeh="0.070170" PMx_perVeh="0.020903" NOx_perVeh="0.430581" fuel_perVeh="0.494383" electricity_perVeh="0"/>
        <edge id=":105_0" sampledSeconds="168.57" CO_abs="3969.276002" CO2_abs="494495.801470" HC_abs="30.077523" PMx_abs="8.976040" NOx_abs="184.940416" fuel_abs="212.561061" electricity_abs="0"
            CO_normed="3404.538690" CO2_normed="424140.343778" HC_normed="25.798179" PMx_normed="7.698955" NOx_normed="158.627619" fuel_normed="182.318477" electricity_normed="0"
            traveltime="0.01" CO_perVeh="0.240031" CO2_perVeh="29.903211" HC_perVeh="0.001819" PMx_perVeh="0.000543" NOx_perVeh="0.011184" fuel_perVeh="0.012854" electricity_perVeh="0"/>
        <edge id=":106_0" sampledSeconds="134.50" CO_abs="3130.821571" CO2_abs="382398.386525" HC_abs="23.567005" PMx_abs="6.981600" NOx_abs="143.594544" fuel_abs="164.375488" electricity_abs="0"
            CO_normed="1905.751542" CO2_normed="232768.395871" HC_normed="14.345390" PMx_normed="4.249745" NOx_normed="87.406937" fuel_normed="100.056433" electricity_normed="0"
            traveltime="0.01" CO_perVeh="0.334746" CO2_perVeh="40.885810" HC_perVeh="0.002520" PMx_perVeh="0.000746" NOx_perVeh="0.015353" fuel_perVeh="0.017575" electricity_perVeh="0"/>
        <edge id=":107_0" sampledSeconds="438.77" CO_abs="10555.815559" CO2_abs="1310194.872885" HC_abs="79.903056" PMx_abs="23.801808" NOx_abs="490.620142" fuel_abs="563.192634" electricity_abs="0"
            CO_normed="243.803195" CO2_normed="30261.015318" HC_normed="1.845487" PMx_normed="0.549740" NOx_normed="11.331645" fuel_normed="13.007821" electricity_normed="0"
            traveltime="0.38" CO_perVeh="9.118854" CO2_perVeh="1131.838226" HC_perVeh="0.069026" PMx_perVeh="0.020562" NOx_perVeh="0.423832" fuel_perVeh="0.486525" electricity_perVeh="0"/>
        <edge id=":108_0" sampledSeconds="94.13" CO_abs="7665.869682" CO2_abs="559296.751807" HC_abs="48.349797" PMx_abs="11.225306" NOx_abs="235.731870" fuel_abs="240.415061" electricity_abs="0"
            CO_normed="120.244567" CO2_normed="8772.963573" HC_normed="0.758401" PMx_normed="0.176077" NOx_normed="3.697620" fuel_normed="3.771080" electricity_normed="0"
            traveltime="0.86" CO_perVeh="69.699436" CO2_perVeh="5085.224474" HC_perVeh="0.439605" PMx_perVeh="0.102062" NOx_perVeh="2.143316" fuel_perVeh="2.185896" electricity_perVeh="0"/>
        <edge id=":108_1" sampledSeconds="403.41" CO_abs="9808.747470" CO2_abs="1225871.652514" HC_abs="74.470981" PMx_abs="22.227068" NOx_abs="458.644398" fuel_abs="526.945977" electricity_abs="0"
            CO_normed="143.480704" CO2_normed="17931.843851" HC_normed="1.089349" PMx_normed="0.325134" NOx_normed="6.708973" fuel_normed="7.708077" electricity_normed="0"
            traveltime="0.60" CO_perVeh="14.571137" CO2_perVeh="1821.062705" HC_perVeh="0.110628" PMx_perVeh="0.033019" NOx_perVeh="0.681328" fuel_perVeh="0.782791" electricity_perVeh="0"/>
        <edge id=":109_0" sampledSeconds="307.44" CO_abs="129.293205" CO2_abs="23424.169288" HC_abs="1.117065" PMx_abs="0.295015" NOx_abs="8.406052" fuel_abs="10.069072" electricity_abs="0"
            CO_normed="1.944024" CO2_normed="352.200630" HC_normed="0.016796" PMx_normed="0.004436" NOx_normed="0.126392" fuel_normed="0.151396" electricity_normed="0"
            traveltime="0.85" CO_perVeh="0.359363" CO2_perVeh="65.106045" HC_perVeh="0.003105" PMx_perVeh="0.000820" NOx_perVeh="0.023364" fuel_perVeh="0.027986" electricity_perVeh="0"/>
        <edge id=":109_1" sampledSeconds="524.26" CO_abs="12097.094037" CO2_abs="1520173.715934" HC_abs="92.020621" PMx_abs="27.524463" NOx_abs="568.016180" fuel_abs="653.452978" electricity_abs="0"
            CO_normed="118.643963" CO2_normed="14909.319029" HC_normed="0.902505" PMx_normed="0.269950" NOx_normed="5.570899" fuel_normed="6.408833" electricity_normed="0"
            traveltime="0.89" CO_perVeh="20.598470" CO2_perVeh="2588.493816" HC_perVeh="0.156689" PMx_perVeh="0.046868" NOx_perVeh="0.967196" fuel_perVeh="1.112675" electricity_perVeh="0"/>
        <edge id=":11_0" sampledSeconds="300.02" CO_abs="18864.673365" CO2_abs="1338119.689352" HC_abs="117.589622" PMx_abs="24.547480" NOx_abs="553.334521" fuel_abs="575.197525" electricity_abs="0"
            CO_normed="195.054546" CO2_normed="13835.719495" HC_normed="1.215838" PMx_normed="0.253813" NOx_normed="5.721298" fuel_normed="5.947354" electricity_normed="0"
            traveltime="1.59" CO_perVeh="99.791388" CO2_perVeh="7078.459226" HC_perVeh="0.622032" PMx_perVeh="0.129853" NOx_perVeh="2.927059" fuel_perVeh="3.042712" electricity_perVeh="0"/>
        <edge id=":11_1" sampledSeconds="51.07" CO_abs="934.242124" CO2_abs="80953.482209" HC_abs="6.104271" PMx_abs="1.091104" NOx_abs="30.748771" fuel_abs="34.798708" electricity_abs="0"
            CO_normed="9.903965" CO2_normed="858.193436" HC_normed="0.064712" PMx_normed="0.011567" NOx_normed="0.325970" fuel_normed="0.368903" electricity_normed="0"
            traveltime="1.68" CO_perVeh="30.727106" CO2_perVeh="2662.549858" HC_perVeh="0.200769" PMx_perVeh="0.035886" NOx_perVeh="1.011323" fuel_perVeh="1.144525" electricity_perVeh="0"/>
        <edge id=":110_0" sampledSeconds="94.17" CO_abs="3.163199" CO2_abs="467.749195" HC_abs="0.024861" PMx_abs="0.004523" NOx_abs="0.163384" fuel_abs="0.201068" electricity_abs="0"
            CO_normed="0.041024" CO2_normed="6.066242" HC_normed="0.000322" PMx_normed="0.000059" NOx_normed="0.002119" fuel_normed="0.002608" electricity_normed="0"
            traveltime="0.92" CO_perVeh="0.030970" CO2_perVeh="4.579605" HC_perVeh="0.000243" PMx_perVeh="0.000044" NOx_perVeh="0.001600" fuel_perVeh="0.001969" electricity_perVeh="0"/>
        <edge id=":110_1" sampledSeconds="443.71" CO_abs="11027.264625" CO2_abs="1333277.426841" HC_abs="82.628701" PMx_abs="24.413950" NOx_abs="501.195439" fuel_abs="573.114643" electricity_abs="0"
            CO_normed="141.553339" CO2_normed="17114.840175" HC_normed="1.060677" PMx_normed="0.313394" NOx_normed="6.433680" fuel_normed="7.356883" electricity_normed="0"
            traveltime="0.68" CO_perVeh="16.939537" CO2_perVeh="2048.114678" HC_perVeh="0.126930" PMx_perVeh="0.037504" NOx_perVeh="0.769912" fuel_perVeh="0.880390" electricity_perVeh="0"/>
        <edge id=":111_0" sampledSeconds="340.69" CO_abs="8181.623251" CO2_abs="1030877.949136" HC_abs="62.300164" PMx_abs="18.653495" NOx_abs="384.946469" fuel_abs="443.127179" electricity_abs="0"
            CO_normed="188.967482" CO2_normed="23809.750790" HC_normed="1.438920" PMx_normed="0.430832" NOx_normed="8.890945" fuel_normed="10.234721" electricity_normed="0"
            traveltime="0.38" CO_perVeh="9.092597" CO2_perVeh="1145.659955" HC_perVeh="0.069237" PMx_perVeh="0.020730" NOx_perVeh="0.427808" fuel_perVeh="0.492467" electricity_perVeh="0"/>
        <edge id=":114_0" sampledSeconds="106.35" CO_abs="11126.524887" CO2_abs="789562.714661" HC_abs="69.728960" PMx_abs="16.213846" NOx_abs="335.548499" fuel_abs="339.395106" electricity_abs="0"
            CO_normed="147.856648" CO2_normed="10492.233414" HC_normed="0.926605" PMx_normed="0.215460" NOx_normed="4.458991" fuel_normed="4.510107" electricity_normed="0"
            traveltime="0.98" CO_perVeh="102.932769" CO2_perVeh="7304.336003" HC_perVeh="0.645071" PMx_perVeh="0.149996" NOx_perVeh="3.104198" fuel_perVeh="3.139783" electricity_perVeh="0"/>
        <edge id=":114_1" sampledSeconds="415.87" CO_abs="9924.032370" CO2_abs="1248344.180747" HC_abs="75.479498" PMx_abs="22.583934" NOx_abs="466.442433" fuel_abs="536.605926" electricity_abs="0"
            CO_normed="131.046552" CO2_normed="16484.347784" HC_normed="0.996705" PMx_normed="0.298220" NOx_normed="6.159358" fuel_normed="7.085865" electricity_normed="0"
            traveltime="0.66" CO_perVeh="15.813699" CO2_perVeh="1989.205450" HC_perVeh="0.120275" PMx_perVeh="0.035987" NOx_perVeh="0.743264" fuel_perVeh="0.855068" electricity_perVeh="0"/>
        <edge id=":115_0" sampledSeconds="80.57" CO_abs="60.956840" CO2_abs="9608.681251" HC_abs="0.496721" PMx_abs="0.112304" NOx_abs="3.449944" fuel_abs="4.130386" electricity_abs="0"
            CO_normed="1.377544" CO2_normed="217.143567" HC_normed="0.011225" PMx_normed="0.002538" NOx_normed="0.077964" fuel_normed="0.093341" electricity_normed="0"
            traveltime="0.63" CO_perVeh="0.479682" CO2_perVeh="75.612650" HC_perVeh="0.003909" PMx_perVeh="0.000884" NOx_perVeh="0.027148" fuel_perVeh="0.032503" electricity_perVeh="0"/>
        <edge id=":115_1" sampledSeconds="72.08" CO_abs="1027.263588" CO2_abs="165438.610896" HC_abs="8.385962" PMx_abs="2.402483" NOx_abs="61.062582" fuel_abs="71.114781" electricity_abs="0"
            CO_normed="20.731940" CO2_normed="3338.834715" HC_normed="0.169243" PMx_normed="0.048486" NOx_normed="1.232348" fuel_normed="1.435218" electricity_normed="0"
            traveltime="0.59" CO_perVeh="8.409872" CO2_perVeh="1354.391920" HC_perVeh="0.068653" PMx_perVeh="0.019668" NOx_perVeh="0.499899" fuel_perVeh="0.582194" electricity_perVeh="0"/>
        <edge id=":116_0" sampledSeconds="74.53" CO_abs="87.453985" CO2_abs="14807.165530" HC_abs="0.733554" PMx_abs="0.181517" NOx_abs="5.338804" fuel_abs="6.364989" electricity_abs="0"
            CO_normed="2.206214" CO2_normed="373.542473" HC_normed="0.018505" PMx_normed="0.004579" NOx_normed="0.134683" fuel_normed="0.160570" electricity_normed="0"
            traveltime="0.56" CO_perVeh="0.660343" CO2_perVeh="111.805213" HC_perVeh="0.005539" PMx_perVeh="0.001371" NOx_perVeh="0.040312" fuel_perVeh="0.048060" electricity_perVeh="0"/>
        <edge id=":117_0" sampledSeconds="240.27" CO_abs="13330.614776" CO2_abs="1121348.482695" HC_abs="87.367344" PMx_abs="20.417650" NOx_abs="456.477128" fuel_abs="482.016081" electricity_abs="0"
            CO_normed="301.254373" CO2_normed="25341.001848" HC_normed="1.974387" PMx_normed="0.461412" NOx_normed="10.315783" fuel_normed="10.892930" electricity_normed="0"
            traveltime="0.60" CO_perVeh="33.509030" CO2_perVeh="2818.722175" HC_perVeh="0.219614" PMx_perVeh="0.051324" NOx_perVeh="1.147442" fuel_perVeh="1.211639" electricity_perVeh="0"/>
        <edge id=":117_1" sampledSeconds="75.61" CO_abs="4760.698460" CO2_abs="393849.112531" HC_abs="31.044660" PMx_abs="7.234297" NOx_abs="160.905261" fuel_abs="169.297551" electricity_abs="0"
            CO_normed="101.392681" CO2_normed="8388.142613" HC_normed="0.661185" PMx_normed="0.154075" NOx_normed="3.426937" fuel_normed="3.605675" electricity_normed="0"
            traveltime="0.64" CO_perVeh="40.249042" CO2_perVeh="3329.773884" HC_perVeh="0.262465" PMx_perVeh="0.061162" NOx_perVeh="1.360364" fuel_perVeh="1.431316" electricity_perVeh="0"/>
        <edge id=":118_0" sampledSeconds="899.16" CO_abs="12779.974949" CO2_abs="2013015.734520" HC_abs="103.113987" PMx_abs="29.579712" NOx_abs="744.252103" fuel_abs="865.306668" electricity_abs="0"
            CO_normed="38.777437" CO2_normed="6107.961192" HC_normed="0.312872" PMx_normed="0.089752" NOx_normed="2.258235" fuel_normed="2.625543" electricity_normed="0"
            traveltime="3.92" CO_perVeh="55.759025" CO2_perVeh="8782.786775" HC_perVeh="0.449886" PMx_perVeh="0.129056" NOx_perVeh="3.247172" fuel_perVeh="3.775333" electricity_perVeh="0"/>
        <edge id=":118_4" sampledSeconds="283.01" CO_abs="4122.167503" CO2_abs="621008.842559" HC_abs="32.951218" PMx_abs="9.298957" NOx_abs="231.024106" fuel_abs="266.944222" electricity_abs="0"
            CO_normed="12.531803" CO2_normed="1887.929163" HC_normed="0.100175" PMx_normed="0.028270" NOx_normed="0.702336" fuel_normed="0.811537" electricity_normed="0"
            traveltime="3.92" CO_perVeh="57.151299" CO2_perVeh="8609.902938" HC_perVeh="0.456848" PMx_perVeh="0.128924" NOx_perVeh="3.203006" fuel_perVeh="3.701016" electricity_perVeh="0"/>
        <edge id=":118_5" sampledSeconds="238.73" CO_abs="3868.264826" CO2_abs="584453.631898" HC_abs="30.774162" PMx_abs="8.827772" NOx_abs="217.750426" fuel_abs="251.230607" electricity_abs="0"
            CO_normed="11.876632" CO2_normed="1794.432648" HC_normed="0.094485" PMx_normed="0.027104" NOx_normed="0.668553" fuel_normed="0.771347" electricity_normed="0"
            traveltime="3.82" CO_perVeh="61.909482" CO2_perVeh="9353.863677" HC_perVeh="0.492524" PMx_perVeh="0.141284" NOx_perVeh="3.484978" fuel_perVeh="4.020810" electricity_perVeh="0"/>
        <edge id=":119_0" sampledSeconds="139.41" CO_abs="1864.162676" CO2_abs="308627.818909" HC_abs="15.382271" PMx_abs="4.468402" NOx_abs="113.603094" fuel_abs="132.665516" electricity_abs="0"
            CO_normed="39.973373" CO2_normed="6617.928242" HC_normed="0.329843" PMx_normed="0.095816" NOx_normed="2.435999" fuel_normed="2.844756" electricity_normed="0"
            traveltime="0.56" CO_perVeh="7.473296" CO2_perVeh="1237.267007" HC_perVeh="0.061666" PMx_perVeh="0.017914" NOx_perVeh="0.455427" fuel_perVeh="0.531847" electricity_perVeh="0"/>
        <edge id=":12_0" sampledSeconds="590.60" CO_abs="53646.017797" CO2_abs="3045420.299020" HC_abs="316.563424" PMx_abs="59.491716" NOx_abs="1296.440544" fuel_abs="1309.091541" electricity_abs="0"
            CO_normed="502.629159" CO2_normed="28533.656470" HC_normed="2.965998" PMx_normed="0.557400" NOx_normed="12.146826" fuel_normed="12.265357" electricity_normed="0"
            traveltime="2.12" CO_perVeh="192.967240" CO2_perVeh="10954.519514" HC_perVeh="1.138693" PMx_perVeh="0.213994" NOx_perVeh="4.663357" fuel_perVeh="4.708864" electricity_perVeh="0"/>
        <edge id=":12_1" sampledSeconds="56.20" CO_abs="1062.418403" CO2_abs="92838.518713" HC_abs="6.959572" PMx_abs="1.249296" NOx_abs="35.241844" fuel_abs="39.907612" electricity_abs="0"
            CO_normed="9.944311" CO2_normed="868.975098" HC_normed="0.065142" PMx_normed="0.011694" NOx_normed="0.329866" fuel_normed="0.373538" electricity_normed="0"
            traveltime="1.90" CO_perVeh="35.826233" CO2_perVeh="3130.644549" HC_perVeh="0.234686" PMx_perVeh="0.042128" NOx_perVeh="1.188404" fuel_perVeh="1.345740" electricity_perVeh="0"/>
        <edge id=":120_0" sampledSeconds="38.97" CO_abs="603.440511" CO2_abs="91636.809333" HC_abs="4.786443" PMx_abs="1.364590" NOx_abs="34.034467" fuel_abs="39.390608" electricity_abs="0"
            CO_normed="474.452651" CO2_normed="72049.069084" HC_normed="3.763321" PMx_normed="1.072904" NOx_normed="26.759461" fuel_normed="30.970705" electricity_normed="0"
            traveltime="0.01" CO_perVeh="0.232192" CO2_perVeh="35.260019" HC_perVeh="0.001842" PMx_perVeh="0.000525" NOx_perVeh="0.013096" fuel_perVeh="0.015157" electricity_perVeh="0"/>
        <edge id=":121_0" sampledSeconds="373.12" CO_abs="53297.110149" CO2_abs="1434000.241503" HC_abs="276.370962" PMx_abs="30.989640" NOx_abs="634.423047" fuel_abs="616.432252" electricity_abs="0"
            CO_normed="30476.099162" CO2_normed="819983.174244" HC_normed="158.033125" PMx_normed="17.720348" NOx_normed="362.772759" fuel_normed="352.485349" electricity_normed="0"
            traveltime="0.11" CO_perVeh="16.344765" CO2_perVeh="439.768640" HC_perVeh="0.084755" PMx_perVeh="0.009504" NOx_perVeh="0.194560" fuel_perVeh="0.189043" electricity_perVeh="0"/>
        <edge id=":122_0" sampledSeconds="134.74" CO_abs="913.846782" CO2_abs="94364.652276" HC_abs="6.368581" PMx_abs="1.662204" NOx_abs="37.279945" fuel_abs="40.562999" electricity_abs="0"
            CO_normed="20.121587" CO2_normed="2077.773382" HC_normed="0.140227" PMx_normed="0.036599" NOx_normed="0.820851" fuel_normed="0.893139" electricity_normed="0"
            traveltime="0.54" CO_perVeh="3.643826" CO2_perVeh="376.264785" HC_perVeh="0.025394" PMx_perVeh="0.006628" NOx_perVeh="0.148648" fuel_perVeh="0.161739" electricity_perVeh="0"/>
        <edge id=":123_0" sampledSeconds="309.93" CO_abs="40712.817886" CO2_abs="2499584.121119" HC_abs="245.450832" PMx_abs="51.490384" NOx_abs="1073.349673" fuel_abs="1074.454621" electricity_abs="0"
            CO_normed="155.264128" CO2_normed="9532.519941" HC_normed="0.936062" PMx_normed="0.196366" NOx_normed="4.093372" fuel_normed="4.097586" electricity_normed="0"
            traveltime="4.22" CO_perVeh="554.429648" CO2_perVeh="34039.489712" HC_perVeh="3.342564" PMx_perVeh="0.701199" NOx_perVeh="14.616942" fuel_perVeh="14.631989" electricity_perVeh="0"/>
        <edge id=":123_1" sampledSeconds="0.00" CO_abs="0" CO2_abs="0" HC_abs="0" PMx_abs="0" NOx_abs="0" fuel_abs="0" electricity_abs="0"
            CO_normed="0" CO2_normed="0" HC_normed="0" PMx_normed="0" NOx_normed="0" fuel_normed="0" electricity_normed="0"/>
        <edge id=":123_2" sampledSeconds="266.28" CO_abs="35390.923825" CO2_abs="2166981.804716" HC_abs="213.235600" PMx_abs="44.718236" NOx_abs="931.167124" fuel_abs="931.484346" electricity_abs="0"
            CO_normed="136.262657" CO2_normed="8343.345314" HC_normed="0.821003" PMx_normed="0.172175" NOx_normed="3.585193" fuel_normed="3.586415" electricity_normed="0"
            traveltime="4.19" CO_perVeh="556.274751" CO2_perVeh="34060.632905" HC_perVeh="3.351638" PMx_perVeh="0.702882" NOx_perVeh="14.636090" fuel_perVeh="14.641077" electricity_perVeh="0"/>
        <edge id=":123_3" sampledSeconds="469.35" CO_abs="23281.414232" CO2_abs="2178345.585548" HC_abs="157.502348" PMx_abs="40.743736" NOx_abs="874.692086" fuel_abs="936.368397" electricity_abs="0"
            CO_normed="91.715661" CO2_normed="8581.454869" HC_normed="0.620471" PMx_normed="0.160507" NOx_normed="3.445794" fuel_normed="3.688764" electricity_normed="0"
            traveltime="2.81" CO_perVeh="139.348696" CO2_perVeh="13038.280795" HC_perVeh="0.942715" PMx_perVeh="0.243868" NOx_perVeh="5.235386" fuel_perVeh="5.604544" electricity_perVeh="0"/>
        <edge id=":123_5" sampledSeconds="0.00" CO_abs="0" CO2_abs="0" HC_abs="0" PMx_abs="0" NOx_abs="0" fuel_abs="0" electricity_abs="0"
            CO_normed="0" CO2_normed="0" HC_normed="0" PMx_normed="0" NOx_normed="0" fuel_normed="0" electricity_normed="0"/>
        <edge id=":123_6" sampledSeconds="194.70" CO_abs="9433.171182" CO2_abs="874051.941560" HC_abs="63.685294" PMx_abs="16.429864" NOx_abs="351.855180" fuel_abs="375.713782" electricity_abs="0"
            CO_normed="35.894943" CO2_normed="3325.927591" HC_normed="0.242334" PMx_normed="0.062519" NOx_normed="1.338873" fuel_normed="1.429660" electricity_normed="0"
            traveltime="2.91" CO_perVeh="141.124480" CO2_perVeh="13076.209833" HC_perVeh="0.952761" PMx_perVeh="0.245798" NOx_perVeh="5.263912" fuel_perVeh="5.620847" electricity_perVeh="0"/>
        <edge id=":124_0" sampledSeconds="119.07" CO_abs="4238.220298" CO2_abs="365914.261332" HC_abs="27.863611" PMx_abs="7.069918" NOx_abs="149.013525" fuel_abs="157.289194" electricity_abs="0"
            CO_normed="99.224322" CO2_normed="8566.707738" HC_normed="0.652337" PMx_normed="0.165519" NOx_normed="3.488673" fuel_normed="3.682422" electricity_normed="0"
            traveltime="0.46" CO_perVeh="16.464770" CO2_perVeh="1421.515121" HC_perVeh="0.108245" PMx_perVeh="0.027465" NOx_perVeh="0.578892" fuel_perVeh="0.611042" electricity_perVeh="0"/>
        <edge id=":125_0" sampledSeconds="140.99" CO_abs="5414.776184" CO2_abs="546934.560581" HC_abs="37.612769" PMx_abs="10.197435" NOx_abs="215.836354" fuel_abs="235.101512" electricity_abs="0"
            CO_normed="340.587662" CO2_normed="34402.006117" HC_normed="2.365831" PMx_normed="0.641415" NOx_normed="13.576037" fuel_normed="14.787809" electricity_normed="0"
            traveltime="0.16" CO_perVeh="6.201309" CO2_perVeh="626.380485" HC_perVeh="0.043076" PMx_perVeh="0.011679" NOx_perVeh="0.247188" fuel_perVeh="0.269252" electricity_perVeh="0"/>
        <edge id=":125_3" sampledSeconds="0.00" CO_abs="0" CO2_abs="0" HC_abs="0" PMx_abs="0" NOx_abs="0" fuel_abs="0" electricity_abs="0"
            CO_normed="0" CO2_normed="0" HC_normed="0" PMx_normed="0" NOx_normed="0" fuel_normed="0" electricity_normed="0"/>
        <edge id=":126_0" sampledSeconds="27.06" CO_abs="144.315049" CO2_abs="10237.354537" HC_abs="0.894450" PMx_abs="0.162048" NOx_abs="4.077591" fuel_abs="4.400617" electricity_abs="0"
            CO_normed="4.752550" CO2_normed="337.134175" HC_normed="0.029456" PMx_normed="0.005337" NOx_normed="0.134282" fuel_normed="0.144920" electricity_normed="0"
            traveltime="0.57" CO_perVeh="3.020094" CO2_perVeh="214.238021" HC_perVeh="0.018718" PMx_perVeh="0.003391" NOx_perVeh="0.085332" fuel_perVeh="0.092092" electricity_perVeh="0"/>
        <edge id=":126_1" sampledSeconds="81.06" CO_abs="1179.731552" CO2_abs="186853.156665" HC_abs="9.665496" PMx_abs="2.981008" NOx_abs="69.016856" fuel_abs="80.319740" electricity_abs="0"
            CO_normed="34.567421" CO2_normed="5475.001319" HC_normed="0.283210" PMx_normed="0.087347" NOx_normed="2.022269" fuel_normed="2.353456" electricity_normed="0"
            traveltime="0.35" CO_perVeh="5.104901" CO2_perVeh="808.545713" HC_perVeh="0.041824" PMx_perVeh="0.012899" NOx_perVeh="0.298648" fuel_perVeh="0.347557" electricity_perVeh="0"/>
        <edge id=":127_0" sampledSeconds="234.29" CO_abs="4852.619157" CO2_abs="632742.844944" HC_abs="36.799690" PMx_abs="10.800333" NOx_abs="239.026004" fuel_abs="271.987186" electricity_abs="0"
            CO_normed="112.216238" CO2_normed="14632.102690" HC_normed="0.850988" PMx_normed="0.249756" NOx_normed="5.527448" fuel_normed="6.289671" electricity_normed="0"
            traveltime="0.44" CO_perVeh="9.074515" CO2_perVeh="1183.244404" HC_perVeh="0.068816" PMx_perVeh="0.020197" NOx_perVeh="0.446984" fuel_perVeh="0.508623" electricity_perVeh="0"/>
        <edge id=":128_0" sampledSeconds="229.25" CO_abs="165.951642" CO2_abs="30777.124074" HC_abs="1.438906" PMx_abs="0.442217" NOx_abs="11.148233" fuel_abs="13.229735" electricity_abs="0"
            CO_normed="2.564694" CO2_normed="475.644005" HC_normed="0.022238" PMx_normed="0.006834" NOx_normed="0.172290" fuel_normed="0.204458" electricity_normed="0"
            traveltime="0.75" CO_perVeh="0.545543" CO2_perVeh="101.175610" HC_perVeh="0.004730" PMx_perVeh="0.001454" NOx_perVeh="0.036648" fuel_perVeh="0.043491" electricity_perVeh="0"/>
        <edge id=":128_1" sampledSeconds="142.47" CO_abs="140.702467" CO2_abs="21668.513070" HC_abs="1.134439" PMx_abs="0.258083" NOx_abs="7.806563" fuel_abs="9.314418" electricity_abs="0"
            CO_normed="2.246228" CO2_normed="345.924475" HC_normed="0.018111" PMx_normed="0.004120" NOx_normed="0.124627" fuel_normed="0.148699" electricity_normed="0"
            traveltime="0.85" CO_perVeh="0.843431" CO2_perVeh="129.890419" HC_perVeh="0.006800" PMx_perVeh="0.001547" NOx_perVeh="0.046796" fuel_perVeh="0.055835" electricity_perVeh="0"/>
        <edge id=":129_0" sampledSeconds="104.98" CO_abs="6153.781863" CO2_abs="533049.054276" HC_abs="40.688392" PMx_abs="10.193956" NOx_abs="217.408017" fuel_abs="229.132599" electricity_abs="0"
            CO_normed="143.359585" CO2_normed="12418.004549" HC_normed="0.947884" PMx_normed="0.237480" NOx_normed="5.064775" fuel_normed="5.337913" electricity_normed="0"
            traveltime="0.50" CO_perVeh="29.165696" CO2_perVeh="2526.372745" HC_perVeh="0.192842" PMx_perVeh="0.048314" NOx_perVeh="1.030400" fuel_perVeh="1.085968" electricity_perVeh="0"/>
        <edge id=":13_0" sampledSeconds="59.92" CO_abs="4959.175361" CO2_abs="357080.460160" HC_abs="31.105262" PMx_abs="6.856738" NOx_abs="149.245432" fuel_abs="153.492353" electricity_abs="0"
            CO_normed="35.061505" CO2_normed="2524.568554" HC_normed="0.219915" PMx_normed="0.048477" NOx_normed="1.055169" fuel_normed="1.085195" electricity_normed="0"
            traveltime="2.12" CO_perVeh="175.414003" CO2_perVeh="12630.509809" HC_perVeh="1.100243" PMx_perVeh="0.242534" NOx_perVeh="5.279051" fuel_perVeh="5.429271" electricity_perVeh="0"/>
        <edge id=":13_1" sampledSeconds="534.07" CO_abs="15444.108138" CO2_abs="1142010.647585" HC_abs="96.659206" PMx_abs="17.171958" NOx_abs="447.946728" fuel_abs="490.904259" electricity_abs="0"
            CO_normed="153.869490" CO2_normed="11377.840327" HC_normed="0.963015" PMx_normed="0.171084" NOx_normed="4.462889" fuel_normed="4.890874" electricity_normed="0"
            traveltime="1.86" CO_perVeh="53.919054" CO2_perVeh="3987.030746" HC_perVeh="0.337460" PMx_perVeh="0.059951" NOx_perVeh="1.563889" fuel_perVeh="1.713864" electricity_perVeh="0"/>
        <edge id=":132_0" sampledSeconds="40.99" CO_abs="484.955479" CO2_abs="87972.843141" HC_abs="4.100027" PMx_abs="1.215454" NOx_abs="31.902164" fuel_abs="37.815701" electricity_abs="0"
            CO_normed="915.106261" CO2_normed="166003.897320" HC_normed="7.736710" PMx_normed="2.293551" NOx_normed="60.199072" fuel_normed="71.357860" electricity_normed="0"
            traveltime="6.354029e-03" CO_perVeh="0.075181" CO2_perVeh="13.638143" HC_perVeh="0.000636" PMx_perVeh="0.000188" NOx_perVeh="0.004946" fuel_perVeh="0.005862" electricity_perVeh="0"/>