<?xml version="1.0" encoding="UTF-8"?>

<!-- generated on Tue Nov 10 05:32:02 2020 by Eclipse SUMO sumo Version 1.7.0
<configuration xmlns:xsi="http://www.w3.org/2001/XMLSchema-instance" xsi:noNamespaceSchemaLocation="http://sumo.dlr.de/xsd/sumoConfiguration.xsd">

    <input>
        <net-file value="../dataSets/Porto/8AM9AM_Routing_SaoBento/Porto.net.xml"/>
        <route-files value="../results/Porto/8AM9AM_Routing_SaoBento/cost_hc-ttime/solution4/Porto.rou.xml"/>
        <additional-files value="moreOutputInfo.xml"/>
    </input>

    <output>
        <emission-output.precision value="6"/>
        <tripinfo-output value="../results/Porto/8AM9AM_Routing_SaoBento/cost_hc-ttime/solution4/Porto-tripinfo"/>
    </output>

    <processing>
        <collision.action value="warn"/>
        <time-to-teleport value="-1"/>
    </processing>

    <emissions>
        <device.emissions.probability value="1"/>
    </emissions>

    <gui_only>
        <quit-on-end value="true"/>
        <start value="true"/>
    </gui_only>

</configuration>
-->

<meandata xmlns:xsi="http://www.w3.org/2001/XMLSchema-instance" xsi:noNamespaceSchemaLocation="http://sumo.dlr.de/xsd/meandata_file.xsd">
    <interval begin="0.00" end="9258.00" id="emissions-detector">
        <edge id=":1092997347_0" sampledSeconds="589.50" CO_abs="71679.809317" CO2_abs="3081187.195328" HC_abs="399.321575" PMx_abs="62.463877" NOx_abs="1333.893355" fuel_abs="1324.476781" electricity_abs="0"
            CO_normed="63347.501311" CO2_normed="2723019.379598" HC_normed="352.903059" PMx_normed="55.202861" NOx_normed="1178.836996" fuel_normed="1170.515037" electricity_normed="0"
            traveltime="0.07" CO_perVeh="8.212755" CO2_perVeh="353.028796" HC_perVeh="0.045752" PMx_perVeh="0.007157" NOx_perVeh="0.152832" fuel_perVeh="0.151753" electricity_perVeh="0"/>
        <edge id=":1103427051_0" sampledSeconds="19.51" CO_abs="1483.163893" CO2_abs="83266.262712" HC_abs="8.727068" PMx_abs="1.616974" NOx_abs="35.422477" fuel_abs="35.792510" electricity_abs="0"
            CO_normed="1988.732956" CO2_normed="111649.401362" HC_normed="11.701881" PMx_normed="2.168155" NOx_normed="47.497008" fuel_normed="47.993175" electricity_normed="0"
            traveltime="0.03" CO_perVeh="2.306508" CO2_perVeh="129.489576" HC_perVeh="0.013572" PMx_perVeh="0.002515" NOx_perVeh="0.055086" fuel_perVeh="0.055662" electricity_perVeh="0"/>
        <edge id=":1105984386_0" sampledSeconds="10.56" CO_abs="259.627132" CO2_abs="18951.219233" HC_abs="1.610807" PMx_abs="0.242383" NOx_abs="7.164849" fuel_abs="8.146431" electricity_abs="0"
            CO_normed="10.397195" CO2_normed="758.932673" HC_normed="0.064507" PMx_normed="0.009707" NOx_normed="0.286928" fuel_normed="0.326237" electricity_normed="0"
            traveltime="1.01" CO_perVeh="24.905942" CO2_perVeh="1817.983983" HC_perVeh="0.154524" PMx_perVeh="0.023252" NOx_perVeh="0.687322" fuel_perVeh="0.781484" electricity_perVeh="0"/>
        <edge id=":1105984390_0" sampledSeconds="10.35" CO_abs="36.366742" CO2_abs="4487.927191" HC_abs="0.267189" PMx_abs="0.050885" NOx_abs="1.615984" fuel_abs="1.929187" electricity_abs="0"
            CO_normed="1.125901" CO2_normed="138.944541" HC_normed="0.008272" PMx_normed="0.001575" NOx_normed="0.050030" fuel_normed="0.059727" electricity_normed="0"
            traveltime="1.07" CO_perVeh="3.769632" CO2_perVeh="465.200673" HC_perVeh="0.027696" PMx_perVeh="0.005275" NOx_perVeh="0.167506" fuel_perVeh="0.199972" electricity_perVeh="0"/>
        <edge id=":1105984390_1" sampledSeconds="2394.66" CO_abs="62048.355946" CO2_abs="7471568.645455" HC_abs="460.912155" PMx_abs="134.405743" NOx_abs="2836.935048" fuel_abs="3211.682631" electricity_abs="0"
            CO_normed="1837.599555" CO2_normed="221275.020238" HC_normed="13.650192" PMx_normed="3.980507" NOx_normed="84.017546" fuel_normed="95.115922" electricity_normed="0"
            traveltime="0.65" CO_perVeh="16.758229" CO2_perVeh="2017.946473" HC_perVeh="0.124485" PMx_perVeh="0.036301" NOx_perVeh="0.766209" fuel_perVeh="0.867422" electricity_perVeh="0"/>
        <edge id=":1105984395_0" sampledSeconds="4.23" CO_abs="45.265058" CO2_abs="3449.039740" HC_abs="0.285579" PMx_abs="0.051259" NOx_abs="1.348642" fuel_abs="1.482603" electricity_abs="0"
            CO_normed="19.132009" CO2_normed="1457.792445" HC_normed="0.120705" PMx_normed="0.021665" NOx_normed="0.570025" fuel_normed="0.626646" electricity_normed="0"
            traveltime="0.10" CO_perVeh="1.049228" CO2_perVeh="79.947507" HC_perVeh="0.006620" PMx_perVeh="0.001188" NOx_perVeh="0.031261" fuel_perVeh="0.034366" electricity_perVeh="0"/>
        <edge id=":1105984398_0" sampledSeconds="11.53" CO_abs="520.379646" CO2_abs="35761.994137" HC_abs="3.203489" PMx_abs="0.595725" NOx_abs="14.454080" fuel_abs="15.372575" electricity_abs="0"
            CO_normed="16.737066" CO2_normed="1150.219566" HC_normed="0.103034" PMx_normed="0.019160" NOx_normed="0.464889" fuel_normed="0.494431" electricity_normed="0"
            traveltime="1.22" CO_perVeh="55.168229" CO2_perVeh="3791.320227" HC_perVeh="0.339619" PMx_perVeh="0.063156" NOx_perVeh="1.532354" fuel_perVeh="1.629729" electricity_perVeh="0"/>
        <edge id=":1105984398_1" sampledSeconds="642.03" CO_abs="11545.317086" CO2_abs="1358750.515647" HC_abs="83.701204" PMx_abs="19.437830" NOx_abs="513.435906" fuel_abs="584.068936" electricity_abs="0"
            CO_normed="359.441941" CO2_normed="42302.166264" HC_normed="2.605881" PMx_normed="0.605161" NOx_normed="15.984871" fuel_normed="18.183898" electricity_normed="0"
            traveltime="0.95" CO_perVeh="17.117403" CO2_perVeh="2014.520681" HC_perVeh="0.124098" PMx_perVeh="0.028819" NOx_perVeh="0.761234" fuel_perVeh="0.865957" electricity_perVeh="0"/>
        <edge id=":1106006327_0" sampledSeconds="66.95" CO_abs="9082.451514" CO2_abs="297133.067411" HC_abs="48.354497" PMx_abs="6.209305" NOx_abs="130.138062" fuel_abs="127.726936" electricity_abs="0"
            CO_normed="398.615967" CO2_normed="13040.750586" HC_normed="2.122211" PMx_normed="0.272518" NOx_normed="5.711576" fuel_normed="5.605755" electricity_normed="0"
            traveltime="2.08" CO_perVeh="281.552501" CO2_perVeh="9211.010732" HC_perVeh="1.498971" PMx_perVeh="0.192486" NOx_perVeh="4.034230" fuel_perVeh="3.959486" electricity_perVeh="0"/>
        <edge id=":1106006327_1" sampledSeconds="685.66" CO_abs="92878.011129" CO2_abs="3095790.563214" HC_abs="495.870675" PMx_abs="64.618441" NOx_abs="1355.069110" fuel_abs="1330.768886" electricity_abs="0"
            CO_normed="3554.712843" CO2_normed="118484.949679" HC_normed="18.978420" PMx_normed="2.473137" NOx_normed="51.862454" fuel_normed="50.932413" electricity_normed="0"
            traveltime="2.30" CO_perVeh="311.769003" CO2_perVeh="10391.819595" HC_perVeh="1.664518" PMx_perVeh="0.216908" NOx_perVeh="4.548639" fuel_perVeh="4.467069" electricity_perVeh="0"/>
        <edge id=":1106006327_2" sampledSeconds="0.00" CO_abs="0" CO2_abs="0" HC_abs="0" PMx_abs="0" NOx_abs="0" fuel_abs="0" electricity_abs="0"
            CO_normed="0" CO2_normed="0" HC_normed="0" PMx_normed="0" NOx_normed="0" fuel_normed="0" electricity_normed="0"/>
        <edge id=":1106006327_3" sampledSeconds="0.00" CO_abs="0" CO2_abs="0" HC_abs="0" PMx_abs="0" NOx_abs="0" fuel_abs="0" electricity_abs="0"
            CO_normed="0" CO2_normed="0" HC_normed="0" PMx_normed="0" NOx_normed="0" fuel_normed="0" electricity_normed="0"/>
        <edge id=":1107381198_0" sampledSeconds="0.00" CO_abs="0" CO2_abs="0" HC_abs="0" PMx_abs="0" NOx_abs="0" fuel_abs="0" electricity_abs="0"
            CO_normed="0" CO2_normed="0" HC_normed="0" PMx_normed="0" NOx_normed="0" fuel_normed="0" electricity_normed="0"/>
        <edge id=":1107381198_1" sampledSeconds="104.83" CO_abs="4528.191489" CO2_abs="174589.997647" HC_abs="24.620042" PMx_abs="2.945904" NOx_abs="71.920273" fuel_abs="75.050412" electricity_abs="0"
            CO_normed="192.017483" CO2_normed="7403.470458" HC_normed="1.044010" PMx_normed="0.124921" NOx_normed="3.049772" fuel_normed="3.182505" electricity_normed="0"
            traveltime="1.57" CO_perVeh="67.795856" CO2_perVeh="2613.952685" HC_perVeh="0.368610" PMx_perVeh="0.044106" NOx_perVeh="1.076787" fuel_perVeh="1.123651" electricity_perVeh="0"/>
        <edge id=":1110338277_0" sampledSeconds="161.13" CO_abs="2568.979315" CO2_abs="301762.097820" HC_abs="18.601118" PMx_abs="4.219704" NOx_abs="113.563402" fuel_abs="129.714802" electricity_abs="0"
            CO_normed="3567.696484" CO2_normed="419075.221489" HC_normed="25.832494" PMx_normed="5.860157" NOx_normed="157.712344" fuel_normed="180.142768" electricity_normed="0"
            traveltime="0.02" CO_perVeh="0.347944" CO2_perVeh="40.870779" HC_perVeh="0.002519" PMx_perVeh="0.000572" NOx_perVeh="0.015381" fuel_perVeh="0.017569" electricity_perVeh="0"/>
        <edge id=":1110338293_0" sampledSeconds="6689.96" CO_abs="626570.635093" CO2_abs="10948363.610781" HC_abs="3109.183598" PMx_abs="261.634156" NOx_abs="4950.960812" fuel_abs="4706.517526" electricity_abs="0"
            CO_normed="812145.994936" CO2_normed="14191009.216825" HC_normed="4030.050030" PMx_normed="339.123987" NOx_normed="6417.317968" fuel_normed="6100.476378" electricity_normed="0"
            traveltime="0.45" CO_perVeh="41.869536" CO2_perVeh="731.606117" HC_perVeh="0.207766" PMx_perVeh="0.017483" NOx_perVeh="0.330840" fuel_perVeh="0.314505" electricity_perVeh="0"/>
        <edge id=":1110338295_0" sampledSeconds="0.00" CO_abs="0" CO2_abs="0" HC_abs="0" PMx_abs="0" NOx_abs="0" fuel_abs="0" electricity_abs="0"
            CO_normed="0" CO2_normed="0" HC_normed="0" PMx_normed="0" NOx_normed="0" fuel_normed="0" electricity_normed="0"/>
        <edge id=":1110673403_0" sampledSeconds="201.52" CO_abs="2911.499333" CO2_abs="358744.454875" HC_abs="21.472575" PMx_abs="4.914016" NOx_abs="134.080319" fuel_abs="154.209181" electricity_abs="0"
            CO_normed="3773.816375" CO2_normed="464996.052981" HC_normed="27.832242" PMx_normed="6.369432" NOx_normed="173.791730" fuel_normed="199.882283" electricity_normed="0"
            traveltime="0.02" CO_perVeh="0.336499" CO2_perVeh="41.462163" HC_perVeh="0.002482" PMx_perVeh="0.000568" NOx_perVeh="0.015496" fuel_perVeh="0.017823" electricity_perVeh="0"/>
        <edge id=":1110673412_0" sampledSeconds="962.41" CO_abs="170874.080140" CO2_abs="11654230.351756" HC_abs="1063.272747" PMx_abs="256.146643" NOx_abs="5008.681333" fuel_abs="5009.579620" electricity_abs="0"
            CO_normed="229120.271938" CO2_normed="15626831.320655" HC_normed="1425.712669" PMx_normed="343.459865" NOx_normed="6716.000625" fuel_normed="6717.205113" electricity_normed="0"
            traveltime="0.02" CO_perVeh="2.758858" CO2_perVeh="188.164123" HC_perVeh="0.017167" PMx_perVeh="0.004136" NOx_perVeh="0.080868" fuel_perVeh="0.080882" electricity_perVeh="0"/>
        <edge id=":1110673414_0" sampledSeconds="0.00" CO_abs="0" CO2_abs="0" HC_abs="0" PMx_abs="0" NOx_abs="0" fuel_abs="0" electricity_abs="0"
            CO_normed="0" CO2_normed="0" HC_normed="0" PMx_normed="0" NOx_normed="0" fuel_normed="0" electricity_normed="0"/>
        <edge id=":1110673414_1" sampledSeconds="241.47" CO_abs="16281.587183" CO2_abs="626231.170247" HC_abs="88.700504" PMx_abs="11.666284" NOx_abs="265.037612" fuel_abs="269.194232" electricity_abs="0"
            CO_normed="701.123160" CO2_normed="26966.976367" HC_normed="3.819651" PMx_normed="0.502377" NOx_normed="11.413138" fuel_normed="11.592132" electricity_normed="0"
            traveltime="1.57" CO_perVeh="105.636474" CO2_perVeh="4063.046938" HC_perVeh="0.575497" PMx_perVeh="0.075692" NOx_perVeh="1.719589" fuel_perVeh="1.746558" electricity_perVeh="0"/>
        <edge id=":1110673417_0" sampledSeconds="29.03" CO_abs="500.722792" CO2_abs="61799.698674" HC_abs="3.659096" PMx_abs="0.834662" NOx_abs="23.016597" fuel_abs="26.565108" electricity_abs="0"
            CO_normed="695.383934" CO2_normed="85824.968069" HC_normed="5.081607" PMx_normed="1.159146" NOx_normed="31.964536" fuel_normed="36.892567" electricity_normed="0"
            traveltime="0.02" CO_perVeh="0.381825" CO2_perVeh="47.125237" HC_perVeh="0.002790" PMx_perVeh="0.000636" NOx_perVeh="0.017551" fuel_perVeh="0.020257" electricity_perVeh="0"/>
        <edge id=":1110673446_0" sampledSeconds="1329.28" CO_abs="13498.593214" CO2_abs="1072529.022881" HC_abs="86.936369" PMx_abs="19.886938" NOx_abs="440.555873" fuel_abs="461.030755" electricity_abs="0"
            CO_normed="17496.556337" CO2_normed="1390186.679042" HC_normed="112.684860" PMx_normed="25.776977" NOx_normed="571.038072" fuel_normed="597.577129" electricity_normed="0"
            traveltime="0.02" CO_perVeh="0.231525" CO2_perVeh="18.395764" HC_perVeh="0.001491" PMx_perVeh="0.000341" NOx_perVeh="0.007556" fuel_perVeh="0.007907" electricity_perVeh="0"/>
        <edge id=":1110673451_0" sampledSeconds="36.66" CO_abs="211.265770" CO2_abs="15326.742739" HC_abs="1.312318" PMx_abs="0.214950" NOx_abs="5.911320" fuel_abs="6.588375" electricity_abs="0"
            CO_normed="304.264088" CO2_normed="22073.511542" HC_normed="1.889995" PMx_normed="0.309570" NOx_normed="8.513458" fuel_normed="9.488550" electricity_normed="0"
            traveltime="0.03" CO_perVeh="0.155656" CO2_perVeh="11.292421" HC_perVeh="0.000967" PMx_perVeh="0.000158" NOx_perVeh="0.004355" fuel_perVeh="0.004854" electricity_perVeh="0"/>
        <edge id=":1110673464_0" sampledSeconds="1034.45" CO_abs="5075.672893" CO2_abs="348396.612773" HC_abs="31.159177" PMx_abs="5.446701" NOx_abs="138.370996" fuel_abs="149.761588" electricity_abs="0"
            CO_normed="139.779748" CO2_normed="9594.548700" HC_normed="0.858097" PMx_normed="0.149998" NOx_normed="3.810620" fuel_normed="4.124308" electricity_normed="0"
            traveltime="1.23" CO_perVeh="6.019038" CO2_perVeh="413.149623" HC_perVeh="0.036950" PMx_perVeh="0.006459" NOx_perVeh="0.164089" fuel_perVeh="0.177596" electricity_perVeh="0"/>
        <edge id=":1110673464_1" sampledSeconds="2602.03" CO_abs="63782.215075" CO2_abs="7881337.460373" HC_abs="478.313851" PMx_abs="140.214130" NOx_abs="2982.785261" fuel_abs="3387.824257" electricity_abs="0"
            CO_normed="1721.158798" CO2_normed="212677.363024" HC_normed="12.907267" PMx_normed="3.783669" NOx_normed="80.490260" fuel_normed="91.420210" electricity_normed="0"
            traveltime="0.72" CO_perVeh="17.590500" CO2_perVeh="2173.594447" HC_perVeh="0.131914" PMx_perVeh="0.038670" NOx_perVeh="0.822622" fuel_perVeh="0.934328" electricity_perVeh="0"/>
        <edge id=":1110673479_0" sampledSeconds="135.38" CO_abs="6515.136426" CO2_abs="452435.035983" HC_abs="40.270568" PMx_abs="7.792988" NOx_abs="184.172473" fuel_abs="194.482345" electricity_abs="0"
            CO_normed="8444.765297" CO2_normed="586435.561870" HC_normed="52.197755" PMx_normed="10.101087" NOx_normed="238.719991" fuel_normed="252.083403" electricity_normed="0"
            traveltime="0.03" CO_perVeh="1.377370" CO2_perVeh="95.649612" HC_perVeh="0.008514" PMx_perVeh="0.001648" NOx_perVeh="0.038936" fuel_perVeh="0.041116" electricity_perVeh="0"/>
        <edge id=":1110673511_0" sampledSeconds="63.37" CO_abs="1236.082287" CO2_abs="138008.230684" HC_abs="8.786220" PMx_abs="1.891325" NOx_abs="51.887208" fuel_abs="59.324012" electricity_abs="0"
            CO_normed="1602.180541" CO2_normed="178882.995054" HC_normed="11.388490" PMx_normed="2.451490" NOx_normed="67.254968" fuel_normed="76.894378" electricity_normed="0"
            traveltime="0.02" CO_perVeh="0.473746" CO2_perVeh="52.893605" HC_perVeh="0.003367" PMx_perVeh="0.000725" NOx_perVeh="0.019887" fuel_perVeh="0.022737" electricity_perVeh="0"/>
        <edge id=":1110673517_0" sampledSeconds="182.56" CO_abs="8240.952102" CO2_abs="579049.871612" HC_abs="51.125918" PMx_abs="10.086799" NOx_abs="236.350068" fuel_abs="248.908367" electricity_abs="0"
            CO_normed="10681.726639" CO2_normed="750550.708505" HC_normed="66.268202" PMx_normed="13.074270" NOx_normed="306.351352" fuel_normed="322.629121" electricity_normed="0"
            traveltime="0.03" CO_perVeh="1.261756" CO2_perVeh="88.657222" HC_perVeh="0.007828" PMx_perVeh="0.001544" NOx_perVeh="0.036187" fuel_perVeh="0.038110" electricity_perVeh="0"/>
        <edge id=":1110673534_0" sampledSeconds="737.26" CO_abs="5760.911471" CO2_abs="461320.400551" HC_abs="36.816225" PMx_abs="6.535711" NOx_abs="177.781005" fuel_abs="198.303275" electricity_abs="0"
            CO_normed="144.712341" CO2_normed="11588.227920" HC_normed="0.924812" PMx_normed="0.164175" NOx_normed="4.465805" fuel_normed="4.981318" electricity_normed="0"
            traveltime="1.45" CO_perVeh="11.361471" CO2_perVeh="909.800159" HC_perVeh="0.072608" PMx_perVeh="0.012890" NOx_perVeh="0.350614" fuel_perVeh="0.391087" electricity_perVeh="0"/>
        <edge id=":1110673534_1" sampledSeconds="200.07" CO_abs="3147.914748" CO2_abs="389898.600459" HC_abs="23.223003" PMx_abs="5.366875" NOx_abs="145.729739" fuel_abs="167.600994" electricity_abs="0"
            CO_normed="76.889179" CO2_normed="9523.441913" HC_normed="0.567232" PMx_normed="0.131088" NOx_normed="3.559512" fuel_normed="4.093727" electricity_normed="0"
            traveltime="1.22" CO_perVeh="19.242212" CO2_perVeh="2383.327466" HC_perVeh="0.141955" PMx_perVeh="0.032806" NOx_perVeh="0.890800" fuel_perVeh="1.024492" electricity_perVeh="0"/>
        <edge id=":1110673549_0" sampledSeconds="654.86" CO_abs="1618.176310" CO2_abs="156634.868207" HC_abs="10.910268" PMx_abs="2.228907" NOx_abs="59.397052" fuel_abs="67.330882" electricity_abs="0"
            CO_normed="39.376253" CO2_normed="3811.509402" HC_normed="0.265487" PMx_normed="0.054238" NOx_normed="1.445351" fuel_normed="1.638411" electricity_normed="0"
            traveltime="1.30" CO_perVeh="3.214930" CO2_perVeh="311.196134" HC_perVeh="0.021676" PMx_perVeh="0.004428" NOx_perVeh="0.118008" fuel_perVeh="0.133770" electricity_perVeh="0"/>
        <edge id=":1110673549_1" sampledSeconds="3196.85" CO_abs="70721.579905" CO2_abs="9244805.005005" HC_abs="542.531887" PMx_abs="162.630029" NOx_abs="3459.556976" fuel_abs="3973.918351" electricity_abs="0"
            CO_normed="1664.666483" CO2_normed="217607.087660" HC_normed="12.770284" PMx_normed="3.828036" NOx_normed="81.432125" fuel_normed="93.539323" electricity_normed="0"
            traveltime="0.81" CO_perVeh="17.840253" CO2_perVeh="2332.098085" HC_perVeh="0.136859" PMx_perVeh="0.041025" NOx_perVeh="0.872709" fuel_perVeh="1.002462" electricity_perVeh="0"/>
        <edge id=":1110673556_0" sampledSeconds="470.32" CO_abs="57777.702326" CO2_abs="2756164.242051" HC_abs="328.539775" PMx_abs="55.731563" NOx_abs="1189.087078" fuel_abs="1184.757786" electricity_abs="0"
            CO_normed="1042.553419" CO2_normed="49732.826649" HC_normed="5.928243" PMx_normed="1.005632" NOx_normed="21.456146" fuel_normed="21.378027" electricity_normed="0"
            traveltime="2.77" CO_perVeh="340.594000" CO2_perVeh="16247.323198" HC_perVeh="1.936710" PMx_perVeh="0.328532" NOx_perVeh="7.009554" fuel_perVeh="6.984033" electricity_perVeh="0"/>
        <edge id=":1110673556_2" sampledSeconds="177.19" CO_abs="17742.759820" CO2_abs="753471.779491" HC_abs="98.500086" PMx_abs="14.658037" NOx_abs="322.181912" fuel_abs="323.887933" electricity_abs="0"
            CO_normed="334.756105" CO2_normed="14215.898809" HC_normed="1.858420" PMx_normed="0.276556" NOx_normed="6.078669" fuel_normed="6.110857" electricity_normed="0"
            traveltime="3.06" CO_perVeh="306.797671" CO2_perVeh="13028.603745" HC_perVeh="1.703207" PMx_perVeh="0.253458" NOx_perVeh="5.570986" fuel_perVeh="5.600485" electricity_perVeh="0"/>
        <edge id=":1110673556_3" sampledSeconds="246.86" CO_abs="25193.953286" CO2_abs="860383.218530" HC_abs="134.824943" PMx_abs="17.000977" NOx_abs="370.698981" fuel_abs="369.848668" electricity_abs="0"
            CO_normed="1081.318035" CO2_normed="36927.427800" HC_normed="5.786652" PMx_normed="0.729678" NOx_normed="15.910306" fuel_normed="15.873810" electricity_normed="0"
            traveltime="1.86" CO_perVeh="189.981620" CO2_perVeh="6487.945567" HC_perVeh="1.016683" PMx_perVeh="0.128200" NOx_perVeh="2.795353" fuel_perVeh="2.788941" electricity_perVeh="0"/>
        <edge id=":1110673556_4" sampledSeconds="40.22" CO_abs="4897.867076" CO2_abs="191139.429446" HC_abs="26.805463" PMx_abs="3.843878" NOx_abs="82.625900" fuel_abs="82.163475" electricity_abs="0"
            CO_normed="128.425471" CO2_normed="5011.808387" HC_normed="0.702858" PMx_normed="0.100789" NOx_normed="2.166508" fuel_normed="2.154383" electricity_normed="0"
            traveltime="2.54" CO_perVeh="309.139295" CO2_perVeh="12064.171513" HC_perVeh="1.691884" PMx_perVeh="0.242615" NOx_perVeh="5.215109" fuel_perVeh="5.185922" electricity_perVeh="0"/>
        <edge id=":1110673556_5" sampledSeconds="22.34" CO_abs="1398.418070" CO2_abs="61097.879408" HC_abs="7.777856" PMx_abs="1.049384" NOx_abs="25.236580" fuel_abs="26.263756" electricity_abs="0"
            CO_normed="51.107039" CO2_normed="2232.902877" HC_normed="0.284252" PMx_normed="0.038351" NOx_normed="0.922304" fuel_normed="0.959844" electricity_normed="0"
            traveltime="1.54" CO_perVeh="96.680755" CO2_perVeh="4224.050922" HC_perVeh="0.537728" PMx_perVeh="0.072550" NOx_perVeh="1.744751" fuel_perVeh="1.815766" electricity_perVeh="0"/>
        <edge id=":1110673556_6" sampledSeconds="217.58" CO_abs="26037.657281" CO2_abs="1302156.911893" HC_abs="149.498577" PMx_abs="26.154409" NOx_abs="559.987754" fuel_abs="559.741135" electricity_abs="0"
            CO_normed="481.675458" CO2_normed="24088.842559" HC_normed="2.765602" PMx_normed="0.483835" NOx_normed="10.359317" fuel_normed="10.354755" electricity_normed="0"
            traveltime="2.54" CO_perVeh="303.404599" CO2_perVeh="15173.423298" HC_perVeh="1.742037" PMx_perVeh="0.304765" NOx_perVeh="6.525274" fuel_perVeh="6.522401" electricity_perVeh="0"/>
        <edge id=":1110673561_0" sampledSeconds="163.95" CO_abs="16179.149230" CO2_abs="1150139.505208" HC_abs="101.374964" PMx_abs="23.296625" NOx_abs="487.118026" fuel_abs="494.390183" electricity_abs="0"
            CO_normed="376.049542" CO2_normed="26732.520239" HC_normed="2.356243" PMx_normed="0.541480" NOx_normed="11.322011" fuel_normed="11.491037" electricity_normed="0"
            traveltime="1.21" CO_perVeh="119.526930" CO2_perVeh="8496.901891" HC_perVeh="0.748929" PMx_perVeh="0.172109" NOx_perVeh="3.598689" fuel_perVeh="3.652413" electricity_perVeh="0"/>
        <edge id=":1110673561_1" sampledSeconds="5261.05" CO_abs="486424.733974" CO2_abs="33639600.294749" HC_abs="3028.949528" PMx_abs="703.883546" NOx_abs="14388.105551" fuel_abs="14460.039002" electricity_abs="0"
            CO_normed="11022.590947" CO2_normed="762287.621851" HC_normed="68.637282" PMx_normed="15.950300" NOx_normed="326.040579" fuel_normed="327.670622" electricity_normed="0"
            traveltime="1.19" CO_perVeh="110.402291" CO2_perVeh="7635.074229" HC_perVeh="0.687471" PMx_perVeh="0.159758" NOx_perVeh="3.265623" fuel_perVeh="3.281950" electricity_perVeh="0"/>
        <edge id=":1110673562_0" sampledSeconds="302.44" CO_abs="6161.007243" CO2_abs="470912.447006" HC_abs="38.771631" PMx_abs="6.299019" NOx_abs="179.469546" fuel_abs="202.427281" electricity_abs="0"
            CO_normed="8873.057165" CO2_normed="678206.159726" HC_normed="55.838743" PMx_normed="9.071821" NOx_normed="258.471298" fuel_normed="291.534934" electricity_normed="0"
            traveltime="0.03" CO_perVeh="0.552283" CO2_perVeh="42.213356" HC_perVeh="0.003476" PMx_perVeh="0.000565" NOx_perVeh="0.016088" fuel_perVeh="0.018146" electricity_perVeh="0"/>
        <edge id=":1110673564_0" sampledSeconds="28.11" CO_abs="378.036805" CO2_abs="47268.668080" HC_abs="2.794867" PMx_abs="0.629941" NOx_abs="17.542576" fuel_abs="20.318838" electricity_abs="0"
            CO_normed="1470.007019" CO2_normed="183805.579053" HC_normed="10.867919" PMx_normed="2.449544" NOx_normed="68.214811" fuel_normed="79.010388" electricity_normed="0"
            traveltime="7.939271e-03" CO_perVeh="0.106775" CO2_perVeh="13.350845" HC_perVeh="0.000789" PMx_perVeh="0.000178" NOx_perVeh="0.004955" fuel_perVeh="0.005739" electricity_perVeh="0"/>
        <edge id=":1110673588_0" sampledSeconds="62.66" CO_abs="1213.175808" CO2_abs="126097.851898" HC_abs="8.446484" PMx_abs="1.833651" NOx_abs="48.207377" fuel_abs="54.204137" electricity_abs="0"
            CO_normed="1886.987647" CO2_normed="196134.053503" HC_normed="13.137758" PMx_normed="2.852083" NOx_normed="74.982310" fuel_normed="84.309740" electricity_normed="0"
            traveltime="0.02" CO_perVeh="0.391347" CO2_perVeh="40.676726" HC_perVeh="0.002725" PMx_perVeh="0.000592" NOx_perVeh="0.015551" fuel_perVeh="0.017485" electricity_perVeh="0"/>
        <edge id=":1110673601_0" sampledSeconds="29.20" CO_abs="548.068639" CO2_abs="59875.175664" HC_abs="3.875197" PMx_abs="0.853672" NOx_abs="22.699459" fuel_abs="25.737817" electricity_abs="0"
            CO_normed="761.135967" CO2_normed="83152.266916" HC_normed="5.381720" PMx_normed="1.185546" NOx_normed="31.524107" fuel_normed="35.743658" electricity_normed="0"
            traveltime="0.02" CO_perVeh="0.417929" CO2_perVeh="45.657695" HC_perVeh="0.002955" PMx_perVeh="0.000651" NOx_perVeh="0.017309" fuel_perVeh="0.019626" electricity_perVeh="0"/>
        <edge id=":1110673617_0" sampledSeconds="854.61" CO_abs="33049.219606" CO2_abs="3320264.930482" HC_abs="230.068337" PMx_abs="62.736699" NOx_abs="1303.868761" fuel_abs="1427.226365" electricity_abs="0"
            CO_normed="42837.614525" CO2_normed="4303648.646121" HC_normed="298.209122" PMx_normed="81.317822" NOx_normed="1690.043761" fuel_normed="1849.936960" electricity_normed="0"
            traveltime="0.02" CO_perVeh="0.586553" CO2_perVeh="58.927592" HC_perVeh="0.004083" PMx_perVeh="0.001113" NOx_perVeh="0.023141" fuel_perVeh="0.025330" electricity_perVeh="0"/>
        <edge id=":1110673621_0" sampledSeconds="41.96" CO_abs="1226.158164" CO2_abs="112459.372479" HC_abs="8.212578" PMx_abs="1.797440" NOx_abs="44.200917" fuel_abs="48.341390" electricity_abs="0"
            CO_normed="1907.180553" CO2_normed="174920.605282" HC_normed="12.773938" PMx_normed="2.795758" NOx_normed="68.750616" fuel_normed="75.190755" electricity_normed="0"
            traveltime="0.02" CO_perVeh="0.578376" CO2_perVeh="53.046874" HC_perVeh="0.003874" PMx_perVeh="0.000848" NOx_perVeh="0.020849" fuel_perVeh="0.022803" electricity_perVeh="0"/>
        <edge id=":1110673630_0" sampledSeconds="285.59" CO_abs="1141.134455" CO2_abs="110633.730941" HC_abs="7.709309" PMx_abs="1.374872" NOx_abs="41.079671" fuel_abs="47.557157" electricity_abs="0"
            CO_normed="31.650030" CO2_normed="3068.491109" HC_normed="0.213822" PMx_normed="0.038133" NOx_normed="1.139369" fuel_normed="1.319026" electricity_normed="0"
            traveltime="1.29" CO_perVeh="5.134669" CO2_perVeh="497.809536" HC_perVeh="0.034689" PMx_perVeh="0.006186" NOx_perVeh="0.184843" fuel_perVeh="0.213989" electricity_perVeh="0"/>
        <edge id=":1110673630_1" sampledSeconds="338.56" CO_abs="1268.158998" CO2_abs="104757.723855" HC_abs="8.144040" PMx_abs="1.299220" NOx_abs="39.142163" fuel_abs="45.031427" electricity_abs="0"
            CO_normed="42.880633" CO2_normed="3542.203743" HC_normed="0.275377" PMx_normed="0.043931" NOx_normed="1.323525" fuel_normed="1.522661" electricity_normed="0"
            traveltime="1.08" CO_perVeh="4.042647" CO2_perVeh="333.947468" HC_perVeh="0.025962" PMx_perVeh="0.004142" NOx_perVeh="0.124778" fuel_perVeh="0.143552" electricity_perVeh="0"/>
        <edge id=":1110673650_0" sampledSeconds="200.32" CO_abs="2993.965444" CO2_abs="358235.159801" HC_abs="21.843458" PMx_abs="4.977401" NOx_abs="134.503412" fuel_abs="153.990206" electricity_abs="0"
            CO_normed="3880.706992" CO2_normed="464335.916787" HC_normed="28.312972" PMx_normed="6.451590" NOx_normed="174.340133" fuel_normed="199.598453" electricity_normed="0"
            traveltime="0.02" CO_perVeh="0.346030" CO2_perVeh="41.403301" HC_perVeh="0.002525" PMx_perVeh="0.000575" NOx_perVeh="0.015545" fuel_perVeh="0.017798" electricity_perVeh="0"/>
        <edge id=":1110673655_0" sampledSeconds="20.75" CO_abs="299.363641" CO2_abs="34938.006804" HC_abs="2.159904" PMx_abs="0.472917" NOx_abs="13.075124" fuel_abs="15.018399" electricity_abs="0"
            CO_normed="388.028050" CO2_normed="45285.815689" HC_normed="2.799616" PMx_normed="0.612984" NOx_normed="16.947665" fuel_normed="19.466492" electricity_normed="0"
            traveltime="0.02" CO_perVeh="0.342000" CO2_perVeh="39.913945" HC_perVeh="0.002468" PMx_perVeh="0.000540" NOx_perVeh="0.014937" fuel_perVeh="0.017157" electricity_perVeh="0"/>
        <edge id=":1110673663_0" sampledSeconds="179.59" CO_abs="3249.814024" CO2_abs="363680.140328" HC_abs="23.149739" PMx_abs="5.078213" NOx_abs="137.151960" fuel_abs="156.330874" electricity_abs="0"
            CO_normed="77.148935" CO2_normed="8633.581894" HC_normed="0.549563" PMx_normed="0.120554" NOx_normed="3.255918" fuel_normed="3.711216" electricity_normed="0"
            traveltime="1.31" CO_perVeh="23.766599" CO2_perVeh="2659.672244" HC_perVeh="0.169299" PMx_perVeh="0.037138" NOx_perVeh="1.003022" fuel_perVeh="1.143282" electricity_perVeh="0"/>
        <edge id=":1110673663_1" sampledSeconds="170.67" CO_abs="2886.612629" CO2_abs="354052.095582" HC_abs="21.295237" PMx_abs="4.870420" NOx_abs="132.517036" fuel_abs="152.192114" electricity_abs="0"
            CO_normed="68.610492" CO2_normed="8415.292081" HC_normed="0.506156" PMx_normed="0.115763" NOx_normed="3.149733" fuel_normed="3.617380" electricity_normed="0"
            traveltime="1.28" CO_perVeh="21.580434" CO2_perVeh="2646.907889" HC_perVeh="0.159204" PMx_perVeh="0.036411" NOx_perVeh="0.990703" fuel_perVeh="1.137794" electricity_perVeh="0"/>