<?xml version="1.0" encoding="UTF-8"?>

<!-- generated on Tue Nov 10 12:34:50 2020 by Eclipse SUMO sumo Version 1.7.0
<configuration xmlns:xsi="http://www.w3.org/2001/XMLSchema-instance" xsi:noNamespaceSchemaLocation="http://sumo.dlr.de/xsd/sumoConfiguration.xsd">

    <input>
        <net-file value="../dataSets/Porto/8AM9AM_Routing_SaoBento/Porto.net.xml"/>
        <route-files value="../results/Porto/8AM9AM_Routing_SaoBento/inputdata/cost_PMx-length/solution21/Porto.rou.xml"/>
        <additional-files value="moreOutputInfo.xml"/>
    </input>

    <output>
        <emission-output.precision value="6"/>
        <tripinfo-output value="../results/Porto/8AM9AM_Routing_SaoBento/inputdata/cost_PMx-length/solution21/Porto-tripinfo"/>
    </output>

    <processing>
        <collision.action value="warn"/>
        <time-to-teleport value="-1"/>
    </processing>

    <emissions>
        <device.emissions.probability value="1"/>
    </emissions>

    <gui_only>
        <quit-on-end value="true"/>
        <start value="true"/>
    </gui_only>

</configuration>
-->

<meandata xmlns:xsi="http://www.w3.org/2001/XMLSchema-instance" xsi:noNamespaceSchemaLocation="http://sumo.dlr.de/xsd/meandata_file.xsd">
    <interval begin="0.00" end="8561.00" id="emissions-detector">
        <edge id=":1092997347_0" sampledSeconds="593.46" CO_abs="71807.661785" CO2_abs="3067508.536705" HC_abs="399.516108" PMx_abs="61.944141" NOx_abs="1326.634613" fuel_abs="1318.597612" electricity_abs="0"
            CO_normed="68627.173552" CO2_normed="2931643.163006" HC_normed="381.820834" PMx_normed="59.200526" NOx_normed="1267.875622" fuel_normed="1260.194593" electricity_normed="0"
            traveltime="0.07" CO_perVeh="8.221029" CO2_perVeh="351.189203" HC_perVeh="0.045739" PMx_perVeh="0.007092" NOx_perVeh="0.151882" fuel_perVeh="0.150962" electricity_perVeh="0"/>
        <edge id=":1103427051_0" sampledSeconds="19.29" CO_abs="1679.478019" CO2_abs="93404.368846" HC_abs="9.871775" PMx_abs="1.873026" NOx_abs="40.145983" fuel_abs="40.150356" electricity_abs="0"
            CO_normed="2435.310436" CO2_normed="135440.078240" HC_normed="14.314470" PMx_normed="2.715963" NOx_normed="58.213284" fuel_normed="58.219626" electricity_normed="0"
            traveltime="0.03" CO_perVeh="2.611801" CO2_perVeh="145.255614" HC_perVeh="0.015352" PMx_perVeh="0.002913" NOx_perVeh="0.062432" fuel_perVeh="0.062439" electricity_perVeh="0"/>
        <edge id=":1105984386_0" sampledSeconds="10.55" CO_abs="257.348404" CO2_abs="17976.126429" HC_abs="1.584858" PMx_abs="0.266460" NOx_abs="7.047773" fuel_abs="7.727227" electricity_abs="0"
            CO_normed="11.145005" CO2_normed="778.493315" HC_normed="0.068636" PMx_normed="0.011540" NOx_normed="0.305218" fuel_normed="0.334644" electricity_normed="0"
            traveltime="1.01" CO_perVeh="24.687344" CO2_perVeh="1724.443664" HC_perVeh="0.152035" PMx_perVeh="0.025561" NOx_perVeh="0.676090" fuel_perVeh="0.741270" electricity_perVeh="0"/>
        <edge id=":1105984390_0" sampledSeconds="11.00" CO_abs="106.490607" CO2_abs="9377.346667" HC_abs="0.705249" PMx_abs="0.155215" NOx_abs="3.720967" fuel_abs="4.030909" electricity_abs="0"
            CO_normed="3.565329" CO2_normed="313.955674" HC_normed="0.023612" PMx_normed="0.005197" NOx_normed="0.124579" fuel_normed="0.134956" electricity_normed="0"
            traveltime="1.14" CO_perVeh="11.038393" CO2_perVeh="972.018438" HC_perVeh="0.073103" PMx_perVeh="0.016089" NOx_perVeh="0.385701" fuel_perVeh="0.417828" electricity_perVeh="0"/>
        <edge id=":1105984390_1" sampledSeconds="2399.11" CO_abs="63298.438756" CO2_abs="7487063.639376" HC_abs="467.317379" PMx_abs="135.474425" NOx_abs="2850.695889" fuel_abs="3218.342728" electricity_abs="0"
            CO_normed="2027.245178" CO2_normed="239786.540637" HC_normed="14.966671" PMx_normed="4.338810" NOx_normed="91.298610" fuel_normed="103.073155" electricity_normed="0"
            traveltime="0.65" CO_perVeh="17.096237" CO2_perVeh="2022.176448" HC_perVeh="0.126217" PMx_perVeh="0.036590" NOx_perVeh="0.769943" fuel_perVeh="0.869240" electricity_perVeh="0"/>
        <edge id=":1105984395_0" sampledSeconds="4.06" CO_abs="132.194112" CO2_abs="9352.265783" HC_abs="0.814664" PMx_abs="0.127124" NOx_abs="3.591869" fuel_abs="4.020186" electricity_abs="0"
            CO_normed="60.423000" CO2_normed="4274.713541" HC_normed="0.372365" PMx_normed="0.058105" NOx_normed="1.641764" fuel_normed="1.837538" electricity_normed="0"
            traveltime="0.09" CO_perVeh="3.064212" CO2_perVeh="216.782175" HC_perVeh="0.018884" PMx_perVeh="0.002947" NOx_perVeh="0.083258" fuel_perVeh="0.093186" electricity_perVeh="0"/>
        <edge id=":1105984398_0" sampledSeconds="11.10" CO_abs="616.321708" CO2_abs="41311.859475" HC_abs="3.783264" PMx_abs="0.760754" NOx_abs="17.169751" fuel_abs="17.758130" electricity_abs="0"
            CO_normed="21.436761" CO2_normed="1436.899674" HC_normed="0.131589" PMx_normed="0.026460" NOx_normed="0.597194" fuel_normed="0.617659" electricity_normed="0"
            traveltime="1.15" CO_perVeh="64.075584" CO2_perVeh="4294.967222" HC_perVeh="0.393325" PMx_perVeh="0.079091" NOx_perVeh="1.785045" fuel_perVeh="1.846215" electricity_perVeh="0"/>
        <edge id=":1105984398_1" sampledSeconds="645.58" CO_abs="11528.754919" CO2_abs="1360465.676502" HC_abs="83.694209" PMx_abs="19.400917" NOx_abs="513.756049" fuel_abs="584.806279" electricity_abs="0"
            CO_normed="388.148554" CO2_normed="45803.973494" HC_normed="2.817805" PMx_normed="0.653187" NOx_normed="17.297069" fuel_normed="19.689178" electricity_normed="0"
            traveltime="0.95" CO_perVeh="17.031107" CO2_perVeh="2009.777864" HC_perVeh="0.123639" PMx_perVeh="0.028660" NOx_perVeh="0.758957" fuel_perVeh="0.863918" electricity_perVeh="0"/>
        <edge id=":1106006327_0" sampledSeconds="68.54" CO_abs="9241.656358" CO2_abs="296757.004431" HC_abs="49.063618" PMx_abs="6.191862" NOx_abs="129.904156" fuel_abs="127.565441" electricity_abs="0"
            CO_normed="438.625723" CO2_normed="14084.624087" HC_normed="2.328648" PMx_normed="0.293877" NOx_normed="6.165486" fuel_normed="6.054487" electricity_normed="0"
            traveltime="2.12" CO_perVeh="286.487790" CO2_perVeh="9199.352924" HC_perVeh="1.520953" PMx_perVeh="0.191945" NOx_perVeh="4.026979" fuel_perVeh="3.954480" electricity_perVeh="0"/>
        <edge id=":1106006327_1" sampledSeconds="681.78" CO_abs="92098.721185" CO2_abs="3079490.466870" HC_abs="491.929134" PMx_abs="64.193245" NOx_abs="1347.479978" fuel_abs="1323.761933" electricity_abs="0"
            CO_normed="3811.868373" CO2_normed="127456.843761" HC_normed="20.360425" PMx_normed="2.656890" NOx_normed="55.770767" fuel_normed="54.789102" electricity_normed="0"
            traveltime="2.29" CO_perVeh="309.153115" CO2_perVeh="10337.104117" HC_perVeh="1.651287" PMx_perVeh="0.215481" NOx_perVeh="4.523164" fuel_perVeh="4.443548" electricity_perVeh="0"/>
        <edge id=":1106006327_2" sampledSeconds="0.00" CO_abs="0" CO2_abs="0" HC_abs="0" PMx_abs="0" NOx_abs="0" fuel_abs="0" electricity_abs="0"
            CO_normed="0" CO2_normed="0" HC_normed="0" PMx_normed="0" NOx_normed="0" fuel_normed="0" electricity_normed="0"/>
        <edge id=":1106006327_3" sampledSeconds="0.00" CO_abs="0" CO2_abs="0" HC_abs="0" PMx_abs="0" NOx_abs="0" fuel_abs="0" electricity_abs="0"
            CO_normed="0" CO2_normed="0" HC_normed="0" PMx_normed="0" NOx_normed="0" fuel_normed="0" electricity_normed="0"/>
        <edge id=":1107381198_0" sampledSeconds="0.00" CO_abs="0" CO2_abs="0" HC_abs="0" PMx_abs="0" NOx_abs="0" fuel_abs="0" electricity_abs="0"
            CO_normed="0" CO2_normed="0" HC_normed="0" PMx_normed="0" NOx_normed="0" fuel_normed="0" electricity_normed="0"/>
        <edge id=":1107381198_1" sampledSeconds="105.21" CO_abs="4635.288326" CO2_abs="179077.285629" HC_abs="25.216731" PMx_abs="3.051525" NOx_abs="73.952808" fuel_abs="76.979294" electricity_abs="0"
            CO_normed="212.561899" CO2_normed="8212.004354" HC_normed="1.156372" PMx_normed="0.139935" NOx_normed="3.391278" fuel_normed="3.530064" electricity_normed="0"
            traveltime="1.58" CO_perVeh="69.399154" CO2_perVeh="2681.130338" HC_perVeh="0.377543" PMx_perVeh="0.045687" NOx_perVeh="1.107215" fuel_perVeh="1.152528" electricity_perVeh="0"/>
        <edge id=":1110338277_0" sampledSeconds="160.57" CO_abs="2623.978928" CO2_abs="310380.232076" HC_abs="19.002749" PMx_abs="4.343752" NOx_abs="116.757503" fuel_abs="133.419352" electricity_abs="0"
            CO_normed="3940.762987" CO2_normed="466137.482050" HC_normed="28.538846" PMx_normed="6.523565" NOx_normed="175.349596" fuel_normed="200.372815" electricity_normed="0"
            traveltime="0.02" CO_perVeh="0.355393" CO2_perVeh="42.038022" HC_perVeh="0.002574" PMx_perVeh="0.000588" NOx_perVeh="0.015814" fuel_perVeh="0.018070" electricity_perVeh="0"/>
        <edge id=":1110338293_0" sampledSeconds="6958.77" CO_abs="687269.652407" CO2_abs="11930932.200245" HC_abs="3408.619157" PMx_abs="286.091308" NOx_abs="5400.977254" fuel_abs="5128.909644" electricity_abs="0"
            CO_normed="963349.588702" CO2_normed="16723652.190508" HC_normed="4777.879907" PMx_normed="401.015734" NOx_normed="7570.579027" fuel_normed="7189.220387" electricity_normed="0"
            traveltime="0.47" CO_perVeh="45.939057" CO2_perVeh="797.497416" HC_perVeh="0.227842" PMx_perVeh="0.019123" NOx_perVeh="0.361017" fuel_perVeh="0.342831" electricity_perVeh="0"/>
        <edge id=":1110338295_0" sampledSeconds="0.00" CO_abs="0" CO2_abs="0" HC_abs="0" PMx_abs="0" NOx_abs="0" fuel_abs="0" electricity_abs="0"
            CO_normed="0" CO2_normed="0" HC_normed="0" PMx_normed="0" NOx_normed="0" fuel_normed="0" electricity_normed="0"/>
        <edge id=":1110673403_0" sampledSeconds="200.90" CO_abs="2992.389143" CO2_abs="374505.722593" HC_abs="22.187175" PMx_abs="5.121617" NOx_abs="139.816239" fuel_abs="160.984268" electricity_abs="0"
            CO_normed="4194.448045" CO2_normed="524946.696778" HC_normed="31.099883" PMx_normed="7.178998" NOx_normed="195.981178" fuel_normed="225.652520" electricity_normed="0"
            traveltime="0.02" CO_perVeh="0.345848" CO2_perVeh="43.283783" HC_perVeh="0.002564" PMx_perVeh="0.000592" NOx_perVeh="0.016159" fuel_perVeh="0.018606" electricity_perVeh="0"/>
        <edge id=":1110673412_0" sampledSeconds="939.69" CO_abs="166204.168629" CO2_abs="11350839.749120" HC_abs="1034.562801" PMx_abs="249.435497" NOx_abs="4877.045010" fuel_abs="4879.166913" electricity_abs="0"
            CO_normed="241002.705560" CO2_normed="16459172.549465" HC_normed="1500.157524" PMx_normed="361.691467" NOx_normed="7071.910725" fuel_normed="7074.987569" electricity_normed="0"
            traveltime="0.02" CO_perVeh="2.742817" CO2_perVeh="187.319452" HC_perVeh="0.017073" PMx_perVeh="0.004116" NOx_perVeh="0.080484" fuel_perVeh="0.080519" electricity_perVeh="0"/>
        <edge id=":1110673414_0" sampledSeconds="0.00" CO_abs="0" CO2_abs="0" HC_abs="0" PMx_abs="0" NOx_abs="0" fuel_abs="0" electricity_abs="0"
            CO_normed="0" CO2_normed="0" HC_normed="0" PMx_normed="0" NOx_normed="0" fuel_normed="0" electricity_normed="0"/>
        <edge id=":1110673414_1" sampledSeconds="6.81" CO_abs="107.754607" CO2_abs="5073.879919" HC_abs="0.609826" PMx_abs="0.096517" NOx_abs="2.156685" fuel_abs="2.181055" electricity_abs="0"
            CO_normed="5.017947" CO2_normed="236.281891" HC_normed="0.028399" PMx_normed="0.004495" NOx_normed="0.100433" fuel_normed="0.101568" electricity_normed="0"
            traveltime="1.49" CO_perVeh="23.537109" CO2_perVeh="1108.300331" HC_perVeh="0.133206" PMx_perVeh="0.021082" NOx_perVeh="0.471090" fuel_perVeh="0.476413" electricity_perVeh="0"/>
        <edge id=":1110673417_0" sampledSeconds="29.41" CO_abs="377.051798" CO2_abs="47343.717375" HC_abs="2.788129" PMx_abs="0.639840" NOx_abs="17.601597" fuel_abs="20.351085" electricity_abs="0"
            CO_normed="566.266655" CO2_normed="71102.083598" HC_normed="4.187287" PMx_normed="0.960930" NOx_normed="26.434557" fuel_normed="30.563814" electricity_normed="0"
            traveltime="0.02" CO_perVeh="0.287523" CO2_perVeh="36.102192" HC_perVeh="0.002126" PMx_perVeh="0.000488" NOx_perVeh="0.013422" fuel_perVeh="0.015519" electricity_perVeh="0"/>
        <edge id=":1110673446_0" sampledSeconds="1312.13" CO_abs="14555.084683" CO2_abs="1181077.139956" HC_abs="94.249366" PMx_abs="21.648325" NOx_abs="482.953798" fuel_abs="507.690753" electricity_abs="0"
            CO_normed="20401.940918" CO2_normed="1655522.214632" HC_normed="132.109846" PMx_normed="30.344575" NOx_normed="676.958951" fuel_normed="711.632875" electricity_normed="0"
            traveltime="0.02" CO_perVeh="0.252573" CO2_perVeh="20.495143" HC_perVeh="0.001636" PMx_perVeh="0.000376" NOx_perVeh="0.008381" fuel_perVeh="0.008810" electricity_perVeh="0"/>
        <edge id=":1110673451_0" sampledSeconds="36.51" CO_abs="268.992650" CO2_abs="19657.667217" HC_abs="1.673485" PMx_abs="0.271898" NOx_abs="7.558056" fuel_abs="8.450076" electricity_abs="0"
            CO_normed="418.942724" CO2_normed="30615.842724" HC_normed="2.606369" PMx_normed="0.423467" NOx_normed="11.771298" fuel_normed="13.160575" electricity_normed="0"
            traveltime="0.03" CO_perVeh="0.198188" CO2_perVeh="14.483355" HC_perVeh="0.001233" PMx_perVeh="0.000200" NOx_perVeh="0.005569" fuel_perVeh="0.006226" electricity_perVeh="0"/>
        <edge id=":1110673464_0" sampledSeconds="1031.08" CO_abs="3829.566672" CO2_abs="279414.293966" HC_abs="23.829453" PMx_abs="3.945956" NOx_abs="107.928832" fuel_abs="120.109357" electricity_abs="0"
            CO_normed="114.049383" CO2_normed="8321.314313" HC_normed="0.709672" PMx_normed="0.117516" NOx_normed="3.214258" fuel_normed="3.577010" electricity_normed="0"
            traveltime="1.22" CO_perVeh="4.541332" CO2_perVeh="331.346417" HC_perVeh="0.028258" PMx_perVeh="0.004679" NOx_perVeh="0.127989" fuel_perVeh="0.142433" electricity_perVeh="0"/>
        <edge id=":1110673464_1" sampledSeconds="2610.75" CO_abs="61906.462263" CO2_abs="7525378.551565" HC_abs="461.424000" PMx_abs="134.478887" NOx_abs="2856.262981" fuel_abs="3234.813422" electricity_abs="0"
            CO_normed="1806.550096" CO2_normed="219605.075951" HC_normed="13.465243" PMx_normed="3.924354" NOx_normed="83.351269" fuel_normed="94.398101" electricity_normed="0"
            traveltime="0.72" CO_perVeh="17.066051" CO2_perVeh="2074.557150" HC_perVeh="0.127203" PMx_perVeh="0.037072" NOx_perVeh="0.787400" fuel_perVeh="0.891757" electricity_perVeh="0"/>
        <edge id=":1110673479_0" sampledSeconds="134.55" CO_abs="6641.502815" CO2_abs="457871.894247" HC_abs="40.991691" PMx_abs="7.983143" NOx_abs="187.074965" fuel_abs="196.819304" electricity_abs="0"
            CO_normed="9309.430415" CO2_normed="641801.510451" HC_normed="57.458275" PMx_normed="11.190014" NOx_normed="262.223990" fuel_normed="275.882682" electricity_normed="0"
            traveltime="0.03" CO_perVeh="1.404074" CO2_perVeh="96.798258" HC_perVeh="0.008666" PMx_perVeh="0.001688" NOx_perVeh="0.039549" fuel_perVeh="0.041609" electricity_perVeh="0"/>
        <edge id=":1110673511_0" sampledSeconds="63.44" CO_abs="1145.594061" CO2_abs="126068.673844" HC_abs="8.098800" PMx_abs="1.729372" NOx_abs="47.428385" fuel_abs="54.191701" electricity_abs="0"
            CO_normed="1605.785391" CO2_normed="176711.141938" HC_normed="11.352132" PMx_normed="2.424070" NOx_normed="66.480624" fuel_normed="75.960801" electricity_normed="0"
            traveltime="0.02" CO_perVeh="0.439065" CO2_perVeh="48.317601" HC_perVeh="0.003104" PMx_perVeh="0.000663" NOx_perVeh="0.018178" fuel_perVeh="0.020770" electricity_perVeh="0"/>
        <edge id=":1110673517_0" sampledSeconds="182.29" CO_abs="8101.135546" CO2_abs="575508.825541" HC_abs="50.396146" PMx_abs="9.942293" NOx_abs="234.220873" fuel_abs="247.386291" electricity_abs="0"
            CO_normed="11355.405507" CO2_normed="806693.833255" HC_normed="70.640550" PMx_normed="13.936166" NOx_normed="328.308664" fuel_normed="346.762701" electricity_normed="0"
            traveltime="0.03" CO_perVeh="1.240349" CO2_perVeh="88.115060" HC_perVeh="0.007716" PMx_perVeh="0.001522" NOx_perVeh="0.035861" fuel_perVeh="0.037877" electricity_perVeh="0"/>
        <edge id=":1110673534_0" sampledSeconds="659.23" CO_abs="4497.006303" CO2_abs="369929.999997" HC_abs="28.961855" PMx_abs="5.193960" NOx_abs="142.067644" fuel_abs="159.018167" electricity_abs="0"
            CO_normed="122.160427" CO2_normed="10049.086854" HC_normed="0.786744" PMx_normed="0.141093" NOx_normed="3.859244" fuel_normed="4.319702" electricity_normed="0"
            traveltime="1.45" CO_perVeh="9.888247" CO2_perVeh="813.421003" HC_perVeh="0.063683" PMx_perVeh="0.011421" NOx_perVeh="0.312386" fuel_perVeh="0.349657" electricity_perVeh="0"/>
        <edge id=":1110673534_1" sampledSeconds="265.59" CO_abs="3956.215338" CO2_abs="512572.763094" HC_abs="29.565921" PMx_abs="6.771847" NOx_abs="189.567418" fuel_abs="220.333732" electricity_abs="0"
            CO_normed="104.499656" CO2_normed="13539.120870" HC_normed="0.780956" PMx_normed="0.178872" NOx_normed="5.007243" fuel_normed="5.819905" electricity_normed="0"
            traveltime="1.23" CO_perVeh="18.355847" CO2_perVeh="2378.209030" HC_perVeh="0.137178" PMx_perVeh="0.031420" NOx_perVeh="0.879545" fuel_perVeh="1.022293" electricity_perVeh="0"/>
        <edge id=":1110673549_0" sampledSeconds="650.12" CO_abs="1341.361439" CO2_abs="142100.243615" HC_abs="9.348982" PMx_abs="1.917404" NOx_abs="53.002434" fuel_abs="61.083126" electricity_abs="0"
            CO_normed="35.297752" CO2_normed="3739.349437" HC_normed="0.246017" PMx_normed="0.050456" NOx_normed="1.394752" fuel_normed="1.607395" electricity_normed="0"
            traveltime="1.29" CO_perVeh="2.664965" CO2_perVeh="282.319301" HC_perVeh="0.018574" PMx_perVeh="0.003809" NOx_perVeh="0.105303" fuel_perVeh="0.121358" electricity_perVeh="0"/>
        <edge id=":1110673549_1" sampledSeconds="3197.89" CO_abs="70565.480495" CO2_abs="9147554.795062" HC_abs="539.885442" PMx_abs="161.464071" NOx_abs="3426.841265" fuel_abs="3932.114650" electricity_abs="0"
            CO_normed="1796.223044" CO2_normed="232848.251122" HC_normed="13.742621" PMx_normed="4.110019" NOx_normed="87.229212" fuel_normed="100.090794" electricity_normed="0"
            traveltime="0.81" CO_perVeh="17.799215" CO2_perVeh="2307.350524" HC_perVeh="0.136179" PMx_perVeh="0.040727" NOx_perVeh="0.864376" fuel_perVeh="0.991824" electricity_perVeh="0"/>
        <edge id=":1110673556_0" sampledSeconds="470.40" CO_abs="57347.952083" CO2_abs="2739359.662689" HC_abs="326.155078" PMx_abs="55.221713" NOx_abs="1180.628595" fuel_abs="1177.534417" electricity_abs="0"
            CO_normed="1119.047813" CO2_normed="53453.947856" HC_normed="6.364362" PMx_normed="1.077558" NOx_normed="23.037960" fuel_normed="22.977583" electricity_normed="0"
            traveltime="2.77" CO_perVeh="338.060663" CO2_perVeh="16148.261819" HC_perVeh="1.922653" PMx_perVeh="0.325527" NOx_perVeh="6.959692" fuel_perVeh="6.941452" electricity_perVeh="0"/>
        <edge id=":1110673556_2" sampledSeconds="172.44" CO_abs="16849.090926" CO2_abs="732452.608524" HC_abs="93.938841" PMx_abs="14.189427" NOx_abs="312.715862" fuel_abs="314.852377" electricity_abs="0"
            CO_normed="343.776738" CO2_normed="14944.436429" HC_normed="1.916661" PMx_normed="0.289511" NOx_normed="6.380430" fuel_normed="6.424022" electricity_normed="0"
            traveltime="2.98" CO_perVeh="291.344859" CO2_perVeh="12665.152243" HC_perVeh="1.624337" PMx_perVeh="0.245355" NOx_perVeh="5.407304" fuel_perVeh="5.444248" electricity_perVeh="0"/>
        <edge id=":1110673556_3" sampledSeconds="347.52" CO_abs="35588.017982" CO2_abs="1233190.382683" HC_abs="190.868820" PMx_abs="24.300028" NOx_abs="530.868599" fuel_abs="530.105093" electricity_abs="0"
            CO_normed="1651.785340" CO2_normed="57237.404927" HC_normed="8.859002" PMx_normed="1.127864" NOx_normed="24.639781" fuel_normed="24.604344" electricity_normed="0"
            traveltime="1.82" CO_perVeh="186.779112" CO2_perVeh="6472.240329" HC_perVeh="1.001750" PMx_perVeh="0.127536" NOx_perVeh="2.786195" fuel_perVeh="2.782188" electricity_perVeh="0"/>
        <edge id=":1110673556_4" sampledSeconds="79.83" CO_abs="8397.642834" CO2_abs="320267.126932" HC_abs="45.745725" PMx_abs="6.280411" NOx_abs="137.496044" fuel_abs="137.670895" electricity_abs="0"
            CO_normed="238.119111" CO2_normed="9081.324961" HC_normed="1.297142" PMx_normed="0.178084" NOx_normed="3.898765" fuel_normed="3.903723" electricity_normed="0"
            traveltime="2.53" CO_perVeh="266.097223" CO2_perVeh="10148.346975" HC_perVeh="1.449551" PMx_perVeh="0.199008" NOx_perVeh="4.356855" fuel_perVeh="4.362396" electricity_perVeh="0"/>
        <edge id=":1110673556_5" sampledSeconds="21.62" CO_abs="1193.145208" CO2_abs="54923.902330" HC_abs="6.700438" PMx_abs="0.929961" NOx_abs="22.572513" fuel_abs="23.609757" electricity_abs="0"
            CO_normed="47.155209" CO2_normed="2170.689782" HC_normed="0.264813" PMx_normed="0.036754" NOx_normed="0.892106" fuel_normed="0.933099" electricity_normed="0"
            traveltime="1.49" CO_perVeh="82.489051" CO2_perVeh="3797.208062" HC_perVeh="0.463240" PMx_perVeh="0.064294" NOx_perVeh="1.560569" fuel_perVeh="1.632279" electricity_perVeh="0"/>
        <edge id=":1110673556_6" sampledSeconds="556.41" CO_abs="66669.553379" CO2_abs="3189067.052107" HC_abs="379.283248" PMx_abs="64.326896" NOx_abs="1374.865784" fuel_abs="1370.844374" electricity_abs="0"
            CO_normed="1333.745103" CO2_normed="63798.275940" HC_normed="7.587679" PMx_normed="1.286880" NOx_normed="27.504617" fuel_normed="27.424167" electricity_normed="0"
            traveltime="2.70" CO_perVeh="323.695690" CO2_perVeh="15483.638468" HC_perVeh="1.841506" PMx_perVeh="0.312322" NOx_perVeh="6.675283" fuel_perVeh="6.655758" electricity_perVeh="0"/>
        <edge id=":1110673561_0" sampledSeconds="101.54" CO_abs="10363.147929" CO2_abs="733326.109775" HC_abs="64.857982" PMx_abs="14.901551" NOx_abs="311.016394" fuel_abs="315.221915" electricity_abs="0"
            CO_normed="260.479626" CO2_normed="18432.286445" HC_normed="1.630217" PMx_normed="0.374553" NOx_normed="7.817454" fuel_normed="7.923161" electricity_normed="0"
            traveltime="1.20" CO_perVeh="122.295204" CO2_perVeh="8653.959862" HC_perVeh="0.765387" PMx_perVeh="0.175853" NOx_perVeh="3.670295" fuel_perVeh="3.719925" electricity_perVeh="0"/>
        <edge id=":1110673561_1" sampledSeconds="5183.94" CO_abs="487752.599332" CO2_abs="33813870.954886" HC_abs="3038.921604" PMx_abs="706.687798" NOx_abs="14454.572257" fuel_abs="14534.950042" electricity_abs="0"
            CO_normed="11952.542944" CO2_normed="828620.380965" HC_normed="74.469805" PMx_normed="17.317624" NOx_normed="354.214198" fuel_normed="356.183883" electricity_normed="0"
            traveltime="1.19" CO_perVeh="112.001973" CO2_perVeh="7764.633652" HC_perVeh="0.697823" PMx_perVeh="0.162276" NOx_perVeh="3.319184" fuel_perVeh="3.337641" electricity_perVeh="0"/>
        <edge id=":1110673562_0" sampledSeconds="302.16" CO_abs="6774.742327" CO2_abs="513723.367961" HC_abs="42.570168" PMx_abs="7.036448" NOx_abs="196.889029" fuel_abs="220.829852" electricity_abs="0"
            CO_normed="10551.325510" CO2_normed="800098.692460" HC_normed="66.300927" PMx_normed="10.958919" NOx_normed="306.644908" fuel_normed="343.931552" electricity_normed="0"
            traveltime="0.03" CO_perVeh="0.607298" CO2_perVeh="46.050900" HC_perVeh="0.003816" PMx_perVeh="0.000631" NOx_perVeh="0.017649" fuel_perVeh="0.019796" electricity_perVeh="0"/>
        <edge id=":1110673564_0" sampledSeconds="27.98" CO_abs="546.516675" CO2_abs="61825.940181" HC_abs="3.910740" PMx_abs="0.883250" NOx_abs="23.419959" fuel_abs="26.576351" electricity_abs="0"
            CO_normed="2298.166137" CO2_normed="259985.264164" HC_normed="16.445115" PMx_normed="3.714167" NOx_normed="98.483650" fuel_normed="111.756646" electricity_normed="0"
            traveltime="7.903787e-03" CO_perVeh="0.154361" CO2_perVeh="17.462488" HC_perVeh="0.001105" PMx_perVeh="0.000249" NOx_perVeh="0.006615" fuel_perVeh="0.007506" electricity_perVeh="0"/>
        <edge id=":1110673588_0" sampledSeconds="62.62" CO_abs="1354.854792" CO2_abs="143191.787365" HC_abs="9.456024" PMx_abs="2.012498" NOx_abs="54.246238" fuel_abs="61.552185" electricity_abs="0"
            CO_normed="2278.928748" CO2_normed="240855.243319" HC_normed="15.905471" PMx_normed="3.385116" NOx_normed="91.244695" fuel_normed="103.533637" electricity_normed="0"
            traveltime="0.02" CO_perVeh="0.437050" CO2_perVeh="46.190899" HC_perVeh="0.003050" PMx_perVeh="0.000649" NOx_perVeh="0.017499" fuel_perVeh="0.019856" electricity_perVeh="0"/>
        <edge id=":1110673601_0" sampledSeconds="29.04" CO_abs="568.754162" CO2_abs="63134.185732" HC_abs="4.031007" PMx_abs="0.909754" NOx_abs="23.958038" fuel_abs="27.138706" electricity_abs="0"
            CO_normed="854.170484" CO2_normed="94816.638843" HC_normed="6.053877" PMx_normed="1.366293" NOx_normed="35.980834" fuel_normed="40.757648" electricity_normed="0"
            traveltime="0.02" CO_perVeh="0.433702" CO2_perVeh="48.142847" HC_perVeh="0.003074" PMx_perVeh="0.000694" NOx_perVeh="0.018269" fuel_perVeh="0.020695" electricity_perVeh="0"/>
        <edge id=":1110673617_0" sampledSeconds="857.05" CO_abs="32072.356056" CO2_abs="3243497.191782" HC_abs="223.867145" PMx_abs="61.160135" NOx_abs="1272.683621" fuel_abs="1394.227563" electricity_abs="0"
            CO_normed="44955.994939" CO2_normed="4546427.555354" HC_normed="313.795788" PMx_normed="85.728492" NOx_normed="1783.927514" fuel_normed="1954.296315" electricity_normed="0"
            traveltime="0.02" CO_perVeh="0.568570" CO2_perVeh="57.499866" HC_perVeh="0.003969" PMx_perVeh="0.001084" NOx_perVeh="0.022562" fuel_perVeh="0.024717" electricity_perVeh="0"/>
        <edge id=":1110673621_0" sampledSeconds="26.40" CO_abs="550.252953" CO2_abs="56954.590183" HC_abs="3.826625" PMx_abs="0.831154" NOx_abs="21.790892" fuel_abs="24.482369" electricity_abs="0"
            CO_normed="925.551048" CO2_normed="95800.268501" HC_normed="6.436562" PMx_normed="1.398040" NOx_normed="36.653293" fuel_normed="41.180483" electricity_normed="0"
            traveltime="0.02" CO_perVeh="0.416858" CO2_perVeh="43.147417" HC_perVeh="0.002899" PMx_perVeh="0.000630" NOx_perVeh="0.016508" fuel_perVeh="0.018547" electricity_perVeh="0"/>
        <edge id=":1110673630_0" sampledSeconds="286.33" CO_abs="1412.311070" CO2_abs="129477.363987" HC_abs="9.375127" PMx_abs="1.645595" NOx_abs="48.427743" fuel_abs="55.657304" electricity_abs="0"
            CO_normed="42.360429" CO2_normed="3883.504736" HC_normed="0.281195" PMx_normed="0.049357" NOx_normed="1.452527" fuel_normed="1.669368" electricity_normed="0"
            traveltime="1.29" CO_perVeh="6.354860" CO2_perVeh="582.598688" HC_perVeh="0.042184" PMx_perVeh="0.007405" NOx_perVeh="0.217906" fuel_perVeh="0.250437" electricity_perVeh="0"/>
        <edge id=":1110673630_1" sampledSeconds="338.22" CO_abs="1251.198913" CO2_abs="105479.230774" HC_abs="8.090109" PMx_abs="1.337540" NOx_abs="39.566840" fuel_abs="45.341512" electricity_abs="0"
            CO_normed="45.751625" CO2_normed="3856.977606" HC_normed="0.295825" PMx_normed="0.048909" NOx_normed="1.446810" fuel_normed="1.657968" electricity_normed="0"
            traveltime="1.08" CO_perVeh="3.988576" CO2_perVeh="336.247028" HC_perVeh="0.025790" PMx_perVeh="0.004264" NOx_perVeh="0.126131" fuel_perVeh="0.144540" electricity_perVeh="0"/>
        <edge id=":1110673650_0" sampledSeconds="199.60" CO_abs="3338.165355" CO2_abs="402722.785384" HC_abs="24.427527" PMx_abs="5.580219" NOx_abs="151.000196" fuel_abs="173.113573" electricity_abs="0"
            CO_normed="4679.124432" CO2_normed="564498.706297" HC_normed="34.240197" PMx_normed="7.821823" NOx_normed="211.657792" fuel_normed="242.654232" electricity_normed="0"
            traveltime="0.02" CO_perVeh="0.386302" CO2_perVeh="46.604189" HC_perVeh="0.002827" PMx_perVeh="0.000646" NOx_perVeh="0.017474" fuel_perVeh="0.020033" electricity_perVeh="0"/>
        <edge id=":1110673655_0" sampledSeconds="20.69" CO_abs="269.679387" CO2_abs="36336.635622" HC_abs="2.064656" PMx_abs="0.474570" NOx_abs="13.402974" fuel_abs="15.619612" electricity_abs="0"
            CO_normed="378.011056" CO2_normed="50933.258669" HC_normed="2.894040" PMx_normed="0.665208" NOx_normed="18.787021" fuel_normed="21.894095" electricity_normed="0"
            traveltime="0.02" CO_perVeh="0.308088" CO2_perVeh="41.511770" HC_perVeh="0.002359" PMx_perVeh="0.000542" NOx_perVeh="0.015312" fuel_perVeh="0.017844" electricity_perVeh="0"/>
        <edge id=":1110673663_0" sampledSeconds="111.90" CO_abs="1790.341570" CO2_abs="217702.114933" HC_abs="13.138982" PMx_abs="2.872530" NOx_abs="80.809145" fuel_abs="93.581177" electricity_abs="0"
            CO_normed="45.962115" CO2_normed="5588.905346" HC_normed="0.337307" PMx_normed="0.073744" NOx_normed="2.074553" fuel_normed="2.402440" electricity_normed="0"
            traveltime="1.31" CO_perVeh="21.028406" CO2_perVeh="2557.014042" HC_perVeh="0.154324" PMx_perVeh="0.033739" NOx_perVeh="0.949142" fuel_perVeh="1.099155" electricity_perVeh="0"/>
        <edge id=":1110673663_1" sampledSeconds="169.87" CO_abs="2879.414013" CO2_abs="336507.663261" HC_abs="20.848469" PMx_abs="4.751319" NOx_abs="126.923158" fuel_abs="144.650406" electricity_abs="0"
            CO_normed="74.011434" CO2_normed="8649.473316" HC_normed="0.535882" PMx_normed="0.122126" NOx_normed="3.262388" fuel_normed="3.718043" electricity_normed="0"
            traveltime="1.27" CO_perVeh="21.511015" CO2_perVeh="2513.921668" HC_perVeh="0.155751" PMx_perVeh="0.035495" NOx_perVeh="0.948195" fuel_perVeh="1.080629" electricity_perVeh="0"/>