<?xml version="1.0" encoding="UTF-8"?>

<!-- generated on Tue Nov 10 03:11:08 2020 by Eclipse SUMO sumo Version 1.7.0
<configuration xmlns:xsi="http://www.w3.org/2001/XMLSchema-instance" xsi:noNamespaceSchemaLocation="http://sumo.dlr.de/xsd/sumoConfiguration.xsd">

    <input>
        <net-file value="../dataSets/Porto/8AM9AM_Routing_SaoBento/Porto.net.xml"/>
        <route-files value="../results/Porto/8AM9AM_Routing_SaoBento/length-ttime/solution5/Porto.rou.xml"/>
        <additional-files value="moreOutputInfo.xml"/>
    </input>

    <output>
        <emission-output.precision value="6"/>
        <tripinfo-output value="../results/Porto/8AM9AM_Routing_SaoBento/length-ttime/solution5/Porto-tripinfo"/>
    </output>

    <processing>
        <collision.action value="warn"/>
        <time-to-teleport value="-1"/>
    </processing>

    <emissions>
        <device.emissions.probability value="1"/>
    </emissions>

    <gui_only>
        <quit-on-end value="true"/>
        <start value="true"/>
    </gui_only>

</configuration>
-->

<meandata xmlns:xsi="http://www.w3.org/2001/XMLSchema-instance" xsi:noNamespaceSchemaLocation="http://sumo.dlr.de/xsd/meandata_file.xsd">
    <interval begin="0.00" end="8652.00" id="emissions-detector">
        <edge id=":1092997347_0" sampledSeconds="597.87" CO_abs="72937.825280" CO2_abs="3103070.077368" HC_abs="405.517534" PMx_abs="62.780038" NOx_abs="1342.731799" fuel_abs="1333.884156" electricity_abs="0"
            CO_normed="68974.112924" CO2_normed="2934437.722892" HC_normed="383.480205" PMx_normed="59.368338" NOx_normed="1269.762766" fuel_normed="1261.395937" electricity_normed="0"
            traveltime="0.07" CO_perVeh="8.353860" CO2_perVeh="355.406975" HC_perVeh="0.046446" PMx_perVeh="0.007190" NOx_perVeh="0.153788" fuel_perVeh="0.152775" electricity_perVeh="0"/>
        <edge id=":1103427051_0" sampledSeconds="19.33" CO_abs="1558.811032" CO2_abs="88569.914383" HC_abs="9.195518" PMx_abs="1.707095" NOx_abs="37.582512" fuel_abs="38.072322" electricity_abs="0"
            CO_normed="2236.564683" CO2_normed="127079.125329" HC_normed="13.193626" PMx_normed="2.449321" NOx_normed="53.922969" fuel_normed="54.625742" electricity_normed="0"
            traveltime="0.03" CO_perVeh="2.424148" CO2_perVeh="137.737426" HC_perVeh="0.014300" PMx_perVeh="0.002655" NOx_perVeh="0.058446" fuel_perVeh="0.059207" electricity_perVeh="0"/>
        <edge id=":1105984386_0" sampledSeconds="10.54" CO_abs="274.398473" CO2_abs="19855.199666" HC_abs="1.695107" PMx_abs="0.236628" NOx_abs="7.394170" fuel_abs="8.535048" electricity_abs="0"
            CO_normed="11.758406" CO2_normed="850.826521" HC_normed="0.072638" PMx_normed="0.010140" NOx_normed="0.316852" fuel_normed="0.365740" electricity_normed="0"
            traveltime="1.01" CO_perVeh="26.322952" CO2_perVeh="1904.702517" HC_perVeh="0.162611" PMx_perVeh="0.022700" NOx_perVeh="0.709320" fuel_perVeh="0.818764" electricity_perVeh="0"/>
        <edge id=":1105984390_0" sampledSeconds="11.03" CO_abs="6.433125" CO2_abs="902.339196" HC_abs="0.048821" PMx_abs="0.005559" NOx_abs="0.296300" fuel_abs="0.387887" electricity_abs="0"
            CO_normed="0.213117" CO2_normed="29.892771" HC_normed="0.001617" PMx_normed="0.000184" NOx_normed="0.009816" fuel_normed="0.012850" electricity_normed="0"
            traveltime="1.14" CO_perVeh="0.666832" CO2_perVeh="93.532890" HC_perVeh="0.005061" PMx_perVeh="0.000576" NOx_perVeh="0.030713" fuel_perVeh="0.040207" electricity_perVeh="0"/>
        <edge id=":1105984390_1" sampledSeconds="2400.92" CO_abs="59167.697024" CO2_abs="7214448.119098" HC_abs="441.685634" PMx_abs="129.225269" NOx_abs="2734.229711" fuel_abs="3101.158763" electricity_abs="0"
            CO_normed="1875.020108" CO2_normed="228625.347478" HC_normed="13.996986" PMx_normed="4.095140" NOx_normed="86.647545" fuel_normed="98.275501" electricity_normed="0"
            traveltime="0.65" CO_perVeh="15.978182" CO2_perVeh="1948.255041" HC_perVeh="0.119277" PMx_perVeh="0.034897" NOx_perVeh="0.738376" fuel_perVeh="0.837465" electricity_perVeh="0"/>
        <edge id=":1105984395_0" sampledSeconds="4.15" CO_abs="74.030389" CO2_abs="4900.020610" HC_abs="0.448889" PMx_abs="0.069503" NOx_abs="1.905464" fuel_abs="2.106333" electricity_abs="0"
            CO_normed="33.481753" CO2_normed="2216.134269" HC_normed="0.203019" PMx_normed="0.031434" NOx_normed="0.861785" fuel_normed="0.952632" electricity_normed="0"
            traveltime="0.10" CO_perVeh="1.715998" CO2_perVeh="113.580725" HC_perVeh="0.010405" PMx_perVeh="0.001611" NOx_perVeh="0.044168" fuel_perVeh="0.048824" electricity_perVeh="0"/>
        <edge id=":1105984398_0" sampledSeconds="10.90" CO_abs="805.635623" CO2_abs="51783.863131" HC_abs="4.893424" PMx_abs="0.964204" NOx_abs="21.625838" fuel_abs="22.259586" electricity_abs="0"
            CO_normed="27.726711" CO2_normed="1782.190545" HC_normed="0.168412" PMx_normed="0.033184" NOx_normed="0.744274" fuel_normed="0.766085" electricity_normed="0"
            traveltime="1.18" CO_perVeh="87.211775" CO2_perVeh="5605.713678" HC_perVeh="0.529724" PMx_perVeh="0.104377" NOx_perVeh="2.341043" fuel_perVeh="2.409648" electricity_perVeh="0"/>
        <edge id=":1105984398_1" sampledSeconds="646.57" CO_abs="11754.749632" CO2_abs="1431650.524794" HC_abs="86.308053" PMx_abs="20.182764" NOx_abs="538.499489" fuel_abs="615.405709" electricity_abs="0"
            CO_normed="391.594817" CO2_normed="47693.650892" HC_normed="2.875245" PMx_normed="0.672364" NOx_normed="17.939439" fuel_normed="20.501473" electricity_normed="0"
            traveltime="0.95" CO_perVeh="17.273799" CO2_perVeh="2103.834168" HC_perVeh="0.126831" PMx_perVeh="0.029659" NOx_perVeh="0.791334" fuel_perVeh="0.904349" electricity_perVeh="0"/>
        <edge id=":1106006327_0" sampledSeconds="131.25" CO_abs="17694.162107" CO2_abs="575819.402936" HC_abs="94.122631" PMx_abs="12.005274" NOx_abs="252.029964" fuel_abs="247.524398" electricity_abs="0"
            CO_normed="830.964116" CO2_normed="27041.984715" HC_normed="4.420245" PMx_normed="0.563799" NOx_normed="11.835986" fuel_normed="11.624393" electricity_normed="0"
            traveltime="2.08" CO_perVeh="280.945281" CO2_perVeh="9142.775058" HC_perVeh="1.494465" PMx_perVeh="0.190618" NOx_perVeh="4.001694" fuel_perVeh="3.930156" electricity_perVeh="0"/>
        <edge id=":1106006327_1" sampledSeconds="682.22" CO_abs="92367.648937" CO2_abs="3089296.392499" HC_abs="493.397268" PMx_abs="64.455148" NOx_abs="1352.096458" fuel_abs="1327.977043" electricity_abs="0"
            CO_normed="3782.789471" CO2_normed="126517.866392" HC_normed="20.206404" PMx_normed="2.639672" NOx_normed="55.373243" fuel_normed="54.385465" electricity_normed="0"
            traveltime="2.29" CO_perVeh="310.055840" CO2_perVeh="10370.020236" HC_perVeh="1.656215" PMx_perVeh="0.216360" NOx_perVeh="4.538661" fuel_perVeh="4.457698" electricity_perVeh="0"/>
        <edge id=":1106006327_2" sampledSeconds="0.00" CO_abs="0" CO2_abs="0" HC_abs="0" PMx_abs="0" NOx_abs="0" fuel_abs="0" electricity_abs="0"
            CO_normed="0" CO2_normed="0" HC_normed="0" PMx_normed="0" NOx_normed="0" fuel_normed="0" electricity_normed="0"/>
        <edge id=":1106006327_3" sampledSeconds="0.00" CO_abs="0" CO2_abs="0" HC_abs="0" PMx_abs="0" NOx_abs="0" fuel_abs="0" electricity_abs="0"
            CO_normed="0" CO2_normed="0" HC_normed="0" PMx_normed="0" NOx_normed="0" fuel_normed="0" electricity_normed="0"/>
        <edge id=":1107381198_0" sampledSeconds="0.00" CO_abs="0" CO2_abs="0" HC_abs="0" PMx_abs="0" NOx_abs="0" fuel_abs="0" electricity_abs="0"
            CO_normed="0" CO2_normed="0" HC_normed="0" PMx_normed="0" NOx_normed="0" fuel_normed="0" electricity_normed="0"/>
        <edge id=":1107381198_1" sampledSeconds="103.00" CO_abs="4663.457482" CO2_abs="185404.600380" HC_abs="25.502250" PMx_abs="3.198467" NOx_abs="76.796246" fuel_abs="79.699020" electricity_abs="0"
            CO_normed="211.604391" CO2_normed="8412.734058" HC_normed="1.157165" PMx_normed="0.145130" NOx_normed="3.484630" fuel_normed="3.616343" electricity_normed="0"
            traveltime="1.54" CO_perVeh="69.820900" CO2_perVeh="2775.862372" HC_perVeh="0.381818" PMx_perVeh="0.047887" NOx_perVeh="1.149787" fuel_perVeh="1.193247" electricity_perVeh="0"/>
        <edge id=":1110338277_0" sampledSeconds="160.28" CO_abs="2614.671797" CO2_abs="320357.454043" HC_abs="19.260938" PMx_abs="4.407889" NOx_abs="119.915939" fuel_abs="137.708201" electricity_abs="0"
            CO_normed="3885.484145" CO2_normed="476061.205731" HC_normed="28.622358" PMx_normed="6.550261" NOx_normed="178.198839" fuel_normed="204.638697" electricity_normed="0"
            traveltime="0.02" CO_perVeh="0.354695" CO2_perVeh="43.458350" HC_perVeh="0.002613" PMx_perVeh="0.000598" NOx_perVeh="0.016267" fuel_perVeh="0.018681" electricity_perVeh="0"/>
        <edge id=":1110338293_0" sampledSeconds="6281.55" CO_abs="572430.046892" CO2_abs="10099083.831294" HC_abs="2842.696682" PMx_abs="240.083125" NOx_abs="4560.070363" fuel_abs="4341.423469" electricity_abs="0"
            CO_normed="793939.038685" CO2_normed="14007051.083626" HC_normed="3942.713845" PMx_normed="332.986303" NOx_normed="6324.646828" fuel_normed="6021.391774" electricity_normed="0"
            traveltime="0.42" CO_perVeh="38.261806" CO2_perVeh="675.033023" HC_perVeh="0.190009" PMx_perVeh="0.016047" NOx_perVeh="0.304800" fuel_perVeh="0.290185" electricity_perVeh="0"/>
        <edge id=":1110338295_0" sampledSeconds="0.00" CO_abs="0" CO2_abs="0" HC_abs="0" PMx_abs="0" NOx_abs="0" fuel_abs="0" electricity_abs="0"
            CO_normed="0" CO2_normed="0" HC_normed="0" PMx_normed="0" NOx_normed="0" fuel_normed="0" electricity_normed="0"/>
        <edge id=":1110673403_0" sampledSeconds="200.82" CO_abs="2776.618318" CO2_abs="366925.882211" HC_abs="20.954446" PMx_abs="4.794878" NOx_abs="135.398433" fuel_abs="157.726229" electricity_abs="0"
            CO_normed="3851.065628" CO2_normed="508912.457990" HC_normed="29.063032" PMx_normed="6.650316" NOx_normed="187.792556" fuel_normed="218.760373" electricity_normed="0"
            traveltime="0.02" CO_perVeh="0.320913" CO2_perVeh="42.408105" HC_perVeh="0.002422" PMx_perVeh="0.000554" NOx_perVeh="0.015649" fuel_perVeh="0.018229" electricity_perVeh="0"/>
        <edge id=":1110673412_0" sampledSeconds="940.46" CO_abs="166383.581758" CO2_abs="11366276.183603" HC_abs="1035.766928" PMx_abs="249.693348" NOx_abs="4883.412528" fuel_abs="4885.802339" electricity_abs="0"
            CO_normed="238725.307416" CO2_normed="16308206.299109" HC_normed="1486.106837" PMx_normed="358.257231" NOx_normed="7006.665830" fuel_normed="7010.094704" electricity_normed="0"
            traveltime="0.02" CO_perVeh="2.746949" CO2_perVeh="187.654196" HC_perVeh="0.017100" PMx_perVeh="0.004122" NOx_perVeh="0.080624" fuel_perVeh="0.080663" electricity_perVeh="0"/>
        <edge id=":1110673414_0" sampledSeconds="0.00" CO_abs="0" CO2_abs="0" HC_abs="0" PMx_abs="0" NOx_abs="0" fuel_abs="0" electricity_abs="0"
            CO_normed="0" CO2_normed="0" HC_normed="0" PMx_normed="0" NOx_normed="0" fuel_normed="0" electricity_normed="0"/>
        <edge id=":1110673414_1" sampledSeconds="7.23" CO_abs="388.616132" CO2_abs="13737.707769" HC_abs="2.078418" PMx_abs="0.206400" NOx_abs="5.499653" fuel_abs="5.905448" electricity_abs="0"
            CO_normed="17.906845" CO2_normed="633.012831" HC_normed="0.095770" PMx_normed="0.009511" NOx_normed="0.253416" fuel_normed="0.272114" electricity_normed="0"
            traveltime="1.58" CO_perVeh="84.886397" CO2_perVeh="3000.762002" HC_perVeh="0.453994" PMx_perVeh="0.045084" NOx_perVeh="1.201303" fuel_perVeh="1.289942" electricity_perVeh="0"/>
        <edge id=":1110673417_0" sampledSeconds="29.06" CO_abs="449.466770" CO2_abs="54349.142529" HC_abs="3.287539" PMx_abs="0.719292" NOx_abs="20.208610" fuel_abs="23.362455" electricity_abs="0"
            CO_normed="667.921692" CO2_normed="80764.527237" HC_normed="4.885386" PMx_normed="1.068890" NOx_normed="30.030626" fuel_normed="34.717339" electricity_normed="0"
            traveltime="0.02" CO_perVeh="0.342750" CO2_perVeh="41.444995" HC_perVeh="0.002507" PMx_perVeh="0.000549" NOx_perVeh="0.015410" fuel_perVeh="0.017815" electricity_perVeh="0"/>
        <edge id=":1110673446_0" sampledSeconds="1311.79" CO_abs="14104.510107" CO2_abs="1145471.821777" HC_abs="91.315433" PMx_abs="20.944255" NOx_abs="468.095525" fuel_abs="492.385724" electricity_abs="0"
            CO_normed="19562.427333" CO2_normed="1588726.521188" HC_normed="126.651086" PMx_normed="29.048897" NOx_normed="649.230963" fuel_normed="682.920560" electricity_normed="0"
            traveltime="0.02" CO_perVeh="0.244993" CO2_perVeh="19.896629" HC_perVeh="0.001586" PMx_perVeh="0.000364" NOx_perVeh="0.008131" fuel_perVeh="0.008553" electricity_perVeh="0"/>
        <edge id=":1110673451_0" sampledSeconds="36.89" CO_abs="531.686409" CO2_abs="37001.908758" HC_abs="3.269030" PMx_abs="0.536494" NOx_abs="14.415979" fuel_abs="15.905680" electricity_abs="0"
            CO_normed="819.365709" CO2_normed="57022.513112" HC_normed="5.037802" PMx_normed="0.826775" NOx_normed="22.216025" fuel_normed="24.511759" electricity_normed="0"
            traveltime="0.03" CO_perVeh="0.391735" CO2_perVeh="27.262226" HC_perVeh="0.002409" PMx_perVeh="0.000395" NOx_perVeh="0.010621" fuel_perVeh="0.011719" electricity_perVeh="0"/>
        <edge id=":1110673464_0" sampledSeconds="1024.66" CO_abs="3373.398779" CO2_abs="245300.898301" HC_abs="20.946010" PMx_abs="3.427728" NOx_abs="94.403424" fuel_abs="105.445406" electricity_abs="0"
            CO_normed="99.407460" CO2_normed="7228.537392" HC_normed="0.617238" PMx_normed="0.101008" NOx_normed="2.781884" fuel_normed="3.107270" electricity_normed="0"
            traveltime="1.22" CO_perVeh="4.000379" CO2_perVeh="290.892552" HC_perVeh="0.024839" PMx_perVeh="0.004065" NOx_perVeh="0.111949" fuel_perVeh="0.125044" electricity_perVeh="0"/>
        <edge id=":1110673464_1" sampledSeconds="2603.20" CO_abs="63215.746286" CO2_abs="7744829.591267" HC_abs="472.835422" PMx_abs="138.392102" NOx_abs="2933.854415" fuel_abs="3329.145509" electricity_abs="0"
            CO_normed="1825.354742" CO2_normed="223631.962834" HC_normed="13.653123" PMx_normed="3.996072" NOx_normed="84.715049" fuel_normed="96.129080" electricity_normed="0"
            traveltime="0.72" CO_perVeh="17.423609" CO2_perVeh="2134.640297" HC_perVeh="0.130324" PMx_perVeh="0.038144" NOx_perVeh="0.808633" fuel_perVeh="0.917584" electricity_perVeh="0"/>
        <edge id=":1110673479_0" sampledSeconds="135.20" CO_abs="5759.840367" CO2_abs="405381.615482" HC_abs="35.714832" PMx_abs="6.906766" NOx_abs="164.474158" fuel_abs="174.256160" electricity_abs="0"
            CO_normed="7988.682895" CO2_normed="562249.119947" HC_normed="49.535134" PMx_normed="9.579426" NOx_normed="228.119498" fuel_normed="241.686768" electricity_normed="0"
            traveltime="0.03" CO_perVeh="1.217682" CO2_perVeh="85.701339" HC_perVeh="0.007550" PMx_perVeh="0.001460" NOx_perVeh="0.034771" fuel_perVeh="0.036839" electricity_perVeh="0"/>
        <edge id=":1110673511_0" sampledSeconds="63.46" CO_abs="1385.861454" CO2_abs="141176.303303" HC_abs="9.555357" PMx_abs="2.030515" NOx_abs="53.887543" fuel_abs="60.685774" electricity_abs="0"
            CO_normed="1922.137939" CO2_normed="195806.245913" HC_normed="13.252923" PMx_normed="2.816248" NOx_normed="74.740004" fuel_normed="84.168895" electricity_normed="0"
            traveltime="0.02" CO_perVeh="0.531151" CO2_perVeh="54.107813" HC_perVeh="0.003662" PMx_perVeh="0.000778" NOx_perVeh="0.020653" fuel_perVeh="0.023259" electricity_perVeh="0"/>
        <edge id=":1110673517_0" sampledSeconds="183.84" CO_abs="7853.924909" CO2_abs="559548.955615" HC_abs="48.872947" PMx_abs="9.542459" NOx_abs="226.902237" fuel_abs="240.526007" electricity_abs="0"
            CO_normed="10893.099735" CO2_normed="776073.447455" HC_normed="67.784947" PMx_normed="13.235033" NOx_normed="314.704906" fuel_normed="333.600565" electricity_normed="0"
            traveltime="0.03" CO_perVeh="1.202499" CO2_perVeh="85.671474" HC_perVeh="0.007483" PMx_perVeh="0.001461" NOx_perVeh="0.034741" fuel_perVeh="0.036826" electricity_perVeh="0"/>
        <edge id=":1110673534_0" sampledSeconds="657.76" CO_abs="4882.806320" CO2_abs="402026.900343" HC_abs="31.424407" PMx_abs="5.490722" NOx_abs="153.359671" fuel_abs="172.815580" electricity_abs="0"
            CO_normed="131.245533" CO2_normed="10806.128986" HC_normed="0.844660" PMx_normed="0.147586" NOx_normed="4.122173" fuel_normed="4.645131" electricity_normed="0"
            traveltime="1.45" CO_perVeh="10.736564" CO2_perVeh="883.997309" HC_perVeh="0.069098" PMx_perVeh="0.012073" NOx_perVeh="0.337215" fuel_perVeh="0.379996" electricity_perVeh="0"/>
        <edge id=":1110673534_1" sampledSeconds="264.31" CO_abs="4075.470796" CO2_abs="513107.639317" HC_abs="30.296784" PMx_abs="6.979531" NOx_abs="191.250374" fuel_abs="220.563453" electricity_abs="0"
            CO_normed="106.517438" CO2_normed="13410.698760" HC_normed="0.791844" PMx_normed="0.182419" NOx_normed="4.998564" fuel_normed="5.764697" electricity_normed="0"
            traveltime="1.23" CO_perVeh="18.909162" CO2_perVeh="2380.690722" HC_perVeh="0.140569" PMx_perVeh="0.032383" NOx_perVeh="0.887354" fuel_perVeh="1.023359" electricity_perVeh="0"/>
        <edge id=":1110673549_0" sampledSeconds="648.38" CO_abs="1230.070515" CO2_abs="133626.078114" HC_abs="8.633971" PMx_abs="1.830431" NOx_abs="49.917180" fuel_abs="57.440364" electricity_abs="0"
            CO_normed="32.028694" CO2_normed="3479.368579" HC_normed="0.224812" PMx_normed="0.047661" NOx_normed="1.299748" fuel_normed="1.495638" electricity_normed="0"
            traveltime="1.29" CO_perVeh="2.443857" CO2_perVeh="265.483155" HC_perVeh="0.017154" PMx_perVeh="0.003637" NOx_perVeh="0.099174" fuel_perVeh="0.114120" electricity_perVeh="0"/>
        <edge id=":1110673549_1" sampledSeconds="3198.10" CO_abs="67880.789321" CO2_abs="8980576.581571" HC_abs="523.882276" PMx_abs="157.659730" NOx_abs="3354.407970" fuel_abs="3860.338985" electricity_abs="0"
            CO_normed="1709.711491" CO2_normed="226193.524469" HC_normed="13.195008" PMx_normed="3.970971" NOx_normed="84.487377" fuel_normed="97.230247" electricity_normed="0"
            traveltime="0.81" CO_perVeh="17.119725" CO2_perVeh="2264.926530" HC_perVeh="0.132125" PMx_perVeh="0.039762" NOx_perVeh="0.845991" fuel_perVeh="0.973588" electricity_perVeh="0"/>
        <edge id=":1110673556_0" sampledSeconds="466.84" CO_abs="57890.143893" CO2_abs="2778960.839683" HC_abs="329.621569" PMx_abs="56.265017" NOx_abs="1199.172999" fuel_abs="1194.556673" electricity_abs="0"
            CO_normed="1117.746567" CO2_normed="53656.351993" HC_normed="6.364354" PMx_normed="1.086369" NOx_normed="23.153708" fuel_normed="23.064576" electricity_normed="0"
            traveltime="2.75" CO_perVeh="341.256832" CO2_perVeh="16381.706949" HC_perVeh="1.943087" PMx_perVeh="0.331677" NOx_perVeh="7.069010" fuel_perVeh="7.041797" electricity_perVeh="0"/>
        <edge id=":1110673556_2" sampledSeconds="176.69" CO_abs="17665.958124" CO2_abs="752588.961397" HC_abs="98.131281" PMx_abs="14.638854" NOx_abs="321.769402" fuel_abs="323.508402" electricity_abs="0"
            CO_normed="356.652436" CO2_normed="15193.780299" HC_normed="1.981141" PMx_normed="0.295539" NOx_normed="6.496101" fuel_normed="6.531209" electricity_normed="0"
            traveltime="3.06" CO_perVeh="305.469660" CO2_perVeh="13013.338558" HC_perVeh="1.696830" PMx_perVeh="0.253127" NOx_perVeh="5.563853" fuel_perVeh="5.593923" electricity_perVeh="0"/>
        <edge id=":1110673556_3" sampledSeconds="354.12" CO_abs="35619.696754" CO2_abs="1245593.699504" HC_abs="191.299071" PMx_abs="24.471956" NOx_abs="535.729967" fuel_abs="535.436675" electricity_abs="0"
            CO_normed="1635.867070" CO2_normed="57205.027028" HC_normed="8.785584" PMx_normed="1.123897" NOx_normed="24.603888" fuel_normed="24.590418" electricity_normed="0"
            traveltime="1.80" CO_perVeh="181.148619" CO2_perVeh="6334.629393" HC_perVeh="0.972876" PMx_perVeh="0.124455" NOx_perVeh="2.724525" fuel_perVeh="2.723033" electricity_perVeh="0"/>
        <edge id=":1110673556_4" sampledSeconds="66.54" CO_abs="7533.521955" CO2_abs="294321.278504" HC_abs="41.227322" PMx_abs="5.869658" NOx_abs="126.990380" fuel_abs="126.517435" electricity_abs="0"
            CO_normed="211.369781" CO2_normed="8257.840692" HC_normed="1.156725" PMx_normed="0.164686" NOx_normed="3.562999" fuel_normed="3.549729" electricity_normed="0"
            traveltime="2.52" CO_perVeh="285.296554" CO2_perVeh="11146.027988" HC_perVeh="1.561290" PMx_perVeh="0.222286" NOx_perVeh="4.809161" fuel_perVeh="4.791250" electricity_perVeh="0"/>
        <edge id=":1110673556_5" sampledSeconds="22.34" CO_abs="1652.906796" CO2_abs="72552.866961" HC_abs="9.211366" PMx_abs="1.298902" NOx_abs="30.316166" fuel_abs="31.187751" electricity_abs="0"
            CO_normed="64.638717" CO2_normed="2837.258727" HC_normed="0.360220" PMx_normed="0.050795" NOx_normed="1.185547" fuel_normed="1.219631" electricity_normed="0"
            traveltime="1.54" CO_perVeh="114.275038" CO2_perVeh="5016.000679" HC_perVeh="0.636835" PMx_perVeh="0.089801" NOx_perVeh="2.095932" fuel_perVeh="2.156190" electricity_perVeh="0"/>
        <edge id=":1110673556_6" sampledSeconds="547.06" CO_abs="65795.617204" CO2_abs="3181848.534600" HC_abs="375.177802" PMx_abs="64.272434" NOx_abs="1371.967219" fuel_abs="1367.740721" electricity_abs="0"
            CO_normed="1302.417562" CO2_normed="62984.368654" HC_normed="7.426606" PMx_normed="1.272266" NOx_normed="27.157952" fuel_normed="27.074289" electricity_normed="0"
            traveltime="2.66" CO_perVeh="319.452269" CO2_perVeh="15448.578126" HC_perVeh="1.821571" PMx_perVeh="0.312057" NOx_perVeh="6.661204" fuel_perVeh="6.640684" electricity_perVeh="0"/>
        <edge id=":1110673561_0" sampledSeconds="101.92" CO_abs="9812.804359" CO2_abs="704271.586764" HC_abs="61.641222" PMx_abs="14.212793" NOx_abs="297.793924" fuel_abs="302.732820" electricity_abs="0"
            CO_normed="244.052460" CO2_normed="17515.809635" HC_normed="1.533068" PMx_normed="0.353484" NOx_normed="7.406378" fuel_normed="7.529213" electricity_normed="0"
            traveltime="1.20" CO_perVeh="115.800616" CO2_perVeh="8311.088290" HC_perVeh="0.727426" PMx_perVeh="0.167725" NOx_perVeh="3.514257" fuel_perVeh="3.572541" electricity_perVeh="0"/>
        <edge id=":1110673561_1" sampledSeconds="5190.71" CO_abs="481823.412762" CO2_abs="33404316.105984" HC_abs="3001.869590" PMx_abs="697.821748" NOx_abs="14278.531097" fuel_abs="14358.902523" electricity_abs="0"
            CO_normed="11683.059968" CO2_normed="809974.397107" HC_normed="72.788124" PMx_normed="16.920501" NOx_normed="346.220069" fuel_normed="348.168883" electricity_normed="0"
            traveltime="1.19" CO_perVeh="110.692639" CO2_perVeh="7674.205537" HC_perVeh="0.689640" PMx_perVeh="0.160315" NOx_perVeh="3.280306" fuel_perVeh="3.298770" electricity_perVeh="0"/>
        <edge id=":1110673562_0" sampledSeconds="302.13" CO_abs="6957.978180" CO2_abs="523285.739906" HC_abs="43.626895" PMx_abs="7.210274" NOx_abs="200.933292" fuel_abs="224.940319" electricity_abs="0"
            CO_normed="10722.727970" CO2_normed="806419.694724" HC_normed="67.232078" PMx_normed="11.111534" NOx_normed="309.652168" fuel_normed="346.648665" electricity_normed="0"
            traveltime="0.03" CO_perVeh="0.623726" CO2_perVeh="46.908283" HC_perVeh="0.003911" PMx_perVeh="0.000646" NOx_perVeh="0.018012" fuel_perVeh="0.020164" electricity_perVeh="0"/>
        <edge id=":1110673564_0" sampledSeconds="27.78" CO_abs="409.010786" CO2_abs="49259.170814" HC_abs="2.980468" PMx_abs="0.688745" NOx_abs="18.506296" fuel_abs="21.174433" electricity_abs="0"
            CO_normed="1701.847929" CO2_normed="204961.875787" HC_normed="12.401394" PMx_normed="2.865792" NOx_normed="77.002620" fuel_normed="88.104438" electricity_normed="0"
            traveltime="7.846204e-03" CO_perVeh="0.115523" CO2_perVeh="13.913055" HC_perVeh="0.000842" PMx_perVeh="0.000195" NOx_perVeh="0.005227" fuel_perVeh="0.005981" electricity_perVeh="0"/>
        <edge id=":1110673588_0" sampledSeconds="63.00" CO_abs="944.946897" CO2_abs="113813.876960" HC_abs="6.909635" PMx_abs="1.483180" NOx_abs="42.200915" fuel_abs="48.923929" electricity_abs="0"
            CO_normed="1572.727152" CO2_normed="189426.702292" HC_normed="11.500086" PMx_normed="2.468538" NOx_normed="70.237306" fuel_normed="81.426789" electricity_normed="0"
            traveltime="0.02" CO_perVeh="0.304822" CO2_perVeh="36.714154" HC_perVeh="0.002229" PMx_perVeh="0.000478" NOx_perVeh="0.013613" fuel_perVeh="0.015782" electricity_perVeh="0"/>
        <edge id=":1110673601_0" sampledSeconds="28.89" CO_abs="422.144869" CO2_abs="51603.884022" HC_abs="3.101493" PMx_abs="0.694007" NOx_abs="19.227844" fuel_abs="22.182364" electricity_abs="0"
            CO_normed="627.320491" CO2_normed="76684.987154" HC_normed="4.608916" PMx_normed="1.031317" NOx_normed="28.573178" fuel_normed="32.963687" electricity_normed="0"
            traveltime="0.02" CO_perVeh="0.321906" CO2_perVeh="39.350439" HC_perVeh="0.002365" PMx_perVeh="0.000529" NOx_perVeh="0.014662" fuel_perVeh="0.016915" electricity_perVeh="0"/>
        <edge id=":1110673617_0" sampledSeconds="851.04" CO_abs="31867.926307" CO2_abs="3205833.999996" HC_abs="221.953132" PMx_abs="60.675152" NOx_abs="1258.831557" fuel_abs="1378.037751" electricity_abs="0"
            CO_normed="44199.620398" CO2_normed="4446371.705958" HC_normed="307.840683" PMx_normed="84.154163" NOx_normed="1745.952229" fuel_normed="1911.286756" electricity_normed="0"
            traveltime="0.02" CO_perVeh="0.564411" CO2_perVeh="56.778338" HC_perVeh="0.003931" PMx_perVeh="0.001075" NOx_perVeh="0.022295" fuel_perVeh="0.024406" electricity_perVeh="0"/>
        <edge id=":1110673621_0" sampledSeconds="26.37" CO_abs="493.883281" CO2_abs="52881.851949" HC_abs="3.475008" PMx_abs="0.768622" NOx_abs="20.177814" fuel_abs="22.731665" electricity_abs="0"
            CO_normed="821.997139" CO2_normed="88014.178002" HC_normed="5.783647" PMx_normed="1.279260" NOx_normed="33.583047" fuel_normed="37.833561" electricity_normed="0"
            traveltime="0.02" CO_perVeh="0.374154" CO2_perVeh="40.062009" HC_perVeh="0.002633" PMx_perVeh="0.000582" NOx_perVeh="0.015286" fuel_perVeh="0.017221" electricity_perVeh="0"/>
        <edge id=":1110673630_0" sampledSeconds="288.62" CO_abs="1474.362563" CO2_abs="124785.056750" HC_abs="9.547513" PMx_abs="1.665349" NOx_abs="47.314492" fuel_abs="53.640222" electricity_abs="0"
            CO_normed="43.756469" CO2_normed="3703.399446" HC_normed="0.283353" PMx_normed="0.049425" NOx_normed="1.404210" fuel_normed="1.591947" electricity_normed="0"
            traveltime="1.30" CO_perVeh="6.634068" CO2_perVeh="561.485097" HC_perVeh="0.042960" PMx_perVeh="0.007493" NOx_perVeh="0.212897" fuel_perVeh="0.241361" electricity_perVeh="0"/>
        <edge id=":1110673630_1" sampledSeconds="338.72" CO_abs="1196.649960" CO2_abs="99016.302249" HC_abs="7.700706" PMx_abs="1.290604" NOx_abs="37.400804" fuel_abs="42.563307" electricity_abs="0"
            CO_normed="43.296748" CO2_normed="3582.571389" HC_normed="0.278624" PMx_normed="0.046696" NOx_normed="1.353222" fuel_normed="1.540010" electricity_normed="0"
            traveltime="1.08" CO_perVeh="3.814685" CO2_perVeh="315.644484" HC_perVeh="0.024548" PMx_perVeh="0.004114" NOx_perVeh="0.119226" fuel_perVeh="0.135683" electricity_perVeh="0"/>
        <edge id=":1110673650_0" sampledSeconds="199.44" CO_abs="3121.487834" CO2_abs="398305.666536" HC_abs="23.269139" PMx_abs="5.424634" NOx_abs="148.392431" fuel_abs="171.214854" electricity_abs="0"
            CO_normed="4329.386732" CO2_normed="552435.043739" HC_normed="32.273424" PMx_normed="7.523765" NOx_normed="205.814745" fuel_normed="237.468590" electricity_normed="0"
            traveltime="0.02" CO_perVeh="0.361178" CO2_perVeh="46.086756" HC_perVeh="0.002692" PMx_perVeh="0.000628" NOx_perVeh="0.017170" fuel_perVeh="0.019811" electricity_perVeh="0"/>
        <edge id=":1110673655_0" sampledSeconds="20.52" CO_abs="362.399390" CO2_abs="42350.303344" HC_abs="2.586166" PMx_abs="0.566970" NOx_abs="15.775722" fuel_abs="18.204645" electricity_abs="0"
            CO_normed="502.634383" CO2_normed="58738.284804" HC_normed="3.586915" PMx_normed="0.786366" NOx_normed="21.880335" fuel_normed="25.249160" electricity_normed="0"
            traveltime="0.02" CO_perVeh="0.414013" CO2_perVeh="48.381915" HC_perVeh="0.002954" PMx_perVeh="0.000648" NOx_perVeh="0.018023" fuel_perVeh="0.020797" electricity_perVeh="0"/>
        <edge id=":1110673663_0" sampledSeconds="111.17" CO_abs="2167.779830" CO2_abs="237149.136438" HC_abs="15.276254" PMx_abs="3.335605" NOx_abs="89.677005" fuel_abs="101.940478" electricity_abs="0"
            CO_normed="55.066473" CO2_normed="6024.120357" HC_normed="0.388051" PMx_normed="0.084732" NOx_normed="2.277997" fuel_normed="2.589517" electricity_normed="0"
            traveltime="1.31" CO_perVeh="25.461597" CO2_perVeh="2785.428484" HC_perVeh="0.179427" PMx_perVeh="0.039178" NOx_perVeh="1.053299" fuel_perVeh="1.197339" electricity_perVeh="0"/>
        <edge id=":1110673663_1" sampledSeconds="170.22" CO_abs="2506.551558" CO2_abs="322349.978308" HC_abs="18.782401" PMx_abs="4.262992" NOx_abs="119.359455" fuel_abs="138.564879" electricity_abs="0"
            CO_normed="63.749874" CO2_normed="8198.423262" HC_normed="0.477698" PMx_normed="0.108422" NOx_normed="3.035705" fuel_normed="3.524162" electricity_normed="0"
            traveltime="1.27" CO_perVeh="18.751213" CO2_perVeh="2411.461716" HC_perVeh="0.140509" PMx_perVeh="0.031891" NOx_perVeh="0.892914" fuel_perVeh="1.036587" electricity_perVeh="0"/>