<?xml version="1.0" encoding="UTF-8"?>

<!-- generated on Tue Nov 10 00:05:55 2020 by Eclipse SUMO sumo Version 1.7.0
<configuration xmlns:xsi="http://www.w3.org/2001/XMLSchema-instance" xsi:noNamespaceSchemaLocation="http://sumo.dlr.de/xsd/sumoConfiguration.xsd">

    <input>
        <net-file value="../dataSets/Porto/6AM7AM_Routing_SaoBento/Porto.net.xml"/>
        <route-files value="../results/Porto/6AM7AM_Routing_SaoBento/cost_hc-length/solution10/Porto.rou.xml"/>
        <additional-files value="moreOutputInfo.xml"/>
    </input>

    <output>
        <emission-output.precision value="6"/>
        <tripinfo-output value="../results/Porto/6AM7AM_Routing_SaoBento/cost_hc-length/solution10/Porto-tripinfo"/>
    </output>

    <processing>
        <collision.action value="warn"/>
        <time-to-teleport value="-1"/>
    </processing>

    <emissions>
        <device.emissions.probability value="1"/>
    </emissions>

    <gui_only>
        <quit-on-end value="true"/>
        <start value="true"/>
    </gui_only>

</configuration>
-->

<meandata xmlns:xsi="http://www.w3.org/2001/XMLSchema-instance" xsi:noNamespaceSchemaLocation="http://sumo.dlr.de/xsd/meandata_file.xsd">
    <interval begin="0.00" end="4790.00" id="emissions-detector">
        <edge id=":1092997347_0" sampledSeconds="267.98" CO_abs="34594.213299" CO2_abs="1367773.707672" HC_abs="189.855019" PMx_abs="27.975589" NOx_abs="594.117589" fuel_abs="587.952120" electricity_abs="0"
            CO_normed="59090.514270" CO2_normed="2336299.747400" HC_normed="324.292119" PMx_normed="47.785215" NOx_normed="1014.814633" fuel_normed="1004.283371" electricity_normed="0"
            traveltime="0.08" CO_perVeh="9.726238" CO2_perVeh="384.552543" HC_perVeh="0.053378" PMx_perVeh="0.007865" NOx_perVeh="0.167037" fuel_perVeh="0.165304" electricity_perVeh="0"/>
        <edge id=":1103427051_0" sampledSeconds="11.02" CO_abs="843.877356" CO2_abs="47229.989274" HC_abs="4.963557" PMx_abs="0.926355" NOx_abs="20.159554" fuel_abs="20.302086" electricity_abs="0"
            CO_normed="2186.997684" CO2_normed="122401.527167" HC_normed="12.863584" PMx_normed="2.400747" NOx_normed="52.245621" fuel_normed="52.615009" electricity_normed="0"
            traveltime="0.03" CO_perVeh="2.312211" CO2_perVeh="129.409457" HC_perVeh="0.013600" PMx_perVeh="0.002538" NOx_perVeh="0.055237" fuel_perVeh="0.055627" electricity_perVeh="0"/>
        <edge id=":1105984386_0" sampledSeconds="22.91" CO_abs="445.818614" CO2_abs="35943.438658" HC_abs="2.845707" PMx_abs="0.463445" NOx_abs="13.570853" fuel_abs="15.450719" electricity_abs="0"
            CO_normed="34.506901" CO2_normed="2782.065691" HC_normed="0.220261" PMx_normed="0.035871" NOx_normed="1.050400" fuel_normed="1.195904" electricity_normed="0"
            traveltime="0.96" CO_perVeh="18.710662" CO2_perVeh="1508.518280" HC_perVeh="0.119432" PMx_perVeh="0.019450" NOx_perVeh="0.569558" fuel_perVeh="0.648455" electricity_perVeh="0"/>
        <edge id=":1105984390_0" sampledSeconds="22.75" CO_abs="5.836459" CO2_abs="1207.385446" HC_abs="0.053917" PMx_abs="0.012643" NOx_abs="0.422010" fuel_abs="0.519007" electricity_abs="0"
            CO_normed="0.349242" CO2_normed="72.247577" HC_normed="0.003226" PMx_normed="0.000757" NOx_normed="0.025252" fuel_normed="0.031056" electricity_normed="0"
            traveltime="1.03" CO_perVeh="0.264681" CO2_perVeh="54.754337" HC_perVeh="0.002445" PMx_perVeh="0.000573" NOx_perVeh="0.019138" fuel_perVeh="0.023537" electricity_perVeh="0"/>
        <edge id=":1105984390_1" sampledSeconds="646.38" CO_abs="14142.983510" CO2_abs="1857247.823656" HC_abs="108.613842" PMx_abs="32.700452" NOx_abs="693.542440" fuel_abs="798.345847" electricity_abs="0"
            CO_normed="809.549290" CO2_normed="106309.510725" HC_normed="6.217094" PMx_normed="1.871785" NOx_normed="39.698610" fuel_normed="45.697594" electricity_normed="0"
            traveltime="0.64" CO_perVeh="13.910665" CO2_perVeh="1826.739888" HC_perVeh="0.106830" PMx_perVeh="0.032163" NOx_perVeh="0.682150" fuel_perVeh="0.785232" electricity_perVeh="0"/>
        <edge id=":1105984395_0" sampledSeconds="8.92" CO_abs="186.481803" CO2_abs="14731.655860" HC_abs="1.183015" PMx_abs="0.188290" NOx_abs="5.551681" fuel_abs="6.332585" electricity_abs="0"
            CO_normed="152.340585" CO2_normed="12034.574089" HC_normed="0.966428" PMx_normed="0.153818" NOx_normed="4.535275" fuel_normed="5.173211" electricity_normed="0"
            traveltime="0.09" CO_perVeh="1.891129" CO2_perVeh="149.395099" HC_perVeh="0.011997" PMx_perVeh="0.001909" NOx_perVeh="0.056300" fuel_perVeh="0.064219" electricity_perVeh="0"/>
        <edge id=":1105984398_0" sampledSeconds="22.42" CO_abs="1362.747954" CO2_abs="100293.020403" HC_abs="8.551260" PMx_abs="1.680434" NOx_abs="40.440014" fuel_abs="43.111663" electricity_abs="0"
            CO_normed="84.714202" CO2_normed="6234.640224" HC_normed="0.531583" PMx_normed="0.104463" NOx_normed="2.513923" fuel_normed="2.680004" electricity_normed="0"
            traveltime="1.10" CO_perVeh="66.616382" CO2_perVeh="4902.710091" HC_perVeh="0.418019" PMx_perVeh="0.082146" NOx_perVeh="1.976864" fuel_perVeh="2.107465" electricity_perVeh="0"/>
        <edge id=":1105984398_1" sampledSeconds="450.89" CO_abs="7343.480858" CO2_abs="883220.920688" HC_abs="53.612532" PMx_abs="12.493327" NOx_abs="332.509654" fuel_abs="379.659134" electricity_abs="0"
            CO_normed="441.882209" CO2_normed="53146.405466" HC_normed="3.226048" PMx_normed="0.751766" NOx_normed="20.008236" fuel_normed="22.845381" electricity_normed="0"
            traveltime="0.95" CO_perVeh="15.550984" CO2_perVeh="1870.360233" HC_perVeh="0.113533" PMx_perVeh="0.026457" NOx_perVeh="0.704142" fuel_perVeh="0.803988" electricity_perVeh="0"/>
        <edge id=":1106006327_0" sampledSeconds="287.88" CO_abs="38674.769354" CO2_abs="1256851.738426" HC_abs="205.678248" PMx_abs="26.169705" NOx_abs="549.875882" fuel_abs="540.276215" electricity_abs="0"
            CO_normed="3280.658296" CO2_normed="106614.755589" HC_normed="17.447035" PMx_normed="2.219893" NOx_normed="46.644231" fuel_normed="45.829922" electricity_normed="0"
            traveltime="2.08" CO_perVeh="279.744025" CO2_perVeh="9091.114705" HC_perVeh="1.487721" PMx_perVeh="0.189292" NOx_perVeh="3.977386" fuel_perVeh="3.907949" electricity_perVeh="0"/>
        <edge id=":1106006327_1" sampledSeconds="160.57" CO_abs="21728.488265" CO2_abs="728865.260050" HC_abs="116.117729" PMx_abs="15.201912" NOx_abs="318.974702" fuel_abs="313.312827" electricity_abs="0"
            CO_normed="1607.321638" CO2_normed="53916.355765" HC_normed="8.589578" PMx_normed="1.124531" NOx_normed="23.595518" fuel_normed="23.176692" electricity_normed="0"
            traveltime="2.28" CO_perVeh="308.463896" CO2_perVeh="10347.181760" HC_perVeh="1.648441" PMx_perVeh="0.215811" NOx_perVeh="4.528257" fuel_perVeh="4.447879" electricity_perVeh="0"/>
        <edge id=":1106006327_2" sampledSeconds="0.00" CO_abs="0" CO2_abs="0" HC_abs="0" PMx_abs="0" NOx_abs="0" fuel_abs="0" electricity_abs="0"
            CO_normed="0" CO2_normed="0" HC_normed="0" PMx_normed="0" NOx_normed="0" fuel_normed="0" electricity_normed="0"/>
        <edge id=":1106006327_3" sampledSeconds="0.00" CO_abs="0" CO2_abs="0" HC_abs="0" PMx_abs="0" NOx_abs="0" fuel_abs="0" electricity_abs="0"
            CO_normed="0" CO2_normed="0" HC_normed="0" PMx_normed="0" NOx_normed="0" fuel_normed="0" electricity_normed="0"/>
        <edge id=":1107381198_0" sampledSeconds="0.00" CO_abs="0" CO2_abs="0" HC_abs="0" PMx_abs="0" NOx_abs="0" fuel_abs="0" electricity_abs="0"
            CO_normed="0" CO2_normed="0" HC_normed="0" PMx_normed="0" NOx_normed="0" fuel_normed="0" electricity_normed="0"/>
        <edge id=":1107381198_1" sampledSeconds="36.21" CO_abs="1461.203728" CO2_abs="59230.364115" HC_abs="8.012134" PMx_abs="0.992310" NOx_abs="24.334235" fuel_abs="25.461105" electricity_abs="0"
            CO_normed="119.759072" CO2_normed="4854.472600" HC_normed="0.656668" PMx_normed="0.081329" NOx_normed="1.994414" fuel_normed="2.086772" electricity_normed="0"
            traveltime="1.49" CO_perVeh="60.161809" CO2_perVeh="2438.678336" HC_perVeh="0.329882" PMx_perVeh="0.040856" NOx_perVeh="1.001908" fuel_perVeh="1.048304" electricity_perVeh="0"/>
        <edge id=":1110338277_0" sampledSeconds="96.84" CO_abs="1462.127759" CO2_abs="183721.527981" HC_abs="10.849921" PMx_abs="2.440851" NOx_abs="68.224564" fuel_abs="78.974258" electricity_abs="0"
            CO_normed="3924.589870" CO2_normed="493138.607762" HC_normed="29.122960" PMx_normed="6.551643" NOx_normed="183.125881" fuel_normed="211.979816" electricity_normed="0"
            traveltime="0.02" CO_perVeh="0.330229" CO2_perVeh="41.494422" HC_perVeh="0.002451" PMx_perVeh="0.000551" NOx_perVeh="0.015409" fuel_perVeh="0.017837" electricity_perVeh="0"/>
        <edge id=":1110338293_0" sampledSeconds="124.65" CO_abs="6019.186906" CO2_abs="416504.617599" HC_abs="37.186468" PMx_abs="7.252791" NOx_abs="170.136312" fuel_abs="179.037295" electricity_abs="0"
            CO_normed="15079.382645" CO2_normed="1043435.367680" HC_normed="93.160254" PMx_normed="18.169832" NOx_normed="426.228757" fuel_normed="448.527671" electricity_normed="0"
            traveltime="0.03" CO_perVeh="1.380600" CO2_perVeh="95.532234" HC_perVeh="0.008529" PMx_perVeh="0.001664" NOx_perVeh="0.039024" fuel_perVeh="0.041065" electricity_perVeh="0"/>
        <edge id=":1110338295_0" sampledSeconds="0.00" CO_abs="0" CO2_abs="0" HC_abs="0" PMx_abs="0" NOx_abs="0" fuel_abs="0" electricity_abs="0"
            CO_normed="0" CO2_normed="0" HC_normed="0" PMx_normed="0" NOx_normed="0" fuel_normed="0" electricity_normed="0"/>
        <edge id=":1110673403_0" sampledSeconds="143.34" CO_abs="2424.931755" CO2_abs="291168.421708" HC_abs="17.708953" PMx_abs="4.114933" NOx_abs="109.646085" fuel_abs="125.160936" electricity_abs="0"
            CO_normed="6074.985607" CO2_normed="729440.722443" HC_normed="44.364810" PMx_normed="10.308809" NOx_normed="274.687477" fuel_normed="313.555581" electricity_normed="0"
            traveltime="0.02" CO_perVeh="0.389339" CO2_perVeh="46.749011" HC_perVeh="0.002843" PMx_perVeh="0.000661" NOx_perVeh="0.017604" fuel_perVeh="0.020095" electricity_perVeh="0"/>
        <edge id=":1110673412_0" sampledSeconds="252.43" CO_abs="44948.575348" CO2_abs="3061182.208350" HC_abs="279.598226" PMx_abs="67.338895" NOx_abs="1316.150287" fuel_abs="1315.851411" electricity_abs="0"
            CO_normed="116489.000974" CO2_normed="7933378.410524" HC_normed="724.608460" PMx_normed="174.515891" NOx_normed="3410.943081" fuel_normed="3410.168511" electricity_normed="0"
            traveltime="0.02" CO_perVeh="2.766436" CO2_perVeh="188.405610" HC_perVeh="0.017208" PMx_perVeh="0.004144" NOx_perVeh="0.081005" fuel_perVeh="0.080986" electricity_perVeh="0"/>
        <edge id=":1110673414_0" sampledSeconds="0.00" CO_abs="0" CO2_abs="0" HC_abs="0" PMx_abs="0" NOx_abs="0" fuel_abs="0" electricity_abs="0"
            CO_normed="0" CO2_normed="0" HC_normed="0" PMx_normed="0" NOx_normed="0" fuel_normed="0" electricity_normed="0"/>
        <edge id=":1110673414_1" sampledSeconds="132.90" CO_abs="8902.381899" CO2_abs="337179.306783" HC_abs="48.350601" PMx_abs="6.163103" NOx_abs="141.947117" fuel_abs="144.941540" electricity_abs="0"
            CO_normed="740.944124" CO2_normed="28063.391211" HC_normed="4.024214" PMx_normed="0.512954" NOx_normed="11.814241" fuel_normed="12.063466" electricity_normed="0"
            traveltime="1.58" CO_perVeh="106.067434" CO2_perVeh="4017.323051" HC_perVeh="0.576073" PMx_perVeh="0.073430" NOx_perVeh="1.691229" fuel_perVeh="1.726906" electricity_perVeh="0"/>
        <edge id=":1110673417_0" sampledSeconds="29.72" CO_abs="465.931064" CO2_abs="55044.820562" HC_abs="3.383604" PMx_abs="0.770215" NOx_abs="20.688504" fuel_abs="23.661448" electricity_abs="0"
            CO_normed="1250.635125" CO2_normed="147749.294679" HC_normed="9.082147" PMx_normed="2.067383" NOx_normed="55.531325" fuel_normed="63.511193" electricity_normed="0"
            traveltime="0.02" CO_perVeh="0.345820" CO2_perVeh="40.855003" HC_perVeh="0.002511" PMx_perVeh="0.000572" NOx_perVeh="0.015355" fuel_perVeh="0.017562" electricity_perVeh="0"/>
        <edge id=":1110673446_0" sampledSeconds="333.90" CO_abs="3532.824254" CO2_abs="278994.657964" HC_abs="22.709434" PMx_abs="5.182173" NOx_abs="114.671370" fuel_abs="119.926937" electricity_abs="0"
            CO_normed="8850.499174" CO2_normed="698942.775693" HC_normed="56.892111" PMx_normed="12.982479" NOx_normed="287.276918" fuel_normed="300.443266" electricity_normed="0"
            traveltime="0.02" CO_perVeh="0.240954" CO2_perVeh="19.028634" HC_perVeh="0.001549" PMx_perVeh="0.000353" NOx_perVeh="0.007821" fuel_perVeh="0.008180" electricity_perVeh="0"/>
        <edge id=":1110673451_0" sampledSeconds="37.12" CO_abs="396.453154" CO2_abs="28971.120752" HC_abs="2.469134" PMx_abs="0.415769" NOx_abs="11.249204" fuel_abs="12.453548" electricity_abs="0"
            CO_normed="1103.557839" CO2_normed="80643.342385" HC_normed="6.873024" PMx_normed="1.157325" NOx_normed="31.313024" fuel_normed="34.665408" electricity_normed="0"
            traveltime="0.03" CO_perVeh="0.284309" CO2_perVeh="20.776103" HC_perVeh="0.001771" PMx_perVeh="0.000298" NOx_perVeh="0.008067" fuel_perVeh="0.008931" electricity_perVeh="0"/>
        <edge id=":1110673464_0" sampledSeconds="325.14" CO_abs="520.942968" CO2_abs="39147.106852" HC_abs="3.262131" PMx_abs="0.521678" NOx_abs="14.925496" fuel_abs="16.827855" electricity_abs="0"
            CO_normed="27.728251" CO2_normed="2083.684504" HC_normed="0.173634" PMx_normed="0.027767" NOx_normed="0.794440" fuel_normed="0.895697" electricity_normed="0"
            traveltime="1.18" CO_perVeh="1.883140" CO2_perVeh="141.511626" HC_perVeh="0.011792" PMx_perVeh="0.001886" NOx_perVeh="0.053954" fuel_perVeh="0.060830" electricity_perVeh="0"/>
        <edge id=":1110673464_1" sampledSeconds="709.51" CO_abs="16057.654588" CO2_abs="2050574.295704" HC_abs="121.966012" PMx_abs="36.359423" NOx_abs="769.454604" fuel_abs="881.447829" electricity_abs="0"
            CO_normed="837.500583" CO2_normed="106949.440187" HC_normed="6.361241" PMx_normed="1.896357" NOx_normed="40.131557" fuel_normed="45.972658" electricity_normed="0"
            traveltime="0.70" CO_perVeh="15.847020" CO2_perVeh="2023.676083" HC_perVeh="0.120366" PMx_perVeh="0.035882" NOx_perVeh="0.759361" fuel_perVeh="0.869886" electricity_perVeh="0"/>
        <edge id=":1110673479_0" sampledSeconds="134.53" CO_abs="6529.361176" CO2_abs="451467.068404" HC_abs="40.338507" PMx_abs="7.905967" NOx_abs="184.720924" fuel_abs="194.066073" electricity_abs="0"
            CO_normed="16357.481025" CO2_normed="1131023.970949" HC_normed="101.056802" PMx_normed="19.806181" NOx_normed="462.766406" fuel_normed="486.178054" electricity_normed="0"
            traveltime="0.03" CO_perVeh="1.375471" CO2_perVeh="95.105765" HC_perVeh="0.008498" PMx_perVeh="0.001665" NOx_perVeh="0.038913" fuel_perVeh="0.040882" electricity_perVeh="0"/>
        <edge id=":1110673511_0" sampledSeconds="11.69" CO_abs="210.896017" CO2_abs="24752.677399" HC_abs="1.531742" PMx_abs="0.339718" NOx_abs="9.282348" fuel_abs="10.640143" electricity_abs="0"
            CO_normed="528.340754" CO2_normed="62010.882837" HC_normed="3.837351" PMx_normed="0.851067" NOx_normed="23.254316" fuel_normed="26.655890" electricity_normed="0"
            traveltime="0.02" CO_perVeh="0.417616" CO2_perVeh="49.015203" HC_perVeh="0.003033" PMx_perVeh="0.000673" NOx_perVeh="0.018381" fuel_perVeh="0.021070" electricity_perVeh="0"/>
        <edge id=":1110673517_0" sampledSeconds="17.19" CO_abs="646.616727" CO2_abs="51329.614761" HC_abs="4.139724" PMx_abs="0.818316" NOx_abs="20.349207" fuel_abs="22.064426" electricity_abs="0"
            CO_normed="1619.916643" CO2_normed="128591.936772" HC_normed="10.370917" PMx_normed="2.050061" NOx_normed="50.979223" fuel_normed="55.276223" electricity_normed="0"
            traveltime="0.03" CO_perVeh="1.038186" CO2_perVeh="82.413082" HC_perVeh="0.006647" PMx_perVeh="0.001314" NOx_perVeh="0.032672" fuel_perVeh="0.035426" electricity_perVeh="0"/>
        <edge id=":1110673534_0" sampledSeconds="476.55" CO_abs="2790.505297" CO2_abs="236414.953329" HC_abs="18.119218" PMx_abs="3.249653" NOx_abs="90.268063" fuel_abs="101.625411" electricity_abs="0"
            CO_normed="135.481152" CO2_normed="11478.125617" HC_normed="0.879702" PMx_normed="0.157773" NOx_normed="4.382583" fuel_normed="4.933991" electricity_normed="0"
            traveltime="1.44" CO_perVeh="8.406674" CO2_perVeh="712.223500" HC_perVeh="0.054586" PMx_perVeh="0.009790" NOx_perVeh="0.271941" fuel_perVeh="0.306157" electricity_perVeh="0"/>
        <edge id=":1110673534_1" sampledSeconds="184.31" CO_abs="2918.155961" CO2_abs="364655.222834" HC_abs="21.587209" PMx_abs="4.906403" NOx_abs="135.685388" fuel_abs="156.750069" electricity_abs="0"
            CO_normed="137.762947" CO2_normed="17214.973644" HC_normed="1.019108" PMx_normed="0.231626" NOx_normed="6.405559" fuel_normed="7.399999" electricity_normed="0"
            traveltime="1.22" CO_perVeh="19.375508" CO2_perVeh="2421.179766" HC_perVeh="0.143331" PMx_perVeh="0.032577" NOx_perVeh="0.900902" fuel_perVeh="1.040764" electricity_perVeh="0"/>
        <edge id=":1110673549_0" sampledSeconds="59.32" CO_abs="66.977107" CO2_abs="7859.502539" HC_abs="0.485972" PMx_abs="0.105107" NOx_abs="2.927314" fuel_abs="3.378476" electricity_abs="0"
            CO_normed="3.150044" CO2_normed="369.645370" HC_normed="0.022856" PMx_normed="0.004943" NOx_normed="0.137676" fuel_normed="0.158895" electricity_normed="0"
            traveltime="1.24" CO_perVeh="1.395411" CO2_perVeh="163.746041" HC_perVeh="0.010125" PMx_perVeh="0.002190" NOx_perVeh="0.060988" fuel_perVeh="0.070388" electricity_perVeh="0"/>
        <edge id=":1110673549_1" sampledSeconds="638.54" CO_abs="14552.102109" CO2_abs="1917906.958412" HC_abs="112.038990" PMx_abs="33.715330" NOx_abs="716.213549" fuel_abs="824.420456" electricity_abs="0"
            CO_normed="662.037634" CO2_normed="87253.825947" HC_normed="5.097135" PMx_normed="1.533855" NOx_normed="32.583631" fuel_normed="37.506428" electricity_normed="0"
            traveltime="0.80" CO_perVeh="18.318231" CO2_perVeh="2414.267163" HC_perVeh="0.141035" PMx_perVeh="0.042441" NOx_perVeh="0.901572" fuel_perVeh="1.037783" electricity_perVeh="0"/>
        <edge id=":1110673556_0" sampledSeconds="418.04" CO_abs="51222.882284" CO2_abs="2572204.182087" HC_abs="294.377840" PMx_abs="51.775476" NOx_abs="1107.078751" fuel_abs="1105.679348" electricity_abs="0"
            CO_normed="1786.420629" CO2_normed="89706.756201" HC_normed="10.266557" PMx_normed="1.805693" NOx_normed="38.609860" fuel_normed="38.561055" electricity_normed="0"
            traveltime="2.59" CO_perVeh="317.966676" CO2_perVeh="15966.989320" HC_perVeh="1.827354" PMx_perVeh="0.321397" NOx_perVeh="6.872205" fuel_perVeh="6.863518" electricity_perVeh="0"/>
        <edge id=":1110673556_2" sampledSeconds="250.35" CO_abs="23859.115132" CO2_abs="1016750.013124" HC_abs="132.511564" PMx_abs="19.622849" NOx_abs="433.697076" fuel_abs="437.061082" electricity_abs="0"
            CO_normed="870.048231" CO2_normed="37076.880077" HC_normed="4.832176" PMx_normed="0.715568" NOx_normed="15.815229" fuel_normed="15.937901" electricity_normed="0"
            traveltime="3.04" CO_perVeh="289.406494" CO2_perVeh="12332.982821" HC_perVeh="1.607340" PMx_perVeh="0.238021" NOx_perVeh="5.260662" fuel_perVeh="5.301467" electricity_perVeh="0"/>
        <edge id=":1110673556_3" sampledSeconds="413.81" CO_abs="35898.644009" CO2_abs="1270969.882995" HC_abs="193.026329" PMx_abs="24.198016" NOx_abs="541.685580" fuel_abs="546.345793" electricity_abs="0"
            CO_normed="2977.946108" CO2_normed="105432.389470" HC_normed="16.012360" PMx_normed="2.007329" NOx_normed="44.935136" fuel_normed="45.321721" electricity_normed="0"
            traveltime="1.74" CO_perVeh="150.969065" CO2_perVeh="5344.968872" HC_perVeh="0.811758" PMx_perVeh="0.101763" NOx_perVeh="2.278018" fuel_perVeh="2.297616" electricity_perVeh="0"/>
        <edge id=":1110673556_4" sampledSeconds="201.16" CO_abs="20725.725517" CO2_abs="826108.003029" HC_abs="113.752116" PMx_abs="16.114095" NOx_abs="354.008285" fuel_abs="355.112366" electricity_abs="0"
            CO_normed="1050.353722" CO2_normed="41866.115360" HC_normed="5.764814" PMx_normed="0.816642" NOx_normed="17.940695" fuel_normed="17.996648" electricity_normed="0"
            traveltime="2.42" CO_perVeh="249.171092" CO2_perVeh="9931.726320" HC_perVeh="1.367563" PMx_perVeh="0.193729" NOx_perVeh="4.255997" fuel_perVeh="4.269271" electricity_perVeh="0"/>
        <edge id=":1110673556_5" sampledSeconds="26.25" CO_abs="2537.986085" CO2_abs="97071.869458" HC_abs="13.838246" PMx_abs="1.934192" NOx_abs="41.870364" fuel_abs="41.727524" electricity_abs="0"
            CO_normed="179.272880" CO2_normed="6856.756911" HC_normed="0.977477" PMx_normed="0.136623" NOx_normed="2.957550" fuel_normed="2.947460" electricity_normed="0"
            traveltime="1.81" CO_perVeh="175.465705" CO2_perVeh="6711.141592" HC_perVeh="0.956718" PMx_perVeh="0.133722" NOx_perVeh="2.894741" fuel_perVeh="2.884866" electricity_perVeh="0"/>
        <edge id=":1110673556_6" sampledSeconds="306.65" CO_abs="37126.185173" CO2_abs="1913199.382564" HC_abs="214.580723" PMx_abs="38.584764" NOx_abs="823.202824" fuel_abs="822.400811" electricity_abs="0"
            CO_normed="1327.439089" CO2_normed="68406.049088" HC_normed="7.672289" PMx_normed="1.379590" NOx_normed="29.433447" fuel_normed="29.404771" electricity_normed="0"
            traveltime="2.43" CO_perVeh="294.009521" CO2_perVeh="15151.000080" HC_perVeh="1.699307" PMx_perVeh="0.305560" NOx_perVeh="6.519104" fuel_perVeh="6.512753" electricity_perVeh="0"/>
        <edge id=":1110673561_0" sampledSeconds="100.09" CO_abs="9838.437260" CO2_abs="698156.147073" HC_abs="61.640376" PMx_abs="14.252461" NOx_abs="296.151469" fuel_abs="300.103941" electricity_abs="0"
            CO_normed="441.974453" CO2_normed="31363.434350" HC_normed="2.769085" PMx_normed="0.640267" NOx_normed="13.304083" fuel_normed="13.481641" electricity_normed="0"
            traveltime="1.18" CO_perVeh="116.103992" CO2_perVeh="8238.982827" HC_perVeh="0.727422" PMx_perVeh="0.168194" NOx_perVeh="3.494901" fuel_perVeh="3.541545" electricity_perVeh="0"/>
        <edge id=":1110673561_1" sampledSeconds="1316.39" CO_abs="122265.351213" CO2_abs="8444021.523110" HC_abs="761.054313" PMx_abs="176.836274" NOx_abs="3612.711347" fuel_abs="3629.676806" electricity_abs="0"
            CO_normed="5354.921437" CO2_normed="369827.358415" HC_normed="33.332306" PMx_normed="7.744994" NOx_normed="158.227865" fuel_normed="158.970910" electricity_normed="0"
            traveltime="1.19" CO_perVeh="110.812793" CO2_perVeh="7653.072623" HC_perVeh="0.689767" PMx_perVeh="0.160272" NOx_perVeh="3.274310" fuel_perVeh="3.289686" electricity_perVeh="0"/>
        <edge id=":1110673562_0" sampledSeconds="103.84" CO_abs="2387.249273" CO2_abs="187397.148636" HC_abs="15.146955" PMx_abs="2.549723" NOx_abs="71.606714" fuel_abs="80.554768" electricity_abs="0"
            CO_normed="6645.091921" CO2_normed="521634.373377" HC_normed="42.162714" PMx_normed="7.097350" NOx_normed="199.322795" fuel_normed="224.230390" electricity_normed="0"
            traveltime="0.03" CO_perVeh="0.608521" CO2_perVeh="47.768386" HC_perVeh="0.003861" PMx_perVeh="0.000650" NOx_perVeh="0.018253" fuel_perVeh="0.020534" electricity_perVeh="0"/>
        <edge id=":1110673564_0" sampledSeconds="28.44" CO_abs="455.544991" CO2_abs="54137.316652" HC_abs="3.297989" PMx_abs="0.764889" NOx_abs="20.368205" fuel_abs="23.271336" electricity_abs="0"
            CO_normed="3423.720186" CO2_normed="406877.536424" HC_normed="24.786553" PMx_normed="5.748643" NOx_normed="153.080452" fuel_normed="174.899392" electricity_normed="0"
            traveltime="7.818632e-03" CO_perVeh="0.125236" CO2_perVeh="14.883111" HC_perVeh="0.000907" PMx_perVeh="0.000210" NOx_perVeh="0.005600" fuel_perVeh="0.006398" electricity_perVeh="0"/>
        <edge id=":1110673588_0" sampledSeconds="11.52" CO_abs="213.576959" CO2_abs="24867.215704" HC_abs="1.548354" PMx_abs="0.349165" NOx_abs="9.367623" fuel_abs="10.689368" electricity_abs="0"
            CO_normed="642.068521" CO2_normed="74757.391679" HC_normed="4.654758" PMx_normed="1.049681" NOx_normed="28.161540" fuel_normed="32.135053" electricity_normed="0"
            traveltime="0.02" CO_perVeh="0.355962" CO2_perVeh="41.445360" HC_perVeh="0.002581" PMx_perVeh="0.000582" NOx_perVeh="0.015613" fuel_perVeh="0.017816" electricity_perVeh="0"/>
        <edge id=":1110673601_0" sampledSeconds="29.69" CO_abs="476.388303" CO2_abs="54047.522117" HC_abs="3.378672" PMx_abs="0.773219" NOx_abs="20.433653" fuel_abs="23.232734" electricity_abs="0"
            CO_normed="1278.704065" CO2_normed="145072.382658" HC_normed="9.068907" PMx_normed="2.075446" NOx_normed="54.847264" fuel_normed="62.360456" electricity_normed="0"
            traveltime="0.02" CO_perVeh="0.353582" CO2_perVeh="40.114794" HC_perVeh="0.002508" PMx_perVeh="0.000574" NOx_perVeh="0.015166" fuel_perVeh="0.017244" electricity_perVeh="0"/>
        <edge id=":1110673617_0" sampledSeconds="238.10" CO_abs="6094.617476" CO2_abs="742605.471422" HC_abs="45.583020" PMx_abs="13.377570" NOx_abs="280.911222" fuel_abs="319.211876" electricity_abs="0"
            CO_normed="15268.352758" CO2_normed="1860389.489993" HC_normed="114.195457" PMx_normed="33.513744" NOx_normed="703.744188" fuel_normed="799.695722" electricity_normed="0"
            traveltime="0.01" CO_perVeh="0.373561" CO2_perVeh="45.516928" HC_perVeh="0.002794" PMx_perVeh="0.000820" NOx_perVeh="0.017218" fuel_perVeh="0.019566" electricity_perVeh="0"/>
        <edge id=":1110673621_0" sampledSeconds="25.60" CO_abs="615.515706" CO2_abs="60821.817534" HC_abs="4.217279" PMx_abs="0.965857" NOx_abs="23.745516" fuel_abs="26.144632" electricity_abs="0"
            CO_normed="1850.402122" CO2_normed="182846.382567" HC_normed="12.678251" PMx_normed="2.903622" NOx_normed="71.385266" fuel_normed="78.597640" electricity_normed="0"
            traveltime="0.02" CO_perVeh="0.466300" CO2_perVeh="46.077134" HC_perVeh="0.003195" PMx_perVeh="0.000732" NOx_perVeh="0.017989" fuel_perVeh="0.019807" electricity_perVeh="0"/>
        <edge id=":1110673630_0" sampledSeconds="53.86" CO_abs="308.990437" CO2_abs="26801.661903" HC_abs="2.019544" PMx_abs="0.360255" NOx_abs="10.161819" fuel_abs="11.520979" electricity_abs="0"
            CO_normed="16.563954" CO2_normed="1436.748320" HC_normed="0.108261" PMx_normed="0.019312" NOx_normed="0.544741" fuel_normed="0.617602" electricity_normed="0"
            traveltime="1.26" CO_perVeh="7.212383" CO2_perVeh="625.598195" HC_perVeh="0.047140" PMx_perVeh="0.008409" NOx_perVeh="0.237195" fuel_perVeh="0.268920" electricity_perVeh="0"/>
        <edge id=":1110673630_1" sampledSeconds="7.46" CO_abs="37.471941" CO2_abs="3221.398078" HC_abs="0.244343" PMx_abs="0.043996" NOx_abs="1.228198" fuel_abs="1.384751" electricity_abs="0"
            CO_normed="2.448924" CO2_normed="210.529783" HC_normed="0.015969" PMx_normed="0.002875" NOx_normed="0.080267" fuel_normed="0.090498" electricity_normed="0"
            traveltime="1.06" CO_perVeh="5.303721" CO2_perVeh="455.951728" HC_perVeh="0.034584" PMx_perVeh="0.006227" NOx_perVeh="0.173837" fuel_perVeh="0.195996" electricity_perVeh="0"/>
        <edge id=":1110673650_0" sampledSeconds="143.04" CO_abs="2315.812727" CO2_abs="290684.985770" HC_abs="17.134391" PMx_abs="3.990135" NOx_abs="108.528680" fuel_abs="124.953226" electricity_abs="0"
            CO_normed="5801.618524" CO2_normed="728229.609444" HC_normed="42.925405" PMx_normed="9.996163" NOx_normed="271.888132" fuel_normed="313.035223" electricity_normed="0"
            traveltime="0.02" CO_perVeh="0.372193" CO2_perVeh="46.718395" HC_perVeh="0.002754" PMx_perVeh="0.000641" NOx_perVeh="0.017443" fuel_perVeh="0.020082" electricity_perVeh="0"/>
        <edge id=":1110673655_0" sampledSeconds="45.09" CO_abs="751.472391" CO2_abs="84369.907501" HC_abs="5.359930" PMx_abs="1.190396" NOx_abs="31.904563" fuel_abs="36.267071" electricity_abs="0"
            CO_normed="1882.603067" CO2_normed="211365.112738" HC_normed="13.427800" PMx_normed="2.982202" NOx_normed="79.927924" fuel_normed="90.856962" electricity_normed="0"
            traveltime="0.02" CO_perVeh="0.402184" CO2_perVeh="45.154348" HC_perVeh="0.002869" PMx_perVeh="0.000637" NOx_perVeh="0.017075" fuel_perVeh="0.019410" electricity_perVeh="0"/>
        <edge id=":1110673663_0" sampledSeconds="108.31" CO_abs="1978.357315" CO2_abs="216785.119204" HC_abs="14.022162" PMx_abs="3.140976" NOx_abs="82.530542" fuel_abs="93.186711" electricity_abs="0"
            CO_normed="90.773237" CO2_normed="9946.781032" HC_normed="0.643381" PMx_normed="0.144118" NOx_normed="3.786760" fuel_normed="4.275699" electricity_normed="0"
            traveltime="1.27" CO_perVeh="23.236792" CO2_perVeh="2546.249219" HC_perVeh="0.164697" PMx_perVeh="0.036892" NOx_perVeh="0.969362" fuel_perVeh="1.094524" electricity_perVeh="0"/>
        <edge id=":1110673663_1" sampledSeconds="154.28" CO_abs="2314.671456" CO2_abs="282915.026893" HC_abs="17.015705" PMx_abs="3.957142" NOx_abs="106.153984" fuel_abs="121.613192" electricity_abs="0"
            CO_normed="106.334219" CO2_normed="12996.897785" HC_normed="0.781688" PMx_normed="0.181788" NOx_normed="4.876632" fuel_normed="5.586816" electricity_normed="0"
            traveltime="1.25" CO_perVeh="18.698883" CO2_perVeh="2285.505760" HC_perVeh="0.137460" PMx_perVeh="0.031967" NOx_perVeh="0.857556" fuel_perVeh="0.982442" electricity_perVeh="0"/>
        <edge id=":1110673666_0" sampledSeconds="192.79" CO_abs="3788.732171" CO2_abs="306810.754637" HC_abs="24.225322" PMx_abs="3.997697" NOx_abs="115.961338" fuel_abs="131.886228" electricity_abs="0"