<?xml version="1.0" encoding="UTF-8"?>

<!-- generated on Mon Nov  9 23:30:21 2020 by Eclipse SUMO sumo Version 1.7.0
<configuration xmlns:xsi="http://www.w3.org/2001/XMLSchema-instance" xsi:noNamespaceSchemaLocation="http://sumo.dlr.de/xsd/sumoConfiguration.xsd">

    <input>
        <net-file value="../dataSets/Porto/6AM7AM_Routing_SaoBento/Porto.net.xml"/>
        <route-files value="../results/Porto/6AM7AM_Routing_SaoBento/cost_PMx-length/solution6/Porto.rou.xml"/>
        <additional-files value="moreOutputInfo.xml"/>
    </input>

    <output>
        <emission-output.precision value="6"/>
        <tripinfo-output value="../results/Porto/6AM7AM_Routing_SaoBento/cost_PMx-length/solution6/Porto-tripinfo"/>
    </output>

    <processing>
        <collision.action value="warn"/>
        <time-to-teleport value="-1"/>
    </processing>

    <emissions>
        <device.emissions.probability value="1"/>
    </emissions>

    <gui_only>
        <quit-on-end value="true"/>
        <start value="true"/>
    </gui_only>

</configuration>
-->

<meandata xmlns:xsi="http://www.w3.org/2001/XMLSchema-instance" xsi:noNamespaceSchemaLocation="http://sumo.dlr.de/xsd/meandata_file.xsd">
    <interval begin="0.00" end="4698.00" id="emissions-detector">
        <edge id=":1092997347_0" sampledSeconds="311.44" CO_abs="39654.506874" CO2_abs="1576521.520420" HC_abs="217.829993" PMx_abs="32.207340" NOx_abs="684.591993" fuel_abs="677.684460" electricity_abs="0"
            CO_normed="69060.443877" CO2_normed="2745596.517624" HC_normed="379.362579" PMx_normed="56.090805" NOx_normed="1192.253557" fuel_normed="1180.223720" electricity_normed="0"
            traveltime="0.08" CO_perVeh="9.550734" CO2_perVeh="379.703046" HC_perVeh="0.052464" PMx_perVeh="0.007757" NOx_perVeh="0.164883" fuel_perVeh="0.163219" electricity_perVeh="0"/>
        <edge id=":1103427051_0" sampledSeconds="10.97" CO_abs="858.753307" CO2_abs="48263.136932" HC_abs="5.056848" PMx_abs="0.951146" NOx_abs="20.626516" fuel_abs="20.746181" electricity_abs="0"
            CO_normed="2269.132796" CO2_normed="127528.436865" HC_normed="13.361998" PMx_normed="2.513266" NOx_normed="54.502618" fuel_normed="54.818815" electricity_normed="0"
            traveltime="0.03" CO_perVeh="2.352971" CO2_perVeh="132.240266" HC_perVeh="0.013856" PMx_perVeh="0.002606" NOx_perVeh="0.056516" fuel_perVeh="0.056844" electricity_perVeh="0"/>
        <edge id=":1105984386_0" sampledSeconds="36.69" CO_abs="601.390089" CO2_abs="48589.398239" HC_abs="3.849900" PMx_abs="0.670704" NOx_abs="18.614351" fuel_abs="20.886670" electricity_abs="0"
            CO_normed="47.459868" CO2_normed="3834.526813" HC_normed="0.303822" PMx_normed="0.052930" NOx_normed="1.468988" fuel_normed="1.648312" electricity_normed="0"
            traveltime="0.95" CO_perVeh="15.532232" CO2_perVeh="1254.928867" HC_perVeh="0.099432" PMx_perVeh="0.017322" NOx_perVeh="0.480757" fuel_perVeh="0.539445" electricity_perVeh="0"/>
        <edge id=":1105984390_0" sampledSeconds="36.91" CO_abs="0" CO2_abs="0" HC_abs="0" PMx_abs="0" NOx_abs="0" fuel_abs="0" electricity_abs="0"
            CO_normed="0" CO2_normed="0" HC_normed="0" PMx_normed="0" NOx_normed="0" fuel_normed="0" electricity_normed="0"
            traveltime="1.03" CO_perVeh="0" CO2_perVeh="0" HC_perVeh="0" PMx_perVeh="0" NOx_perVeh="0" fuel_perVeh="0" electricity_perVeh="0"/>
        <edge id=":1105984390_1" sampledSeconds="645.38" CO_abs="14595.639551" CO2_abs="1887033.918666" HC_abs="111.485110" PMx_abs="33.399140" NOx_abs="706.556180" fuel_abs="811.149390" electricity_abs="0"
            CO_normed="851.820116" CO2_normed="110129.703184" HC_normed="6.506413" PMx_normed="1.949216" NOx_normed="41.235519" fuel_normed="47.339712" electricity_normed="0"
            traveltime="0.64" CO_perVeh="14.370718" CO2_perVeh="1857.954329" HC_perVeh="0.109767" PMx_perVeh="0.032884" NOx_perVeh="0.695668" fuel_perVeh="0.798649" electricity_perVeh="0"/>
        <edge id=":1105984395_0" sampledSeconds="14.42" CO_abs="312.099656" CO2_abs="24948.117125" HC_abs="1.990581" PMx_abs="0.338677" NOx_abs="9.523768" fuel_abs="10.724225" electricity_abs="0"
            CO_normed="259.953070" CO2_normed="20779.707750" HC_normed="1.657989" PMx_normed="0.282089" NOx_normed="7.932507" fuel_normed="8.932388" electricity_normed="0"
            traveltime="0.09" CO_perVeh="1.947712" CO2_perVeh="155.693039" HC_perVeh="0.012423" PMx_perVeh="0.002114" NOx_perVeh="0.059435" fuel_perVeh="0.066926" electricity_perVeh="0"/>
        <edge id=":1105984398_0" sampledSeconds="36.79" CO_abs="2386.674690" CO2_abs="166113.162460" HC_abs="14.799025" PMx_abs="3.050674" NOx_abs="68.835821" fuel_abs="71.404604" electricity_abs="0"
            CO_normed="151.271257" CO2_normed="10528.517755" HC_normed="0.937986" PMx_normed="0.193357" NOx_normed="4.362924" fuel_normed="4.525738" electricity_normed="0"
            traveltime="1.09" CO_perVeh="70.476395" CO2_perVeh="4905.174937" HC_perVeh="0.437002" PMx_perVeh="0.090084" NOx_perVeh="2.032661" fuel_perVeh="2.108515" electricity_perVeh="0"/>
        <edge id=":1105984398_1" sampledSeconds="452.03" CO_abs="8455.630391" CO2_abs="971587.666889" HC_abs="60.838076" PMx_abs="14.075724" NOx_abs="368.624135" fuel_abs="417.644004" electricity_abs="0"
            CO_normed="518.767835" CO2_normed="59608.616664" HC_normed="3.732523" PMx_normed="0.863571" NOx_normed="22.615741" fuel_normed="25.623196" electricity_normed="0"
            traveltime="0.95" CO_perVeh="17.848664" CO2_perVeh="2050.886970" HC_perVeh="0.128421" PMx_perVeh="0.029712" NOx_perVeh="0.778114" fuel_perVeh="0.881589" electricity_perVeh="0"/>
        <edge id=":1106006327_0" sampledSeconds="38.89" CO_abs="5342.150892" CO2_abs="173477.654222" HC_abs="28.413868" PMx_abs="3.644957" NOx_abs="76.084131" fuel_abs="74.571878" electricity_abs="0"
            CO_normed="462.031853" CO2_normed="15003.732322" HC_normed="2.457458" PMx_normed="0.315245" NOx_normed="6.580363" fuel_normed="6.449571" electricity_normed="0"
            traveltime="2.11" CO_perVeh="289.808088" CO2_perVeh="9411.045900" HC_perVeh="1.541433" PMx_perVeh="0.197736" NOx_perVeh="4.127513" fuel_perVeh="4.045474" electricity_perVeh="0"/>
        <edge id=":1106006327_1" sampledSeconds="162.20" CO_abs="21954.311041" CO2_abs="731263.625994" HC_abs="117.199398" PMx_abs="15.258713" NOx_abs="320.049766" fuel_abs="314.343922" electricity_abs="0"
            CO_normed="1655.829414" CO2_normed="55153.077654" HC_normed="8.839367" PMx_normed="1.150837" NOx_normed="24.138668" fuel_normed="23.708324" electricity_normed="0"
            traveltime="2.30" CO_perVeh="311.669741" CO2_perVeh="10381.229656" HC_perVeh="1.663797" PMx_perVeh="0.216617" NOx_perVeh="4.543519" fuel_perVeh="4.462517" electricity_perVeh="0"/>
        <edge id=":1106006327_2" sampledSeconds="0.00" CO_abs="0" CO2_abs="0" HC_abs="0" PMx_abs="0" NOx_abs="0" fuel_abs="0" electricity_abs="0"
            CO_normed="0" CO2_normed="0" HC_normed="0" PMx_normed="0" NOx_normed="0" fuel_normed="0" electricity_normed="0"/>
        <edge id=":1106006327_3" sampledSeconds="0.00" CO_abs="0" CO2_abs="0" HC_abs="0" PMx_abs="0" NOx_abs="0" fuel_abs="0" electricity_abs="0"
            CO_normed="0" CO2_normed="0" HC_normed="0" PMx_normed="0" NOx_normed="0" fuel_normed="0" electricity_normed="0"/>
        <edge id=":1107381198_0" sampledSeconds="0.00" CO_abs="0" CO2_abs="0" HC_abs="0" PMx_abs="0" NOx_abs="0" fuel_abs="0" electricity_abs="0"
            CO_normed="0" CO2_normed="0" HC_normed="0" PMx_normed="0" NOx_normed="0" fuel_normed="0" electricity_normed="0"/>
        <edge id=":1107381198_1" sampledSeconds="35.67" CO_abs="1279.164619" CO2_abs="53690.858344" HC_abs="7.069484" PMx_abs="0.960710" NOx_abs="22.445593" fuel_abs="23.079730" electricity_abs="0"
            CO_normed="106.892342" CO2_normed="4486.632518" HC_normed="0.590756" PMx_normed="0.080281" NOx_normed="1.875648" fuel_normed="1.928639" electricity_normed="0"
            traveltime="1.47" CO_perVeh="52.666754" CO2_perVeh="2210.601522" HC_perVeh="0.291070" PMx_perVeh="0.039555" NOx_perVeh="0.924147" fuel_perVeh="0.950256" electricity_perVeh="0"/>
        <edge id=":1110338277_0" sampledSeconds="96.61" CO_abs="1546.620676" CO2_abs="192049.834292" HC_abs="11.448225" PMx_abs="2.649247" NOx_abs="71.883551" fuel_abs="82.554125" electricity_abs="0"
            CO_normed="4232.678369" CO2_normed="525587.942782" HC_normed="31.330666" PMx_normed="7.250267" NOx_normed="196.725645" fuel_normed="225.928093" electricity_normed="0"
            traveltime="0.02" CO_perVeh="0.348559" CO2_perVeh="43.281971" HC_perVeh="0.002580" PMx_perVeh="0.000597" NOx_perVeh="0.016200" fuel_perVeh="0.018605" electricity_perVeh="0"/>
        <edge id=":1110338293_0" sampledSeconds="124.05" CO_abs="6142.248601" CO2_abs="416417.850661" HC_abs="37.763549" PMx_abs="7.379132" NOx_abs="171.066500" fuel_abs="178.999894" electricity_abs="0"
            CO_normed="15689.013028" CO2_normed="1063647.128125" HC_normed="96.458617" PMx_normed="18.848358" NOx_normed="436.951467" fuel_normed="457.215567" electricity_normed="0"
            traveltime="0.03" CO_perVeh="1.408826" CO2_perVeh="95.512332" HC_perVeh="0.008662" PMx_perVeh="0.001693" NOx_perVeh="0.039237" fuel_perVeh="0.041057" electricity_perVeh="0"/>
        <edge id=":1110338295_0" sampledSeconds="0.00" CO_abs="0" CO2_abs="0" HC_abs="0" PMx_abs="0" NOx_abs="0" fuel_abs="0" electricity_abs="0"
            CO_normed="0" CO2_normed="0" HC_normed="0" PMx_normed="0" NOx_normed="0" fuel_normed="0" electricity_normed="0"/>
        <edge id=":1110673403_0" sampledSeconds="147.46" CO_abs="2418.421929" CO2_abs="302667.242083" HC_abs="17.915354" PMx_abs="4.131416" NOx_abs="112.949230" fuel_abs="130.103934" electricity_abs="0"
            CO_normed="6177.322935" CO2_normed="773096.403787" HC_normed="45.760802" PMx_normed="10.552787" NOx_normed="288.503780" fuel_normed="332.321671" electricity_normed="0"
            traveltime="0.02" CO_perVeh="0.378075" CO2_perVeh="47.316401" HC_perVeh="0.002801" PMx_perVeh="0.000646" NOx_perVeh="0.017658" fuel_perVeh="0.020339" electricity_perVeh="0"/>
        <edge id=":1110673412_0" sampledSeconds="254.20" CO_abs="44793.560303" CO2_abs="3054536.850148" HC_abs="278.710553" PMx_abs="67.094962" NOx_abs="1312.952394" fuel_abs="1312.994969" electricity_abs="0"
            CO_normed="118360.576836" CO2_normed="8071176.774073" HC_normed="736.452777" PMx_normed="177.288840" NOx_normed="3469.288925" fuel_normed="3469.401424" electricity_normed="0"
            traveltime="0.02" CO_perVeh="2.751951" CO2_perVeh="187.659494" HC_perVeh="0.017123" PMx_perVeh="0.004122" NOx_perVeh="0.080663" fuel_perVeh="0.080666" electricity_perVeh="0"/>
        <edge id=":1110673414_0" sampledSeconds="0.00" CO_abs="0" CO2_abs="0" HC_abs="0" PMx_abs="0" NOx_abs="0" fuel_abs="0" electricity_abs="0"
            CO_normed="0" CO2_normed="0" HC_normed="0" PMx_normed="0" NOx_normed="0" fuel_normed="0" electricity_normed="0"/>
        <edge id=":1110673414_1" sampledSeconds="256.79" CO_abs="17999.598655" CO2_abs="676490.907370" HC_abs="97.661744" PMx_abs="12.514537" NOx_abs="285.798557" fuel_abs="290.799563" electricity_abs="0"
            CO_normed="1527.441407" CO2_normed="57406.847959" HC_normed="8.287551" PMx_normed="1.061980" NOx_normed="24.252794" fuel_normed="24.677178" electricity_normed="0"
            traveltime="1.60" CO_perVeh="112.334215" CO2_perVeh="4221.931643" HC_perVeh="0.609500" PMx_perVeh="0.078102" NOx_perVeh="1.783648" fuel_perVeh="1.814859" electricity_perVeh="0"/>
        <edge id=":1110673417_0" sampledSeconds="29.47" CO_abs="580.049696" CO2_abs="66393.089372" HC_abs="4.166601" PMx_abs="0.948383" NOx_abs="25.116688" fuel_abs="28.539572" electricity_abs="0"
            CO_normed="1587.437591" CO2_normed="181699.751977" HC_normed="11.402849" PMx_normed="2.595465" NOx_normed="68.737514" fuel_normed="78.105015" electricity_normed="0"
            traveltime="0.02" CO_perVeh="0.430521" CO2_perVeh="49.277840" HC_perVeh="0.003093" PMx_perVeh="0.000704" NOx_perVeh="0.018642" fuel_perVeh="0.021182" electricity_perVeh="0"/>
        <edge id=":1110673446_0" sampledSeconds="334.72" CO_abs="3542.203930" CO2_abs="281734.340541" HC_abs="22.801205" PMx_abs="5.233835" NOx_abs="115.711352" fuel_abs="121.104583" electricity_abs="0"
            CO_normed="9047.775043" CO2_normed="719627.945187" HC_normed="58.240627" PMx_normed="13.368672" NOx_normed="295.559009" fuel_normed="309.334824" electricity_normed="0"
            traveltime="0.02" CO_perVeh="0.241787" CO2_perVeh="19.230910" HC_perVeh="0.001556" PMx_perVeh="0.000357" NOx_perVeh="0.007898" fuel_perVeh="0.008266" electricity_perVeh="0"/>
        <edge id=":1110673451_0" sampledSeconds="37.36" CO_abs="298.907687" CO2_abs="20882.432595" HC_abs="1.838992" PMx_abs="0.299253" NOx_abs="8.114080" fuel_abs="8.976549" electricity_abs="0"
            CO_normed="848.326060" CO2_normed="59266.163177" HC_normed="5.219219" PMx_normed="0.849305" NOx_normed="23.028466" fuel_normed="25.476229" electricity_normed="0"
            traveltime="0.03" CO_perVeh="0.214361" CO2_perVeh="14.975820" HC_perVeh="0.001319" PMx_perVeh="0.000215" NOx_perVeh="0.005819" fuel_perVeh="0.006438" electricity_perVeh="0"/>
        <edge id=":1110673464_0" sampledSeconds="321.59" CO_abs="487.260297" CO2_abs="37603.032693" HC_abs="3.074821" PMx_abs="0.502928" NOx_abs="14.321116" fuel_abs="16.164105" electricity_abs="0"
            CO_normed="26.443310" CO2_normed="2040.692949" HC_normed="0.166869" PMx_normed="0.027294" NOx_normed="0.777198" fuel_normed="0.877216" electricity_normed="0"
            traveltime="1.16" CO_perVeh="1.761382" CO2_perVeh="135.930002" HC_perVeh="0.011115" PMx_perVeh="0.001818" NOx_perVeh="0.051769" fuel_perVeh="0.058431" electricity_perVeh="0"/>
        <edge id=":1110673464_1" sampledSeconds="718.65" CO_abs="16181.416186" CO2_abs="2097166.784105" HC_abs="123.800279" PMx_abs="37.086824" NOx_abs="785.067131" fuel_abs="901.475904" electricity_abs="0"
            CO_normed="860.482487" CO2_normed="111521.468122" HC_normed="6.583353" PMx_normed="1.972174" NOx_normed="41.747676" fuel_normed="47.937969" electricity_normed="0"
            traveltime="0.70" CO_perVeh="15.759850" CO2_perVeh="2042.530336" HC_perVeh="0.120575" PMx_perVeh="0.036121" NOx_perVeh="0.764614" fuel_perVeh="0.877990" electricity_perVeh="0"/>
        <edge id=":1110673479_0" sampledSeconds="133.68" CO_abs="6601.511331" CO2_abs="456293.023445" HC_abs="40.778342" PMx_abs="7.978741" NOx_abs="186.602967" fuel_abs="196.140563" electricity_abs="0"
            CO_normed="16862.097907" CO2_normed="1165499.421314" HC_normed="104.159239" PMx_normed="20.379925" NOx_normed="476.635930" fuel_normed="500.997607" electricity_normed="0"
            traveltime="0.03" CO_perVeh="1.390678" CO2_perVeh="96.122969" HC_perVeh="0.008590" PMx_perVeh="0.001681" NOx_perVeh="0.039310" fuel_perVeh="0.041319" electricity_perVeh="0"/>
        <edge id=":1110673511_0" sampledSeconds="11.72" CO_abs="253.482997" CO2_abs="26856.216425" HC_abs="1.779162" PMx_abs="0.402927" NOx_abs="10.323230" fuel_abs="11.544332" electricity_abs="0"
            CO_normed="647.466148" CO2_normed="68598.253960" HC_normed="4.544475" PMx_normed="1.029189" NOx_normed="26.368405" fuel_normed="29.487437" electricity_normed="0"
            traveltime="0.02" CO_perVeh="0.501947" CO2_perVeh="53.180627" HC_perVeh="0.003523" PMx_perVeh="0.000798" NOx_perVeh="0.020442" fuel_perVeh="0.022860" electricity_perVeh="0"/>
        <edge id=":1110673517_0" sampledSeconds="16.95" CO_abs="813.282084" CO2_abs="58426.228753" HC_abs="5.073446" PMx_abs="0.999934" NOx_abs="23.691325" fuel_abs="25.114912" electricity_abs="0"
            CO_normed="2077.348873" CO2_normed="149236.855053" HC_normed="12.958993" PMx_normed="2.554111" NOx_normed="60.514240" fuel_normed="64.150477" electricity_normed="0"
            traveltime="0.03" CO_perVeh="1.305778" CO2_perVeh="93.807164" HC_perVeh="0.008146" PMx_perVeh="0.001605" NOx_perVeh="0.038038" fuel_perVeh="0.040324" electricity_perVeh="0"/>
        <edge id=":1110673534_0" sampledSeconds="474.11" CO_abs="3185.236486" CO2_abs="286223.503931" HC_abs="21.028919" PMx_abs="3.790176" NOx_abs="108.049257" fuel_abs="123.036216" electricity_abs="0"
            CO_normed="157.674047" CO2_normed="14168.498417" HC_normed="1.040963" PMx_normed="0.187619" NOx_normed="5.348602" fuel_normed="6.090480" electricity_normed="0"
            traveltime="1.43" CO_perVeh="9.595859" CO2_perVeh="862.278293" HC_perVeh="0.063352" PMx_perVeh="0.011418" NOx_perVeh="0.325510" fuel_perVeh="0.370659" electricity_perVeh="0"/>
        <edge id=":1110673534_1" sampledSeconds="199.49" CO_abs="2674.872918" CO2_abs="356347.639507" HC_abs="20.312966" PMx_abs="4.651238" NOx_abs="131.339277" fuel_abs="153.179095" electricity_abs="0"
            CO_normed="128.750694" CO2_normed="17152.218925" HC_normed="0.977732" PMx_normed="0.223880" NOx_normed="6.321804" fuel_normed="7.373029" electricity_normed="0"
            traveltime="1.22" CO_perVeh="16.350657" CO2_perVeh="2178.240998" HC_perVeh="0.124167" PMx_perVeh="0.028432" NOx_perVeh="0.802836" fuel_perVeh="0.936336" electricity_perVeh="0"/>
        <edge id=":1110673549_0" sampledSeconds="60.31" CO_abs="30.894058" CO2_abs="2384.953575" HC_abs="0.194859" PMx_abs="0.031363" NOx_abs="0.905565" fuel_abs="1.025201" electricity_abs="0"
            CO_normed="1.481452" CO2_normed="114.364871" HC_normed="0.009344" PMx_normed="0.001504" NOx_normed="0.043424" fuel_normed="0.049161" electricity_normed="0"
            traveltime="1.26" CO_perVeh="0.643651" CO2_perVeh="49.688476" HC_perVeh="0.004060" PMx_perVeh="0.000653" NOx_perVeh="0.018867" fuel_perVeh="0.021359" electricity_perVeh="0"/>
        <edge id=":1110673549_1" sampledSeconds="638.70" CO_abs="14482.783606" CO2_abs="1896297.057114" HC_abs="111.278220" PMx_abs="33.404800" NOx_abs="709.124280" fuel_abs="815.131281" electricity_abs="0"
            CO_normed="671.786832" CO2_normed="87960.120653" HC_normed="5.161663" PMx_normed="1.549488" NOx_normed="32.892872" fuel_normed="37.810029" electricity_normed="0"
            traveltime="0.80" CO_perVeh="18.232967" CO2_perVeh="2387.325752" HC_perVeh="0.140093" PMx_perVeh="0.042055" NOx_perVeh="0.892745" fuel_perVeh="1.026202" electricity_perVeh="0"/>
        <edge id=":1110673556_0" sampledSeconds="412.40" CO_abs="50538.597412" CO2_abs="2556599.123621" HC_abs="290.929713" PMx_abs="51.574693" NOx_abs="1100.739683" fuel_abs="1098.970953" electricity_abs="0"
            CO_normed="1797.071674" CO2_normed="90908.574859" HC_normed="10.344995" PMx_normed="1.833914" NOx_normed="39.140542" fuel_normed="39.077649" electricity_normed="0"
            traveltime="2.56" CO_perVeh="313.718969" CO2_perVeh="15870.120726" HC_perVeh="1.805950" PMx_perVeh="0.320151" NOx_perVeh="6.832855" fuel_perVeh="6.821876" electricity_perVeh="0"/>
        <edge id=":1110673556_2" sampledSeconds="246.38" CO_abs="23284.184221" CO2_abs="1005450.084824" HC_abs="129.637500" PMx_abs="19.400199" NOx_abs="428.810247" fuel_abs="432.203430" electricity_abs="0"
            CO_normed="865.710178" CO2_normed="37382.815872" HC_normed="4.819946" PMx_normed="0.721303" NOx_normed="15.943242" fuel_normed="16.069402" electricity_normed="0"
            traveltime="2.99" CO_perVeh="282.432693" CO2_perVeh="12195.916856" HC_perVeh="1.572478" PMx_perVeh="0.235321" NOx_perVeh="5.201386" fuel_perVeh="5.242545" electricity_perVeh="0"/>
        <edge id=":1110673556_3" sampledSeconds="372.77" CO_abs="32247.325879" CO2_abs="1150241.812892" HC_abs="173.620282" PMx_abs="22.006262" NOx_abs="490.902177" fuel_abs="494.448623" electricity_abs="0"
            CO_normed="2727.438691" CO2_normed="97286.021068" HC_normed="14.684587" PMx_normed="1.861262" NOx_normed="41.519895" fuel_normed="41.819849" electricity_normed="0"
            traveltime="1.75" CO_perVeh="151.112430" CO2_perVeh="5390.085251" HC_perVeh="0.813593" PMx_perVeh="0.103122" NOx_perVeh="2.300390" fuel_perVeh="2.317009" electricity_perVeh="0"/>
        <edge id=":1110673556_4" sampledSeconds="173.78" CO_abs="18008.621549" CO2_abs="711505.141715" HC_abs="98.685834" PMx_abs="13.876574" NOx_abs="304.920470" fuel_abs="305.849096" electricity_abs="0"
            CO_normed="930.526635" CO2_normed="36764.306674" HC_normed="5.099213" PMx_normed="0.717019" NOx_normed="15.755599" fuel_normed="15.803582" electricity_normed="0"
            traveltime="2.44" CO_perVeh="252.589431" CO2_perVeh="9979.591090" HC_perVeh="1.384170" PMx_perVeh="0.194633" NOx_perVeh="4.276823" fuel_perVeh="4.289848" electricity_perVeh="0"/>
        <edge id=":1110673556_5" sampledSeconds="23.10" CO_abs="1822.201458" CO2_abs="79708.388168" HC_abs="10.166068" PMx_abs="1.519353" NOx_abs="33.901095" fuel_abs="34.263505" electricity_abs="0"
            CO_normed="131.233361" CO2_normed="5740.528632" HC_normed="0.732151" PMx_normed="0.109422" NOx_normed="2.441527" fuel_normed="2.467628" electricity_normed="0"
            traveltime="1.60" CO_perVeh="125.979360" CO2_perVeh="5510.703380" HC_perVeh="0.702839" PMx_perVeh="0.105042" NOx_perVeh="2.343779" fuel_perVeh="2.368835" electricity_perVeh="0"/>
        <edge id=":1110673556_6" sampledSeconds="305.08" CO_abs="36601.764078" CO2_abs="1881300.151747" HC_abs="211.449650" PMx_abs="38.030029" NOx_abs="809.933654" fuel_abs="808.688683" electricity_abs="0"
            CO_normed="1334.316308" CO2_normed="68582.745561" HC_normed="7.708391" PMx_normed="1.386384" NOx_normed="29.526109" fuel_normed="29.480724" electricity_normed="0"
            traveltime="2.42" CO_perVeh="289.856528" CO2_perVeh="14898.383832" HC_perVeh="1.674511" PMx_perVeh="0.301167" NOx_perVeh="6.414023" fuel_perVeh="6.404164" electricity_perVeh="0"/>
        <edge id=":1110673561_0" sampledSeconds="99.27" CO_abs="10764.420469" CO2_abs="755622.359523" HC_abs="67.248681" PMx_abs="15.577024" NOx_abs="321.598400" fuel_abs="324.805772" electricity_abs="0"
            CO_normed="493.042323" CO2_normed="34609.740894" HC_normed="3.080189" PMx_normed="0.713474" NOx_normed="14.730159" fuel_normed="14.877066" electricity_normed="0"
            traveltime="1.17" CO_perVeh="127.030609" CO2_perVeh="8917.077249" HC_perVeh="0.793600" PMx_perVeh="0.183824" NOx_perVeh="3.795173" fuel_perVeh="3.833023" electricity_perVeh="0"/>
        <edge id=":1110673561_1" sampledSeconds="1316.19" CO_abs="121592.901524" CO2_abs="8428409.646922" HC_abs="757.502018" PMx_abs="176.002807" NOx_abs="3602.540579" fuel_abs="3622.966423" electricity_abs="0"
            CO_normed="5429.757412" CO2_normed="376372.462330" HC_normed="33.826417" PMx_normed="7.859444" NOx_normed="160.872232" fuel_normed="161.784352" electricity_normed="0"
            traveltime="1.20" CO_perVeh="110.463925" CO2_perVeh="7656.986558" HC_perVeh="0.688170" PMx_perVeh="0.159894" NOx_perVeh="3.272813" fuel_perVeh="3.291369" electricity_perVeh="0"/>
        <edge id=":1110673562_0" sampledSeconds="103.45" CO_abs="2585.627446" CO2_abs="202693.339994" HC_abs="16.420364" PMx_abs="2.866000" NOx_abs="78.133365" fuel_abs="87.129847" electricity_abs="0"
            CO_normed="7338.235975" CO2_normed="575261.359428" HC_normed="46.602424" PMx_normed="8.133958" NOx_normed="221.749299" fuel_normed="247.282097" electricity_normed="0"
            traveltime="0.03" CO_perVeh="0.659088" CO2_perVeh="51.667455" HC_perVeh="0.004186" PMx_perVeh="0.000731" NOx_perVeh="0.019917" fuel_perVeh="0.022210" electricity_perVeh="0"/>
        <edge id=":1110673564_0" sampledSeconds="28.48" CO_abs="453.391384" CO2_abs="57238.964533" HC_abs="3.351477" PMx_abs="0.756414" NOx_abs="21.203168" fuel_abs="24.604658" electricity_abs="0"
            CO_normed="3474.263482" CO2_normed="438612.755041" HC_normed="25.681818" PMx_normed="5.796276" NOx_normed="162.476381" fuel_normed="188.541442" electricity_normed="0"
            traveltime="7.829020e-03" CO_perVeh="0.124644" CO2_perVeh="15.735798" HC_perVeh="0.000921" PMx_perVeh="0.000208" NOx_perVeh="0.005829" fuel_perVeh="0.006764" electricity_perVeh="0"/>
        <edge id=":1110673588_0" sampledSeconds="11.70" CO_abs="220.677511" CO2_abs="25462.358638" HC_abs="1.594323" PMx_abs="0.357269" NOx_abs="9.592496" fuel_abs="10.945197" electricity_abs="0"
            CO_normed="676.406165" CO2_normed="78045.543717" HC_normed="4.886813" PMx_normed="1.095076" NOx_normed="29.402287" fuel_normed="33.548496" electricity_normed="0"
            traveltime="0.02" CO_perVeh="0.367796" CO2_perVeh="42.437264" HC_perVeh="0.002657" PMx_perVeh="0.000595" NOx_perVeh="0.015987" fuel_perVeh="0.018242" electricity_perVeh="0"/>
        <edge id=":1110673601_0" sampledSeconds="29.27" CO_abs="539.781615" CO2_abs="59974.749887" HC_abs="3.835929" PMx_abs="0.865372" NOx_abs="22.790542" fuel_abs="25.780596" electricity_abs="0"
            CO_normed="1477.234852" CO2_normed="164134.509817" HC_normed="10.497890" PMx_normed="2.368288" NOx_normed="62.371489" fuel_normed="70.554450" electricity_normed="0"
            traveltime="0.02" CO_perVeh="0.400633" CO2_perVeh="44.514062" HC_perVeh="0.002847" PMx_perVeh="0.000642" NOx_perVeh="0.016915" fuel_perVeh="0.019135" electricity_perVeh="0"/>
        <edge id=":1110673617_0" sampledSeconds="241.06" CO_abs="6172.780031" CO2_abs="755931.236191" HC_abs="46.149930" PMx_abs="13.571909" NOx_abs="285.696963" fuel_abs="324.940028" electricity_abs="0"
            CO_normed="15766.998801" CO2_normed="1930858.840846" HC_normed="117.879771" PMx_normed="34.666435" NOx_normed="729.749586" fuel_normed="829.987300" electricity_normed="0"
            traveltime="0.01" CO_perVeh="0.374185" CO2_perVeh="45.823463" HC_perVeh="0.002798" PMx_perVeh="0.000823" NOx_perVeh="0.017319" fuel_perVeh="0.019697" electricity_perVeh="0"/>
        <edge id=":1110673621_0" sampledSeconds="25.78" CO_abs="640.770587" CO2_abs="63396.289731" HC_abs="4.383927" PMx_abs="0.971242" NOx_abs="24.563589" fuel_abs="27.251333" electricity_abs="0"
            CO_normed="1964.047775" CO2_normed="194318.129442" HC_normed="13.437324" PMx_normed="2.976987" NOx_normed="75.290693" fuel_normed="83.528991" electricity_normed="0"
            traveltime="0.02" CO_perVeh="0.485432" CO2_perVeh="48.027492" HC_perVeh="0.003321" PMx_perVeh="0.000736" NOx_perVeh="0.018609" fuel_perVeh="0.020645" electricity_perVeh="0"/>
        <edge id=":1110673630_0" sampledSeconds="54.52" CO_abs="325.339604" CO2_abs="29301.150828" HC_abs="2.151898" PMx_abs="0.395260" NOx_abs="11.110032" fuel_abs="12.595399" electricity_abs="0"
            CO_normed="17.781910" CO2_normed="1601.497086" HC_normed="0.117615" PMx_normed="0.021604" NOx_normed="0.607235" fuel_normed="0.688420" electricity_normed="0"
            traveltime="1.27" CO_perVeh="7.594002" CO2_perVeh="683.940688" HC_perVeh="0.050229" PMx_perVeh="0.009226" NOx_perVeh="0.259328" fuel_perVeh="0.293999" electricity_perVeh="0"/>
        <edge id=":1110673630_1" sampledSeconds="7.21" CO_abs="26.015841" CO2_abs="2960.730443" HC_abs="0.184260" PMx_abs="0.028299" NOx_abs="1.041705" fuel_abs="1.272713" electricity_abs="0"
            CO_normed="1.733523" CO2_normed="197.283388" HC_normed="0.012278" PMx_normed="0.001886" NOx_normed="0.069412" fuel_normed="0.084805" electricity_normed="0"
            traveltime="1.02" CO_perVeh="3.682242" CO2_perVeh="419.057232" HC_perVeh="0.026080" PMx_perVeh="0.004005" NOx_perVeh="0.147441" fuel_perVeh="0.180138" electricity_perVeh="0"/>
        <edge id=":1110673650_0" sampledSeconds="146.70" CO_abs="2518.248975" CO2_abs="304768.490428" HC_abs="18.443984" PMx_abs="4.241158" NOx_abs="114.413593" fuel_abs="131.007106" electricity_abs="0"
            CO_normed="6432.309004" CO2_normed="778463.577083" HC_normed="47.111069" PMx_normed="10.833097" NOx_normed="292.244170" fuel_normed="334.628624" electricity_normed="0"
            traveltime="0.02" CO_perVeh="0.393681" CO2_perVeh="47.644892" HC_perVeh="0.002883" PMx_perVeh="0.000663" NOx_perVeh="0.017886" fuel_perVeh="0.020481" electricity_perVeh="0"/>
        <edge id=":1110673655_0" sampledSeconds="44.89" CO_abs="856.798285" CO2_abs="89252.344720" HC_abs="5.968448" PMx_abs="1.288567" NOx_abs="34.063689" fuel_abs="38.365823" electricity_abs="0"
            CO_normed="2188.501367" CO2_normed="227975.337726" HC_normed="15.245078" PMx_normed="3.291358" NOx_normed="87.008146" fuel_normed="97.996994" electricity_normed="0"
            traveltime="0.02" CO_perVeh="0.458549" CO2_perVeh="47.766842" HC_perVeh="0.003194" PMx_perVeh="0.000690" NOx_perVeh="0.018230" fuel_perVeh="0.020533" electricity_perVeh="0"/>
        <edge id=":1110673663_0" sampledSeconds="109.07" CO_abs="2137.763326" CO2_abs="244522.168331" HC_abs="15.347107" PMx_abs="3.513408" NOx_abs="92.627102" fuel_abs="105.109675" electricity_abs="0"
            CO_normed="100.008108" CO2_normed="11439.151958" HC_normed="0.717963" PMx_normed="0.164363" NOx_normed="4.333249" fuel_normed="4.917205" electricity_normed="0"
            traveltime="1.28" CO_perVeh="25.109039" CO2_perVeh="2872.028222" HC_perVeh="0.180259" PMx_perVeh="0.041267" NOx_perVeh="1.087949" fuel_perVeh="1.234563" electricity_perVeh="0"/>
        <edge id=":1110673663_1" sampledSeconds="154.59" CO_abs="2736.736145" CO2_abs="332588.118491" HC_abs="20.134451" PMx_abs="4.660214" NOx_abs="124.958159" fuel_abs="142.965552" electricity_abs="0"
            CO_normed="128.185564" CO2_normed="15578.043752" HC_normed="0.943074" PMx_normed="0.218279" NOx_normed="5.852896" fuel_normed="6.696342" electricity_normed="0"
            traveltime="1.25" CO_perVeh="22.093105" CO2_perVeh="2684.915136" HC_perVeh="0.162541" PMx_perVeh="0.037621" NOx_perVeh="1.008761" fuel_perVeh="1.154131" electricity_perVeh="0"/>
        <edge id=":1110673666_0" sampledSeconds="209.08" CO_abs="4765.492197" CO2_abs="375959.897724" HC_abs="30.283342" PMx_abs="5.127164" NOx_abs="143.680873" fuel_abs="161.610549" electricity_abs="0"