<?xml version="1.0" encoding="UTF-8"?>

<!-- generated on ter 03 nov 2020 01:05:56 WET by Eclipse SUMO GUI Version 1.7.0
<configuration xmlns:xsi="http://www.w3.org/2001/XMLSchema-instance" xsi:noNamespaceSchemaLocation="http://sumo.dlr.de/xsd/sumoConfiguration.xsd">

    <input>
        <net-file value="../dataSets/Porto/8AM9AM_Routing_SaoBento/Porto.net.xml"/>
        <route-files value="../results/Porto/8AM9AM_Routing_SaoBento/cost_co-ttime/solution6/Porto.rou.xml"/>
        <additional-files value="moreOutputInfo.xml"/>
    </input>

    <output>
        <emission-output.precision value="6"/>
        <tripinfo-output value="../results/Porto/8AM9AM_Routing_SaoBento/cost_co-ttime/solution6/Porto-tripinfo"/>
    </output>

    <processing>
        <collision.action value="warn"/>
        <time-to-teleport value="-1"/>
    </processing>

    <emissions>
        <device.emissions.probability value="1"/>
    </emissions>

    <gui_only>
        <gui-settings-file value="gui-settings.xml"/>
        <window-size value="800,600"/>
        <window-pos value="0,0"/>
    </gui_only>

</configuration>
-->

<tripinfos xmlns:xsi="http://www.w3.org/2001/XMLSchema-instance" xsi:noNamespaceSchemaLocation="http://sumo.dlr.de/xsd/tripinfo_file.xsd">
    <tripinfo id="sveh37" depart="8.00" departLane="480148041_0" departPos="4.85" departSpeed="22.22" departDelay="0.40" arrival="57.00" arrivalLane="549454264#1_0" arrivalPos="63.02" arrivalSpeed="15.71" duration="49.00" routeLength="830.13" waitingTime="0.00" waitingCount="0" stopTime="0.00" timeLoss="4.10" rerouteNo="0" devices="tripinfo_sveh37 emissions_sveh37" vType="SCar" speedFactor="1.18" vaporized="">
        <emissions CO_abs="1137.887557" CO2_abs="135425.415758" HC_abs="8.339795" PMx_abs="2.286939" NOx_abs="51.779875" fuel_abs="58.213234" electricity_abs="0"/>
    </tripinfo>
    <tripinfo id="sveh496" depart="92.00" departLane="190128487#4_0" departPos="4.85" departSpeed="14.91" departDelay="0.10" arrival="97.00" arrivalLane="190128487#4_0" arrivalPos="66.25" arrivalSpeed="13.85" duration="5.00" routeLength="61.40" waitingTime="0.00" waitingCount="0" stopTime="0.00" timeLoss="0.23" rerouteNo="0" devices="tripinfo_sveh496 emissions_sveh496" vType="SCar" speedFactor="1.07" vaporized="">
        <emissions CO_abs="5.501436" CO2_abs="5327.616866" HC_abs="0.108962" PMx_abs="0.039537" NOx_abs="1.698848" fuel_abs="2.290139" electricity_abs="0"/>
    </tripinfo>
    <tripinfo id="sveh20" depart="5.00" departLane="480148041_0" departPos="4.85" departSpeed="19.28" departDelay="0.60" arrival="98.00" arrivalLane="367461722_0" arrivalPos="259.72" arrivalSpeed="13.58" duration="93.00" routeLength="1717.30" waitingTime="0.00" waitingCount="0" stopTime="0.00" timeLoss="3.41" rerouteNo="0" devices="tripinfo_sveh20 emissions_sveh20" vType="SCar" speedFactor="1.02" vaporized="">
        <emissions CO_abs="2244.067785" CO2_abs="269188.999031" HC_abs="16.706467" PMx_abs="4.704792" NOx_abs="101.619645" fuel_abs="115.712135" electricity_abs="0"/>
    </tripinfo>
    <tripinfo id="sveh117" depart="23.00" departLane="480148041_0" departPos="4.85" departSpeed="19.53" departDelay="1.00" arrival="100.00" arrivalLane="549454264#1_0" arrivalPos="63.02" arrivalSpeed="14.51" duration="77.00" routeLength="830.13" waitingTime="22.00" waitingCount="1" stopTime="0.00" timeLoss="30.30" rerouteNo="0" devices="tripinfo_sveh117 emissions_sveh117" vType="SCar" speedFactor="1.07" vaporized="">
        <emissions CO_abs="4904.978068" CO2_abs="207461.395153" HC_abs="27.256216" PMx_abs="4.019899" NOx_abs="84.784701" fuel_abs="89.179946" electricity_abs="0"/>
    </tripinfo>
    <tripinfo id="sveh119" depart="24.00" departLane="480148041_0" departPos="4.85" departSpeed="17.65" departDelay="1.40" arrival="101.00" arrivalLane="549454264#1_0" arrivalPos="63.02" arrivalSpeed="14.81" duration="77.00" routeLength="830.13" waitingTime="18.00" waitingCount="1" stopTime="0.00" timeLoss="30.18" rerouteNo="0" devices="tripinfo_sveh119 emissions_sveh119" vType="SCar" speedFactor="1.10" vaporized="">
        <emissions CO_abs="4709.514259" CO2_abs="218615.412371" HC_abs="26.675770" PMx_abs="4.390904" NOx_abs="90.864522" fuel_abs="93.973961" electricity_abs="0"/>
    </tripinfo>
    <tripinfo id="sveh159" depart="31.00" departLane="480148041_0" departPos="4.85" departSpeed="22.22" departDelay="0.70" arrival="102.00" arrivalLane="549454264#1_0" arrivalPos="63.02" arrivalSpeed="13.66" duration="71.00" routeLength="830.13" waitingTime="15.00" waitingCount="1" stopTime="0.00" timeLoss="23.56" rerouteNo="0" devices="tripinfo_sveh159 emissions_sveh159" vType="SCar" speedFactor="1.05" vaporized="">
        <emissions CO_abs="3842.154340" CO2_abs="182439.660175" HC_abs="21.857188" PMx_abs="3.639342" NOx_abs="75.675496" fuel_abs="78.423424" electricity_abs="0"/>
    </tripinfo>
    <tripinfo id="sveh177" depart="34.00" departLane="480148041_0" departPos="4.85" departSpeed="22.22" departDelay="0.10" arrival="103.00" arrivalLane="549454264#1_1" arrivalPos="63.02" arrivalSpeed="13.09" duration="69.00" routeLength="830.13" waitingTime="10.00" waitingCount="1" stopTime="0.00" timeLoss="20.44" rerouteNo="0" devices="tripinfo_sveh177 emissions_sveh177" vType="SCar" speedFactor="1.03" vaporized="">
        <emissions CO_abs="2881.511668" CO2_abs="165054.742171" HC_abs="17.043742" PMx_abs="3.043455" NOx_abs="65.566196" fuel_abs="70.950355" electricity_abs="0"/>
    </tripinfo>
    <tripinfo id="sveh182" depart="35.00" departLane="480148041_0" departPos="4.85" departSpeed="19.81" departDelay="0.00" arrival="105.00" arrivalLane="549454264#1_0" arrivalPos="63.02" arrivalSpeed="11.72" duration="70.00" routeLength="830.13" waitingTime="7.00" waitingCount="1" stopTime="0.00" timeLoss="15.56" rerouteNo="0" devices="tripinfo_sveh182 emissions_sveh182" vType="SCar" speedFactor="0.89" vaporized="">
        <emissions CO_abs="2031.005868" CO2_abs="147613.544511" HC_abs="12.662344" PMx_abs="2.430633" NOx_abs="57.415959" fuel_abs="63.452991" electricity_abs="0"/>
    </tripinfo>
    <tripinfo id="sveh61" depart="15.00" departLane="480148041_0" departPos="4.85" departSpeed="20.08" departDelay="2.10" arrival="111.00" arrivalLane="367461722_0" arrivalPos="259.72" arrivalSpeed="12.95" duration="96.00" routeLength="1717.30" waitingTime="0.00" waitingCount="0" stopTime="0.00" timeLoss="4.40" rerouteNo="0" devices="tripinfo_sveh61 emissions_sveh61" vType="SCar" speedFactor="0.99" vaporized="">
        <emissions CO_abs="2656.082929" CO2_abs="274233.757234" HC_abs="18.692572" PMx_abs="4.964506" NOx_abs="106.667117" fuel_abs="117.880489" electricity_abs="0"/>
    </tripinfo>
    <tripinfo id="sveh258" depart="51.00" departLane="480148041_0" departPos="4.85" departSpeed="14.08" departDelay="0.50" arrival="113.00" arrivalLane="549454264#1_0" arrivalPos="63.02" arrivalSpeed="12.26" duration="62.00" routeLength="830.13" waitingTime="0.00" waitingCount="0" stopTime="0.00" timeLoss="8.28" rerouteNo="0" devices="tripinfo_sveh258 emissions_sveh258" vType="SCar" speedFactor="0.92" vaporized="">
        <emissions CO_abs="3442.447782" CO2_abs="251500.878845" HC_abs="21.707317" PMx_abs="5.008232" NOx_abs="105.367139" fuel_abs="108.108355" electricity_abs="0"/>
    </tripinfo>
    <tripinfo id="sveh80" depart="17.00" departLane="480148041_0" departPos="4.85" departSpeed="22.22" departDelay="1.40" arrival="114.00" arrivalLane="367461722_0" arrivalPos="259.72" arrivalSpeed="13.04" duration="97.00" routeLength="1717.30" waitingTime="0.00" waitingCount="0" stopTime="0.00" timeLoss="7.46" rerouteNo="0" devices="tripinfo_sveh80 emissions_sveh80" vType="SCar" speedFactor="1.02" vaporized="">
        <emissions CO_abs="2076.868645" CO2_abs="256534.988376" HC_abs="15.461027" PMx_abs="4.332109" NOx_abs="96.911042" fuel_abs="110.272794" electricity_abs="0"/>
    </tripinfo>
    <tripinfo id="sveh59" depart="14.00" departLane="480148041_0" departPos="4.85" departSpeed="22.05" departDelay="1.90" arrival="115.00" arrivalLane="367461722_1" arrivalPos="259.72" arrivalSpeed="14.41" duration="101.00" routeLength="1717.30" waitingTime="0.00" waitingCount="0" stopTime="0.00" timeLoss="13.00" rerouteNo="0" devices="tripinfo_sveh59 emissions_sveh59" vType="SCar" speedFactor="1.08" vaporized="">
        <emissions CO_abs="4740.635129" CO2_abs="389694.416946" HC_abs="30.999457" PMx_abs="7.722695" NOx_abs="160.055950" fuel_abs="167.511093" electricity_abs="0"/>
    </tripinfo>
    <tripinfo id="sveh74" depart="16.00" departLane="480148041_0" departPos="4.85" departSpeed="22.22" departDelay="1.40" arrival="117.00" arrivalLane="367461722_0" arrivalPos="259.72" arrivalSpeed="14.09" duration="101.00" routeLength="1717.30" waitingTime="0.00" waitingCount="0" stopTime="0.00" timeLoss="11.84" rerouteNo="0" devices="tripinfo_sveh74 emissions_sveh74" vType="SCar" speedFactor="1.03" vaporized="">
        <emissions CO_abs="4190.668376" CO2_abs="359438.024302" HC_abs="27.665305" PMx_abs="6.936966" NOx_abs="146.129660" fuel_abs="154.505455" electricity_abs="0"/>
    </tripinfo>
    <tripinfo id="sveh321" depart="65.00" departLane="480148041_0" departPos="4.85" departSpeed="15.10" departDelay="2.10" arrival="117.00" arrivalLane="549454264#1_0" arrivalPos="63.02" arrivalSpeed="13.46" duration="52.00" routeLength="830.13" waitingTime="0.00" waitingCount="0" stopTime="0.00" timeLoss="3.55" rerouteNo="0" devices="tripinfo_sveh321 emissions_sveh321" vType="SCar" speedFactor="1.01" vaporized="">
        <emissions CO_abs="1468.617129" CO2_abs="152608.413003" HC_abs="10.313529" PMx_abs="2.591974" NOx_abs="58.842324" fuel_abs="65.599534" electricity_abs="0"/>
    </tripinfo>
    <tripinfo id="sveh211" depart="41.00" departLane="256605510_0" departPos="4.85" departSpeed="10.11" departDelay="0.40" arrival="119.00" arrivalLane="304693638_0" arrivalPos="158.88" arrivalSpeed="11.54" duration="78.00" routeLength="896.35" waitingTime="0.00" waitingCount="0" stopTime="0.00" timeLoss="6.97" rerouteNo="0" devices="tripinfo_sveh211 emissions_sveh211" vType="SCar" speedFactor="0.91" vaporized="">
        <emissions CO_abs="2434.163199" CO2_abs="192438.621573" HC_abs="15.607945" PMx_abs="3.243728" NOx_abs="76.838068" fuel_abs="82.721008" electricity_abs="0"/>
    </tripinfo>
    <tripinfo id="sveh27" depart="6.00" departLane="367461723_0" departPos="4.85" departSpeed="13.18" departDelay="0.80" arrival="120.00" arrivalLane="-34774629#0_0" arrivalPos="58.65" arrivalSpeed="12.26" duration="114.00" routeLength="1424.74" waitingTime="0.00" waitingCount="0" stopTime="0.00" timeLoss="7.98" rerouteNo="0" devices="tripinfo_sveh27 emissions_sveh27" vType="SCar" speedFactor="0.95" vaporized="">
        <emissions CO_abs="3045.539725" CO2_abs="265265.139831" HC_abs="20.082466" PMx_abs="4.253345" NOx_abs="103.771707" fuel_abs="114.026110" electricity_abs="0"/>
    </tripinfo>
    <tripinfo id="sveh333" depart="66.00" departLane="480148041_0" departPos="4.85" departSpeed="12.46" departDelay="1.40" arrival="120.00" arrivalLane="549454264#1_0" arrivalPos="63.02" arrivalSpeed="12.61" duration="54.00" routeLength="830.13" waitingTime="0.00" waitingCount="0" stopTime="0.00" timeLoss="4.31" rerouteNo="0" devices="tripinfo_sveh333 emissions_sveh333" vType="SCar" speedFactor="0.98" vaporized="">
        <emissions CO_abs="1743.250550" CO2_abs="162465.407230" HC_abs="11.820984" PMx_abs="2.897738" NOx_abs="64.058626" fuel_abs="69.836505" electricity_abs="0"/>
    </tripinfo>
    <tripinfo id="sveh95" depart="19.00" departLane="480148041_0" departPos="4.85" departSpeed="20.14" departDelay="0.60" arrival="122.00" arrivalLane="367461722_0" arrivalPos="259.72" arrivalSpeed="12.52" duration="103.00" routeLength="1717.30" waitingTime="0.00" waitingCount="0" stopTime="0.00" timeLoss="4.17" rerouteNo="0" devices="tripinfo_sveh95 emissions_sveh95" vType="SCar" speedFactor="0.91" vaporized="">
        <emissions CO_abs="1733.361994" CO2_abs="232626.663858" HC_abs="13.223412" PMx_abs="3.661110" NOx_abs="86.626646" fuel_abs="99.995905" electricity_abs="0"/>
    </tripinfo>
    <tripinfo id="sveh44" depart="10.00" departLane="100_0" departPos="4.85" departSpeed="14.49" departDelay="0.90" arrival="124.00" arrivalLane="36928561_0" arrivalPos="208.10" arrivalSpeed="11.59" duration="114.00" routeLength="1274.75" waitingTime="0.00" waitingCount="0" stopTime="0.00" timeLoss="8.11" rerouteNo="0" devices="tripinfo_sveh44 emissions_sveh44" vType="SCar" speedFactor="1.04" vaporized="">
        <emissions CO_abs="2519.259934" CO2_abs="224084.597568" HC_abs="16.618195" PMx_abs="3.210976" NOx_abs="86.115814" fuel_abs="96.324800" electricity_abs="0"/>
    </tripinfo>
    <tripinfo id="sveh30" depart="7.00" departLane="549454263#0_0" departPos="4.85" departSpeed="16.37" departDelay="0.90" arrival="125.00" arrivalLane="367461722_0" arrivalPos="259.72" arrivalSpeed="15.89" duration="118.00" routeLength="1244.94" waitingTime="30.00" waitingCount="1" stopTime="0.00" timeLoss="45.57" rerouteNo="0" devices="tripinfo_sveh30 emissions_sveh30" vType="SCar" speedFactor="1.18" vaporized="">
        <emissions CO_abs="7814.174697" CO2_abs="353758.684188" HC_abs="43.870690" PMx_abs="6.813668" NOx_abs="145.478056" fuel_abs="152.067168" electricity_abs="0"/>
    </tripinfo>
    <tripinfo id="sveh62" depart="14.00" departLane="367461723_0" departPos="4.85" departSpeed="13.02" departDelay="0.60" arrival="129.00" arrivalLane="-34774629#0_0" arrivalPos="58.65" arrivalSpeed="12.42" duration="115.00" routeLength="1424.74" waitingTime="0.00" waitingCount="0" stopTime="0.00" timeLoss="7.80" rerouteNo="0" devices="tripinfo_sveh62 emissions_sveh62" vType="SCar" speedFactor="0.94" vaporized="">
        <emissions CO_abs="2969.807288" CO2_abs="267982.403453" HC_abs="19.766337" PMx_abs="4.227664" NOx_abs="103.984829" fuel_abs="115.194196" electricity_abs="0"/>
    </tripinfo>
    <tripinfo id="sveh351" depart="70.00" departLane="480148041_0" departPos="4.85" departSpeed="7.08" departDelay="1.90" arrival="129.00" arrivalLane="549454264#1_0" arrivalPos="63.02" arrivalSpeed="12.52" duration="59.00" routeLength="830.13" waitingTime="0.00" waitingCount="0" stopTime="0.00" timeLoss="5.11" rerouteNo="0" devices="tripinfo_sveh351 emissions_sveh351" vType="SCar" speedFactor="0.90" vaporized="">
        <emissions CO_abs="2035.546699" CO2_abs="173852.940702" HC_abs="13.395534" PMx_abs="3.036603" NOx_abs="69.167679" fuel_abs="74.731626" electricity_abs="0"/>
    </tripinfo>
    <tripinfo id="sveh69" depart="16.00" departLane="367461723_0" departPos="4.85" departSpeed="13.51" departDelay="1.90" arrival="131.00" arrivalLane="-34774629#0_0" arrivalPos="58.65" arrivalSpeed="12.40" duration="115.00" routeLength="1424.74" waitingTime="0.00" waitingCount="0" stopTime="0.00" timeLoss="11.80" rerouteNo="0" devices="tripinfo_sveh69 emissions_sveh69" vType="SCar" speedFactor="0.97" vaporized="">
        <emissions CO_abs="3712.178462" CO2_abs="296320.224104" HC_abs="23.877329" PMx_abs="5.035775" NOx_abs="118.234064" fuel_abs="127.375140" electricity_abs="0"/>
    </tripinfo>
    <tripinfo id="sveh372" depart="74.00" departLane="480148041_0" departPos="4.85" departSpeed="5.90" departDelay="3.10" arrival="131.00" arrivalLane="549454264#1_0" arrivalPos="63.02" arrivalSpeed="13.84" duration="57.00" routeLength="830.13" waitingTime="0.00" waitingCount="0" stopTime="0.00" timeLoss="9.46" rerouteNo="0" devices="tripinfo_sveh372 emissions_sveh372" vType="SCar" speedFactor="1.06" vaporized="">
        <emissions CO_abs="2262.201381" CO2_abs="185483.590581" HC_abs="14.721560" PMx_abs="3.412646" NOx_abs="75.021299" fuel_abs="79.730923" electricity_abs="0"/>
    </tripinfo>
    <tripinfo id="sveh5" depart="2.00" departLane="106586101#0_0" departPos="4.85" departSpeed="11.45" departDelay="0.30" arrival="139.00" arrivalLane="453763721_0" arrivalPos="160.68" arrivalSpeed="13.98" duration="137.00" routeLength="2210.72" waitingTime="0.00" waitingCount="0" stopTime="0.00" timeLoss="7.85" rerouteNo="0" devices="tripinfo_sveh5 emissions_sveh5" vType="SCar" speedFactor="1.03" vaporized="">
        <emissions CO_abs="4076.616837" CO2_abs="382405.554435" HC_abs="27.633119" PMx_abs="6.746583" NOx_abs="149.005002" fuel_abs="164.379004" electricity_abs="0"/>
    </tripinfo>
    <tripinfo id="sveh162" depart="33.00" departLane="367461723_0" departPos="4.85" departSpeed="9.29" departDelay="2.20" arrival="140.00" arrivalLane="-34774629#0_0" arrivalPos="58.65" arrivalSpeed="13.50" duration="107.00" routeLength="1424.74" waitingTime="0.00" waitingCount="0" stopTime="0.00" timeLoss="9.33" rerouteNo="0" devices="tripinfo_sveh162 emissions_sveh162" vType="SCar" speedFactor="1.03" vaporized="">
        <emissions CO_abs="3209.155080" CO2_abs="291375.571840" HC_abs="21.467698" PMx_abs="4.867990" NOx_abs="114.490489" fuel_abs="125.249524" electricity_abs="0"/>
    </tripinfo>
    <tripinfo id="sveh404" depart="84.00" departLane="480148041_0" departPos="4.85" departSpeed="5.76" departDelay="8.30" arrival="140.00" arrivalLane="549454264#1_0" arrivalPos="63.02" arrivalSpeed="14.52" duration="56.00" routeLength="830.13" waitingTime="0.00" waitingCount="0" stopTime="0.00" timeLoss="9.57" rerouteNo="0" devices="tripinfo_sveh404 emissions_sveh404" vType="SCar" speedFactor="1.11" vaporized="">
        <emissions CO_abs="1722.910531" CO2_abs="165067.688883" HC_abs="11.595875" PMx_abs="2.835194" NOx_abs="65.058044" fuel_abs="70.955131" electricity_abs="0"/>
    </tripinfo>
    <tripinfo id="sveh12" depart="3.00" departLane="479198389_0" departPos="4.85" departSpeed="9.24" departDelay="0.40" arrival="143.00" arrivalLane="-172963174#2_0" arrivalPos="112.20" arrivalSpeed="9.80" duration="140.00" routeLength="1417.90" waitingTime="4.00" waitingCount="1" stopTime="0.00" timeLoss="21.75" rerouteNo="0" devices="tripinfo_sveh12 emissions_sveh12" vType="SCar" speedFactor="1.03" vaporized="">
        <emissions CO_abs="4500.639707" CO2_abs="318151.818449" HC_abs="27.875610" PMx_abs="5.076331" NOx_abs="126.310688" fuel_abs="136.760378" electricity_abs="0"/>
    </tripinfo>
    <tripinfo id="sveh327" depart="67.00" departLane="256605510_0" departPos="4.85" departSpeed="6.70" departDelay="3.20" arrival="144.00" arrivalLane="304693638_0" arrivalPos="158.88" arrivalSpeed="12.56" duration="77.00" routeLength="896.35" waitingTime="0.00" waitingCount="0" stopTime="0.00" timeLoss="9.81" rerouteNo="0" devices="tripinfo_sveh327 emissions_sveh327" vType="SCar" speedFactor="0.96" vaporized="">
        <emissions CO_abs="2985.343524" CO2_abs="220561.295489" HC_abs="18.786247" PMx_abs="3.857837" NOx_abs="89.381748" fuel_abs="94.809633" electricity_abs="0"/>
    </tripinfo>
    <tripinfo id="sveh83" depart="18.00" departLane="367461723_0" departPos="4.85" departSpeed="13.56" departDelay="1.80" arrival="146.00" arrivalLane="35006698_0" arrivalPos="188.19" arrivalSpeed="20.50" duration="128.00" routeLength="2105.38" waitingTime="0.00" waitingCount="0" stopTime="0.00" timeLoss="9.85" rerouteNo="0" devices="tripinfo_sveh83 emissions_sveh83" vType="SCar" speedFactor="0.98" vaporized="">
        <emissions CO_abs="3673.226772" CO2_abs="363412.064714" HC_abs="25.321115" PMx_abs="6.384498" NOx_abs="141.069273" fuel_abs="156.214455" electricity_abs="0"/>
    </tripinfo>
    <tripinfo id="sveh79" depart="16.00" departLane="549454263#0_0" departPos="4.85" departSpeed="13.86" departDelay="0.50" arrival="148.00" arrivalLane="367461722_1" arrivalPos="259.72" arrivalSpeed="13.74" duration="132.00" routeLength="1244.94" waitingTime="32.00" waitingCount="2" stopTime="0.00" timeLoss="49.73" rerouteNo="0" devices="tripinfo_sveh79 emissions_sveh79" vType="SCar" speedFactor="1.00" vaporized="">
        <emissions CO_abs="7465.287025" CO2_abs="346578.906492" HC_abs="42.199668" PMx_abs="6.620509" NOx_abs="142.679407" fuel_abs="148.980746" electricity_abs="0"/>
    </tripinfo>
    <tripinfo id="sveh138" depart="27.00" departLane="367461723_0" departPos="4.85" departSpeed="8.02" departDelay="1.10" arrival="148.00" arrivalLane="35006698_1" arrivalPos="188.19" arrivalSpeed="21.21" duration="121.00" routeLength="2105.38" waitingTime="0.00" waitingCount="0" stopTime="0.00" timeLoss="10.49" rerouteNo="0" devices="tripinfo_sveh138 emissions_sveh138" vType="SCar" speedFactor="1.13" vaporized="">
        <emissions CO_abs="3841.122380" CO2_abs="382345.984354" HC_abs="26.681095" PMx_abs="6.880671" NOx_abs="148.459890" fuel_abs="164.353148" electricity_abs="0"/>
    </tripinfo>
    <tripinfo id="sveh124" depart="24.00" departLane="367461723_0" departPos="4.85" departSpeed="5.30" departDelay="1.00" arrival="149.00" arrivalLane="35006698_1" arrivalPos="188.19" arrivalSpeed="21.67" duration="125.00" routeLength="2105.38" waitingTime="0.00" waitingCount="0" stopTime="0.00" timeLoss="10.82" rerouteNo="0" devices="tripinfo_sveh124 emissions_sveh124" vType="SCar" speedFactor="1.03" vaporized="">
        <emissions CO_abs="4496.233671" CO2_abs="437139.601063" HC_abs="30.927562" PMx_abs="7.882160" NOx_abs="171.384736" fuel_abs="187.906330" electricity_abs="0"/>
    </tripinfo>
    <tripinfo id="sveh64" depart="15.00" departLane="367461723_0" departPos="4.85" departSpeed="9.37" departDelay="1.40" arrival="150.00" arrivalLane="35006698_0" arrivalPos="188.19" arrivalSpeed="19.37" duration="135.00" routeLength="2105.38" waitingTime="0.00" waitingCount="0" stopTime="0.00" timeLoss="7.53" rerouteNo="0" devices="tripinfo_sveh64 emissions_sveh64" vType="SCar" speedFactor="0.91" vaporized="">
        <emissions CO_abs="3511.678166" CO2_abs="361446.986927" HC_abs="24.543305" PMx_abs="6.113793" NOx_abs="139.761660" fuel_abs="155.369905" electricity_abs="0"/>
    </tripinfo>
    <tripinfo id="sveh190" depart="38.00" departLane="480148041_0" departPos="4.85" departSpeed="18.69" departDelay="0.90" arrival="150.00" arrivalLane="367461722_0" arrivalPos="259.72" arrivalSpeed="11.34" duration="112.00" routeLength="1717.30" waitingTime="0.00" waitingCount="0" stopTime="0.00" timeLoss="4.67" rerouteNo="0" devices="tripinfo_sveh190 emissions_sveh190" vType="SCar" speedFactor="0.84" vaporized="">
        <emissions CO_abs="1676.860750" CO2_abs="232308.155862" HC_abs="12.861055" PMx_abs="3.382558" NOx_abs="85.592724" fuel_abs="99.859269" electricity_abs="0"/>
    </tripinfo>
    <tripinfo id="sveh123" depart="23.00" departLane="106586101#0_0" departPos="4.85" departSpeed="12.81" departDelay="0.20" arrival="153.00" arrivalLane="453763721_0" arrivalPos="160.68" arrivalSpeed="14.88" duration="130.00" routeLength="2210.72" waitingTime="0.00" waitingCount="0" stopTime="0.00" timeLoss="7.51" rerouteNo="0" devices="tripinfo_sveh123 emissions_sveh123" vType="SCar" speedFactor="1.15" vaporized="">
        <emissions CO_abs="3607.363698" CO2_abs="367119.035094" HC_abs="25.221004" PMx_abs="6.517371" NOx_abs="142.129887" fuel_abs="157.807823" electricity_abs="0"/>
    </tripinfo>
    <tripinfo id="sveh156" depart="31.00" departLane="367461723_0" departPos="4.85" departSpeed="7.43" departDelay="1.00" arrival="153.00" arrivalLane="35006698_1" arrivalPos="188.19" arrivalSpeed="21.12" duration="122.00" routeLength="2105.38" waitingTime="0.00" waitingCount="0" stopTime="0.00" timeLoss="10.05" rerouteNo="0" devices="tripinfo_sveh156 emissions_sveh156" vType="SCar" speedFactor="1.08" vaporized="">
        <emissions CO_abs="3934.510883" CO2_abs="405579.536619" HC_abs="27.633838" PMx_abs="7.103140" NOx_abs="156.378250" fuel_abs="174.340358" electricity_abs="0"/>
    </tripinfo>
    <tripinfo id="sveh135" depart="26.00" departLane="367461723_0" departPos="4.85" departSpeed="11.60" departDelay="0.70" arrival="155.00" arrivalLane="35006698_0" arrivalPos="188.19" arrivalSpeed="20.37" duration="129.00" routeLength="2105.38" waitingTime="0.00" waitingCount="0" stopTime="0.00" timeLoss="7.42" rerouteNo="0" devices="tripinfo_sveh135 emissions_sveh135" vType="SCar" speedFactor="0.95" vaporized="">
        <emissions CO_abs="3490.180792" CO2_abs="362088.909576" HC_abs="24.479082" PMx_abs="6.236224" NOx_abs="139.630999" fuel_abs="155.645756" electricity_abs="0"/>
    </tripinfo>
    <tripinfo id="sveh15" depart="3.00" departLane="367461723_0" departPos="4.85" departSpeed="13.77" departDelay="0.00" arrival="156.00" arrivalLane="304693638_0" arrivalPos="158.88" arrivalSpeed="13.31" duration="153.00" routeLength="2771.64" waitingTime="0.00" waitingCount="0" stopTime="0.00" timeLoss="8.68" rerouteNo="0" devices="tripinfo_sveh15 emissions_sveh15" vType="SCar" speedFactor="0.99" vaporized="">
        <emissions CO_abs="4092.302962" CO2_abs="466744.586124" HC_abs="29.733364" PMx_abs="8.179934" NOx_abs="178.213349" fuel_abs="200.632237" electricity_abs="0"/>
    </tripinfo>
    <tripinfo id="sveh338" depart="66.00" departLane="479198389_0" departPos="4.85" departSpeed="12.47" departDelay="0.60" arrival="164.00" arrivalLane="479198374_1" arrivalPos="10.34" arrivalSpeed="12.27" duration="98.00" routeLength="1042.02" waitingTime="0.00" waitingCount="0" stopTime="0.00" timeLoss="6.55" rerouteNo="0" devices="tripinfo_sveh338 emissions_sveh338" vType="SCar" speedFactor="0.90" vaporized="">
        <emissions CO_abs="2139.779427" CO2_abs="178663.109457" HC_abs="13.832857" PMx_abs="2.454556" NOx_abs="68.200948" fuel_abs="76.800213" electricity_abs="0"/>
    </tripinfo>
    <tripinfo id="sveh341" depart="66.00" departLane="100_0" departPos="4.85" departSpeed="13.49" departDelay="0.50" arrival="166.00" arrivalLane="gneE29_0" arrivalPos="41.38" arrivalSpeed="8.36" duration="100.00" routeLength="1040.32" waitingTime="0.00" waitingCount="0" stopTime="0.00" timeLoss="8.28" rerouteNo="0" devices="tripinfo_sveh341 emissions_sveh341" vType="SCar" speedFactor="0.97" vaporized="">
        <emissions CO_abs="2566.584850" CO2_abs="198286.320525" HC_abs="16.264359" PMx_abs="2.973079" NOx_abs="77.516457" fuel_abs="85.235218" electricity_abs="0"/>
    </tripinfo>
    <tripinfo id="sveh141" depart="29.00" departLane="367461723_0" departPos="4.85" departSpeed="6.63" departDelay="2.10" arrival="168.00" arrivalLane="35006698_0" arrivalPos="188.19" arrivalSpeed="19.50" duration="139.00" routeLength="2105.38" waitingTime="0.00" waitingCount="0" stopTime="0.00" timeLoss="8.67" rerouteNo="0" devices="tripinfo_sveh141 emissions_sveh141" vType="SCar" speedFactor="0.89" vaporized="">
        <emissions CO_abs="3653.354497" CO2_abs="377965.216197" HC_abs="25.317712" PMx_abs="6.204339" NOx_abs="144.714452" fuel_abs="162.470605" electricity_abs="0"/>
    </tripinfo>
    <tripinfo id="sveh298" depart="60.00" departLane="34774629#0_0" departPos="4.85" departSpeed="14.55" departDelay="0.50" arrival="168.00" arrivalLane="-256605510_0" arrivalPos="84.75" arrivalSpeed="11.40" duration="108.00" routeLength="952.10" waitingTime="25.00" waitingCount="1" stopTime="0.00" timeLoss="42.07" rerouteNo="0" devices="tripinfo_sveh298 emissions_sveh298" vType="SCar" speedFactor="1.05" vaporized="">
        <emissions CO_abs="7022.631253" CO2_abs="307818.792999" HC_abs="39.280624" PMx_abs="6.054705" NOx_abs="128.817392" fuel_abs="132.319255" electricity_abs="0"/>
    </tripinfo>
    <tripinfo id="sveh7" depart="3.00" departLane="479127834_0" departPos="4.85" departSpeed="14.53" departDelay="0.80" arrival="169.00" arrivalLane="447313062_0" arrivalPos="770.46" arrivalSpeed="21.80" duration="166.00" routeLength="3287.47" waitingTime="0.00" waitingCount="0" stopTime="0.00" timeLoss="6.02" rerouteNo="0" devices="tripinfo_sveh7 emissions_sveh7" vType="SCar" speedFactor="1.05" vaporized="">
        <emissions CO_abs="4200.380625" CO2_abs="490083.785445" HC_abs="30.869655" PMx_abs="8.745898" NOx_abs="185.424666" fuel_abs="210.664659" electricity_abs="0"/>
    </tripinfo>
    <tripinfo id="sveh308" depart="62.00" departLane="480148041_0" departPos="4.85" departSpeed="22.22" departDelay="1.10" arrival="169.00" arrivalLane="367461722_1" arrivalPos="259.72" arrivalSpeed="14.58" duration="107.00" routeLength="1717.30" waitingTime="0.00" waitingCount="0" stopTime="0.00" timeLoss="20.94" rerouteNo="0" devices="tripinfo_sveh308 emissions_sveh308" vType="SCar" speedFactor="1.13" vaporized="">
        <emissions CO_abs="2933.427710" CO2_abs="288322.372091" HC_abs="20.150248" PMx_abs="5.082816" NOx_abs="113.151804" fuel_abs="123.936654" electricity_abs="0"/>
    </tripinfo>
    <tripinfo id="sveh28" depart="6.00" departLane="479127834_0" departPos="4.85" departSpeed="15.72" departDelay="0.80" arrival="171.00" arrivalLane="447313062_0" arrivalPos="770.46" arrivalSpeed="20.95" duration="165.00" routeLength="3287.47" waitingTime="0.00" waitingCount="0" stopTime="0.00" timeLoss="7.09" rerouteNo="0" devices="tripinfo_sveh28 emissions_sveh28" vType="SCar" speedFactor="1.13" vaporized="">
        <emissions CO_abs="4783.709512" CO2_abs="551215.385754" HC_abs="35.100325" PMx_abs="9.993306" NOx_abs="209.396284" fuel_abs="236.942189" electricity_abs="0"/>
    </tripinfo>
    <tripinfo id="sveh81" depart="17.00" departLane="367461723_0" departPos="4.85" departSpeed="10.24" departDelay="1.30" arrival="172.00" arrivalLane="304693638_0" arrivalPos="158.88" arrivalSpeed="12.71" duration="155.00" routeLength="2771.92" waitingTime="0.00" waitingCount="0" stopTime="0.00" timeLoss="7.22" rerouteNo="0" devices="tripinfo_sveh81 emissions_sveh81" vType="SCar" speedFactor="0.97" vaporized="">
        <emissions CO_abs="3865.667477" CO2_abs="438031.621345" HC_abs="28.021691" PMx_abs="7.545518" NOx_abs="167.166353" fuel_abs="188.289991" electricity_abs="0"/>
    </tripinfo>
    <tripinfo id="sveh195" depart="38.00" departLane="34774629#0_0" departPos="4.85" departSpeed="11.78" departDelay="0.20" arrival="172.00" arrivalLane="367461722_2" arrivalPos="259.72" arrivalSpeed="12.17" duration="134.00" routeLength="1669.12" waitingTime="0.00" waitingCount="0" stopTime="0.00" timeLoss="11.43" rerouteNo="0" devices="tripinfo_sveh195 emissions_sveh195" vType="SCar" speedFactor="0.95" vaporized="">