<?xml version="1.0" encoding="UTF-8"?>

<!-- generated on Tue Nov 10 04:02:13 2020 by Eclipse SUMO sumo Version 1.7.0
<configuration xmlns:xsi="http://www.w3.org/2001/XMLSchema-instance" xsi:noNamespaceSchemaLocation="http://sumo.dlr.de/xsd/sumoConfiguration.xsd">

    <input>
        <net-file value="../dataSets/Porto/8AM9AM_Routing_SaoBento/Porto.net.xml"/>
        <route-files value="../results/Porto/8AM9AM_Routing_SaoBento/cost_co-ttime/solution6/Porto.rou.xml"/>
        <additional-files value="moreOutputInfo.xml"/>
    </input>

    <output>
        <emission-output.precision value="6"/>
        <tripinfo-output value="../results/Porto/8AM9AM_Routing_SaoBento/cost_co-ttime/solution6/Porto-tripinfo"/>
    </output>

    <processing>
        <collision.action value="warn"/>
        <time-to-teleport value="-1"/>
    </processing>

    <emissions>
        <device.emissions.probability value="1"/>
    </emissions>

    <gui_only>
        <quit-on-end value="true"/>
        <start value="true"/>
    </gui_only>

</configuration>
-->

<meandata xmlns:xsi="http://www.w3.org/2001/XMLSchema-instance" xsi:noNamespaceSchemaLocation="http://sumo.dlr.de/xsd/meandata_file.xsd">
    <interval begin="0.00" end="9528.00" id="emissions-detector">
        <edge id=":1092997347_0" sampledSeconds="585.99" CO_abs="71540.841507" CO2_abs="3074603.996602" HC_abs="398.470241" PMx_abs="62.013394" NOx_abs="1329.069682" fuel_abs="1321.647421" electricity_abs="0"
            CO_normed="61433.056023" CO2_normed="2640202.653368" HC_normed="342.171606" PMx_normed="53.251712" NOx_normed="1141.289514" fuel_normed="1134.915922" electricity_normed="0"
            traveltime="0.07" CO_perVeh="8.196777" CO2_perVeh="352.272129" HC_perVeh="0.045655" PMx_perVeh="0.007105" NOx_perVeh="0.152278" fuel_perVeh="0.151427" electricity_perVeh="0"/>
        <edge id=":1103427051_0" sampledSeconds="19.45" CO_abs="1581.037009" CO2_abs="87839.141554" HC_abs="9.282620" PMx_abs="1.717629" NOx_abs="37.462868" fuel_abs="37.758184" electricity_abs="0"
            CO_normed="2059.893611" CO2_normed="114443.422506" HC_normed="12.094094" PMx_normed="2.237856" NOx_normed="48.809435" fuel_normed="49.194194" electricity_normed="0"
            traveltime="0.03" CO_perVeh="2.458713" CO2_perVeh="136.600982" HC_perVeh="0.014436" PMx_perVeh="0.002671" NOx_perVeh="0.058260" fuel_perVeh="0.058719" electricity_perVeh="0"/>
        <edge id=":1105984386_0" sampledSeconds="10.50" CO_abs="127.102549" CO2_abs="9739.216991" HC_abs="0.797564" PMx_abs="0.115432" NOx_abs="3.615678" fuel_abs="4.186540" electricity_abs="0"
            CO_normed="4.945791" CO2_normed="378.970639" HC_normed="0.031035" PMx_normed="0.004492" NOx_normed="0.140693" fuel_normed="0.162906" electricity_normed="0"
            traveltime="1.01" CO_perVeh="12.192904" CO2_perVeh="934.279757" HC_perVeh="0.076510" PMx_perVeh="0.011073" NOx_perVeh="0.346851" fuel_perVeh="0.401613" electricity_perVeh="0"/>
        <edge id=":1105984390_0" sampledSeconds="10.74" CO_abs="10.343171" CO2_abs="640.813462" HC_abs="0.062044" PMx_abs="0.010950" NOx_abs="0.262002" fuel_abs="0.275459" electricity_abs="0"
            CO_normed="0.311146" CO2_normed="19.277146" HC_normed="0.001866" PMx_normed="0.000329" NOx_normed="0.007882" fuel_normed="0.008286" electricity_normed="0"
            traveltime="1.11" CO_perVeh="1.072132" CO2_perVeh="66.424173" HC_perVeh="0.006431" PMx_perVeh="0.001135" NOx_perVeh="0.027158" fuel_perVeh="0.028553" electricity_perVeh="0"/>
        <edge id=":1105984390_1" sampledSeconds="2398.12" CO_abs="57452.088932" CO2_abs="7148853.916399" HC_abs="432.112676" PMx_abs="127.343990" NOx_abs="2699.923892" fuel_abs="3072.963387" electricity_abs="0"
            CO_normed="1653.262634" CO2_normed="205718.073568" HC_normed="12.434635" PMx_normed="3.664498" NOx_normed="77.694012" fuel_normed="88.428735" electricity_normed="0"
            traveltime="0.65" CO_perVeh="15.514890" CO2_perVeh="1930.542155" HC_perVeh="0.116692" PMx_perVeh="0.034389" NOx_perVeh="0.729112" fuel_perVeh="0.829851" electricity_perVeh="0"/>
        <edge id=":1105984395_0" sampledSeconds="4.14" CO_abs="141.587418" CO2_abs="9631.163517" HC_abs="0.863612" PMx_abs="0.131133" NOx_abs="3.703273" fuel_abs="4.140077" electricity_abs="0"
            CO_normed="58.148376" CO2_normed="3955.411586" HC_normed="0.354676" PMx_normed="0.053855" NOx_normed="1.520893" fuel_normed="1.700284" electricity_normed="0"
            traveltime="0.10" CO_perVeh="3.281946" CO2_perVeh="223.246925" HC_perVeh="0.020018" PMx_perVeh="0.003040" NOx_perVeh="0.085841" fuel_perVeh="0.095966" electricity_perVeh="0"/>
        <edge id=":1105984398_0" sampledSeconds="10.11" CO_abs="705.743372" CO2_abs="46674.860702" HC_abs="4.310724" PMx_abs="0.828265" NOx_abs="19.211078" fuel_abs="20.063499" electricity_abs="0"
            CO_normed="22.055721" CO2_normed="1458.671447" HC_normed="0.134718" PMx_normed="0.025885" NOx_normed="0.600380" fuel_normed="0.627020" electricity_normed="0"
            traveltime="1.15" CO_perVeh="80.533618" CO2_perVeh="5326.150487" HC_perVeh="0.491904" PMx_perVeh="0.094515" NOx_perVeh="2.192210" fuel_perVeh="2.289481" electricity_perVeh="0"/>
        <edge id=":1105984398_1" sampledSeconds="643.85" CO_abs="11596.633901" CO2_abs="1369625.937736" HC_abs="84.202286" PMx_abs="19.528370" NOx_abs="517.055565" fuel_abs="588.743894" electricity_abs="0"
            CO_normed="350.808624" CO2_normed="41432.418612" HC_normed="2.547195" PMx_normed="0.590751" NOx_normed="15.641397" fuel_normed="17.810033" electricity_normed="0"
            traveltime="0.95" CO_perVeh="17.159331" CO2_perVeh="2026.610945" HC_perVeh="0.124593" PMx_perVeh="0.028896" NOx_perVeh="0.765078" fuel_perVeh="0.871154" electricity_perVeh="0"/>
        <edge id=":1106006327_0" sampledSeconds="65.88" CO_abs="8887.300043" CO2_abs="293253.449786" HC_abs="47.373496" PMx_abs="6.111770" NOx_abs="128.344346" fuel_abs="126.059184" electricity_abs="0"
            CO_normed="378.997961" CO2_normed="12505.762027" HC_normed="2.020238" PMx_normed="0.260636" NOx_normed="5.473231" fuel_normed="5.375780" electricity_normed="0"
            traveltime="2.04" CO_perVeh="275.502881" CO2_perVeh="9090.744079" HC_perVeh="1.468560" PMx_perVeh="0.189463" NOx_perVeh="3.978625" fuel_perVeh="3.907786" electricity_perVeh="0"/>
        <edge id=":1106006327_1" sampledSeconds="680.99" CO_abs="92025.769762" CO2_abs="3079919.250633" HC_abs="491.610933" PMx_abs="64.208752" NOx_abs="1347.710739" fuel_abs="1323.946168" electricity_abs="0"
            CO_normed="3422.287596" CO2_normed="114537.150577" HC_normed="18.282205" PMx_normed="2.387818" NOx_normed="50.119154" fuel_normed="49.235389" electricity_normed="0"
            traveltime="2.29" CO_perVeh="308.908235" CO2_perVeh="10338.543440" HC_perVeh="1.650219" PMx_perVeh="0.215533" NOx_perVeh="4.523939" fuel_perVeh="4.444167" electricity_perVeh="0"/>
        <edge id=":1106006327_2" sampledSeconds="0.00" CO_abs="0" CO2_abs="0" HC_abs="0" PMx_abs="0" NOx_abs="0" fuel_abs="0" electricity_abs="0"
            CO_normed="0" CO2_normed="0" HC_normed="0" PMx_normed="0" NOx_normed="0" fuel_normed="0" electricity_normed="0"/>
        <edge id=":1106006327_3" sampledSeconds="0.00" CO_abs="0" CO2_abs="0" HC_abs="0" PMx_abs="0" NOx_abs="0" fuel_abs="0" electricity_abs="0"
            CO_normed="0" CO2_normed="0" HC_normed="0" PMx_normed="0" NOx_normed="0" fuel_normed="0" electricity_normed="0"/>
        <edge id=":1107381198_0" sampledSeconds="0.00" CO_abs="0" CO2_abs="0" HC_abs="0" PMx_abs="0" NOx_abs="0" fuel_abs="0" electricity_abs="0"
            CO_normed="0" CO2_normed="0" HC_normed="0" PMx_normed="0" NOx_normed="0" fuel_normed="0" electricity_normed="0"/>
        <edge id=":1107381198_1" sampledSeconds="104.27" CO_abs="4495.892489" CO2_abs="181372.633144" HC_abs="24.667094" PMx_abs="3.225963" NOx_abs="75.759873" fuel_abs="77.965611" electricity_abs="0"
            CO_normed="185.245358" CO2_normed="7473.140970" HC_normed="1.016364" PMx_normed="0.132920" NOx_normed="3.121553" fuel_normed="3.212436" electricity_normed="0"
            traveltime="1.56" CO_perVeh="67.312131" CO2_perVeh="2715.496091" HC_perVeh="0.369314" PMx_perVeh="0.048299" NOx_perVeh="1.134271" fuel_perVeh="1.167295" electricity_perVeh="0"/>
        <edge id=":1110338277_0" sampledSeconds="160.47" CO_abs="2465.336104" CO2_abs="300380.637624" HC_abs="18.091247" PMx_abs="4.097140" NOx_abs="112.243120" fuel_abs="129.121066" electricity_abs="0"
            CO_normed="3326.739975" CO2_normed="405335.513167" HC_normed="24.412442" PMx_normed="5.528706" NOx_normed="151.461570" fuel_normed="174.236774" electricity_normed="0"
            traveltime="0.02" CO_perVeh="0.333907" CO2_perVeh="40.683838" HC_perVeh="0.002450" PMx_perVeh="0.000555" NOx_perVeh="0.015202" fuel_perVeh="0.017488" electricity_perVeh="0"/>
        <edge id=":1110338293_0" sampledSeconds="6405.79" CO_abs="596659.653531" CO2_abs="10464334.740259" HC_abs="2961.512786" PMx_abs="249.043909" NOx_abs="4726.747576" fuel_abs="4498.441187" electricity_abs="0"
            CO_normed="751460.520820" CO2_normed="13179262.897051" HC_normed="3729.864970" PMx_normed="313.657316" NOx_normed="5953.082590" fuel_normed="5665.543057" electricity_normed="0"
            traveltime="0.43" CO_perVeh="39.888398" CO2_perVeh="699.570598" HC_perVeh="0.197986" PMx_perVeh="0.016649" NOx_perVeh="0.315997" fuel_perVeh="0.300734" electricity_perVeh="0"/>
        <edge id=":1110338295_0" sampledSeconds="0.00" CO_abs="0" CO2_abs="0" HC_abs="0" PMx_abs="0" NOx_abs="0" fuel_abs="0" electricity_abs="0"
            CO_normed="0" CO2_normed="0" HC_normed="0" PMx_normed="0" NOx_normed="0" fuel_normed="0" electricity_normed="0"/>
        <edge id=":1110673403_0" sampledSeconds="201.18" CO_abs="3390.226660" CO2_abs="395153.682399" HC_abs="24.525991" PMx_abs="5.582668" NOx_abs="149.075251" fuel_abs="169.859850" electricity_abs="0"
            CO_normed="4269.806877" CO2_normed="497674.662970" HC_normed="30.889157" PMx_normed="7.031068" NOx_normed="187.752205" fuel_normed="213.929282" electricity_normed="0"
            traveltime="0.02" CO_perVeh="0.391828" CO2_perVeh="45.670187" HC_perVeh="0.002835" PMx_perVeh="0.000645" NOx_perVeh="0.017229" fuel_perVeh="0.019632" electricity_perVeh="0"/>
        <edge id=":1110673412_0" sampledSeconds="964.22" CO_abs="169765.782472" CO2_abs="11587250.389108" HC_abs="1056.572413" PMx_abs="254.545851" NOx_abs="4979.260149" fuel_abs="4980.788303" electricity_abs="0"
            CO_normed="221183.595682" CO2_normed="15096738.976515" HC_normed="1376.581794" PMx_normed="331.641428" NOx_normed="6487.353620" fuel_normed="6489.344614" electricity_normed="0"
            traveltime="0.02" CO_perVeh="2.743119" CO2_perVeh="187.229791" HC_perVeh="0.017072" PMx_perVeh="0.004113" NOx_perVeh="0.080456" fuel_perVeh="0.080481" electricity_perVeh="0"/>
        <edge id=":1110673414_0" sampledSeconds="0.00" CO_abs="0" CO2_abs="0" HC_abs="0" PMx_abs="0" NOx_abs="0" fuel_abs="0" electricity_abs="0"
            CO_normed="0" CO2_normed="0" HC_normed="0" PMx_normed="0" NOx_normed="0" fuel_normed="0" electricity_normed="0"/>
        <edge id=":1110673414_1" sampledSeconds="240.78" CO_abs="16113.783461" CO2_abs="623916.057139" HC_abs="87.864288" PMx_abs="11.511782" NOx_abs="263.344165" fuel_abs="268.199125" electricity_abs="0"
            CO_normed="674.233808" CO2_normed="26105.929736" HC_normed="3.676422" PMx_normed="0.481677" NOx_normed="11.018861" fuel_normed="11.222002" electricity_normed="0"
            traveltime="1.56" CO_perVeh="104.547748" CO2_perVeh="4048.026266" HC_perVeh="0.570072" PMx_perVeh="0.074690" NOx_perVeh="1.708602" fuel_perVeh="1.740101" electricity_perVeh="0"/>
        <edge id=":1110673417_0" sampledSeconds="29.43" CO_abs="445.504630" CO2_abs="52551.896832" HC_abs="3.234128" PMx_abs="0.715252" NOx_abs="19.669365" fuel_abs="22.589872" electricity_abs="0"
            CO_normed="601.166737" CO2_normed="70913.858626" HC_normed="4.364152" PMx_normed="0.965166" NOx_normed="26.541965" fuel_normed="30.482915" electricity_normed="0"
            traveltime="0.02" CO_perVeh="0.339719" CO2_perVeh="40.073344" HC_perVeh="0.002466" PMx_perVeh="0.000545" NOx_perVeh="0.014999" fuel_perVeh="0.017226" electricity_perVeh="0"/>
        <edge id=":1110673446_0" sampledSeconds="1330.39" CO_abs="12528.612623" CO2_abs="1024810.826979" HC_abs="81.309583" PMx_abs="18.563276" NOx_abs="417.658077" fuel_abs="440.519304" electricity_abs="0"
            CO_normed="15779.109097" CO2_normed="1290693.736749" HC_normed="102.405016" PMx_normed="23.379441" NOx_normed="526.017729" fuel_normed="554.810207" electricity_normed="0"
            traveltime="0.02" CO_perVeh="0.214924" CO2_perVeh="17.580270" HC_perVeh="0.001395" PMx_perVeh="0.000318" NOx_perVeh="0.007165" fuel_perVeh="0.007557" electricity_perVeh="0"/>
        <edge id=":1110673451_0" sampledSeconds="36.95" CO_abs="282.630743" CO2_abs="20043.385625" HC_abs="1.745790" PMx_abs="0.286111" NOx_abs="7.767398" fuel_abs="8.615875" electricity_abs="0"
            CO_normed="395.509016" CO2_normed="28048.398579" HC_normed="2.443031" PMx_normed="0.400380" NOx_normed="10.869574" fuel_normed="12.056920" electricity_normed="0"
            traveltime="0.03" CO_perVeh="0.208236" CO2_perVeh="14.767544" HC_perVeh="0.001286" PMx_perVeh="0.000211" NOx_perVeh="0.005723" fuel_perVeh="0.006348" electricity_perVeh="0"/>
        <edge id=":1110673464_0" sampledSeconds="1030.17" CO_abs="4046.341421" CO2_abs="298507.261094" HC_abs="25.242000" PMx_abs="4.182140" NOx_abs="115.015866" fuel_abs="128.316701" electricity_abs="0"
            CO_normed="108.275097" CO2_normed="7987.685467" HC_normed="0.675445" PMx_normed="0.111909" NOx_normed="3.077682" fuel_normed="3.433596" electricity_normed="0"
            traveltime="1.22" CO_perVeh="4.798395" CO2_perVeh="353.987835" HC_perVeh="0.029933" PMx_perVeh="0.004959" NOx_perVeh="0.136393" fuel_perVeh="0.152166" electricity_perVeh="0"/>
        <edge id=":1110673464_1" sampledSeconds="2600.49" CO_abs="61990.244265" CO2_abs="7767295.412949" HC_abs="466.860005" PMx_abs="137.603793" NOx_abs="2931.526682" fuel_abs="3338.803321" electricity_abs="0"
            CO_normed="1625.399490" CO2_normed="203660.400950" HC_normed="12.241184" PMx_normed="3.608005" NOx_normed="76.865352" fuel_normed="87.544246" electricity_normed="0"
            traveltime="0.72" CO_perVeh="17.093766" CO2_perVeh="2141.826266" HC_perVeh="0.128736" PMx_perVeh="0.037944" NOx_perVeh="0.808366" fuel_perVeh="0.920673" electricity_perVeh="0"/>
        <edge id=":1110673479_0" sampledSeconds="135.04" CO_abs="6166.310512" CO2_abs="420892.825100" HC_abs="37.967009" PMx_abs="7.403642" NOx_abs="172.460340" fuel_abs="180.923547" electricity_abs="0"
            CO_normed="7766.134147" CO2_normed="530091.719269" HC_normed="47.817392" PMx_normed="9.324486" NOx_normed="217.204458" fuel_normed="227.863410" electricity_normed="0"
            traveltime="0.03" CO_perVeh="1.303615" CO2_perVeh="88.980604" HC_perVeh="0.008027" PMx_perVeh="0.001565" NOx_perVeh="0.036460" fuel_perVeh="0.038249" electricity_perVeh="0"/>
        <edge id=":1110673511_0" sampledSeconds="63.28" CO_abs="914.540345" CO2_abs="109789.797244" HC_abs="6.672854" PMx_abs="1.449071" NOx_abs="40.813839" fuel_abs="47.194116" electricity_abs="0"
            CO_normed="1151.814036" CO2_normed="138274.303834" HC_normed="8.404098" PMx_normed="1.825026" NOx_normed="51.402820" fuel_normed="59.438433" electricity_normed="0"
            traveltime="0.02" CO_perVeh="0.350511" CO2_perVeh="42.078491" HC_perVeh="0.002557" PMx_perVeh="0.000555" NOx_perVeh="0.015642" fuel_perVeh="0.018088" electricity_perVeh="0"/>
        <edge id=":1110673517_0" sampledSeconds="182.39" CO_abs="8531.307495" CO2_abs="613391.835969" HC_abs="53.213970" PMx_abs="10.417608" NOx_abs="248.394798" fuel_abs="263.670749" electricity_abs="0"
            CO_normed="10744.719768" CO2_normed="772533.798449" HC_normed="67.020114" PMx_normed="13.120414" NOx_normed="312.839795" fuel_normed="332.079029" electricity_normed="0"
            traveltime="0.03" CO_perVeh="1.306212" CO2_perVeh="93.915255" HC_perVeh="0.008147" PMx_perVeh="0.001595" NOx_perVeh="0.038031" fuel_perVeh="0.040370" electricity_perVeh="0"/>
        <edge id=":1110673534_0" sampledSeconds="737.94" CO_abs="4719.377047" CO2_abs="391397.832513" HC_abs="30.411182" PMx_abs="5.201085" NOx_abs="148.412363" fuel_abs="168.246749" electricity_abs="0"
            CO_normed="115.189919" CO2_normed="9553.185532" HC_normed="0.742272" PMx_normed="0.126947" NOx_normed="3.622429" fuel_normed="4.106544" electricity_normed="0"
            traveltime="1.46" CO_perVeh="9.307406" CO2_perVeh="771.902381" HC_perVeh="0.059976" PMx_perVeh="0.010257" NOx_perVeh="0.292694" fuel_perVeh="0.331811" electricity_perVeh="0"/>
        <edge id=":1110673534_1" sampledSeconds="201.05" CO_abs="2809.411854" CO2_abs="364620.866045" HC_abs="21.127771" PMx_abs="4.870542" NOx_abs="135.164973" fuel_abs="156.735297" electricity_abs="0"
            CO_normed="66.676547" CO2_normed="8653.647632" HC_normed="0.501431" PMx_normed="0.115594" NOx_normed="3.207908" fuel_normed="3.719842" electricity_normed="0"
            traveltime="1.23" CO_perVeh="17.173051" CO2_perVeh="2228.812629" HC_perVeh="0.129147" PMx_perVeh="0.029772" NOx_perVeh="0.826221" fuel_perVeh="0.958074" electricity_perVeh="0"/>
        <edge id=":1110673549_0" sampledSeconds="651.53" CO_abs="1503.235720" CO2_abs="138787.688965" HC_abs="10.017149" PMx_abs="1.962240" NOx_abs="52.707735" fuel_abs="59.659184" electricity_abs="0"
            CO_normed="35.542753" CO2_normed="3281.518987" HC_normed="0.236847" PMx_normed="0.046396" NOx_normed="1.246230" fuel_normed="1.410592" electricity_normed="0"
            traveltime="1.29" CO_perVeh="2.986573" CO2_perVeh="275.738224" HC_perVeh="0.019902" PMx_perVeh="0.003899" NOx_perVeh="0.104718" fuel_perVeh="0.118529" electricity_perVeh="0"/>
        <edge id=":1110673549_1" sampledSeconds="3200.18" CO_abs="72396.527607" CO2_abs="9532811.619823" HC_abs="556.894544" PMx_abs="167.423028" NOx_abs="3562.718910" fuel_abs="4097.719443" electricity_abs="0"
            CO_normed="1655.802163" CO2_normed="218027.723509" HC_normed="12.736898" PMx_normed="3.829181" NOx_normed="81.483987" fuel_normed="93.720140" electricity_normed="0"
            traveltime="0.81" CO_perVeh="18.260937" CO2_perVeh="2404.508540" HC_perVeh="0.140468" PMx_perVeh="0.042230" NOx_perVeh="0.898642" fuel_perVeh="1.033588" electricity_perVeh="0"/>
        <edge id=":1110673556_0" sampledSeconds="467.33" CO_abs="57308.023850" CO2_abs="2750995.922329" HC_abs="326.263952" PMx_abs="55.483664" NOx_abs="1185.785301" fuel_abs="1182.536070" electricity_abs="0"
            CO_normed="1004.775208" CO2_normed="48232.905533" HC_normed="5.720350" PMx_normed="0.972789" NOx_normed="20.790242" fuel_normed="20.733273" electricity_normed="0"
            traveltime="2.75" CO_perVeh="337.825290" CO2_perVeh="16216.856451" HC_perVeh="1.923295" PMx_perVeh="0.327071" NOx_perVeh="6.990090" fuel_perVeh="6.970936" electricity_perVeh="0"/>
        <edge id=":1110673556_2" sampledSeconds="171.20" CO_abs="16631.921702" CO2_abs="728358.043056" HC_abs="92.851245" PMx_abs="14.072360" NOx_abs="310.654452" fuel_abs="313.092245" electricity_abs="0"
            CO_normed="304.905454" CO2_normed="13352.656625" HC_normed="1.702200" PMx_normed="0.257982" NOx_normed="5.695087" fuel_normed="5.739778" electricity_normed="0"
            traveltime="2.96" CO_perVeh="287.589692" CO2_perVeh="12594.351355" HC_perVeh="1.605531" PMx_perVeh="0.243331" NOx_perVeh="5.371659" fuel_perVeh="5.413812" electricity_perVeh="0"/>
        <edge id=":1110673556_3" sampledSeconds="247.78" CO_abs="26419.902556" CO2_abs="911860.843416" HC_abs="141.636733" PMx_abs="18.109740" NOx_abs="393.450709" fuel_abs="391.976721" electricity_abs="0"
            CO_normed="1101.802532" CO2_normed="38027.793026" HC_normed="5.906748" PMx_normed="0.755240" NOx_normed="16.408274" fuel_normed="16.346803" electricity_normed="0"
            traveltime="1.85" CO_perVeh="196.962278" CO2_perVeh="6797.988317" HC_perVeh="1.055912" PMx_perVeh="0.135009" NOx_perVeh="2.933203" fuel_perVeh="2.922215" electricity_perVeh="0"/>
        <edge id=":1110673556_4" sampledSeconds="36.87" CO_abs="4375.598000" CO2_abs="170610.120191" HC_abs="23.939004" PMx_abs="3.410162" NOx_abs="73.650957" fuel_abs="73.338747" electricity_abs="0"
            CO_normed="111.480014" CO2_normed="4346.747272" HC_normed="0.609910" PMx_normed="0.086883" NOx_normed="1.876454" fuel_normed="1.868500" electricity_normed="0"
            traveltime="2.54" CO_perVeh="301.282005" CO2_perVeh="11747.367826" HC_perVeh="1.648321" PMx_perVeh="0.234807" NOx_perVeh="5.071240" fuel_perVeh="5.049743" electricity_perVeh="0"/>
        <edge id=":1110673556_5" sampledSeconds="22.02" CO_abs="1276.963351" CO2_abs="59543.695618" HC_abs="7.207589" PMx_abs="1.104589" NOx_abs="25.109297" fuel_abs="25.595472" electricity_abs="0"
            CO_normed="45.345851" CO2_normed="2114.437781" HC_normed="0.255946" PMx_normed="0.039225" NOx_normed="0.891648" fuel_normed="0.908913" electricity_normed="0"
            traveltime="1.52" CO_perVeh="88.283886" CO2_perVeh="4116.601179" HC_perVeh="0.498302" PMx_perVeh="0.076367" NOx_perVeh="1.735951" fuel_perVeh="1.769564" electricity_perVeh="0"/>
        <edge id=":1110673556_6" sampledSeconds="212.11" CO_abs="25502.891549" CO2_abs="1292943.156350" HC_abs="146.874054" PMx_abs="26.038432" NOx_abs="556.115915" fuel_abs="555.780170" electricity_abs="0"
            CO_normed="458.413569" CO2_normed="23240.607296" HC_normed="2.640056" PMx_normed="0.468040" NOx_normed="9.996164" fuel_normed="9.990129" electricity_normed="0"
            traveltime="2.47" CO_perVeh="297.173225" CO2_perVeh="15066.059730" HC_perVeh="1.711454" PMx_perVeh="0.303414" NOx_perVeh="6.480158" fuel_perVeh="6.476245" electricity_perVeh="0"/>
        <edge id=":1110673561_0" sampledSeconds="163.07" CO_abs="16259.115795" CO2_abs="1151283.747885" HC_abs="101.767483" PMx_abs="23.407091" NOx_abs="488.278206" fuel_abs="494.881946" electricity_abs="0"
            CO_normed="367.199208" CO2_normed="26000.828416" HC_normed="2.298338" PMx_normed="0.528631" NOx_normed="11.027375" fuel_normed="11.176515" electricity_normed="0"
            traveltime="1.20" CO_perVeh="119.796513" CO2_perVeh="8482.612505" HC_perVeh="0.749819" PMx_perVeh="0.172463" NOx_perVeh="3.597614" fuel_perVeh="3.646270" electricity_perVeh="0"/>
        <edge id=":1110673561_1" sampledSeconds="5260.31" CO_abs="484891.691340" CO2_abs="33575272.661811" HC_abs="3020.341277" PMx_abs="701.847967" NOx_abs="14356.097953" fuel_abs="14432.388210" electricity_abs="0"
            CO_normed="10676.482961" CO2_normed="739269.888275" HC_normed="66.502732" PMx_normed="15.453488" NOx_normed="316.096642" fuel_normed="317.776422" electricity_normed="0"
            traveltime="1.19" CO_perVeh="110.135581" CO2_perVeh="7626.099214" HC_perVeh="0.686023" PMx_perVeh="0.159414" NOx_perVeh="3.260764" fuel_perVeh="3.278092" electricity_perVeh="0"/>
        <edge id=":1110673562_0" sampledSeconds="300.85" CO_abs="6703.748399" CO2_abs="516291.445926" HC_abs="42.283350" PMx_abs="6.933462" NOx_abs="196.894034" fuel_abs="221.933900" electricity_abs="0"
            CO_normed="9381.120066" CO2_normed="722490.128640" HC_normed="59.170655" PMx_normed="9.702578" NOx_normed="275.530414" fuel_normed="310.570808" electricity_normed="0"
            traveltime="0.03" CO_perVeh="0.600934" CO2_perVeh="46.281106" HC_perVeh="0.003790" PMx_perVeh="0.000622" NOx_perVeh="0.017650" fuel_perVeh="0.019894" electricity_perVeh="0"/>
        <edge id=":1110673564_0" sampledSeconds="28.12" CO_abs="430.775983" CO2_abs="49182.962399" HC_abs="3.092002" PMx_abs="0.681177" NOx_abs="18.489063" fuel_abs="21.141701" electricity_abs="0"
            CO_normed="1627.617063" CO2_normed="185829.832741" HC_normed="11.682626" PMx_normed="2.573716" NOx_normed="69.857919" fuel_normed="79.880483" electricity_normed="0"
            traveltime="7.943547e-03" CO_perVeh="0.121671" CO2_perVeh="13.891530" HC_perVeh="0.000873" PMx_perVeh="0.000192" NOx_perVeh="0.005222" fuel_perVeh="0.005971" electricity_perVeh="0"/>
        <edge id=":1110673588_0" sampledSeconds="62.52" CO_abs="1223.060587" CO2_abs="128362.282674" HC_abs="8.514393" PMx_abs="1.843740" NOx_abs="48.904125" fuel_abs="55.177542" electricity_abs="0"
            CO_normed="1848.454288" CO2_normed="193998.412102" HC_normed="12.868100" PMx_normed="2.786508" NOx_normed="73.910517" fuel_normed="83.391751" electricity_normed="0"
            traveltime="0.02" CO_perVeh="0.394536" CO2_perVeh="41.407188" HC_perVeh="0.002747" PMx_perVeh="0.000595" NOx_perVeh="0.015776" fuel_perVeh="0.017799" electricity_perVeh="0"/>
        <edge id=":1110673601_0" sampledSeconds="29.20" CO_abs="555.436453" CO2_abs="55777.802675" HC_abs="3.800316" PMx_abs="0.842199" NOx_abs="21.493906" fuel_abs="23.976487" electricity_abs="0"
            CO_normed="749.509427" CO2_normed="75266.916168" HC_normed="5.128170" PMx_normed="1.136468" NOx_normed="29.004011" fuel_normed="32.354021" electricity_normed="0"
            traveltime="0.02" CO_perVeh="0.423547" CO2_perVeh="42.533252" HC_perVeh="0.002898" PMx_perVeh="0.000642" NOx_perVeh="0.016390" fuel_perVeh="0.018283" electricity_perVeh="0"/>
        <edge id=":1110673617_0" sampledSeconds="854.92" CO_abs="33074.477564" CO2_abs="3315565.436113" HC_abs="230.303347" PMx_abs="62.766366" NOx_abs="1303.018887" fuel_abs="1425.206170" electricity_abs="0"
            CO_normed="41655.513305" CO2_normed="4175775.108454" HC_normed="290.054594" PMx_normed="79.050838" NOx_normed="1641.081722" fuel_normed="1794.969987" electricity_normed="0"
            traveltime="0.02" CO_perVeh="0.586132" CO2_perVeh="58.757081" HC_perVeh="0.004081" PMx_perVeh="0.001112" NOx_perVeh="0.023092" fuel_perVeh="0.025257" electricity_perVeh="0"/>
        <edge id=":1110673621_0" sampledSeconds="42.38" CO_abs="991.758687" CO2_abs="98720.424971" HC_abs="6.797429" PMx_abs="1.495590" NOx_abs="38.152412" fuel_abs="42.435677" electricity_abs="0"
            CO_normed="1498.879628" CO2_normed="149199.634716" HC_normed="10.273192" PMx_normed="2.260338" NOx_normed="57.661075" fuel_normed="64.134524" electricity_normed="0"
            traveltime="0.02" CO_perVeh="0.467811" CO2_perVeh="46.566238" HC_perVeh="0.003206" PMx_perVeh="0.000705" NOx_perVeh="0.017996" fuel_perVeh="0.020017" electricity_perVeh="0"/>
        <edge id=":1110673630_0" sampledSeconds="285.38" CO_abs="1181.571464" CO2_abs="108996.591698" HC_abs="7.850134" PMx_abs="1.337349" NOx_abs="40.430143" fuel_abs="46.853483" electricity_abs="0"
            CO_normed="31.842909" CO2_normed="2937.417355" HC_normed="0.211558" PMx_normed="0.036041" NOx_normed="1.089577" fuel_normed="1.262684" electricity_normed="0"
            traveltime="1.28" CO_perVeh="5.316620" CO2_perVeh="490.443034" HC_perVeh="0.035323" PMx_perVeh="0.006018" NOx_perVeh="0.181920" fuel_perVeh="0.210823" electricity_perVeh="0"/>
        <edge id=":1110673630_1" sampledSeconds="338.85" CO_abs="1393.464944" CO2_abs="111328.091317" HC_abs="8.882614" PMx_abs="1.493101" NOx_abs="42.383271" fuel_abs="47.855643" electricity_abs="0"
            CO_normed="45.782443" CO2_normed="3657.696572" HC_normed="0.291839" PMx_normed="0.049056" NOx_normed="1.392507" fuel_normed="1.572302" electricity_normed="0"
            traveltime="1.08" CO_perVeh="4.442094" CO2_perVeh="354.892198" HC_perVeh="0.028316" PMx_perVeh="0.004760" NOx_perVeh="0.135110" fuel_perVeh="0.152554" electricity_perVeh="0"/>
        <edge id=":1110673650_0" sampledSeconds="200.49" CO_abs="2835.668095" CO2_abs="365405.406264" HC_abs="21.220111" PMx_abs="4.919635" NOx_abs="135.769119" fuel_abs="157.072480" electricity_abs="0"
            CO_normed="3571.370396" CO2_normed="460208.320231" HC_normed="26.725580" PMx_normed="6.196014" NOx_normed="170.993853" fuel_normed="197.824282" electricity_normed="0"
            traveltime="0.02" CO_perVeh="0.327735" CO2_perVeh="42.232045" HC_perVeh="0.002453" PMx_perVeh="0.000569" NOx_perVeh="0.015692" fuel_perVeh="0.018154" electricity_perVeh="0"/>
        <edge id=":1110673655_0" sampledSeconds="20.77" CO_abs="344.536257" CO2_abs="42220.533342" HC_abs="2.525559" PMx_abs="0.560947" NOx_abs="15.690116" fuel_abs="18.148859" electricity_abs="0"
            CO_normed="433.924757" CO2_normed="53174.475242" HC_normed="3.180805" PMx_normed="0.706483" NOx_normed="19.760851" fuel_normed="22.857506" electricity_normed="0"
            traveltime="0.02" CO_perVeh="0.393606" CO2_perVeh="48.233663" HC_perVeh="0.002885" PMx_perVeh="0.000641" NOx_perVeh="0.017925" fuel_perVeh="0.020734" electricity_perVeh="0"/>
        <edge id=":1110673663_0" sampledSeconds="178.13" CO_abs="3304.922217" CO2_abs="359340.394079" HC_abs="23.275145" PMx_abs="5.172163" NOx_abs="136.564227" fuel_abs="154.465228" electricity_abs="0"
            CO_normed="76.233893" CO2_normed="8288.823550" HC_normed="0.536882" PMx_normed="0.119305" NOx_normed="3.150096" fuel_normed="3.563014" electricity_normed="0"
            traveltime="1.30" CO_perVeh="24.169618" CO2_perVeh="2627.934732" HC_perVeh="0.170216" PMx_perVeh="0.037825" NOx_perVeh="0.998724" fuel_perVeh="1.129638" electricity_perVeh="0"/>
        <edge id=":1110673663_1" sampledSeconds="170.70" CO_abs="2661.119984" CO2_abs="340921.112980" HC_abs="19.881006" PMx_abs="4.560032" NOx_abs="126.540655" fuel_abs="146.547764" electricity_abs="0"
            CO_normed="61.458493" CO2_normed="7873.563792" HC_normed="0.459151" PMx_normed="0.105314" NOx_normed="2.922453" fuel_normed="3.384517" electricity_normed="0"
            traveltime="1.27" CO_perVeh="19.852568" CO2_perVeh="2543.350073" HC_perVeh="0.148317" PMx_perVeh="0.034019" NOx_perVeh="0.944022" fuel_perVeh="1.093280" electricity_perVeh="0"/>