<?xml version="1.0" encoding="UTF-8"?>

<!-- generated on Tue Nov 10 16:50:41 2020 by Eclipse SUMO sumo Version 1.7.0
<configuration xmlns:xsi="http://www.w3.org/2001/XMLSchema-instance" xsi:noNamespaceSchemaLocation="http://sumo.dlr.de/xsd/sumoConfiguration.xsd">

    <input>
        <net-file value="../dataSets/Porto/8AM9AM_Routing_SaoBento/Porto.net.xml"/>
        <route-files value="../results/Porto/8AM9AM_Routing_SaoBento/cost_PMx-cost_co/solution6/Porto.rou.xml"/>
        <additional-files value="moreOutputInfo.xml"/>
    </input>

    <output>
        <emission-output.precision value="6"/>
        <tripinfo-output value="../results/Porto/8AM9AM_Routing_SaoBento/cost_PMx-cost_co/solution6/Porto-tripinfo"/>
    </output>

    <processing>
        <collision.action value="warn"/>
        <time-to-teleport value="-1"/>
    </processing>

    <emissions>
        <device.emissions.probability value="1"/>
    </emissions>

    <gui_only>
        <quit-on-end value="true"/>
        <start value="true"/>
    </gui_only>

</configuration>
-->

<meandata xmlns:xsi="http://www.w3.org/2001/XMLSchema-instance" xsi:noNamespaceSchemaLocation="http://sumo.dlr.de/xsd/meandata_file.xsd">
    <interval begin="0.00" end="9798.00" id="emissions-detector">
        <edge id=":1092997347_0" sampledSeconds="595.89" CO_abs="72316.302615" CO2_abs="3077565.831243" HC_abs="402.064976" PMx_abs="62.159394" NOx_abs="1330.999808" fuel_abs="1322.921057" electricity_abs="0"
            CO_normed="60387.715817" CO2_normed="2569920.807696" HC_normed="335.744287" PMx_normed="51.906191" NOx_normed="1111.451156" fuel_normed="1104.704997" electricity_normed="0"
            traveltime="0.07" CO_perVeh="8.286016" CO2_perVeh="352.628086" HC_perVeh="0.046069" PMx_perVeh="0.007122" NOx_perVeh="0.152506" fuel_perVeh="0.151581" electricity_perVeh="0"/>
        <edge id=":1103427051_0" sampledSeconds="19.32" CO_abs="1527.553479" CO2_abs="86744.631670" HC_abs="9.008488" PMx_abs="1.664342" NOx_abs="36.758094" fuel_abs="37.287725" electricity_abs="0"
            CO_normed="1935.367712" CO2_normed="109903.032291" HC_normed="11.413503" PMx_normed="2.108675" NOx_normed="46.571482" fuel_normed="47.242509" electricity_normed="0"
            traveltime="0.03" CO_perVeh="2.375539" CO2_perVeh="134.898880" HC_perVeh="0.014009" PMx_perVeh="0.002588" NOx_perVeh="0.057163" fuel_perVeh="0.057987" electricity_perVeh="0"/>
        <edge id=":1105984386_0" sampledSeconds="39.48" CO_abs="739.452765" CO2_abs="53634.264222" HC_abs="4.595932" PMx_abs="0.769317" NOx_abs="20.821185" fuel_abs="23.055271" electricity_abs="0"
            CO_normed="27.980552" CO2_normed="2029.495828" HC_normed="0.173908" PMx_normed="0.029111" NOx_normed="0.787864" fuel_normed="0.872401" electricity_normed="0"
            traveltime="0.98" CO_perVeh="18.390672" CO2_perVeh="1333.919127" HC_perVeh="0.114304" PMx_perVeh="0.019133" NOx_perVeh="0.517836" fuel_perVeh="0.573400" electricity_perVeh="0"/>
        <edge id=":1105984390_0" sampledSeconds="40.02" CO_abs="31.427094" CO2_abs="2616.633712" HC_abs="0.201293" PMx_abs="0.027365" NOx_abs="0.946250" fuel_abs="1.124800" electricity_abs="0"
            CO_normed="0.919347" CO2_normed="76.545270" HC_normed="0.005888" PMx_normed="0.000801" NOx_normed="0.027681" fuel_normed="0.032904" electricity_normed="0"
            traveltime="1.08" CO_perVeh="0.844568" CO2_perVeh="70.319135" HC_perVeh="0.005410" PMx_perVeh="0.000735" NOx_perVeh="0.025429" fuel_perVeh="0.030228" electricity_perVeh="0"/>
        <edge id=":1105984390_1" sampledSeconds="2399.48" CO_abs="63036.431518" CO2_abs="7479348.973983" HC_abs="465.094218" PMx_abs="135.032934" NOx_abs="2845.868245" fuel_abs="3215.026687" electricity_abs="0"
            CO_normed="1763.973106" CO2_normed="209297.546201" HC_normed="13.014913" PMx_normed="3.778679" NOx_normed="79.637044" fuel_normed="89.967349" electricity_normed="0"
            traveltime="0.65" CO_perVeh="17.022251" CO2_perVeh="2019.710753" HC_perVeh="0.125593" PMx_perVeh="0.036464" NOx_perVeh="0.768493" fuel_perVeh="0.868180" electricity_perVeh="0"/>
        <edge id=":1105984395_0" sampledSeconds="15.57" CO_abs="312.331922" CO2_abs="23921.224490" HC_abs="1.962469" PMx_abs="0.298061" NOx_abs="8.971591" fuel_abs="10.282854" electricity_abs="0"
            CO_normed="124.736517" CO2_normed="9553.459020" HC_normed="0.783755" PMx_normed="0.119037" NOx_normed="3.582999" fuel_normed="4.106681" electricity_normed="0"
            traveltime="0.09" CO_perVeh="1.876970" CO2_perVeh="143.755481" HC_perVeh="0.011794" PMx_perVeh="0.001791" NOx_perVeh="0.053915" fuel_perVeh="0.061795" electricity_perVeh="0"/>
        <edge id=":1105984398_0" sampledSeconds="39.40" CO_abs="2720.825979" CO2_abs="185137.675854" HC_abs="16.763830" PMx_abs="3.379796" NOx_abs="76.669546" fuel_abs="79.582465" electricity_abs="0"
            CO_normed="82.687437" CO2_normed="5626.438449" HC_normed="0.509462" PMx_normed="0.102714" NOx_normed="2.330031" fuel_normed="2.418556" electricity_normed="0"
            traveltime="1.11" CO_perVeh="76.825804" CO2_perVeh="5227.585617" HC_perVeh="0.473347" PMx_perVeh="0.095433" NOx_perVeh="2.164857" fuel_perVeh="2.247107" electricity_perVeh="0"/>
        <edge id=":1105984398_1" sampledSeconds="648.61" CO_abs="11507.852958" CO2_abs="1364842.589915" HC_abs="83.783740" PMx_abs="19.395420" NOx_abs="514.915278" fuel_abs="586.687805" electricity_abs="0"
            CO_normed="338.529821" CO2_normed="40149.967075" HC_normed="2.464690" PMx_normed="0.570561" NOx_normed="15.147411" fuel_normed="17.258764" electricity_normed="0"
            traveltime="0.95" CO_perVeh="16.933280" CO2_perVeh="2008.303547" HC_perVeh="0.123284" PMx_perVeh="0.028539" NOx_perVeh="0.757674" fuel_perVeh="0.863284" electricity_perVeh="0"/>
        <edge id=":1106006327_0" sampledSeconds="69.28" CO_abs="9334.661701" CO2_abs="297354.017372" HC_abs="49.499136" PMx_abs="6.204894" NOx_abs="130.160097" fuel_abs="127.822140" electricity_abs="0"
            CO_normed="387.106022" CO2_normed="12331.194676" HC_normed="2.052716" PMx_normed="0.257315" NOx_normed="5.397706" fuel_normed="5.300751" electricity_normed="0"
            traveltime="2.15" CO_perVeh="289.370920" CO2_perVeh="9217.860096" HC_perVeh="1.534454" PMx_perVeh="0.192349" NOx_perVeh="4.034913" fuel_perVeh="3.962437" electricity_perVeh="0"/>
        <edge id=":1106006327_1" sampledSeconds="683.10" CO_abs="92775.221256" CO2_abs="3103302.878146" HC_abs="495.599850" PMx_abs="64.827060" NOx_abs="1358.681070" fuel_abs="1333.997801" electricity_abs="0"
            CO_normed="3355.083680" CO2_normed="112226.526639" HC_normed="17.922662" PMx_normed="2.344378" NOx_normed="49.134765" fuel_normed="48.242130" electricity_normed="0"
            traveltime="2.29" CO_perVeh="311.423962" CO2_perVeh="10417.036618" HC_perVeh="1.663609" PMx_perVeh="0.217609" NOx_perVeh="4.560763" fuel_perVeh="4.477908" electricity_perVeh="0"/>
        <edge id=":1106006327_2" sampledSeconds="0.00" CO_abs="0" CO2_abs="0" HC_abs="0" PMx_abs="0" NOx_abs="0" fuel_abs="0" electricity_abs="0"
            CO_normed="0" CO2_normed="0" HC_normed="0" PMx_normed="0" NOx_normed="0" fuel_normed="0" electricity_normed="0"/>
        <edge id=":1106006327_3" sampledSeconds="0.00" CO_abs="0" CO2_abs="0" HC_abs="0" PMx_abs="0" NOx_abs="0" fuel_abs="0" electricity_abs="0"
            CO_normed="0" CO2_normed="0" HC_normed="0" PMx_normed="0" NOx_normed="0" fuel_normed="0" electricity_normed="0"/>
        <edge id=":1107381198_0" sampledSeconds="0.00" CO_abs="0" CO2_abs="0" HC_abs="0" PMx_abs="0" NOx_abs="0" fuel_abs="0" electricity_abs="0"
            CO_normed="0" CO2_normed="0" HC_normed="0" PMx_normed="0" NOx_normed="0" fuel_normed="0" electricity_normed="0"/>
        <edge id=":1107381198_1" sampledSeconds="104.07" CO_abs="4987.878777" CO2_abs="194784.529595" HC_abs="27.188875" PMx_abs="3.342135" NOx_abs="80.584313" fuel_abs="83.731228" electricity_abs="0"
            CO_normed="199.853436" CO2_normed="7804.591756" HC_normed="1.089399" PMx_normed="0.133912" NOx_normed="3.228838" fuel_normed="3.354928" electricity_normed="0"
            traveltime="1.56" CO_perVeh="74.678109" CO2_perVeh="2916.297898" HC_perVeh="0.407070" PMx_perVeh="0.050038" NOx_perVeh="1.206502" fuel_perVeh="1.253617" electricity_perVeh="0"/>
        <edge id=":1110338277_0" sampledSeconds="160.63" CO_abs="2304.740419" CO2_abs="291167.482225" HC_abs="17.155942" PMx_abs="3.881226" NOx_abs="108.155980" fuel_abs="125.160791" electricity_abs="0"
            CO_normed="3024.329130" CO2_normed="382076.129243" HC_normed="22.512389" PMx_normed="5.093027" NOx_normed="141.924565" fuel_normed="164.238638" electricity_normed="0"
            traveltime="0.02" CO_perVeh="0.312155" CO2_perVeh="39.435840" HC_perVeh="0.002324" PMx_perVeh="0.000526" NOx_perVeh="0.014649" fuel_perVeh="0.016952" electricity_perVeh="0"/>
        <edge id=":1110338293_0" sampledSeconds="6278.44" CO_abs="560155.641893" CO2_abs="9869968.641257" HC_abs="2781.396462" PMx_abs="234.492511" NOx_abs="4455.819713" fuel_abs="4242.931581" electricity_abs="0"
            CO_normed="686044.876783" CO2_normed="12088142.855183" HC_normed="3406.486787" PMx_normed="287.192297" NOx_normed="5457.219489" fuel_normed="5196.486934" electricity_normed="0"
            traveltime="0.42" CO_perVeh="37.431841" CO2_perVeh="659.550794" HC_perVeh="0.185864" PMx_perVeh="0.015670" NOx_perVeh="0.297756" fuel_perVeh="0.283530" electricity_perVeh="0"/>
        <edge id=":1110338295_0" sampledSeconds="0.00" CO_abs="0" CO2_abs="0" HC_abs="0" PMx_abs="0" NOx_abs="0" fuel_abs="0" electricity_abs="0"
            CO_normed="0" CO2_normed="0" HC_normed="0" PMx_normed="0" NOx_normed="0" fuel_normed="0" electricity_normed="0"/>
        <edge id=":1110673403_0" sampledSeconds="208.22" CO_abs="3053.395274" CO2_abs="382130.195733" HC_abs="22.559550" PMx_abs="5.174810" NOx_abs="142.323900" fuel_abs="164.261775" electricity_abs="0"
            CO_normed="3739.614543" CO2_normed="468010.037640" HC_normed="27.629578" PMx_normed="6.337796" NOx_normed="174.309736" fuel_normed="201.177924" electricity_normed="0"
            traveltime="0.02" CO_perVeh="0.339681" CO2_perVeh="42.510868" HC_perVeh="0.002510" PMx_perVeh="0.000576" NOx_perVeh="0.015833" fuel_perVeh="0.018274" electricity_perVeh="0"/>
        <edge id=":1110673412_0" sampledSeconds="939.13" CO_abs="166547.242541" CO2_abs="11364310.507191" HC_abs="1036.499634" PMx_abs="249.789192" NOx_abs="4884.069823" fuel_abs="4884.957285" electricity_abs="0"
            CO_normed="211010.717581" CO2_normed="14398264.890754" HC_normed="1313.216167" PMx_normed="316.475950" NOx_normed="6187.980434" fuel_normed="6189.104823" electricity_normed="0"
            traveltime="0.02" CO_perVeh="2.753800" CO2_perVeh="187.904867" HC_perVeh="0.017138" PMx_perVeh="0.004130" NOx_perVeh="0.080756" fuel_perVeh="0.080771" electricity_perVeh="0"/>
        <edge id=":1110673414_0" sampledSeconds="0.00" CO_abs="0" CO2_abs="0" HC_abs="0" PMx_abs="0" NOx_abs="0" fuel_abs="0" electricity_abs="0"
            CO_normed="0" CO2_normed="0" HC_normed="0" PMx_normed="0" NOx_normed="0" fuel_normed="0" electricity_normed="0"/>
        <edge id=":1110673414_1" sampledSeconds="292.20" CO_abs="18388.744655" CO2_abs="725871.883017" HC_abs="100.581023" PMx_abs="13.279164" NOx_abs="305.588824" fuel_abs="312.026149" electricity_abs="0"
            CO_normed="748.220146" CO2_normed="29535.021373" HC_normed="4.092544" PMx_normed="0.540316" NOx_normed="12.434112" fuel_normed="12.696041" electricity_normed="0"
            traveltime="1.53" CO_perVeh="96.400792" CO2_perVeh="3805.296432" HC_perVeh="0.527284" PMx_perVeh="0.069614" NOx_perVeh="1.602013" fuel_perVeh="1.635760" electricity_perVeh="0"/>
        <edge id=":1110673417_0" sampledSeconds="28.97" CO_abs="465.219860" CO2_abs="58328.896957" HC_abs="3.462075" PMx_abs="0.774396" NOx_abs="21.649386" fuel_abs="25.073176" electricity_abs="0"
            CO_normed="610.471342" CO2_normed="76540.412418" HC_normed="4.543008" PMx_normed="1.016179" NOx_normed="28.408782" fuel_normed="32.901552" electricity_normed="0"
            traveltime="0.02" CO_perVeh="0.354752" CO2_perVeh="44.478584" HC_perVeh="0.002640" PMx_perVeh="0.000591" NOx_perVeh="0.016509" fuel_perVeh="0.019120" electricity_perVeh="0"/>
        <edge id=":1110673446_0" sampledSeconds="1312.92" CO_abs="14021.736505" CO2_abs="1136989.907023" HC_abs="90.835076" PMx_abs="20.893863" NOx_abs="465.256933" fuel_abs="488.739617" electricity_abs="0"
            CO_normed="17172.977961" CO2_normed="1392516.726299" HC_normed="111.249327" PMx_normed="25.589544" NOx_normed="569.818656" fuel_normed="598.578832" electricity_normed="0"
            traveltime="0.02" CO_perVeh="0.243382" CO2_perVeh="19.735312" HC_perVeh="0.001577" PMx_perVeh="0.000363" NOx_perVeh="0.008076" fuel_perVeh="0.008483" electricity_perVeh="0"/>
        <edge id=":1110673451_0" sampledSeconds="36.74" CO_abs="394.709748" CO2_abs="27120.050392" HC_abs="2.417256" PMx_abs="0.386541" NOx_abs="10.532148" fuel_abs="11.657868" electricity_abs="0"
            CO_normed="537.129683" CO2_normed="36905.559491" HC_normed="3.289455" PMx_normed="0.526014" NOx_normed="14.332379" fuel_normed="15.864282" electricity_normed="0"
            traveltime="0.03" CO_perVeh="0.290814" CO2_perVeh="19.981481" HC_perVeh="0.001781" PMx_perVeh="0.000285" NOx_perVeh="0.007760" fuel_perVeh="0.008589" electricity_perVeh="0"/>
        <edge id=":1110673464_0" sampledSeconds="1035.61" CO_abs="4843.741933" CO2_abs="330414.013137" HC_abs="29.614269" PMx_abs="4.933710" NOx_abs="129.692859" fuel_abs="142.031975" electricity_abs="0"
            CO_normed="126.040862" CO2_normed="8597.829465" HC_normed="0.770604" PMx_normed="0.128382" NOx_normed="3.374788" fuel_normed="3.695868" electricity_normed="0"
            traveltime="1.23" CO_perVeh="5.744000" CO2_perVeh="391.824777" HC_perVeh="0.035118" PMx_perVeh="0.005851" NOx_perVeh="0.153798" fuel_perVeh="0.168430" electricity_perVeh="0"/>
        <edge id=":1110673464_1" sampledSeconds="2627.27" CO_abs="62580.566173" CO2_abs="7689222.611862" HC_abs="467.601233" PMx_abs="136.792760" NOx_abs="2911.078109" fuel_abs="3305.243006" electricity_abs="0"
            CO_normed="1595.660788" CO2_normed="196057.526524" HC_normed="11.922758" PMx_normed="3.487901" NOx_normed="74.225810" fuel_normed="84.276110" electricity_normed="0"
            traveltime="0.72" CO_perVeh="17.128628" CO2_perVeh="2104.580374" HC_perVeh="0.127985" PMx_perVeh="0.037441" NOx_perVeh="0.796777" fuel_perVeh="0.904662" electricity_perVeh="0"/>
        <edge id=":1110673479_0" sampledSeconds="134.72" CO_abs="6238.149296" CO2_abs="426925.754915" HC_abs="38.438579" PMx_abs="7.501799" NOx_abs="174.864418" fuel_abs="183.516842" electricity_abs="0"
            CO_normed="7640.109364" CO2_normed="522872.939272" HC_normed="47.077256" PMx_normed="9.187751" NOx_normed="214.163403" fuel_normed="224.760370" electricity_normed="0"
            traveltime="0.03" CO_perVeh="1.318801" CO2_perVeh="90.255965" HC_perVeh="0.008126" PMx_perVeh="0.001586" NOx_perVeh="0.036968" fuel_perVeh="0.038797" electricity_perVeh="0"/>
        <edge id=":1110673511_0" sampledSeconds="63.99" CO_abs="1116.324633" CO2_abs="116374.940364" HC_abs="7.763589" PMx_abs="1.655852" NOx_abs="44.253443" fuel_abs="50.024719" electricity_abs="0"
            CO_normed="1367.207144" CO2_normed="142529.014530" HC_normed="9.508376" PMx_normed="2.027988" NOx_normed="54.198950" fuel_normed="61.267262" electricity_normed="0"
            traveltime="0.02" CO_perVeh="0.427847" CO2_perVeh="44.602341" HC_perVeh="0.002976" PMx_perVeh="0.000635" NOx_perVeh="0.016961" fuel_perVeh="0.019173" electricity_perVeh="0"/>
        <edge id=":1110673517_0" sampledSeconds="182.11" CO_abs="8340.642973" CO2_abs="600839.083166" HC_abs="52.067084" PMx_abs="10.276031" NOx_abs="243.707899" fuel_abs="258.274744" electricity_abs="0"
            CO_normed="10215.116929" CO2_normed="735871.504184" HC_normed="63.768627" PMx_normed="12.585463" NOx_normed="298.478749" fuel_normed="316.319344" electricity_normed="0"
            traveltime="0.03" CO_perVeh="1.277032" CO2_perVeh="91.994173" HC_perVeh="0.007972" PMx_perVeh="0.001573" NOx_perVeh="0.037314" fuel_perVeh="0.039544" electricity_perVeh="0"/>
        <edge id=":1110673534_0" sampledSeconds="658.56" CO_abs="4567.938103" CO2_abs="377245.697248" HC_abs="29.439833" PMx_abs="5.226073" NOx_abs="144.403245" fuel_abs="162.162988" electricity_abs="0"
            CO_normed="108.421227" CO2_normed="8954.027097" HC_normed="0.698762" PMx_normed="0.124042" NOx_normed="3.427449" fuel_normed="3.848982" electricity_normed="0"
            traveltime="1.45" CO_perVeh="10.044216" CO2_perVeh="829.507133" HC_perVeh="0.064734" PMx_perVeh="0.011491" NOx_perVeh="0.317521" fuel_perVeh="0.356572" electricity_perVeh="0"/>
        <edge id=":1110673534_1" sampledSeconds="297.01" CO_abs="4747.783966" CO2_abs="603845.581252" HC_abs="35.414262" PMx_abs="8.134179" NOx_abs="224.560550" fuel_abs="259.567967" electricity_abs="0"
            CO_normed="109.575371" CO2_normed="13936.313101" HC_normed="0.817335" PMx_normed="0.187731" NOx_normed="5.182693" fuel_normed="5.990638" electricity_normed="0"
            traveltime="1.23" CO_perVeh="19.659868" CO2_perVeh="2500.434803" HC_perVeh="0.146645" PMx_perVeh="0.033682" NOx_perVeh="0.929872" fuel_perVeh="1.074832" electricity_perVeh="0"/>
        <edge id=":1110673549_0" sampledSeconds="654.23" CO_abs="1676.516317" CO2_abs="140700.044926" HC_abs="10.851693" PMx_abs="2.187825" NOx_abs="54.793703" fuel_abs="60.481042" electricity_abs="0"
            CO_normed="38.547487" CO2_normed="3235.061392" HC_normed="0.249509" PMx_normed="0.050304" NOx_normed="1.259850" fuel_normed="1.390617" electricity_normed="0"
            traveltime="1.30" CO_perVeh="3.330838" CO2_perVeh="279.537440" HC_perVeh="0.021560" PMx_perVeh="0.004347" NOx_perVeh="0.108862" fuel_perVeh="0.120161" electricity_perVeh="0"/>
        <edge id=":1110673549_1" sampledSeconds="3197.62" CO_abs="69398.939824" CO2_abs="9149952.465881" HC_abs="534.324000" PMx_abs="160.666652" NOx_abs="3419.137589" fuel_abs="3933.145855" electricity_abs="0"
            CO_normed="1543.504353" CO2_normed="203504.426690" HC_normed="11.883920" PMx_normed="3.573393" NOx_normed="76.045164" fuel_normed="87.477240" electricity_normed="0"
            traveltime="0.81" CO_perVeh="17.502272" CO2_perVeh="2307.599504" HC_perVeh="0.134755" PMx_perVeh="0.040520" NOx_perVeh="0.862300" fuel_perVeh="0.991931" electricity_perVeh="0"/>
        <edge id=":1110673556_0" sampledSeconds="473.01" CO_abs="57840.995295" CO2_abs="2750515.594062" HC_abs="328.677567" PMx_abs="55.572341" NOx_abs="1186.494038" fuel_abs="1182.329883" electricity_abs="0"
            CO_normed="986.174000" CO2_normed="46895.579043" HC_normed="5.603867" PMx_normed="0.947494" NOx_normed="20.229416" fuel_normed="20.158419" electricity_normed="0"
            traveltime="2.79" CO_perVeh="340.967106" CO2_perVeh="16214.024962" HC_perVeh="1.937523" PMx_perVeh="0.327594" NOx_perVeh="6.994268" fuel_perVeh="6.969721" electricity_perVeh="0"/>
        <edge id=":1110673556_2" sampledSeconds="177.92" CO_abs="17935.687936" CO2_abs="758800.739613" HC_abs="99.506942" PMx_abs="14.786535" NOx_abs="324.595411" fuel_abs="326.178667" electricity_abs="0"
            CO_normed="319.745995" CO2_normed="13527.415177" HC_normed="1.773946" PMx_normed="0.263605" NOx_normed="5.786680" fuel_normed="5.814905" electricity_normed="0"
            traveltime="3.08" CO_perVeh="310.133674" CO2_perVeh="13120.749080" HC_perVeh="1.720617" PMx_perVeh="0.255680" NOx_perVeh="5.612718" fuel_perVeh="5.640095" electricity_perVeh="0"/>
        <edge id=":1110673556_3" sampledSeconds="202.09" CO_abs="21153.031177" CO2_abs="728339.148097" HC_abs="113.373438" PMx_abs="14.539916" NOx_abs="314.740919" fuel_abs="313.087165" electricity_abs="0"
            CO_normed="857.846290" CO2_normed="29537.281487" HC_normed="4.597780" PMx_normed="0.589656" NOx_normed="12.764096" fuel_normed="12.697030" electricity_normed="0"
            traveltime="1.87" CO_perVeh="195.455898" CO2_perVeh="6729.918799" HC_perVeh="1.047581" PMx_perVeh="0.134350" NOx_perVeh="2.908234" fuel_perVeh="2.892953" electricity_perVeh="0"/>
        <edge id=":1110673556_4" sampledSeconds="14.58" CO_abs="1882.920613" CO2_abs="70426.502054" HC_abs="10.234604" PMx_abs="1.438542" NOx_abs="30.610166" fuel_abs="30.273670" electricity_abs="0"
            CO_normed="46.650459" CO2_normed="1744.857775" HC_normed="0.253568" PMx_normed="0.035641" NOx_normed="0.758385" fuel_normed="0.750048" electricity_normed="0"
            traveltime="2.76" CO_perVeh="356.533614" CO2_perVeh="13335.355279" HC_perVeh="1.937936" PMx_perVeh="0.272390" NOx_perVeh="5.796077" fuel_perVeh="5.732361" electricity_perVeh="0"/>
        <edge id=":1110673556_5" sampledSeconds="21.79" CO_abs="1242.386894" CO2_abs="57236.894264" HC_abs="6.977786" PMx_abs="0.967570" NOx_abs="23.511768" fuel_abs="24.604028" electricity_abs="0"
            CO_normed="42.902273" CO2_normed="1976.512194" HC_normed="0.240958" PMx_normed="0.033412" NOx_normed="0.811912" fuel_normed="0.849630" electricity_normed="0"
            traveltime="1.51" CO_perVeh="85.893415" CO2_perVeh="3957.118616" HC_perVeh="0.482415" PMx_perVeh="0.066894" NOx_perVeh="1.625505" fuel_perVeh="1.701019" electricity_perVeh="0"/>
        <edge id=":1110673556_6" sampledSeconds="218.37" CO_abs="26626.936337" CO2_abs="1324475.060860" HC_abs="152.736626" PMx_abs="26.747163" NOx_abs="570.450252" fuel_abs="569.334654" electricity_abs="0"
            CO_normed="465.429122" CO2_normed="23151.340324" HC_normed="2.669780" PMx_normed="0.467531" NOx_normed="9.971262" fuel_normed="9.951762" electricity_normed="0"
            traveltime="2.54" CO_perVeh="310.271191" CO2_perVeh="15433.486213" HC_perVeh="1.779768" PMx_perVeh="0.311672" NOx_perVeh="6.647189" fuel_perVeh="6.634189" electricity_perVeh="0"/>
        <edge id=":1110673561_0" sampledSeconds="102.70" CO_abs="9452.209577" CO2_abs="686849.814748" HC_abs="59.556390" PMx_abs="13.715243" NOx_abs="289.347796" fuel_abs="295.244166" electricity_abs="0"
            CO_normed="207.588106" CO2_normed="15084.499679" HC_normed="1.307969" PMx_normed="0.301212" NOx_normed="6.354616" fuel_normed="6.484111" electricity_normed="0"
            traveltime="1.21" CO_perVeh="111.545247" CO2_perVeh="8105.494470" HC_perVeh="0.702823" PMx_perVeh="0.161853" NOx_perVeh="3.414585" fuel_perVeh="3.484168" electricity_perVeh="0"/>
        <edge id=":1110673561_1" sampledSeconds="5192.40" CO_abs="482773.416391" CO2_abs="33510452.928798" HC_abs="3008.995373" PMx_abs="699.673586" NOx_abs="14320.565833" fuel_abs="14404.525832" electricity_abs="0"
            CO_normed="10336.919403" CO2_normed="717510.201071" HC_normed="64.427207" PMx_normed="14.981085" NOx_normed="306.625282" fuel_normed="308.422994" electricity_normed="0"
            traveltime="1.19" CO_perVeh="110.894360" CO2_perVeh="7697.441684" HC_perVeh="0.691174" PMx_perVeh="0.160717" NOx_perVeh="3.289473" fuel_perVeh="3.308759" electricity_perVeh="0"/>
        <edge id=":1110673562_0" sampledSeconds="301.17" CO_abs="6785.731235" CO2_abs="516114.686153" HC_abs="42.691892" PMx_abs="7.155544" NOx_abs="198.374183" fuel_abs="221.857636" electricity_abs="0"
            CO_normed="9234.171920" CO2_normed="702340.186641" HC_normed="58.096063" PMx_normed="9.737422" NOx_normed="269.951939" fuel_normed="301.908738" electricity_normed="0"
            traveltime="0.03" CO_perVeh="0.608283" CO2_perVeh="46.265261" HC_perVeh="0.003827" PMx_perVeh="0.000641" NOx_perVeh="0.017783" fuel_perVeh="0.019888" electricity_perVeh="0"/>
        <edge id=":1110673564_0" sampledSeconds="27.77" CO_abs="581.147988" CO2_abs="60870.375331" HC_abs="4.058600" PMx_abs="0.887587" NOx_abs="23.258422" fuel_abs="26.165597" electricity_abs="0"
            CO_normed="2135.265112" CO2_normed="223651.103484" HC_normed="14.912187" PMx_normed="3.261190" NOx_normed="85.456540" fuel_normed="96.138140" electricity_normed="0"
            traveltime="7.844327e-03" CO_perVeh="0.164143" CO2_perVeh="17.192593" HC_perVeh="0.001146" PMx_perVeh="0.000251" NOx_perVeh="0.006569" fuel_perVeh="0.007390" electricity_perVeh="0"/>
        <edge id=":1110673588_0" sampledSeconds="62.91" CO_abs="1196.174819" CO2_abs="128125.572482" HC_abs="8.407945" PMx_abs="1.845162" NOx_abs="48.773928" fuel_abs="55.075773" electricity_abs="0"
            CO_normed="1758.003408" CO2_normed="188304.576826" HC_normed="12.357053" PMx_normed="2.711812" NOx_normed="71.682442" fuel_normed="80.944185" electricity_normed="0"
            traveltime="0.02" CO_perVeh="0.385863" CO2_perVeh="41.330830" HC_perVeh="0.002712" PMx_perVeh="0.000595" NOx_perVeh="0.015734" fuel_perVeh="0.017766" electricity_perVeh="0"/>
        <edge id=":1110673601_0" sampledSeconds="29.07" CO_abs="622.544421" CO2_abs="65455.176303" HC_abs="4.351580" PMx_abs="0.980249" NOx_abs="25.125272" fuel_abs="28.136371" electricity_abs="0"
            CO_normed="816.915958" CO2_normed="85891.666918" HC_normed="5.710235" PMx_normed="1.286304" NOx_normed="32.969913" fuel_normed="36.921142" electricity_normed="0"
            traveltime="0.02" CO_perVeh="0.474720" CO2_perVeh="49.912714" HC_perVeh="0.003318" PMx_perVeh="0.000747" NOx_perVeh="0.019159" fuel_perVeh="0.021455" electricity_perVeh="0"/>
        <edge id=":1110673617_0" sampledSeconds="861.09" CO_abs="32033.025480" CO2_abs="3264916.838021" HC_abs="223.957984" PMx_abs="61.377905" NOx_abs="1278.320576" fuel_abs="1403.435053" electricity_abs="0"
            CO_normed="39232.119388" CO2_normed="3998673.408477" HC_normed="274.290244" PMx_normed="75.171960" NOx_normed="1565.610014" fuel_normed="1718.842686" electricity_normed="0"
            traveltime="0.02" CO_perVeh="0.563691" CO2_perVeh="57.453332" HC_perVeh="0.003941" PMx_perVeh="0.001080" NOx_perVeh="0.022495" fuel_perVeh="0.024697" electricity_perVeh="0"/>
        <edge id=":1110673621_0" sampledSeconds="26.20" CO_abs="580.869907" CO2_abs="59392.772238" HC_abs="4.024429" PMx_abs="0.882401" NOx_abs="22.834511" fuel_abs="25.530421" electricity_abs="0"
            CO_normed="853.697353" CO2_normed="87288.826314" HC_normed="5.914654" PMx_normed="1.296854" NOx_normed="33.559600" fuel_normed="37.521746" electricity_normed="0"
            traveltime="0.02" CO_perVeh="0.440053" CO2_perVeh="44.994524" HC_perVeh="0.003049" PMx_perVeh="0.000668" NOx_perVeh="0.017299" fuel_perVeh="0.019341" electricity_perVeh="0"/>
        <edge id=":1110673630_0" sampledSeconds="286.10" CO_abs="1118.222011" CO2_abs="99609.187001" HC_abs="7.352780" PMx_abs="1.260018" NOx_abs="37.255228" fuel_abs="42.818163" electricity_abs="0"
            CO_normed="29.305227" CO2_normed="2610.456421" HC_normed="0.192694" PMx_normed="0.033021" NOx_normed="0.976347" fuel_normed="1.122135" electricity_normed="0"
            traveltime="1.29" CO_perVeh="5.031572" CO2_perVeh="448.203299" HC_perVeh="0.033085" PMx_perVeh="0.005670" NOx_perVeh="0.167634" fuel_perVeh="0.192665" electricity_perVeh="0"/>
        <edge id=":1110673630_1" sampledSeconds="339.30" CO_abs="1561.645272" CO2_abs="128483.883783" HC_abs="10.044312" PMx_abs="1.742903" NOx_abs="48.961921" fuel_abs="55.230193" electricity_abs="0"
            CO_normed="49.894149" CO2_normed="4105.025707" HC_normed="0.320913" PMx_normed="0.055685" NOx_normed="1.564320" fuel_normed="1.764590" electricity_normed="0"
            traveltime="1.08" CO_perVeh="4.978218" CO2_perVeh="409.581334" HC_perVeh="0.032019" PMx_perVeh="0.005556" NOx_perVeh="0.156081" fuel_perVeh="0.176063" electricity_perVeh="0"/>
        <edge id=":1110673650_0" sampledSeconds="208.45" CO_abs="3241.018234" CO2_abs="394166.613097" HC_abs="23.765248" PMx_abs="5.441759" NOx_abs="147.631644" fuel_abs="169.435642" electricity_abs="0"
            CO_normed="3969.403839" CO2_normed="482751.516346" HC_normed="29.106243" PMx_normed="6.664739" NOx_normed="180.810341" fuel_normed="207.514565" electricity_normed="0"
            traveltime="0.02" CO_perVeh="0.360556" CO2_perVeh="43.850104" HC_perVeh="0.002644" PMx_perVeh="0.000605" NOx_perVeh="0.016424" fuel_perVeh="0.018849" electricity_perVeh="0"/>
        <edge id=":1110673655_0" sampledSeconds="20.88" CO_abs="364.765638" CO2_abs="37746.357449" HC_abs="2.540915" PMx_abs="0.572147" NOx_abs="14.557651" fuel_abs="16.225532" electricity_abs="0"
            CO_normed="446.742974" CO2_normed="46229.464114" HC_normed="3.111960" PMx_normed="0.700731" NOx_normed="17.829334" fuel_normed="19.872054" electricity_normed="0"
            traveltime="0.02" CO_perVeh="0.416716" CO2_perVeh="43.122267" HC_perVeh="0.002903" PMx_perVeh="0.000654" NOx_perVeh="0.016631" fuel_perVeh="0.018536" electricity_perVeh="0"/>
        <edge id=":1110673663_0" sampledSeconds="110.64" CO_abs="1797.847768" CO2_abs="204587.739198" HC_abs="12.911527" PMx_abs="2.863086" NOx_abs="77.146789" fuel_abs="87.943682" electricity_abs="0"
            CO_normed="40.327758" CO2_normed="4589.134342" HC_normed="0.289620" PMx_normed="0.064222" NOx_normed="1.730490" fuel_normed="1.972676" electricity_normed="0"
            traveltime="1.30" CO_perVeh="21.116570" CO2_perVeh="2402.979512" HC_perVeh="0.151652" PMx_perVeh="0.033628" NOx_perVeh="0.906125" fuel_perVeh="1.032940" electricity_perVeh="0"/>
        <edge id=":1110673663_1" sampledSeconds="171.17" CO_abs="3159.976489" CO2_abs="364760.124290" HC_abs="22.817447" PMx_abs="5.116987" NOx_abs="137.489273" fuel_abs="156.795024" electricity_abs="0"
            CO_normed="70.968499" CO2_normed="8191.984489" HC_normed="0.512447" PMx_normed="0.114920" NOx_normed="3.087810" fuel_normed="3.521389" electricity_normed="0"
            traveltime="1.28" CO_perVeh="23.555436" CO2_perVeh="2719.034041" HC_perVeh="0.170088" PMx_perVeh="0.038144" NOx_perVeh="1.024887" fuel_perVeh="1.168798" electricity_perVeh="0"/>