<?xml version="1.0" encoding="UTF-8"?>

<!-- generated on Mon Nov  9 22:40:44 2020 by Eclipse SUMO sumo Version 1.7.0
<configuration xmlns:xsi="http://www.w3.org/2001/XMLSchema-instance" xsi:noNamespaceSchemaLocation="http://sumo.dlr.de/xsd/sumoConfiguration.xsd">

    <input>
        <net-file value="../dataSets/Porto/6AM7AM_Routing_SaoBento/Porto.net.xml"/>
        <route-files value="../results/Porto/6AM7AM_Routing_SaoBento/cost_co-length/solution11/Porto.rou.xml"/>
        <additional-files value="moreOutputInfo.xml"/>
    </input>

    <output>
        <emission-output.precision value="6"/>
        <tripinfo-output value="../results/Porto/6AM7AM_Routing_SaoBento/cost_co-length/solution11/Porto-tripinfo"/>
    </output>

    <processing>
        <collision.action value="warn"/>
        <time-to-teleport value="-1"/>
    </processing>

    <emissions>
        <device.emissions.probability value="1"/>
    </emissions>

    <gui_only>
        <quit-on-end value="true"/>
        <start value="true"/>
    </gui_only>

</configuration>
-->

<meandata xmlns:xsi="http://www.w3.org/2001/XMLSchema-instance" xsi:noNamespaceSchemaLocation="http://sumo.dlr.de/xsd/meandata_file.xsd">
    <interval begin="0.00" end="4699.00" id="emissions-detector">
        <edge id=":1092997347_0" sampledSeconds="265.85" CO_abs="33785.094529" CO2_abs="1341325.103795" HC_abs="185.532213" PMx_abs="27.347226" NOx_abs="582.113435" fuel_abs="576.582914" electricity_abs="0"
            CO_normed="58826.026962" CO2_normed="2335492.258344" HC_normed="323.045505" PMx_normed="47.616520" NOx_normed="1013.565927" fuel_normed="1003.936278" electricity_normed="0"
            traveltime="0.07" CO_perVeh="9.527635" CO2_perVeh="378.263147" HC_perVeh="0.052321" PMx_perVeh="0.007712" NOx_perVeh="0.164160" fuel_perVeh="0.162600" electricity_perVeh="0"/>
        <edge id=":1103427051_0" sampledSeconds="10.97" CO_abs="931.222010" CO2_abs="53040.702663" HC_abs="5.499481" PMx_abs="1.037854" NOx_abs="22.606574" fuel_abs="22.799846" electricity_abs="0"
            CO_normed="2460.097331" CO2_normed="140122.645014" HC_normed="14.528500" PMx_normed="2.741798" NOx_normed="59.721926" fuel_normed="60.232512" electricity_normed="0"
            traveltime="0.03" CO_perVeh="2.551534" CO2_perVeh="145.330723" HC_perVeh="0.015068" PMx_perVeh="0.002844" NOx_perVeh="0.061942" fuel_perVeh="0.062471" electricity_perVeh="0"/>
        <edge id=":1105984386_0" sampledSeconds="22.80" CO_abs="564.061721" CO2_abs="45063.252476" HC_abs="3.595454" PMx_abs="0.604280" NOx_abs="17.161615" fuel_abs="19.370950" electricity_abs="0"
            CO_normed="44.504554" CO2_normed="3555.497355" HC_normed="0.283682" PMx_normed="0.047678" NOx_normed="1.354054" fuel_normed="1.528371" electricity_normed="0"
            traveltime="0.96" CO_perVeh="23.673234" CO2_perVeh="1891.269803" HC_perVeh="0.150898" PMx_perVeh="0.025361" NOx_perVeh="0.720260" fuel_perVeh="0.812984" electricity_perVeh="0"/>
        <edge id=":1105984390_0" sampledSeconds="22.67" CO_abs="0.541856" CO2_abs="41.084418" HC_abs="0.003406" PMx_abs="0.000573" NOx_abs="0.015836" fuel_abs="0.017661" electricity_abs="0"
            CO_normed="0.033052" CO2_normed="2.506020" HC_normed="0.000208" PMx_normed="0.000035" NOx_normed="0.000966" fuel_normed="0.001077" electricity_normed="0"
            traveltime="1.03" CO_perVeh="0.024573" CO2_perVeh="1.863158" HC_perVeh="0.000154" PMx_perVeh="0.000026" NOx_perVeh="0.000718" fuel_perVeh="0.000801" electricity_perVeh="0"/>
        <edge id=":1105984390_1" sampledSeconds="646.52" CO_abs="16063.081972" CO2_abs="1955175.236015" HC_abs="120.164393" PMx_abs="35.256165" NOx_abs="739.469611" fuel_abs="840.439757" electricity_abs="0"
            CO_normed="937.262422" CO2_normed="114082.234114" HC_normed="7.011455" PMx_normed="2.057157" NOx_normed="43.147204" fuel_normed="49.038697" electricity_normed="0"
            traveltime="0.64" CO_perVeh="15.800733" CO2_perVeh="1923.242504" HC_perVeh="0.118202" PMx_perVeh="0.034680" NOx_perVeh="0.727392" fuel_perVeh="0.826713" electricity_perVeh="0"/>
        <edge id=":1105984395_0" sampledSeconds="9.04" CO_abs="184.881425" CO2_abs="15465.284210" HC_abs="1.193170" PMx_abs="0.199179" NOx_abs="5.825282" fuel_abs="6.647934" electricity_abs="0"
            CO_normed="153.958088" CO2_normed="12878.554909" HC_normed="0.993600" PMx_normed="0.165864" NOx_normed="4.850943" fuel_normed="5.535998" electricity_normed="0"
            traveltime="0.09" CO_perVeh="1.874900" CO2_perVeh="156.834893" HC_perVeh="0.012100" PMx_perVeh="0.002020" NOx_perVeh="0.059075" fuel_perVeh="0.067417" electricity_perVeh="0"/>
        <edge id=":1105984398_0" sampledSeconds="23.79" CO_abs="1374.771531" CO2_abs="99335.030462" HC_abs="8.586745" PMx_abs="1.687273" NOx_abs="40.235119" fuel_abs="42.699847" electricity_abs="0"
            CO_normed="87.116674" CO2_normed="6294.673148" HC_normed="0.544126" PMx_normed="0.106919" NOx_normed="2.549623" fuel_normed="2.705809" electricity_normed="0"
            traveltime="1.12" CO_perVeh="64.751101" CO2_perVeh="4678.633835" HC_perVeh="0.404432" PMx_perVeh="0.079470" NOx_perVeh="1.895055" fuel_perVeh="2.011143" electricity_perVeh="0"/>
        <edge id=":1105984398_1" sampledSeconds="452.01" CO_abs="7600.922746" CO2_abs="896274.521267" HC_abs="55.271291" PMx_abs="12.709711" NOx_abs="338.137937" fuel_abs="385.270385" electricity_abs="0"
            CO_normed="466.230774" CO2_normed="54976.320304" HC_normed="3.390270" PMx_normed="0.779597" NOx_normed="20.740944" fuel_normed="23.631987" electricity_normed="0"
            traveltime="0.96" CO_perVeh="16.119508" CO2_perVeh="1900.756684" HC_perVeh="0.117216" PMx_perVeh="0.026954" NOx_perVeh="0.717099" fuel_perVeh="0.817055" electricity_perVeh="0"/>
        <edge id=":1106006327_0" sampledSeconds="201.16" CO_abs="26992.342846" CO2_abs="868246.163374" HC_abs="143.330484" PMx_abs="18.077935" NOx_abs="379.842242" fuel_abs="373.228628" electricity_abs="0"
            CO_normed="2334.016465" CO2_normed="75076.878375" HC_normed="12.393726" PMx_normed="1.563191" NOx_normed="32.844798" fuel_normed="32.272922" electricity_normed="0"
            traveltime="2.11" CO_perVeh="283.416081" CO2_perVeh="9116.471531" HC_perVeh="1.504951" PMx_perVeh="0.189816" NOx_perVeh="3.988294" fuel_perVeh="3.918852" electricity_perVeh="0"/>
        <edge id=":1106006327_1" sampledSeconds="161.61" CO_abs="21906.285848" CO2_abs="731978.825114" HC_abs="117.000801" PMx_abs="15.279793" NOx_abs="320.407847" fuel_abs="314.651290" electricity_abs="0"
            CO_normed="1651.855669" CO2_normed="55195.270446" HC_normed="8.822511" PMx_normed="1.152181" NOx_normed="24.160532" fuel_normed="23.726456" electricity_normed="0"
            traveltime="2.29" CO_perVeh="310.987961" CO2_perVeh="10391.382829" HC_perVeh="1.660977" PMx_perVeh="0.216916" NOx_perVeh="4.548602" fuel_perVeh="4.466881" electricity_perVeh="0"/>
        <edge id=":1106006327_2" sampledSeconds="0.00" CO_abs="0" CO2_abs="0" HC_abs="0" PMx_abs="0" NOx_abs="0" fuel_abs="0" electricity_abs="0"
            CO_normed="0" CO2_normed="0" HC_normed="0" PMx_normed="0" NOx_normed="0" fuel_normed="0" electricity_normed="0"/>
        <edge id=":1106006327_3" sampledSeconds="0.00" CO_abs="0" CO2_abs="0" HC_abs="0" PMx_abs="0" NOx_abs="0" fuel_abs="0" electricity_abs="0"
            CO_normed="0" CO2_normed="0" HC_normed="0" PMx_normed="0" NOx_normed="0" fuel_normed="0" electricity_normed="0"/>
        <edge id=":1107381198_0" sampledSeconds="0.00" CO_abs="0" CO2_abs="0" HC_abs="0" PMx_abs="0" NOx_abs="0" fuel_abs="0" electricity_abs="0"
            CO_normed="0" CO2_normed="0" HC_normed="0" PMx_normed="0" NOx_normed="0" fuel_normed="0" electricity_normed="0"/>
        <edge id=":1107381198_1" sampledSeconds="35.83" CO_abs="1666.215609" CO2_abs="67363.726352" HC_abs="9.133464" PMx_abs="1.135908" NOx_abs="27.724823" fuel_abs="28.957351" electricity_abs="0"
            CO_normed="139.206309" CO2_normed="5627.996557" HC_normed="0.763068" PMx_normed="0.094901" NOx_normed="2.316309" fuel_normed="2.419282" electricity_normed="0"
            traveltime="1.48" CO_perVeh="68.602717" CO2_perVeh="2773.551413" HC_perVeh="0.376050" PMx_perVeh="0.046768" NOx_perVeh="1.141508" fuel_perVeh="1.192254" electricity_perVeh="0"/>
        <edge id=":1110338277_0" sampledSeconds="96.63" CO_abs="1501.332935" CO2_abs="185280.655878" HC_abs="11.066637" PMx_abs="2.504790" NOx_abs="69.082776" fuel_abs="79.644418" electricity_abs="0"
            CO_normed="4107.863804" CO2_normed="506954.641686" HC_normed="30.279918" PMx_normed="6.853467" NOx_normed="189.020455" fuel_normed="217.918635" electricity_normed="0"
            traveltime="0.02" CO_perVeh="0.338353" CO2_perVeh="41.756412" HC_perVeh="0.002494" PMx_perVeh="0.000565" NOx_perVeh="0.015569" fuel_perVeh="0.017949" electricity_perVeh="0"/>
        <edge id=":1110338293_0" sampledSeconds="124.40" CO_abs="6478.011571" CO2_abs="443708.308865" HC_abs="39.922641" PMx_abs="7.785966" NOx_abs="181.712151" fuel_abs="190.730941" electricity_abs="0"
            CO_normed="16543.123825" CO2_normed="1133113.365904" HC_normed="101.951839" PMx_normed="19.883293" NOx_normed="464.044649" fuel_normed="487.076248" electricity_normed="0"
            traveltime="0.03" CO_perVeh="1.485839" CO2_perVeh="101.771851" HC_perVeh="0.009157" PMx_perVeh="0.001786" NOx_perVeh="0.041679" fuel_perVeh="0.043747" electricity_perVeh="0"/>
        <edge id=":1110338295_0" sampledSeconds="0.00" CO_abs="0" CO2_abs="0" HC_abs="0" PMx_abs="0" NOx_abs="0" fuel_abs="0" electricity_abs="0"
            CO_normed="0" CO2_normed="0" HC_normed="0" PMx_normed="0" NOx_normed="0" fuel_normed="0" electricity_normed="0"/>
        <edge id=":1110673403_0" sampledSeconds="143.80" CO_abs="2189.070951" CO2_abs="265713.111330" HC_abs="16.032510" PMx_abs="3.654484" NOx_abs="99.498070" fuel_abs="114.218904" electricity_abs="0"
            CO_normed="5590.306749" CO2_normed="678560.829104" HC_normed="40.942778" PMx_normed="9.332583" NOx_normed="254.091688" fuel_normed="291.684793" electricity_normed="0"
            traveltime="0.02" CO_perVeh="0.351472" CO2_perVeh="42.662220" HC_perVeh="0.002574" PMx_perVeh="0.000587" NOx_perVeh="0.015975" fuel_perVeh="0.018339" electricity_perVeh="0"/>
        <edge id=":1110673412_0" sampledSeconds="253.10" CO_abs="45175.565120" CO2_abs="3073424.033231" HC_abs="280.937473" PMx_abs="67.633763" NOx_abs="1321.680920" fuel_abs="1321.113559" electricity_abs="0"
            CO_normed="119344.566658" CO2_normed="8119355.196360" HC_normed="742.179116" PMx_normed="178.674515" NOx_normed="3491.609596" fuel_normed="3490.110746" electricity_normed="0"
            traveltime="0.02" CO_perVeh="2.775137" CO2_perVeh="188.800568" HC_perVeh="0.017258" PMx_perVeh="0.004155" NOx_perVeh="0.081191" fuel_perVeh="0.081156" electricity_perVeh="0"/>
        <edge id=":1110673414_0" sampledSeconds="0.00" CO_abs="0" CO2_abs="0" HC_abs="0" PMx_abs="0" NOx_abs="0" fuel_abs="0" electricity_abs="0"
            CO_normed="0" CO2_normed="0" HC_normed="0" PMx_normed="0" NOx_normed="0" fuel_normed="0" electricity_normed="0"/>
        <edge id=":1110673414_1" sampledSeconds="14.77" CO_abs="1147.165116" CO2_abs="41766.886599" HC_abs="6.188395" PMx_abs="0.754696" NOx_abs="17.530690" fuel_abs="17.954168" electricity_abs="0"
            CO_normed="97.327426" CO2_normed="3543.573201" HC_normed="0.525034" PMx_normed="0.064030" NOx_normed="1.487333" fuel_normed="1.523262" electricity_normed="0"
            traveltime="1.61" CO_perVeh="125.289078" CO2_perVeh="4561.622956" HC_perVeh="0.675873" PMx_perVeh="0.082425" NOx_perVeh="1.914636" fuel_perVeh="1.960887" electricity_perVeh="0"/>
        <edge id=":1110673417_0" sampledSeconds="30.03" CO_abs="631.166500" CO2_abs="65983.325553" HC_abs="4.399480" PMx_abs="0.965027" NOx_abs="25.246171" fuel_abs="28.363432" electricity_abs="0"
            CO_normed="1726.962729" CO2_normed="180539.911220" HC_normed="12.037614" PMx_normed="2.640453" NOx_normed="69.077170" fuel_normed="77.606447" electricity_normed="0"
            traveltime="0.02" CO_perVeh="0.468460" CO2_perVeh="48.973708" HC_perVeh="0.003265" PMx_perVeh="0.000716" NOx_perVeh="0.018738" fuel_perVeh="0.021052" electricity_perVeh="0"/>
        <edge id=":1110673446_0" sampledSeconds="331.75" CO_abs="3650.292185" CO2_abs="298675.265946" HC_abs="23.695126" PMx_abs="5.514468" NOx_abs="122.281869" fuel_abs="128.386685" electricity_abs="0"
            CO_normed="9321.878318" CO2_normed="762737.431655" HC_normed="60.511068" PMx_normed="14.082489" NOx_normed="312.275468" fuel_normed="327.865550" electricity_normed="0"
            traveltime="0.02" CO_perVeh="0.249837" CO2_perVeh="20.442258" HC_perVeh="0.001622" PMx_perVeh="0.000377" NOx_perVeh="0.008369" fuel_perVeh="0.008787" electricity_perVeh="0"/>
        <edge id=":1110673451_0" sampledSeconds="37.83" CO_abs="330.277678" CO2_abs="23493.976581" HC_abs="2.036242" PMx_abs="0.307802" NOx_abs="8.940469" fuel_abs="10.099190" electricity_abs="0"
            CO_normed="937.157347" CO2_normed="66663.762733" HC_normed="5.777803" PMx_normed="0.873382" NOx_normed="25.368431" fuel_normed="28.656282" electricity_normed="0"
            traveltime="0.03" CO_perVeh="0.236853" CO2_perVeh="16.848270" HC_perVeh="0.001460" PMx_perVeh="0.000221" NOx_perVeh="0.006411" fuel_perVeh="0.007242" electricity_perVeh="0"/>
        <edge id=":1110673464_0" sampledSeconds="321.98" CO_abs="474.143215" CO2_abs="36809.895379" HC_abs="2.994078" PMx_abs="0.475056" NOx_abs="13.888571" fuel_abs="15.823192" electricity_abs="0"
            CO_normed="25.725978" CO2_normed="1997.224763" HC_normed="0.162452" PMx_normed="0.025776" NOx_normed="0.753564" fuel_normed="0.858532" electricity_normed="0"
            traveltime="1.16" CO_perVeh="1.713965" CO2_perVeh="133.062915" HC_perVeh="0.010823" PMx_perVeh="0.001717" NOx_perVeh="0.050205" fuel_perVeh="0.057199" electricity_perVeh="0"/>
        <edge id=":1110673464_1" sampledSeconds="708.78" CO_abs="16540.725630" CO2_abs="2102921.071650" HC_abs="125.619945" PMx_abs="37.360790" NOx_abs="790.013891" fuel_abs="903.949249" electricity_abs="0"
            CO_normed="879.402372" CO2_normed="111803.666910" HC_normed="6.678696" PMx_normed="1.986320" NOx_normed="42.001790" fuel_normed="48.059265" electricity_normed="0"
            traveltime="0.70" CO_perVeh="16.331122" CO2_perVeh="2076.272874" HC_perVeh="0.124028" PMx_perVeh="0.036887" NOx_perVeh="0.780003" fuel_perVeh="0.892494" electricity_perVeh="0"/>
        <edge id=":1110673479_0" sampledSeconds="133.83" CO_abs="6966.467455" CO2_abs="473452.061865" HC_abs="42.872500" PMx_abs="8.457437" NOx_abs="194.882812" fuel_abs="203.516305" electricity_abs="0"
            CO_normed="17790.510633" CO2_normed="1209071.024128" HC_normed="109.484998" PMx_normed="21.598052" NOx_normed="497.679027" fuel_normed="519.726677" electricity_normed="0"
            traveltime="0.03" CO_perVeh="1.467552" CO2_perVeh="99.737110" HC_perVeh="0.009031" PMx_perVeh="0.001782" NOx_perVeh="0.041054" fuel_perVeh="0.042873" electricity_perVeh="0"/>
        <edge id=":1110673511_0" sampledSeconds="11.75" CO_abs="122.909595" CO2_abs="19325.879922" HC_abs="0.992553" PMx_abs="0.233359" NOx_abs="6.972432" fuel_abs="8.307407" electricity_abs="0"
            CO_normed="313.878514" CO2_normed="49353.172817" HC_normed="2.534717" PMx_normed="0.595938" NOx_normed="17.805743" fuel_normed="21.214916" electricity_normed="0"
            traveltime="0.02" CO_perVeh="0.243385" CO2_perVeh="38.269069" HC_perVeh="0.001965" PMx_perVeh="0.000462" NOx_perVeh="0.013807" fuel_perVeh="0.016450" electricity_perVeh="0"/>
        <edge id=":1110673517_0" sampledSeconds="17.01" CO_abs="796.510935" CO2_abs="56784.468297" HC_abs="4.971395" PMx_abs="1.038890" NOx_abs="23.454483" fuel_abs="24.409093" electricity_abs="0"
            CO_normed="2034.077724" CO2_normed="145012.474903" HC_normed="12.695624" PMx_normed="2.653051" NOx_normed="59.896530" fuel_normed="62.334351" electricity_normed="0"
            traveltime="0.03" CO_perVeh="1.278896" CO2_perVeh="91.174443" HC_perVeh="0.007982" PMx_perVeh="0.001668" NOx_perVeh="0.037659" fuel_perVeh="0.039192" electricity_perVeh="0"/>
        <edge id=":1110673534_0" sampledSeconds="473.50" CO_abs="2970.132401" CO2_abs="259491.581400" HC_abs="19.450832" PMx_abs="3.557829" NOx_abs="98.837352" fuel_abs="111.545088" electricity_abs="0"
            CO_normed="146.994779" CO2_normed="12842.494019" HC_normed="0.962641" PMx_normed="0.176080" NOx_normed="4.891558" fuel_normed="5.520476" electricity_normed="0"
            traveltime="1.43" CO_perVeh="8.947823" CO2_perVeh="781.744553" HC_perVeh="0.058598" PMx_perVeh="0.010718" NOx_perVeh="0.297757" fuel_perVeh="0.336041" electricity_perVeh="0"/>
        <edge id=":1110673534_1" sampledSeconds="184.49" CO_abs="2779.971916" CO2_abs="357361.633116" HC_abs="20.805460" PMx_abs="4.782713" NOx_abs="132.653167" fuel_abs="153.614848" electricity_abs="0"
            CO_normed="133.780989" CO2_normed="17197.365301" HC_normed="1.001224" PMx_normed="0.230159" NOx_normed="6.383687" fuel_normed="7.392429" electricity_normed="0"
            traveltime="1.22" CO_perVeh="18.458015" CO2_perVeh="2372.752948" HC_perVeh="0.138141" PMx_perVeh="0.031755" NOx_perVeh="0.880769" fuel_perVeh="1.019947" electricity_perVeh="0"/>
        <edge id=":1110673549_0" sampledSeconds="60.94" CO_abs="43.674178" CO2_abs="2845.778039" HC_abs="0.262658" PMx_abs="0.034567" NOx_abs="1.069057" fuel_abs="1.223301" electricity_abs="0"
            CO_normed="2.093847" CO2_normed="136.433589" HC_normed="0.012592" PMx_normed="0.001657" NOx_normed="0.051253" fuel_normed="0.058648" electricity_normed="0"
            traveltime="1.27" CO_perVeh="0.909914" CO2_perVeh="59.289361" HC_perVeh="0.005472" PMx_perVeh="0.000720" NOx_perVeh="0.022273" fuel_perVeh="0.025486" electricity_perVeh="0"/>
        <edge id=":1110673549_1" sampledSeconds="639.89" CO_abs="13483.259803" CO2_abs="1781712.391317" HC_abs="104.019441" PMx_abs="31.306686" NOx_abs="665.456557" fuel_abs="765.876634" electricity_abs="0"
            CO_normed="625.290622" CO2_normed="82627.500065" HC_normed="4.823936" PMx_normed="1.451858" NOx_normed="30.860767" fuel_normed="35.517782" electricity_normed="0"
            traveltime="0.81" CO_perVeh="16.972753" CO2_perVeh="2242.822940" HC_perVeh="0.130940" PMx_perVeh="0.039409" NOx_perVeh="0.837678" fuel_perVeh="0.964087" electricity_perVeh="0"/>
        <edge id=":1110673556_0" sampledSeconds="420.99" CO_abs="51806.282793" CO2_abs="2589528.107742" HC_abs="297.450967" PMx_abs="52.206132" NOx_abs="1115.305851" fuel_abs="1113.126209" electricity_abs="0"
            CO_normed="1841.756508" CO2_normed="92059.881308" HC_normed="10.574630" PMx_normed="1.855971" NOx_normed="39.650052" fuel_normed="39.572564" electricity_normed="0"
            traveltime="2.61" CO_perVeh="321.588142" CO2_perVeh="16074.527803" HC_perVeh="1.846431" PMx_perVeh="0.324070" NOx_perVeh="6.923275" fuel_perVeh="6.909745" electricity_perVeh="0"/>
        <edge id=":1110673556_2" sampledSeconds="244.79" CO_abs="23501.814414" CO2_abs="1024731.871412" HC_abs="131.111019" PMx_abs="19.887031" NOx_abs="437.738501" fuel_abs="440.491544" electricity_abs="0"
            CO_normed="873.615753" CO2_normed="38091.608134" HC_normed="4.873694" PMx_normed="0.739246" NOx_normed="16.271733" fuel_normed="16.374070" electricity_normed="0"
            traveltime="2.97" CO_perVeh="285.073170" CO2_perVeh="12429.830210" HC_perVeh="1.590355" PMx_perVeh="0.241226" NOx_perVeh="5.309697" fuel_perVeh="5.343090" electricity_perVeh="0"/>
        <edge id=":1110673556_3" sampledSeconds="418.48" CO_abs="35016.562009" CO2_abs="1246533.869378" HC_abs="188.471236" PMx_abs="23.856223" NOx_abs="532.059067" fuel_abs="535.841248" electricity_abs="0"
            CO_normed="2961.026963" CO2_normed="105407.846622" HC_normed="15.937270" PMx_normed="2.017300" NOx_normed="44.991317" fuel_normed="45.311141" electricity_normed="0"
            traveltime="1.75" CO_perVeh="146.321576" CO2_perVeh="5208.815202" HC_perVeh="0.787553" PMx_perVeh="0.099687" NOx_perVeh="2.223283" fuel_perVeh="2.239087" electricity_perVeh="0"/>
        <edge id=":1110673556_4" sampledSeconds="196.03" CO_abs="19817.124615" CO2_abs="792131.048325" HC_abs="108.811089" PMx_abs="15.406062" NOx_abs="339.137109" fuel_abs="340.506990" electricity_abs="0"
            CO_normed="1023.756200" CO2_normed="40921.631566" HC_normed="5.621200" PMx_normed="0.795880" NOx_normed="17.519884" fuel_normed="17.590652" electricity_normed="0"
            traveltime="2.39" CO_perVeh="242.090314" CO2_perVeh="9676.845569" HC_perVeh="1.329260" PMx_perVeh="0.188204" NOx_perVeh="4.142973" fuel_perVeh="4.159708" electricity_perVeh="0"/>
        <edge id=":1110673556_5" sampledSeconds="24.51" CO_abs="1944.642355" CO2_abs="78148.843868" HC_abs="10.679364" PMx_abs="1.476390" NOx_abs="33.171215" fuel_abs="33.593272" electricity_abs="0"
            CO_normed="140.021643" CO2_normed="5627.013865" HC_normed="0.768955" PMx_normed="0.106306" NOx_normed="2.388454" fuel_normed="2.418843" electricity_normed="0"
            traveltime="1.69" CO_perVeh="134.444410" CO2_perVeh="5402.883033" HC_perVeh="0.738326" PMx_perVeh="0.102071" NOx_perVeh="2.293319" fuel_perVeh="2.322498" electricity_perVeh="0"/>
        <edge id=":1110673556_6" sampledSeconds="493.12" CO_abs="58424.850003" CO2_abs="2838799.717165" HC_abs="333.457655" PMx_abs="57.226841" NOx_abs="1222.975059" fuel_abs="1220.278667" electricity_abs="0"
            CO_normed="2129.423047" CO2_normed="103466.342534" HC_normed="12.153603" PMx_normed="2.085759" NOx_normed="44.574034" fuel_normed="44.475758" electricity_normed="0"
            traveltime="2.65" CO_perVeh="313.525097" CO2_perVeh="15233.842405" HC_perVeh="1.789433" PMx_perVeh="0.307096" NOx_perVeh="6.562847" fuel_perVeh="6.548378" electricity_perVeh="0"/>
        <edge id=":1110673561_0" sampledSeconds="100.11" CO_abs="9668.198075" CO2_abs="684614.067534" HC_abs="60.518394" PMx_abs="14.018625" NOx_abs="290.695107" fuel_abs="294.282794" electricity_abs="0"
            CO_normed="442.737852" CO2_normed="31350.677722" HC_normed="2.771332" PMx_normed="0.641958" NOx_normed="13.311863" fuel_normed="13.476155" electricity_normed="0"
            traveltime="1.18" CO_perVeh="114.094121" CO2_perVeh="8079.110483" HC_perVeh="0.714176" PMx_perVeh="0.165433" NOx_perVeh="3.430484" fuel_perVeh="3.472823" electricity_perVeh="0"/>
        <edge id=":1110673561_1" sampledSeconds="1311.45" CO_abs="122604.736644" CO2_abs="8513643.660039" HC_abs="764.225604" PMx_abs="177.960374" NOx_abs="3639.170748" fuel_abs="3659.604052" electricity_abs="0"
            CO_normed="5473.776000" CO2_normed="380097.699408" HC_normed="34.119398" PMx_normed="7.945168" NOx_normed="162.473376" fuel_normed="163.385636" electricity_normed="0"
            traveltime="1.19" CO_perVeh="111.175695" CO2_perVeh="7720.013765" HC_perVeh="0.692986" PMx_perVeh="0.161371" NOx_perVeh="3.299932" fuel_perVeh="3.318461" electricity_perVeh="0"/>
        <edge id=":1110673562_0" sampledSeconds="104.37" CO_abs="2126.383920" CO2_abs="170390.192594" HC_abs="13.565286" PMx_abs="2.277421" NOx_abs="64.788333" fuel_abs="73.244167" electricity_abs="0"
            CO_normed="6033.578550" CO2_normed="483479.300827" HC_normed="38.491269" PMx_normed="6.462144" NOx_normed="183.835803" fuel_normed="207.829090" electricity_normed="0"
            traveltime="0.03" CO_perVeh="0.542031" CO2_perVeh="43.433694" HC_perVeh="0.003458" PMx_perVeh="0.000581" NOx_perVeh="0.016515" fuel_perVeh="0.018670" electricity_perVeh="0"/>
        <edge id=":1110673564_0" sampledSeconds="28.88" CO_abs="473.471306" CO2_abs="51447.618561" HC_abs="3.346885" PMx_abs="0.734222" NOx_abs="19.543133" fuel_abs="22.115163" electricity_abs="0"
            CO_normed="3627.360503" CO2_normed="394150.727432" HC_normed="25.641170" PMx_normed="5.625022" NOx_normed="149.723942" fuel_normed="169.428789" electricity_normed="0"
            traveltime="7.940090e-03" CO_perVeh="0.130164" CO2_perVeh="14.143675" HC_perVeh="0.000920" PMx_perVeh="0.000202" NOx_perVeh="0.005373" fuel_perVeh="0.006080" electricity_perVeh="0"/>
        <edge id=":1110673588_0" sampledSeconds="11.71" CO_abs="187.313870" CO2_abs="24083.090308" HC_abs="1.394243" PMx_abs="0.295860" NOx_abs="8.797566" fuel_abs="10.352352" electricity_abs="0"
            CO_normed="574.019946" CO2_normed="73802.192048" HC_normed="4.272632" PMx_normed="0.906658" NOx_normed="26.959982" fuel_normed="31.724595" electricity_normed="0"
            traveltime="0.02" CO_perVeh="0.312190" CO2_perVeh="40.138484" HC_perVeh="0.002324" PMx_perVeh="0.000493" NOx_perVeh="0.014663" fuel_perVeh="0.017254" electricity_perVeh="0"/>
        <edge id=":1110673601_0" sampledSeconds="29.81" CO_abs="601.437640" CO2_abs="68806.177877" HC_abs="4.322194" PMx_abs="0.974962" NOx_abs="26.019652" fuel_abs="29.576866" electricity_abs="0"
            CO_normed="1645.620273" CO2_normed="188263.642990" HC_normed="11.826146" PMx_normed="2.667636" NOx_normed="71.193528" fuel_normed="80.926577" electricity_normed="0"
            traveltime="0.02" CO_perVeh="0.446395" CO2_perVeh="51.068866" HC_perVeh="0.003208" PMx_perVeh="0.000724" NOx_perVeh="0.019312" fuel_perVeh="0.021952" electricity_perVeh="0"/>
        <edge id=":1110673617_0" sampledSeconds="238.76" CO_abs="6044.900834" CO2_abs="735300.003227" HC_abs="45.147238" PMx_abs="13.237926" NOx_abs="278.224137" fuel_abs="316.071594" electricity_abs="0"
            CO_normed="15437.073847" CO2_normed="1877761.234033" HC_normed="115.294075" PMx_normed="33.806152" NOx_normed="710.510671" fuel_normed="807.163040" electricity_normed="0"
            traveltime="0.01" CO_perVeh="0.370209" CO2_perVeh="45.032153" HC_perVeh="0.002765" PMx_perVeh="0.000811" NOx_perVeh="0.017039" fuel_perVeh="0.019357" electricity_perVeh="0"/>
        <edge id=":1110673621_0" sampledSeconds="25.70" CO_abs="523.551814" CO2_abs="58366.026219" HC_abs="3.730742" PMx_abs="0.858444" NOx_abs="22.266395" fuel_abs="25.089050" electricity_abs="0"
            CO_normed="1604.415006" CO2_normed="178861.625356" HC_normed="11.432790" PMx_normed="2.630686" NOx_normed="68.234963" fuel_normed="76.884937" electricity_normed="0"
            traveltime="0.02" CO_perVeh="0.396630" CO2_perVeh="44.216687" HC_perVeh="0.002826" PMx_perVeh="0.000650" NOx_perVeh="0.016868" fuel_perVeh="0.019007" electricity_perVeh="0"/>
        <edge id=":1110673630_0" sampledSeconds="54.47" CO_abs="177.600320" CO2_abs="19842.851690" HC_abs="1.257566" PMx_abs="0.229760" NOx_abs="7.223920" fuel_abs="8.529680" electricity_abs="0"
            CO_normed="9.704938" CO2_normed="1084.309165" HC_normed="0.068719" PMx_normed="0.012555" NOx_normed="0.394750" fuel_normed="0.466103" electricity_normed="0"
            traveltime="1.27" CO_perVeh="4.145506" CO2_perVeh="463.167256" HC_perVeh="0.029354" PMx_perVeh="0.005363" NOx_perVeh="0.168619" fuel_perVeh="0.199098" electricity_perVeh="0"/>
        <edge id=":1110673630_1" sampledSeconds="7.31" CO_abs="2.801047" CO2_abs="536.711975" HC_abs="0.024710" PMx_abs="0.004732" NOx_abs="0.183187" fuel_abs="0.230713" electricity_abs="0"
            CO_normed="0.186603" CO2_normed="35.755306" HC_normed="0.001646" PMx_normed="0.000315" NOx_normed="0.012204" fuel_normed="0.015370" electricity_normed="0"
            traveltime="1.03" CO_perVeh="0.396456" CO2_perVeh="75.965387" HC_perVeh="0.003497" PMx_perVeh="0.000670" NOx_perVeh="0.025928" fuel_perVeh="0.032655" electricity_perVeh="0"/>
        <edge id=":1110673650_0" sampledSeconds="143.32" CO_abs="2134.902761" CO2_abs="271500.155999" HC_abs="15.923937" PMx_abs="3.706848" NOx_abs="101.232398" fuel_abs="116.706493" electricity_abs="0"
            CO_normed="5451.975556" CO2_normed="693339.406680" HC_normed="40.665514" PMx_normed="9.466307" NOx_normed="258.520702" fuel_normed="298.037437" electricity_normed="0"
            traveltime="0.02" CO_perVeh="0.343370" CO2_perVeh="43.667051" HC_perVeh="0.002561" PMx_perVeh="0.000596" NOx_perVeh="0.016282" fuel_perVeh="0.018771" electricity_perVeh="0"/>
        <edge id=":1110673655_0" sampledSeconds="44.97" CO_abs="753.551534" CO2_abs="83752.965814" HC_abs="5.351320" PMx_abs="1.165975" NOx_abs="31.598000" fuel_abs="36.001901" electricity_abs="0"
            CO_normed="1924.370805" CO2_normed="213882.866519" HC_normed="13.665853" PMx_normed="2.977591" NOx_normed="80.692915" fuel_normed="91.939309" electricity_normed="0"
            traveltime="0.02" CO_perVeh="0.403292" CO2_perVeh="44.823637" HC_perVeh="0.002864" PMx_perVeh="0.000624" NOx_perVeh="0.016911" fuel_perVeh="0.019268" electricity_perVeh="0"/>
        <edge id=":1110673663_0" sampledSeconds="108.11" CO_abs="1824.590089" CO2_abs="216671.258729" HC_abs="13.191697" PMx_abs="2.989081" NOx_abs="81.165541" fuel_abs="93.137882" electricity_abs="0"
            CO_normed="85.339181" CO2_normed="10134.083180" HC_normed="0.616998" PMx_normed="0.139804" NOx_normed="3.796250" fuel_normed="4.356217" electricity_normed="0"
            traveltime="1.27" CO_perVeh="21.430671" CO2_perVeh="2544.906150" HC_perVeh="0.154943" PMx_perVeh="0.035108" NOx_perVeh="0.953328" fuel_perVeh="1.093948" electricity_perVeh="0"/>
        <edge id=":1110673663_1" sampledSeconds="153.57" CO_abs="2769.107657" CO2_abs="340758.872812" HC_abs="20.445301" PMx_abs="4.750837" NOx_abs="127.778260" fuel_abs="146.477825" electricity_abs="0"
            CO_normed="129.674206" CO2_normed="15957.355830" HC_normed="0.957431" PMx_normed="0.222476" NOx_normed="5.983713" fuel_normed="6.859392" electricity_normed="0"
            traveltime="1.24" CO_perVeh="22.418954" CO2_perVeh="2758.815662" HC_perVeh="0.165527" PMx_perVeh="0.038463" NOx_perVeh="1.034505" fuel_perVeh="1.185898" electricity_perVeh="0"/>
        <edge id=":1110673666_0" sampledSeconds="191.22" CO_abs="3880.712511" CO2_abs="310436.623217" HC_abs="24.746841" PMx_abs="4.158751" NOx_abs="118.082889" fuel_abs="133.444715" electricity_abs="0"