<?xml version="1.0" encoding="UTF-8"?>

<!-- generated on Tue Nov 10 01:02:19 2020 by Eclipse SUMO sumo Version 1.7.0
<configuration xmlns:xsi="http://www.w3.org/2001/XMLSchema-instance" xsi:noNamespaceSchemaLocation="http://sumo.dlr.de/xsd/sumoConfiguration.xsd">

    <input>
        <net-file value="../dataSets/Porto/6AM7AM_Routing_SaoBento/Porto.net.xml"/>
        <route-files value="../results/Porto/6AM7AM_Routing_SaoBento/cost_PMx-cost_co/solution5/Porto.rou.xml"/>
        <additional-files value="moreOutputInfo.xml"/>
    </input>

    <output>
        <emission-output.precision value="6"/>
        <tripinfo-output value="../results/Porto/6AM7AM_Routing_SaoBento/cost_PMx-cost_co/solution5/Porto-tripinfo"/>
    </output>

    <processing>
        <collision.action value="warn"/>
        <time-to-teleport value="-1"/>
    </processing>

    <emissions>
        <device.emissions.probability value="1"/>
    </emissions>

    <gui_only>
        <quit-on-end value="true"/>
        <start value="true"/>
    </gui_only>

</configuration>
-->

<meandata xmlns:xsi="http://www.w3.org/2001/XMLSchema-instance" xsi:noNamespaceSchemaLocation="http://sumo.dlr.de/xsd/meandata_file.xsd">
    <interval begin="0.00" end="4700.00" id="emissions-detector">
        <edge id=":1092997347_0" sampledSeconds="283.91" CO_abs="36318.841360" CO2_abs="1446427.813597" HC_abs="199.567276" PMx_abs="29.548215" NOx_abs="628.123636" fuel_abs="621.762248" electricity_abs="0"
            CO_normed="63224.288634" CO2_normed="2517959.443399" HC_normed="347.409185" PMx_normed="51.437898" NOx_normed="1093.445401" fuel_normed="1082.371418" electricity_normed="0"
            traveltime="0.07" CO_perVeh="9.567584" CO2_perVeh="381.036942" HC_perVeh="0.052573" PMx_perVeh="0.007784" NOx_perVeh="0.165469" fuel_perVeh="0.163793" electricity_perVeh="0"/>
        <edge id=":1103427051_0" sampledSeconds="11.11" CO_abs="929.481112" CO2_abs="51334.864942" HC_abs="5.457896" PMx_abs="1.046897" NOx_abs="22.185621" fuel_abs="22.066538" electricity_abs="0"
            CO_normed="2454.975791" CO2_normed="135587.317529" HC_normed="14.415573" PMx_normed="2.765098" NOx_normed="58.597386" fuel_normed="58.282859" electricity_normed="0"
            traveltime="0.03" CO_perVeh="2.546764" CO2_perVeh="140.656754" HC_perVeh="0.014955" PMx_perVeh="0.002868" NOx_perVeh="0.060788" fuel_perVeh="0.060462" electricity_perVeh="0"/>
        <edge id=":1105984386_0" sampledSeconds="22.95" CO_abs="505.035086" CO2_abs="39249.448505" HC_abs="3.194134" PMx_abs="0.530046" NOx_abs="14.994355" fuel_abs="16.871824" electricity_abs="0"
            CO_normed="39.838866" CO2_normed="3096.128462" HC_normed="0.251964" PMx_normed="0.041812" NOx_normed="1.182805" fuel_normed="1.330906" electricity_normed="0"
            traveltime="0.96" CO_perVeh="21.195931" CO2_perVeh="1647.268953" HC_perVeh="0.134055" PMx_perVeh="0.022246" NOx_perVeh="0.629301" fuel_perVeh="0.708097" electricity_perVeh="0"/>
        <edge id=":1105984390_0" sampledSeconds="23.58" CO_abs="11.226721" CO2_abs="826.651801" HC_abs="0.069926" PMx_abs="0.011147" NOx_abs="0.316514" fuel_abs="0.355346" electricity_abs="0"
            CO_normed="0.684649" CO2_normed="50.412429" HC_normed="0.004264" PMx_normed="0.000680" NOx_normed="0.019302" fuel_normed="0.021670" electricity_normed="0"
            traveltime="1.07" CO_perVeh="0.509126" CO2_perVeh="37.488253" HC_perVeh="0.003171" PMx_perVeh="0.000506" NOx_perVeh="0.014354" fuel_perVeh="0.016115" electricity_perVeh="0"/>
        <edge id=":1105984390_1" sampledSeconds="669.83" CO_abs="16546.192841" CO2_abs="2056486.852529" HC_abs="124.594412" PMx_abs="36.825961" NOx_abs="775.069275" fuel_abs="883.989123" electricity_abs="0"
            CO_normed="965.245973" CO2_normed="119968.120256" HC_normed="7.268394" PMx_normed="2.148295" NOx_normed="45.214782" fuel_normed="51.568778" electricity_normed="0"
            traveltime="0.64" CO_perVeh="15.716862" CO2_perVeh="1953.411250" HC_perVeh="0.118349" PMx_perVeh="0.034980" NOx_perVeh="0.736221" fuel_perVeh="0.839682" electricity_perVeh="0"/>
        <edge id=":1105984395_0" sampledSeconds="8.95" CO_abs="229.246051" CO2_abs="18146.842172" HC_abs="1.454567" PMx_abs="0.229214" NOx_abs="6.825209" fuel_abs="7.800649" electricity_abs="0"
            CO_normed="190.861652" CO2_normed="15108.379237" HC_normed="1.211018" PMx_normed="0.190835" NOx_normed="5.682412" fuel_normed="6.494527" electricity_normed="0"
            traveltime="0.09" CO_perVeh="2.324806" CO2_perVeh="184.028823" HC_perVeh="0.014751" PMx_perVeh="0.002324" NOx_perVeh="0.069215" fuel_perVeh="0.079107" electricity_perVeh="0"/>
        <edge id=":1105984398_0" sampledSeconds="23.04" CO_abs="1598.485161" CO2_abs="108654.936905" HC_abs="9.853300" PMx_abs="2.020598" NOx_abs="45.226712" fuel_abs="46.705878" electricity_abs="0"
            CO_normed="101.271432" CO2_normed="6883.793057" HC_normed="0.624252" PMx_normed="0.128014" NOx_normed="2.865321" fuel_normed="2.959033" electricity_normed="0"
            traveltime="1.10" CO_perVeh="76.053715" CO2_perVeh="5169.651727" HC_perVeh="0.468806" PMx_perVeh="0.096137" NOx_perVeh="2.151824" fuel_perVeh="2.222201" electricity_perVeh="0"/>
        <edge id=":1105984398_1" sampledSeconds="453.89" CO_abs="7884.260585" CO2_abs="927102.267700" HC_abs="57.125031" PMx_abs="13.176114" NOx_abs="349.976746" fuel_abs="398.521869" electricity_abs="0"
            CO_normed="483.507455" CO2_normed="56855.154996" HC_normed="3.503230" PMx_normed="0.808034" NOx_normed="21.462554" fuel_normed="24.439615" electricity_normed="0"
            traveltime="0.96" CO_perVeh="16.621526" CO2_perVeh="1954.508570" HC_perVeh="0.120430" PMx_perVeh="0.027778" NOx_perVeh="0.737818" fuel_perVeh="0.840160" electricity_perVeh="0"/>
        <edge id=":1106006327_0" sampledSeconds="136.15" CO_abs="18437.924378" CO2_abs="595580.112487" HC_abs="97.976439" PMx_abs="12.445803" NOx_abs="260.818532" fuel_abs="256.018906" electricity_abs="0"
            CO_normed="1593.980303" CO2_normed="51488.602972" HC_normed="8.470179" PMx_normed="1.075954" NOx_normed="22.548070" fuel_normed="22.133136" electricity_normed="0"
            traveltime="2.11" CO_perVeh="285.784462" CO2_perVeh="9231.383031" HC_perVeh="1.518617" PMx_perVeh="0.192908" NOx_perVeh="4.042640" fuel_perVeh="3.968246" electricity_perVeh="0"/>
        <edge id=":1106006327_1" sampledSeconds="161.19" CO_abs="21776.955324" CO2_abs="728031.831063" HC_abs="116.315183" PMx_abs="15.177230" NOx_abs="318.559343" fuel_abs="312.954640" electricity_abs="0"
            CO_normed="1641.754045" CO2_normed="54885.964815" HC_normed="8.768945" PMx_normed="1.144204" NOx_normed="24.016034" fuel_normed="23.593498" electricity_normed="0"
            traveltime="2.29" CO_perVeh="309.151948" CO2_perVeh="10335.350162" HC_perVeh="1.651244" PMx_perVeh="0.215460" NOx_perVeh="4.522360" fuel_perVeh="4.442794" electricity_perVeh="0"/>
        <edge id=":1106006327_2" sampledSeconds="0.00" CO_abs="0" CO2_abs="0" HC_abs="0" PMx_abs="0" NOx_abs="0" fuel_abs="0" electricity_abs="0"
            CO_normed="0" CO2_normed="0" HC_normed="0" PMx_normed="0" NOx_normed="0" fuel_normed="0" electricity_normed="0"/>
        <edge id=":1106006327_3" sampledSeconds="0.00" CO_abs="0" CO2_abs="0" HC_abs="0" PMx_abs="0" NOx_abs="0" fuel_abs="0" electricity_abs="0"
            CO_normed="0" CO2_normed="0" HC_normed="0" PMx_normed="0" NOx_normed="0" fuel_normed="0" electricity_normed="0"/>
        <edge id=":1107381198_0" sampledSeconds="0.00" CO_abs="0" CO2_abs="0" HC_abs="0" PMx_abs="0" NOx_abs="0" fuel_abs="0" electricity_abs="0"
            CO_normed="0" CO2_normed="0" HC_normed="0" PMx_normed="0" NOx_normed="0" fuel_normed="0" electricity_normed="0"/>
        <edge id=":1107381198_1" sampledSeconds="35.62" CO_abs="1389.799900" CO2_abs="57342.360537" HC_abs="7.649485" PMx_abs="0.986794" NOx_abs="23.727686" fuel_abs="24.649456" electricity_abs="0"
            CO_normed="116.088068" CO2_normed="4789.728252" HC_normed="0.638951" PMx_normed="0.082426" NOx_normed="1.981941" fuel_normed="2.058935" electricity_normed="0"
            traveltime="1.47" CO_perVeh="57.221916" CO2_perVeh="2360.943993" HC_perVeh="0.314950" PMx_perVeh="0.040629" NOx_perVeh="0.976935" fuel_perVeh="1.014886" electricity_perVeh="0"/>
        <edge id=":1110338277_0" sampledSeconds="97.10" CO_abs="1322.256743" CO2_abs="174841.127098" HC_abs="10.000166" PMx_abs="2.267596" NOx_abs="64.448335" fuel_abs="75.156980" electricity_abs="0"
            CO_normed="3617.115710" CO2_normed="478288.797532" HC_normed="27.356077" PMx_normed="6.203150" NOx_normed="176.302435" fuel_normed="205.596601" electricity_normed="0"
            traveltime="0.02" CO_perVeh="0.297995" CO2_perVeh="39.403672" HC_perVeh="0.002254" PMx_perVeh="0.000511" NOx_perVeh="0.014525" fuel_perVeh="0.016938" electricity_perVeh="0"/>
        <edge id=":1110338293_0" sampledSeconds="123.82" CO_abs="6188.610186" CO2_abs="433143.166165" HC_abs="38.339283" PMx_abs="7.477006" NOx_abs="176.430281" fuel_abs="186.189534" electricity_abs="0"
            CO_normed="15800.706859" CO2_normed="1105897.445527" HC_normed="97.887531" PMx_normed="19.090229" NOx_normed="450.460291" fuel_normed="475.377534" electricity_normed="0"
            traveltime="0.03" CO_perVeh="1.419460" CO2_perVeh="99.348561" HC_perVeh="0.008794" PMx_perVeh="0.001715" NOx_perVeh="0.040467" fuel_perVeh="0.042706" electricity_perVeh="0"/>
        <edge id=":1110338295_0" sampledSeconds="0.00" CO_abs="0" CO2_abs="0" HC_abs="0" PMx_abs="0" NOx_abs="0" fuel_abs="0" electricity_abs="0"
            CO_normed="0" CO2_normed="0" HC_normed="0" PMx_normed="0" NOx_normed="0" fuel_normed="0" electricity_normed="0"/>
        <edge id=":1110673403_0" sampledSeconds="143.44" CO_abs="2421.119421" CO2_abs="292429.907199" HC_abs="17.729317" PMx_abs="4.056862" NOx_abs="109.726014" fuel_abs="125.703293" electricity_abs="0"
            CO_normed="6181.581500" CO2_normed="746629.550296" HC_normed="45.266342" PMx_normed="10.357944" NOx_normed="280.151524" fuel_normed="320.944579" electricity_normed="0"
            traveltime="0.02" CO_perVeh="0.388727" CO2_perVeh="46.951551" HC_perVeh="0.002847" PMx_perVeh="0.000651" NOx_perVeh="0.017617" fuel_perVeh="0.020182" electricity_perVeh="0"/>
        <edge id=":1110673412_0" sampledSeconds="253.68" CO_abs="44384.283428" CO2_abs="3037714.525645" HC_abs="276.432178" PMx_abs="66.649139" NOx_abs="1304.715565" fuel_abs="1305.763911" electricity_abs="0"
            CO_normed="117229.215217" CO2_normed="8023310.559298" HC_normed="730.121674" PMx_normed="176.035877" NOx_normed="3446.057251" fuel_normed="3448.826176" electricity_normed="0"
            traveltime="0.02" CO_perVeh="2.725576" CO2_perVeh="186.541769" HC_perVeh="0.016975" PMx_perVeh="0.004093" NOx_perVeh="0.080121" fuel_perVeh="0.080185" electricity_perVeh="0"/>
        <edge id=":1110673414_0" sampledSeconds="0.00" CO_abs="0" CO2_abs="0" HC_abs="0" PMx_abs="0" NOx_abs="0" fuel_abs="0" electricity_abs="0"
            CO_normed="0" CO2_normed="0" HC_normed="0" PMx_normed="0" NOx_normed="0" fuel_normed="0" electricity_normed="0"/>
        <edge id=":1110673414_1" sampledSeconds="252.54" CO_abs="17436.804441" CO2_abs="650707.714617" HC_abs="94.495723" PMx_abs="12.031901" NOx_abs="274.874288" fuel_abs="279.716392" electricity_abs="0"
            CO_normed="1479.053179" CO2_normed="55195.395316" HC_normed="8.015471" PMx_normed="1.020590" NOx_normed="23.315837" fuel_normed="23.726562" electricity_normed="0"
            traveltime="1.61" CO_perVeh="110.934902" CO2_perVeh="4139.875339" HC_perVeh="0.601192" PMx_perVeh="0.076548" NOx_perVeh="1.748781" fuel_perVeh="1.779587" electricity_perVeh="0"/>
        <edge id=":1110673417_0" sampledSeconds="29.84" CO_abs="526.233238" CO2_abs="63341.194071" HC_abs="3.853260" PMx_abs="0.851993" NOx_abs="23.618344" fuel_abs="27.227752" electricity_abs="0"
            CO_normed="1439.543813" CO2_normed="173273.783172" HC_normed="10.540834" PMx_normed="2.330679" NOx_normed="64.609453" fuel_normed="74.483212" electricity_normed="0"
            traveltime="0.02" CO_perVeh="0.390577" CO2_perVeh="47.012682" HC_perVeh="0.002860" PMx_perVeh="0.000632" NOx_perVeh="0.017530" fuel_perVeh="0.020209" electricity_perVeh="0"/>
        <edge id=":1110673446_0" sampledSeconds="333.92" CO_abs="3722.602989" CO2_abs="288029.750592" HC_abs="23.807761" PMx_abs="5.426399" NOx_abs="118.978057" fuel_abs="123.810646" electricity_abs="0"
            CO_normed="9504.518270" CO2_normed="735395.107895" HC_normed="60.785774" PMx_normed="13.854635" NOx_normed="303.773762" fuel_normed="316.112287" electricity_normed="0"
            traveltime="0.02" CO_perVeh="0.254072" CO2_perVeh="19.658354" HC_perVeh="0.001625" PMx_perVeh="0.000370" NOx_perVeh="0.008120" fuel_perVeh="0.008450" electricity_perVeh="0"/>
        <edge id=":1110673451_0" sampledSeconds="38.18" CO_abs="374.248627" CO2_abs="27601.853666" HC_abs="2.337109" PMx_abs="0.397086" NOx_abs="10.712635" fuel_abs="11.864950" electricity_abs="0"
            CO_normed="1061.698233" CO2_normed="78303.130966" HC_normed="6.630098" PMx_normed="1.126486" NOx_normed="30.390455" fuel_normed="33.659433" electricity_normed="0"
            traveltime="0.03" CO_perVeh="0.268385" CO2_perVeh="19.794158" HC_perVeh="0.001676" PMx_perVeh="0.000285" NOx_perVeh="0.007682" fuel_perVeh="0.008509" electricity_perVeh="0"/>
        <edge id=":1110673464_0" sampledSeconds="325.01" CO_abs="384.633702" CO2_abs="37950.827589" HC_abs="2.603656" PMx_abs="0.467529" NOx_abs="14.037735" fuel_abs="16.313593" electricity_abs="0"
            CO_normed="20.864947" CO2_normed="2058.691148" HC_normed="0.141239" PMx_normed="0.025362" NOx_normed="0.761495" fuel_normed="0.884952" electricity_normed="0"
            traveltime="1.17" CO_perVeh="1.390400" CO2_perVeh="137.187235" HC_perVeh="0.009412" PMx_perVeh="0.001690" NOx_perVeh="0.050745" fuel_perVeh="0.058971" electricity_perVeh="0"/>
        <edge id=":1110673464_1" sampledSeconds="736.29" CO_abs="17609.227429" CO2_abs="2198525.288950" HC_abs="132.722936" PMx_abs="39.250415" NOx_abs="828.427106" fuel_abs="945.044950" electricity_abs="0"
            CO_normed="936.011026" CO2_normed="116861.680574" HC_normed="7.054831" PMx_normed="2.086339" NOx_normed="44.034692" fuel_normed="50.233464" electricity_normed="0"
            traveltime="0.70" CO_perVeh="16.752282" CO2_perVeh="2091.534967" HC_perVeh="0.126264" PMx_perVeh="0.037340" NOx_perVeh="0.788112" fuel_perVeh="0.899055" electricity_perVeh="0"/>
        <edge id=":1110673479_0" sampledSeconds="133.57" CO_abs="6857.697073" CO2_abs="475880.191569" HC_abs="42.402944" PMx_abs="8.300077" NOx_abs="194.396577" fuel_abs="204.560254" electricity_abs="0"
            CO_normed="17509.013802" CO2_normed="1215013.255071" HC_normed="108.262835" PMx_normed="21.191687" NOx_normed="496.331686" fuel_normed="522.281499" electricity_normed="0"
            traveltime="0.03" CO_perVeh="1.444645" CO2_perVeh="100.249087" HC_perVeh="0.008933" PMx_perVeh="0.001748" NOx_perVeh="0.040952" fuel_perVeh="0.043093" electricity_perVeh="0"/>
        <edge id=":1110673511_0" sampledSeconds="11.80" CO_abs="179.067065" CO2_abs="21741.139591" HC_abs="1.312813" PMx_abs="0.295931" NOx_abs="8.117919" fuel_abs="9.345608" electricity_abs="0"
            CO_normed="457.192507" CO2_normed="55509.292573" HC_normed="3.351863" PMx_normed="0.755569" NOx_normed="20.726601" fuel_normed="23.861127" electricity_normed="0"
            traveltime="0.02" CO_perVeh="0.354588" CO2_perVeh="43.051762" HC_perVeh="0.002600" PMx_perVeh="0.000586" NOx_perVeh="0.016075" fuel_perVeh="0.018506" electricity_perVeh="0"/>
        <edge id=":1110673517_0" sampledSeconds="17.35" CO_abs="591.787700" CO2_abs="45403.612333" HC_abs="3.749256" PMx_abs="0.714499" NOx_abs="17.965474" fuel_abs="19.517117" electricity_abs="0"
            CO_normed="1510.947320" CO2_normed="115924.116595" HC_normed="9.572568" PMx_normed="1.824253" NOx_normed="45.869296" fuel_normed="49.830937" electricity_normed="0"
            traveltime="0.03" CO_perVeh="0.950154" CO2_perVeh="72.898495" HC_perVeh="0.006020" PMx_perVeh="0.001147" NOx_perVeh="0.028845" fuel_perVeh="0.031336" electricity_perVeh="0"/>
        <edge id=":1110673534_0" sampledSeconds="476.50" CO_abs="3605.327042" CO2_abs="308323.853492" HC_abs="23.493018" PMx_abs="4.310444" NOx_abs="118.047975" fuel_abs="132.536070" electricity_abs="0"
            CO_normed="178.393223" CO2_normed="15256.004626" HC_normed="1.162445" PMx_normed="0.213283" NOx_normed="5.841068" fuel_normed="6.557945" electricity_normed="0"
            traveltime="1.44" CO_perVeh="10.861407" CO2_perVeh="928.856336" HC_perVeh="0.070775" PMx_perVeh="0.012986" NOx_perVeh="0.355631" fuel_perVeh="0.399278" electricity_perVeh="0"/>
        <edge id=":1110673534_1" sampledSeconds="184.15" CO_abs="2809.033187" CO2_abs="345827.934138" HC_abs="20.540332" PMx_abs="4.673010" NOx_abs="128.782581" fuel_abs="148.656987" electricity_abs="0"
            CO_normed="135.150747" CO2_normed="16638.786524" HC_normed="0.988255" PMx_normed="0.224832" NOx_normed="6.196104" fuel_normed="7.152319" electricity_normed="0"
            traveltime="1.22" CO_perVeh="18.650972" CO2_perVeh="2296.173328" HC_perVeh="0.136380" PMx_perVeh="0.031027" NOx_perVeh="0.855070" fuel_perVeh="0.987029" electricity_perVeh="0"/>
        <edge id=":1110673549_0" sampledSeconds="59.72" CO_abs="57.017206" CO2_abs="6856.417237" HC_abs="0.417022" PMx_abs="0.087463" NOx_abs="2.508192" fuel_abs="2.947299" electricity_abs="0"
            CO_normed="2.732963" CO2_normed="328.643545" HC_normed="0.019989" PMx_normed="0.004192" NOx_normed="0.120223" fuel_normed="0.141271" electricity_normed="0"
            traveltime="1.24" CO_perVeh="1.187905" CO2_perVeh="142.847613" HC_perVeh="0.008688" PMx_perVeh="0.001822" NOx_perVeh="0.052256" fuel_perVeh="0.061404" electricity_perVeh="0"/>
        <edge id=":1110673549_1" sampledSeconds="638.55" CO_abs="13325.052198" CO2_abs="1841436.953260" HC_abs="104.580319" PMx_abs="31.952651" NOx_abs="682.834274" fuel_abs="791.549803" electricity_abs="0"
            CO_normed="617.822213" CO2_normed="85379.076706" HC_normed="4.848915" PMx_normed="1.481499" NOx_normed="31.659927" fuel_normed="36.700573" electricity_normed="0"
            traveltime="0.80" CO_perVeh="16.773602" CO2_perVeh="2318.004476" HC_perVeh="0.131646" PMx_perVeh="0.040222" NOx_perVeh="0.859553" fuel_perVeh="0.996404" electricity_perVeh="0"/>
        <edge id=":1110673556_0" sampledSeconds="417.65" CO_abs="51994.309182" CO2_abs="2610745.843787" HC_abs="298.851372" PMx_abs="52.785422" NOx_abs="1125.196525" fuel_abs="1122.246386" electricity_abs="0"
            CO_normed="1848.047717" CO2_normed="92794.441799" HC_normed="10.622155" PMx_normed="1.876166" NOx_normed="39.993163" fuel_normed="39.888305" electricity_normed="0"
            traveltime="2.59" CO_perVeh="322.755318" CO2_perVeh="16206.237163" HC_perVeh="1.855124" PMx_perVeh="0.327666" NOx_perVeh="6.984671" fuel_perVeh="6.966358" electricity_perVeh="0"/>
        <edge id=":1110673556_2" sampledSeconds="245.42" CO_abs="24213.117387" CO2_abs="1059562.035440" HC_abs="135.148375" PMx_abs="20.440562" NOx_abs="451.800508" fuel_abs="455.463764" electricity_abs="0"
            CO_normed="899.864996" CO2_normed="39377.944270" HC_normed="5.022703" PMx_normed="0.759660" NOx_normed="16.790876" fuel_normed="16.927019" electricity_normed="0"
            traveltime="2.98" CO_perVeh="293.700474" CO2_perVeh="12852.284447" HC_perVeh="1.639324" PMx_perVeh="0.247940" NOx_perVeh="5.480254" fuel_perVeh="5.524688" electricity_perVeh="0"/>
        <edge id=":1110673556_3" sampledSeconds="380.73" CO_abs="32931.696117" CO2_abs="1172688.422213" HC_abs="177.253103" PMx_abs="22.412737" NOx_abs="500.332649" fuel_abs="504.097715" electricity_abs="0"
            CO_normed="2784.136631" CO2_normed="99142.321168" HC_normed="14.985467" PMx_normed="1.894835" NOx_normed="42.299505" fuel_normed="42.617814" electricity_normed="0"
            traveltime="1.73" CO_perVeh="150.032770" CO2_perVeh="5342.624661" HC_perVeh="0.807543" PMx_perVeh="0.102110" NOx_perVeh="2.279454" fuel_perVeh="2.296607" electricity_perVeh="0"/>
        <edge id=":1110673556_4" sampledSeconds="160.11" CO_abs="16619.626462" CO2_abs="662835.953764" HC_abs="91.221622" PMx_abs="12.909671" NOx_abs="283.922525" fuel_abs="284.927952" electricity_abs="0"
            CO_normed="858.390199" CO2_normed="34234.938287" HC_normed="4.711523" PMx_normed="0.666774" NOx_normed="14.664368" fuel_normed="14.716297" electricity_normed="0"
            traveltime="2.43" CO_perVeh="251.755935" CO2_perVeh="10040.712149" HC_perVeh="1.381835" PMx_perVeh="0.195557" NOx_perVeh="4.300890" fuel_perVeh="4.316120" electricity_perVeh="0"/>
        <edge id=":1110673556_5" sampledSeconds="26.69" CO_abs="2562.032001" CO2_abs="98141.188649" HC_abs="13.971456" PMx_abs="1.947931" NOx_abs="42.287677" fuel_abs="42.187192" electricity_abs="0"
            CO_normed="184.436794" CO2_normed="7065.035177" HC_normed="1.005784" PMx_normed="0.140229" NOx_normed="3.044226" fuel_normed="3.036992" electricity_normed="0"
            traveltime="1.85" CO_perVeh="177.129882" CO2_perVeh="6785.136614" HC_perVeh="0.965937" PMx_perVeh="0.134673" NOx_perVeh="2.923621" fuel_perVeh="2.916674" electricity_perVeh="0"/>
        <edge id=":1110673556_6" sampledSeconds="311.03" CO_abs="37095.226794" CO2_abs="1889980.999182" HC_abs="213.844498" PMx_abs="37.967061" NOx_abs="812.318332" fuel_abs="812.420823" electricity_abs="0"
            CO_normed="1351.730029" CO2_normed="68869.886805" HC_normed="7.792378" PMx_normed="1.383499" NOx_normed="29.600441" fuel_normed="29.604176" electricity_normed="0"
            traveltime="2.46" CO_perVeh="293.764356" CO2_perVeh="14967.129161" HC_perVeh="1.693476" PMx_perVeh="0.300669" NOx_perVeh="6.432908" fuel_perVeh="6.433719" electricity_perVeh="0"/>
        <edge id=":1110673561_0" sampledSeconds="99.67" CO_abs="10216.533867" CO2_abs="727333.644668" HC_abs="64.052188" PMx_abs="14.814909" NOx_abs="308.301918" fuel_abs="312.645974" electricity_abs="0"
            CO_normed="467.748368" CO2_normed="33299.857827" HC_normed="2.932531" PMx_normed="0.678278" NOx_normed="14.115132" fuel_normed="14.314017" electricity_normed="0"
            traveltime="1.18" CO_perVeh="120.566892" CO2_perVeh="8583.376499" HC_perVeh="0.755890" PMx_perVeh="0.174833" NOx_perVeh="3.638318" fuel_perVeh="3.689583" electricity_perVeh="0"/>
        <edge id=":1110673561_1" sampledSeconds="1317.72" CO_abs="121692.969303" CO2_abs="8409615.271457" HC_abs="757.629861" PMx_abs="175.967544" NOx_abs="3597.230645" fuel_abs="3614.887372" electricity_abs="0"
            CO_normed="5431.913523" CO2_normed="375373.394054" HC_normed="33.817729" PMx_normed="7.854525" NOx_normed="160.566760" fuel_normed="161.354889" electricity_normed="0"
            traveltime="1.19" CO_perVeh="110.331508" CO2_perVeh="7624.479353" HC_perVeh="0.686896" PMx_perVeh="0.159539" NOx_perVeh="3.261387" fuel_perVeh="3.277395" electricity_perVeh="0"/>
        <edge id=":1110673562_0" sampledSeconds="103.91" CO_abs="2354.336557" CO2_abs="186285.402204" HC_abs="14.960722" PMx_abs="2.471580" NOx_abs="70.735559" fuel_abs="80.076955" electricity_abs="0"
            CO_normed="6678.968957" CO2_normed="528469.226111" HC_normed="42.441766" PMx_normed="7.011573" NOx_normed="200.668252" fuel_normed="227.168668" electricity_normed="0"
            traveltime="0.03" CO_perVeh="0.600134" CO2_perVeh="47.485249" HC_perVeh="0.003814" PMx_perVeh="0.000630" NOx_perVeh="0.018031" fuel_perVeh="0.020412" electricity_perVeh="0"/>
        <edge id=":1110673564_0" sampledSeconds="28.92" CO_abs="485.170694" CO2_abs="52598.729353" HC_abs="3.411038" PMx_abs="0.746579" NOx_abs="19.951599" fuel_abs="22.609982" electricity_abs="0"
            CO_normed="3716.201062" CO2_normed="402883.884405" HC_normed="26.127100" PMx_normed="5.718479" NOx_normed="152.820759" fuel_normed="173.182840" electricity_normed="0"
            traveltime="7.950085e-03" CO_perVeh="0.133380" CO2_perVeh="14.460132" HC_perVeh="0.000938" PMx_perVeh="0.000205" NOx_perVeh="0.005485" fuel_perVeh="0.006216" electricity_perVeh="0"/>
        <edge id=":1110673588_0" sampledSeconds="11.61" CO_abs="219.325969" CO2_abs="26918.428344" HC_abs="1.622949" PMx_abs="0.379453" NOx_abs="10.132126" fuel_abs="11.571088" electricity_abs="0"
            CO_normed="671.977435" CO2_normed="82473.482585" HC_normed="4.972440" PMx_normed="1.162580" NOx_normed="31.043110" fuel_normed="35.451843" electricity_normed="0"
            traveltime="0.02" CO_perVeh="0.365543" CO2_perVeh="44.864047" HC_perVeh="0.002705" PMx_perVeh="0.000632" NOx_perVeh="0.016887" fuel_perVeh="0.019285" electricity_perVeh="0"/>
        <edge id=":1110673601_0" sampledSeconds="29.78" CO_abs="639.724702" CO2_abs="68852.433472" HC_abs="4.490762" PMx_abs="0.991127" NOx_abs="26.213810" fuel_abs="29.596748" electricity_abs="0"
            CO_normed="1750.006783" CO2_normed="188350.121960" HC_normed="12.284761" PMx_normed="2.711291" NOx_normed="71.709511" fuel_normed="80.963749" electricity_normed="0"
            traveltime="0.02" CO_perVeh="0.474812" CO2_perVeh="51.103198" HC_perVeh="0.003333" PMx_perVeh="0.000736" NOx_perVeh="0.019456" fuel_perVeh="0.021967" electricity_perVeh="0"/>
        <edge id=":1110673617_0" sampledSeconds="245.92" CO_abs="6284.951835" CO2_abs="772374.912163" HC_abs="47.063642" PMx_abs="13.838837" NOx_abs="291.827234" fuel_abs="332.008424" electricity_abs="0"
            CO_normed="16046.685536" CO2_normed="1972021.052331" HC_normed="120.162489" PMx_normed="35.333202" NOx_normed="745.090811" fuel_normed="847.681084" electricity_normed="0"
            traveltime="0.01" CO_perVeh="0.374172" CO2_perVeh="45.983011" HC_perVeh="0.002802" PMx_perVeh="0.000824" NOx_perVeh="0.017374" fuel_perVeh="0.019766" electricity_perVeh="0"/>
        <edge id=":1110673621_0" sampledSeconds="25.79" CO_abs="570.126001" CO2_abs="58531.801600" HC_abs="3.942949" PMx_abs="0.868477" NOx_abs="22.474280" fuel_abs="25.160326" electricity_abs="0"
            CO_normed="1746.769024" CO2_normed="179331.477242" HC_normed="12.080524" PMx_normed="2.660865" NOx_normed="68.857368" fuel_normed="77.086957" electricity_normed="0"
            traveltime="0.02" CO_perVeh="0.431914" CO2_perVeh="44.342274" HC_perVeh="0.002987" PMx_perVeh="0.000658" NOx_perVeh="0.017026" fuel_perVeh="0.019061" electricity_perVeh="0"/>
        <edge id=":1110673630_0" sampledSeconds="54.25" CO_abs="257.711336" CO2_abs="25445.810683" HC_abs="1.756624" PMx_abs="0.345304" NOx_abs="9.604665" fuel_abs="10.938123" electricity_abs="0"
            CO_normed="14.079595" CO2_normed="1390.186033" HC_normed="0.095970" PMx_normed="0.018865" NOx_normed="0.524734" fuel_normed="0.597585" electricity_normed="0"
            traveltime="1.27" CO_perVeh="6.015438" CO2_perVeh="593.950229" HC_perVeh="0.041003" PMx_perVeh="0.008060" NOx_perVeh="0.224190" fuel_perVeh="0.255315" electricity_perVeh="0"/>
        <edge id=":1110673630_1" sampledSeconds="7.43" CO_abs="44.889802" CO2_abs="4258.436992" HC_abs="0.301654" PMx_abs="0.055840" NOx_abs="1.601429" fuel_abs="1.830533" electricity_abs="0"
            CO_normed="2.989885" CO2_normed="283.633176" HC_normed="0.020092" PMx_normed="0.003719" NOx_normed="0.106663" fuel_normed="0.121923" electricity_normed="0"
            traveltime="1.05" CO_perVeh="6.353634" CO2_perVeh="602.732620" HC_perVeh="0.042696" PMx_perVeh="0.007904" NOx_perVeh="0.226664" fuel_perVeh="0.259091" electricity_perVeh="0"/>
        <edge id=":1110673650_0" sampledSeconds="143.40" CO_abs="1970.510013" CO2_abs="254264.118307" HC_abs="14.766869" PMx_abs="3.460751" NOx_abs="94.651325" fuel_abs="109.297444" electricity_abs="0"
            CO_normed="5031.089395" CO2_normed="649184.982911" HC_normed="37.702644" PMx_normed="8.835961" NOx_normed="241.662957" fuel_normed="279.057303" electricity_normed="0"
            traveltime="0.02" CO_perVeh="0.316964" CO2_perVeh="40.899349" HC_perVeh="0.002375" PMx_perVeh="0.000557" NOx_perVeh="0.015225" fuel_perVeh="0.017581" electricity_perVeh="0"/>
        <edge id=":1110673655_0" sampledSeconds="44.94" CO_abs="991.064851" CO2_abs="104609.707680" HC_abs="6.934985" PMx_abs="1.525150" NOx_abs="39.969741" fuel_abs="44.967277" electricity_abs="0"
            CO_normed="2530.378343" CO2_normed="267088.615354" HC_normed="17.706344" PMx_normed="3.894000" NOx_normed="102.050402" fuel_normed="114.810069" electricity_normed="0"
            traveltime="0.02" CO_perVeh="0.530407" CO2_perVeh="55.985929" HC_perVeh="0.003712" PMx_perVeh="0.000816" NOx_perVeh="0.021391" fuel_perVeh="0.024066" electricity_perVeh="0"/>
        <edge id=":1110673663_0" sampledSeconds="108.33" CO_abs="1928.791568" CO2_abs="230855.067340" HC_abs="14.111812" PMx_abs="3.208394" NOx_abs="86.669704" fuel_abs="99.234876" electricity_abs="0"
            CO_normed="90.193667" CO2_normed="10795.186689" HC_normed="0.659893" PMx_normed="0.150030" NOx_normed="4.052827" fuel_normed="4.640396" electricity_normed="0"
            traveltime="1.27" CO_perVeh="22.654567" CO2_perVeh="2711.501673" HC_perVeh="0.165750" PMx_perVeh="0.037684" NOx_perVeh="1.017977" fuel_perVeh="1.165560" electricity_perVeh="0"/>
        <edge id=":1110673663_1" sampledSeconds="154.37" CO_abs="2827.582599" CO2_abs="337682.876968" HC_abs="20.570930" PMx_abs="4.771862" NOx_abs="127.088486" fuel_abs="145.155539" electricity_abs="0"
            CO_normed="132.384349" CO2_normed="15809.945860" HC_normed="0.963109" PMx_normed="0.223413" NOx_normed="5.950145" fuel_normed="6.796025" electricity_normed="0"
            traveltime="1.25" CO_perVeh="22.848856" CO2_perVeh="2728.715134" HC_perVeh="0.166228" PMx_perVeh="0.038560" NOx_perVeh="1.026964" fuel_perVeh="1.172959" electricity_perVeh="0"/>
        <edge id=":1110673666_0" sampledSeconds="190.74" CO_abs="4049.706579" CO2_abs="324278.933187" HC_abs="25.828222" PMx_abs="4.324172" NOx_abs="123.213147" fuel_abs="139.395017" electricity_abs="0"