<?xml version="1.0" encoding="UTF-8"?>

<!-- generated on Tue Nov 10 04:48:03 2020 by Eclipse SUMO sumo Version 1.7.0
<configuration xmlns:xsi="http://www.w3.org/2001/XMLSchema-instance" xsi:noNamespaceSchemaLocation="http://sumo.dlr.de/xsd/sumoConfiguration.xsd">

    <input>
        <net-file value="../dataSets/Porto/8AM9AM_Routing_SaoBento/Porto.net.xml"/>
        <route-files value="../results/Porto/8AM9AM_Routing_SaoBento/cost_PMx-ttime/solution4/Porto.rou.xml"/>
        <additional-files value="moreOutputInfo.xml"/>
    </input>

    <output>
        <emission-output.precision value="6"/>
        <tripinfo-output value="../results/Porto/8AM9AM_Routing_SaoBento/cost_PMx-ttime/solution4/Porto-tripinfo"/>
    </output>

    <processing>
        <collision.action value="warn"/>
        <time-to-teleport value="-1"/>
    </processing>

    <emissions>
        <device.emissions.probability value="1"/>
    </emissions>

    <gui_only>
        <quit-on-end value="true"/>
        <start value="true"/>
    </gui_only>

</configuration>
-->

<meandata xmlns:xsi="http://www.w3.org/2001/XMLSchema-instance" xsi:noNamespaceSchemaLocation="http://sumo.dlr.de/xsd/meandata_file.xsd">
    <interval begin="0.00" end="8471.00" id="emissions-detector">
        <edge id=":1092997347_0" sampledSeconds="586.52" CO_abs="71227.413384" CO2_abs="3065324.506991" HC_abs="396.847260" PMx_abs="61.929362" NOx_abs="1325.673387" fuel_abs="1317.658310" electricity_abs="0"
            CO_normed="68795.861866" CO2_normed="2960680.885901" HC_normed="383.299744" PMx_normed="59.815226" NOx_normed="1280.417734" fuel_normed="1272.676274" electricity_normed="0"
            traveltime="0.07" CO_perVeh="8.174652" CO2_perVeh="351.802221" HC_perVeh="0.045546" PMx_perVeh="0.007108" NOx_perVeh="0.152145" fuel_perVeh="0.151225" electricity_perVeh="0"/>
        <edge id=":1103427051_0" sampledSeconds="19.51" CO_abs="1568.522089" CO2_abs="87977.562602" HC_abs="9.227106" PMx_abs="1.707739" NOx_abs="37.429883" fuel_abs="37.817692" electricity_abs="0"
            CO_normed="2298.584428" CO2_normed="128926.367593" HC_normed="13.521825" PMx_normed="2.502599" NOx_normed="54.851472" fuel_normed="55.419786" electricity_normed="0"
            traveltime="0.03" CO_perVeh="2.439250" CO2_perVeh="136.816244" HC_perVeh="0.014349" PMx_perVeh="0.002656" NOx_perVeh="0.058208" fuel_perVeh="0.058811" electricity_perVeh="0"/>
        <edge id=":1105984386_0" sampledSeconds="10.68" CO_abs="127.857963" CO2_abs="10065.902903" HC_abs="0.806940" PMx_abs="0.111012" NOx_abs="3.677483" fuel_abs="4.326981" electricity_abs="0"
            CO_normed="5.595983" CO2_normed="440.556209" HC_normed="0.035317" PMx_normed="0.004859" NOx_normed="0.160953" fuel_normed="0.189380" electricity_normed="0"
            traveltime="1.02" CO_perVeh="12.265371" CO2_perVeh="965.618625" HC_perVeh="0.077409" PMx_perVeh="0.010649" NOx_perVeh="0.352780" fuel_perVeh="0.415086" electricity_perVeh="0"/>
        <edge id=":1105984390_0" sampledSeconds="10.85" CO_abs="19.692716" CO2_abs="1310.875366" HC_abs="0.119656" PMx_abs="0.018983" NOx_abs="0.512279" fuel_abs="0.563495" electricity_abs="0"
            CO_normed="0.666321" CO2_normed="44.354693" HC_normed="0.004049" PMx_normed="0.000642" NOx_normed="0.017333" fuel_normed="0.019066" electricity_normed="0"
            traveltime="1.13" CO_perVeh="2.041269" CO2_perVeh="135.880124" HC_perVeh="0.012403" PMx_perVeh="0.001968" NOx_perVeh="0.053101" fuel_perVeh="0.058410" electricity_perVeh="0"/>
        <edge id=":1105984390_1" sampledSeconds="2400.53" CO_abs="62993.701054" CO2_abs="7450669.311626" HC_abs="465.169514" PMx_abs="134.778521" NOx_abs="2838.179356" fuel_abs="3202.698410" electricity_abs="0"
            CO_normed="2038.920151" CO2_normed="241156.171833" HC_normed="15.056164" PMx_normed="4.362383" NOx_normed="91.863488" fuel_normed="103.661893" electricity_normed="0"
            traveltime="0.65" CO_perVeh="17.009837" CO2_perVeh="2011.862635" HC_perVeh="0.125607" PMx_perVeh="0.036393" NOx_perVeh="0.766378" fuel_perVeh="0.864807" electricity_perVeh="0"/>
        <edge id=":1105984395_0" sampledSeconds="4.16" CO_abs="52.368093" CO2_abs="4355.540136" HC_abs="0.337146" PMx_abs="0.055001" NOx_abs="1.635679" fuel_abs="1.872282" electricity_abs="0"
            CO_normed="24.190606" CO2_normed="2011.972367" HC_normed="0.155739" PMx_normed="0.025407" NOx_normed="0.755576" fuel_normed="0.864871" electricity_normed="0"
            traveltime="0.10" CO_perVeh="1.213874" CO2_perVeh="100.959862" HC_perVeh="0.007815" PMx_perVeh="0.001275" NOx_perVeh="0.037914" fuel_perVeh="0.043399" electricity_perVeh="0"/>
        <edge id=":1105984398_0" sampledSeconds="10.85" CO_abs="654.180256" CO2_abs="44440.549915" HC_abs="4.018965" PMx_abs="0.760919" NOx_abs="18.089157" fuel_abs="19.103096" electricity_abs="0"
            CO_normed="22.995293" CO2_normed="1562.143559" HC_normed="0.141272" PMx_normed="0.026747" NOx_normed="0.635858" fuel_normed="0.671499" electricity_normed="0"
            traveltime="1.17" CO_perVeh="70.514376" CO2_perVeh="4790.266309" HC_perVeh="0.433206" PMx_perVeh="0.082020" NOx_perVeh="1.949838" fuel_perVeh="2.059131" electricity_perVeh="0"/>
        <edge id=":1105984398_1" sampledSeconds="648.04" CO_abs="12294.748546" CO2_abs="1412807.821367" HC_abs="88.373236" PMx_abs="20.366251" NOx_abs="535.427736" fuel_abs="607.305822" electricity_abs="0"
            CO_normed="418.335800" CO2_normed="48071.588253" HC_normed="3.006950" PMx_normed="0.692973" NOx_normed="18.218233" fuel_normed="20.663925" electricity_normed="0"
            traveltime="0.95" CO_perVeh="18.085162" CO2_perVeh="2078.192863" HC_perVeh="0.129994" PMx_perVeh="0.029958" NOx_perVeh="0.787596" fuel_perVeh="0.893326" electricity_perVeh="0"/>
        <edge id=":1106006327_0" sampledSeconds="67.30" CO_abs="9128.347612" CO2_abs="297309.076532" HC_abs="48.566795" PMx_abs="6.214091" NOx_abs="130.209678" fuel_abs="127.802630" electricity_abs="0"
            CO_normed="437.850920" CO2_normed="14260.746671" HC_normed="2.329558" PMx_normed="0.298065" NOx_normed="6.245646" fuel_normed="6.130189" electricity_normed="0"
            traveltime="2.09" CO_perVeh="282.975263" CO2_perVeh="9216.466947" HC_perVeh="1.505552" PMx_perVeh="0.192634" NOx_perVeh="4.036450" fuel_perVeh="3.961832" electricity_perVeh="0"/>
        <edge id=":1106006327_1" sampledSeconds="684.26" CO_abs="92825.245732" CO2_abs="3100374.852261" HC_abs="495.749210" PMx_abs="64.740516" NOx_abs="1357.255312" fuel_abs="1332.739303" electricity_abs="0"
            CO_normed="3882.757066" CO2_normed="129684.573075" HC_normed="20.736533" PMx_normed="2.708010" NOx_normed="56.772192" fuel_normed="55.746720" electricity_normed="0"
            traveltime="2.30" CO_perVeh="311.591882" CO2_perVeh="10407.207944" HC_perVeh="1.664110" PMx_perVeh="0.217318" NOx_perVeh="4.555978" fuel_perVeh="4.473683" electricity_perVeh="0"/>
        <edge id=":1106006327_2" sampledSeconds="0.00" CO_abs="0" CO2_abs="0" HC_abs="0" PMx_abs="0" NOx_abs="0" fuel_abs="0" electricity_abs="0"
            CO_normed="0" CO2_normed="0" HC_normed="0" PMx_normed="0" NOx_normed="0" fuel_normed="0" electricity_normed="0"/>
        <edge id=":1106006327_3" sampledSeconds="0.00" CO_abs="0" CO2_abs="0" HC_abs="0" PMx_abs="0" NOx_abs="0" fuel_abs="0" electricity_abs="0"
            CO_normed="0" CO2_normed="0" HC_normed="0" PMx_normed="0" NOx_normed="0" fuel_normed="0" electricity_normed="0"/>
        <edge id=":1107381198_0" sampledSeconds="0.00" CO_abs="0" CO2_abs="0" HC_abs="0" PMx_abs="0" NOx_abs="0" fuel_abs="0" electricity_abs="0"
            CO_normed="0" CO2_normed="0" HC_normed="0" PMx_normed="0" NOx_normed="0" fuel_normed="0" electricity_normed="0"/>
        <edge id=":1107381198_1" sampledSeconds="102.88" CO_abs="4872.092253" CO2_abs="193305.572598" HC_abs="26.642160" PMx_abs="3.378658" NOx_abs="80.360342" fuel_abs="83.095315" electricity_abs="0"
            CO_normed="225.794826" CO2_normed="8958.655933" HC_normed="1.234718" PMx_normed="0.156582" NOx_normed="3.724262" fuel_normed="3.851013" electricity_normed="0"
            traveltime="1.54" CO_perVeh="72.944563" CO2_perVeh="2894.155076" HC_perVeh="0.398884" PMx_perVeh="0.050585" NOx_perVeh="1.203148" fuel_perVeh="1.244096" electricity_perVeh="0"/>
        <edge id=":1110338277_0" sampledSeconds="160.49" CO_abs="2955.507483" CO2_abs="342549.413196" HC_abs="21.339216" PMx_abs="4.817935" NOx_abs="129.188280" fuel_abs="147.247539" electricity_abs="0"
            CO_normed="4485.820083" CO2_normed="519915.799917" HC_normed="32.388308" PMx_normed="7.312582" NOx_normed="196.079822" fuel_normed="223.489864" electricity_normed="0"
            traveltime="0.02" CO_perVeh="0.400630" CO2_perVeh="46.433795" HC_perVeh="0.002893" PMx_perVeh="0.000653" NOx_perVeh="0.017512" fuel_perVeh="0.019960" electricity_perVeh="0"/>
        <edge id=":1110338293_0" sampledSeconds="6392.25" CO_abs="593140.280507" CO2_abs="10409094.784928" HC_abs="2944.243905" PMx_abs="247.911048" NOx_abs="4702.869119" fuel_abs="4474.693878" electricity_abs="0"
            CO_normed="840241.218993" CO2_normed="14745500.816803" HC_normed="4170.809451" PMx_normed="351.190247" NOx_normed="6662.074067" fuel_normed="6338.841522" electricity_normed="0"
            traveltime="0.43" CO_perVeh="39.635768" CO2_perVeh="695.573180" HC_perVeh="0.196745" PMx_perVeh="0.016566" NOx_perVeh="0.314263" fuel_perVeh="0.299015" electricity_perVeh="0"/>
        <edge id=":1110338295_0" sampledSeconds="0.00" CO_abs="0" CO2_abs="0" HC_abs="0" PMx_abs="0" NOx_abs="0" fuel_abs="0" electricity_abs="0"
            CO_normed="0" CO2_normed="0" HC_normed="0" PMx_normed="0" NOx_normed="0" fuel_normed="0" electricity_normed="0"/>
        <edge id=":1110673403_0" sampledSeconds="200.33" CO_abs="3163.216161" CO2_abs="390423.240600" HC_abs="23.331496" PMx_abs="5.316453" NOx_abs="145.692702" fuel_abs="167.826606" electricity_abs="0"
            CO_normed="4481.005068" CO2_normed="553072.705371" HC_normed="33.051345" PMx_normed="7.531276" NOx_normed="206.387961" fuel_normed="237.742801" electricity_normed="0"
            traveltime="0.02" CO_perVeh="0.365591" CO2_perVeh="45.123463" HC_perVeh="0.002697" PMx_perVeh="0.000614" NOx_perVeh="0.016839" fuel_perVeh="0.019397" electricity_perVeh="0"/>
        <edge id=":1110673412_0" sampledSeconds="938.78" CO_abs="167696.883551" CO2_abs="11424308.539049" HC_abs="1043.263257" PMx_abs="251.347676" NOx_abs="4911.192862" fuel_abs="4910.747374" electricity_abs="0"
            CO_normed="245750.727954" CO2_normed="16741707.301819" HC_normed="1528.845971" PMx_normed="368.336448" NOx_normed="7197.087956" fuel_normed="7196.435118" electricity_normed="0"
            traveltime="0.02" CO_perVeh="2.769512" CO2_perVeh="188.672301" HC_perVeh="0.017229" PMx_perVeh="0.004151" NOx_perVeh="0.081108" fuel_perVeh="0.081101" electricity_perVeh="0"/>
        <edge id=":1110673414_0" sampledSeconds="0.00" CO_abs="0" CO2_abs="0" HC_abs="0" PMx_abs="0" NOx_abs="0" fuel_abs="0" electricity_abs="0"
            CO_normed="0" CO2_normed="0" HC_normed="0" PMx_normed="0" NOx_normed="0" fuel_normed="0" electricity_normed="0"/>
        <edge id=":1110673414_1" sampledSeconds="240.76" CO_abs="17257.178225" CO2_abs="665066.550138" HC_abs="94.024721" PMx_abs="12.273620" NOx_abs="280.713039" fuel_abs="285.888312" electricity_abs="0"
            CO_normed="812.175441" CO2_normed="31300.060286" HC_normed="4.425090" PMx_normed="0.577634" NOx_normed="13.211212" fuel_normed="13.454776" electricity_normed="0"
            traveltime="1.56" CO_perVeh="111.966201" CO2_perVeh="4315.014548" HC_perVeh="0.610041" PMx_perVeh="0.079632" NOx_perVeh="1.821293" fuel_perVeh="1.854870" electricity_perVeh="0"/>
        <edge id=":1110673417_0" sampledSeconds="29.15" CO_abs="562.253255" CO2_abs="63724.244132" HC_abs="4.020484" PMx_abs="0.869258" NOx_abs="23.898006" fuel_abs="27.392412" electricity_abs="0"
            CO_normed="853.378636" CO2_normed="96719.597482" HC_normed="6.102224" PMx_normed="1.319345" NOx_normed="36.271995" fuel_normed="41.575746" electricity_normed="0"
            traveltime="0.02" CO_perVeh="0.428745" CO2_perVeh="48.592795" HC_perVeh="0.003066" PMx_perVeh="0.000663" NOx_perVeh="0.018223" fuel_perVeh="0.020888" electricity_perVeh="0"/>
        <edge id=":1110673446_0" sampledSeconds="1311.08" CO_abs="14252.269270" CO2_abs="1146449.170474" HC_abs="92.048785" PMx_abs="21.059603" NOx_abs="469.383374" fuel_abs="492.805786" electricity_abs="0"
            CO_normed="20189.733353" CO2_normed="1624057.377604" HC_normed="130.396106" PMx_normed="29.832987" NOx_normed="664.927457" fuel_normed="698.107595" electricity_normed="0"
            traveltime="0.02" CO_perVeh="0.247499" CO2_perVeh="19.908758" HC_perVeh="0.001598" PMx_perVeh="0.000366" NOx_perVeh="0.008151" fuel_perVeh="0.008558" electricity_perVeh="0"/>
        <edge id=":1110673451_0" sampledSeconds="36.36" CO_abs="534.192115" CO2_abs="36170.857118" HC_abs="3.268484" PMx_abs="0.565639" NOx_abs="14.385903" fuel_abs="15.548390" electricity_abs="0"
            CO_normed="840.817086" CO2_normed="56932.840858" HC_normed="5.144585" PMx_normed="0.890315" NOx_normed="22.643377" fuel_normed="24.473128" electricity_normed="0"
            traveltime="0.03" CO_perVeh="0.393581" CO2_perVeh="26.649925" HC_perVeh="0.002408" PMx_perVeh="0.000417" NOx_perVeh="0.010599" fuel_perVeh="0.011456" electricity_perVeh="0"/>
        <edge id=":1110673464_0" sampledSeconds="1026.16" CO_abs="3796.165841" CO2_abs="295736.836238" HC_abs="24.019780" PMx_abs="4.109466" NOx_abs="113.399698" fuel_abs="127.125702" electricity_abs="0"
            CO_normed="114.255812" CO2_normed="8900.994749" HC_normed="0.722940" PMx_normed="0.123685" NOx_normed="3.413069" fuel_normed="3.826190" electricity_normed="0"
            traveltime="1.22" CO_perVeh="4.501721" CO2_perVeh="350.702498" HC_perVeh="0.028484" PMx_perVeh="0.004873" NOx_perVeh="0.134476" fuel_perVeh="0.150753" electricity_perVeh="0"/>
        <edge id=":1110673464_1" sampledSeconds="2604.99" CO_abs="63086.402735" CO2_abs="7696794.919604" HC_abs="470.879969" PMx_abs="137.483855" NOx_abs="2918.682261" fuel_abs="3308.497540" electricity_abs="0"
            CO_normed="1860.542531" CO2_normed="226993.673485" HC_normed="13.887180" PMx_normed="4.054670" NOx_normed="86.077701" fuel_normed="97.574122" electricity_normed="0"
            traveltime="0.72" CO_perVeh="17.399583" CO2_perVeh="2122.819162" HC_perVeh="0.129871" PMx_perVeh="0.037919" NOx_perVeh="0.804989" fuel_perVeh="0.912502" electricity_perVeh="0"/>
        <edge id=":1110673479_0" sampledSeconds="133.73" CO_abs="6635.603654" CO2_abs="460753.340899" HC_abs="41.035460" PMx_abs="8.031081" NOx_abs="188.186939" fuel_abs="198.057881" electricity_abs="0"
            CO_normed="9399.981566" CO2_normed="652702.171029" HC_normed="58.130742" PMx_normed="11.376811" NOx_normed="266.585204" fuel_normed="280.568359" electricity_normed="0"
            traveltime="0.03" CO_perVeh="1.402827" CO2_perVeh="97.407422" HC_perVeh="0.008675" PMx_perVeh="0.001698" NOx_perVeh="0.039784" fuel_perVeh="0.041871" electricity_perVeh="0"/>
        <edge id=":1110673511_0" sampledSeconds="62.75" CO_abs="1253.619877" CO2_abs="138426.419995" HC_abs="8.893504" PMx_abs="1.941755" NOx_abs="52.315275" fuel_abs="59.503722" electricity_abs="0"
            CO_normed="1775.875165" CO2_normed="196094.562618" HC_normed="12.598518" PMx_normed="2.750686" NOx_normed="74.109704" fuel_normed="84.292842" electricity_normed="0"
            traveltime="0.02" CO_perVeh="0.480473" CO2_perVeh="53.054537" HC_perVeh="0.003409" PMx_perVeh="0.000744" NOx_perVeh="0.020051" fuel_perVeh="0.022806" electricity_perVeh="0"/>
        <edge id=":1110673517_0" sampledSeconds="183.22" CO_abs="7896.182893" CO2_abs="560420.690023" HC_abs="49.097172" PMx_abs="9.624480" NOx_abs="227.733281" fuel_abs="240.900647" electricity_abs="0"
            CO_normed="11185.715348" CO2_normed="793890.718956" HC_normed="69.550946" PMx_normed="13.634017" NOx_normed="322.606465" fuel_normed="341.259327" electricity_normed="0"
            traveltime="0.03" CO_perVeh="1.208970" CO2_perVeh="85.804944" HC_perVeh="0.007517" PMx_perVeh="0.001474" NOx_perVeh="0.034868" fuel_perVeh="0.036884" electricity_perVeh="0"/>
        <edge id=":1110673534_0" sampledSeconds="660.56" CO_abs="3951.874690" CO2_abs="325444.666905" HC_abs="25.399069" PMx_abs="4.386662" NOx_abs="123.800834" fuel_abs="139.895965" electricity_abs="0"
            CO_normed="108.492578" CO2_normed="8934.577530" HC_normed="0.697292" PMx_normed="0.120429" NOx_normed="3.398759" fuel_normed="3.840626" electricity_normed="0"
            traveltime="1.45" CO_perVeh="8.689584" CO2_perVeh="715.604378" HC_perVeh="0.055849" PMx_perVeh="0.009646" NOx_perVeh="0.272220" fuel_perVeh="0.307610" electricity_perVeh="0"/>
        <edge id=":1110673534_1" sampledSeconds="264.63" CO_abs="4337.265758" CO2_abs="510476.512233" HC_abs="31.477785" PMx_abs="7.257280" NOx_abs="192.730324" fuel_abs="219.432160" electricity_abs="0"
            CO_normed="115.781931" CO2_normed="13627.008286" HC_normed="0.840289" PMx_normed="0.193731" NOx_normed="5.144875" fuel_normed="5.857672" electricity_normed="0"
            traveltime="1.23" CO_perVeh="20.123825" CO2_perVeh="2368.482952" HC_perVeh="0.146049" PMx_perVeh="0.033672" NOx_perVeh="0.894220" fuel_perVeh="1.018110" electricity_perVeh="0"/>
        <edge id=":1110673549_0" sampledSeconds="651.59" CO_abs="1400.578754" CO2_abs="136004.019234" HC_abs="9.427289" PMx_abs="2.008638" NOx_abs="51.920952" fuel_abs="58.462419" electricity_abs="0"
            CO_normed="37.247624" CO2_normed="3616.952347" HC_normed="0.250714" PMx_normed="0.053419" NOx_normed="1.380809" fuel_normed="1.554776" electricity_normed="0"
            traveltime="1.29" CO_perVeh="2.782616" CO2_perVeh="270.207557" HC_perVeh="0.018730" PMx_perVeh="0.003991" NOx_perVeh="0.103155" fuel_perVeh="0.116151" electricity_perVeh="0"/>
        <edge id=":1110673549_1" sampledSeconds="3196.35" CO_abs="71012.015625" CO2_abs="9208365.644053" HC_abs="543.075714" PMx_abs="162.510418" NOx_abs="3448.631432" fuel_abs="3958.254497" electricity_abs="0"
            CO_normed="1826.794166" CO2_normed="236886.511241" HC_normed="13.970700" PMx_normed="4.180604" NOx_normed="88.716532" fuel_normed="101.826658" electricity_normed="0"
            traveltime="0.81" CO_perVeh="17.914962" CO2_perVeh="2323.093080" HC_perVeh="0.137008" PMx_perVeh="0.040998" NOx_perVeh="0.870023" fuel_perVeh="0.998591" electricity_perVeh="0"/>
        <edge id=":1110673556_0" sampledSeconds="464.78" CO_abs="57325.157100" CO2_abs="2764140.745322" HC_abs="326.683538" PMx_abs="55.852170" NOx_abs="1192.007159" fuel_abs="1188.186104" electricity_abs="0"
            CO_normed="1130.487587" CO2_normed="54510.566736" HC_normed="6.442402" PMx_normed="1.101439" NOx_normed="23.507119" fuel_normed="23.431766" electricity_normed="0"
            traveltime="2.74" CO_perVeh="337.926289" CO2_perVeh="16294.343918" HC_perVeh="1.925768" PMx_perVeh="0.329243" NOx_perVeh="7.026768" fuel_perVeh="7.004243" electricity_perVeh="0"/>
        <edge id=":1110673556_2" sampledSeconds="177.74" CO_abs="17847.730183" CO2_abs="754593.734192" HC_abs="99.017099" PMx_abs="14.761598" NOx_abs="323.236450" fuel_abs="324.370155" electricity_abs="0"
            CO_normed="368.021185" CO2_normed="15559.764585" HC_normed="2.041738" PMx_normed="0.304385" NOx_normed="6.665154" fuel_normed="6.688531" electricity_normed="0"
            traveltime="3.07" CO_perVeh="308.612758" CO2_perVeh="13048.003945" HC_perVeh="1.712147" PMx_perVeh="0.255249" NOx_perVeh="5.589220" fuel_perVeh="5.608823" electricity_perVeh="0"/>
        <edge id=":1110673556_3" sampledSeconds="243.06" CO_abs="25731.549525" CO2_abs="894653.216814" HC_abs="138.112166" PMx_abs="17.799600" NOx_abs="386.195050" fuel_abs="384.579564" electricity_abs="0"
            CO_normed="1206.995250" CO2_normed="41965.688163" HC_normed="6.478457" PMx_normed="0.834930" NOx_normed="18.115333" fuel_normed="18.039555" electricity_normed="0"
            traveltime="1.83" CO_perVeh="194.035505" CO2_perVeh="6746.367487" HC_perVeh="1.041471" PMx_perVeh="0.134223" NOx_perVeh="2.912205" fuel_perVeh="2.900023" electricity_perVeh="0"/>
        <edge id=":1110673556_4" sampledSeconds="41.07" CO_abs="4992.286437" CO2_abs="193048.170040" HC_abs="27.272266" PMx_abs="3.852506" NOx_abs="83.322924" fuel_abs="82.984047" electricity_abs="0"
            CO_normed="143.062616" CO2_normed="5532.129746" HC_normed="0.781534" PMx_normed="0.110400" NOx_normed="2.387763" fuel_normed="2.378052" electricity_normed="0"
            traveltime="2.59" CO_perVeh="315.103449" CO2_perVeh="12184.826519" HC_perVeh="1.721373" PMx_perVeh="0.243163" NOx_perVeh="5.259182" fuel_perVeh="5.237792" electricity_perVeh="0"/>
        <edge id=":1110673556_5" sampledSeconds="22.49" CO_abs="1046.962655" CO2_abs="46384.211716" HC_abs="5.835904" PMx_abs="0.782956" NOx_abs="19.057677" fuel_abs="19.938896" electricity_abs="0"
            CO_normed="41.817434" CO2_normed="1852.662758" HC_normed="0.233096" PMx_normed="0.031273" NOx_normed="0.761195" fuel_normed="0.796393" electricity_normed="0"
            traveltime="1.56" CO_perVeh="72.382603" CO2_perVeh="3206.809699" HC_perVeh="0.403470" PMx_perVeh="0.054130" NOx_perVeh="1.317568" fuel_perVeh="1.378492" electricity_perVeh="0"/>
        <edge id=":1110673556_6" sampledSeconds="219.47" CO_abs="27107.465134" CO2_abs="1342408.727715" HC_abs="155.356256" PMx_abs="27.163930" NOx_abs="578.640650" fuel_abs="577.043571" electricity_abs="0"
            CO_normed="548.054837" CO2_normed="27140.626871" HC_normed="3.140970" PMx_normed="0.549196" NOx_normed="11.698874" fuel_normed="11.666584" electricity_normed="0"
            traveltime="2.56" CO_perVeh="315.870568" CO2_perVeh="15642.458815" HC_perVeh="1.810294" PMx_perVeh="0.316529" NOx_perVeh="6.742628" fuel_perVeh="6.724018" electricity_perVeh="0"/>
        <edge id=":1110673561_0" sampledSeconds="108.13" CO_abs="9574.631839" CO2_abs="661230.977260" HC_abs="59.498180" PMx_abs="13.404180" NOx_abs="280.337099" fuel_abs="284.231889" electricity_abs="0"
            CO_normed="243.217019" CO2_normed="16796.742687" HC_normed="1.511387" PMx_normed="0.340496" NOx_normed="7.121188" fuel_normed="7.220124" electricity_normed="0"
            traveltime="1.28" CO_perVeh="112.989949" CO2_perVeh="7803.167322" HC_perVeh="0.702136" PMx_perVeh="0.158182" NOx_perVeh="3.308250" fuel_perVeh="3.354212" electricity_perVeh="0"/>
        <edge id=":1110673561_1" sampledSeconds="5182.77" CO_abs="485754.500524" CO2_abs="33630367.625105" HC_abs="3025.463916" PMx_abs="703.271475" NOx_abs="14380.259388" fuel_abs="14456.070597" electricity_abs="0"
            CO_normed="12030.048232" CO2_normed="832879.456899" HC_normed="74.927719" PMx_normed="17.417007" NOx_normed="356.137131" fuel_normed="358.014648" electricity_normed="0"
            traveltime="1.19" CO_perVeh="111.640376" CO2_perVeh="7729.227210" HC_perVeh="0.695339" PMx_perVeh="0.161632" NOx_perVeh="3.304998" fuel_perVeh="3.322421" electricity_perVeh="0"/>
        <edge id=":1110673562_0" sampledSeconds="301.92" CO_abs="6575.339777" CO2_abs="511564.715234" HC_abs="41.585031" PMx_abs="6.820085" NOx_abs="194.662389" fuel_abs="219.902089" electricity_abs="0"
            CO_normed="10349.568768" CO2_normed="805201.613716" HC_normed="65.454737" PMx_normed="10.734797" NOx_normed="306.398126" fuel_normed="346.125352" electricity_normed="0"
            traveltime="0.03" CO_perVeh="0.589425" CO2_perVeh="45.857530" HC_perVeh="0.003728" PMx_perVeh="0.000611" NOx_perVeh="0.017450" fuel_perVeh="0.019712" electricity_perVeh="0"/>
        <edge id=":1110673564_0" sampledSeconds="28.13" CO_abs="485.102751" CO2_abs="49499.835874" HC_abs="3.339750" PMx_abs="0.711367" NOx_abs="18.884017" fuel_abs="21.277904" electricity_abs="0"
            CO_normed="2061.586476" CO2_normed="210364.076433" HC_normed="14.193249" PMx_normed="3.023162" NOx_normed="80.253173" fuel_normed="90.426694" electricity_normed="0"
            traveltime="7.945140e-03" CO_perVeh="0.137015" CO2_perVeh="13.981030" HC_perVeh="0.000943" PMx_perVeh="0.000201" NOx_perVeh="0.005334" fuel_perVeh="0.006010" electricity_perVeh="0"/>
        <edge id=":1110673588_0" sampledSeconds="62.37" CO_abs="1235.032941" CO2_abs="131801.826306" HC_abs="8.660569" PMx_abs="1.890659" NOx_abs="50.131787" fuel_abs="56.656052" electricity_abs="0"
            CO_normed="2099.453943" CO2_normed="224052.213293" HC_normed="14.722251" PMx_normed="3.213963" NOx_normed="85.219895" fuel_normed="96.310607" electricity_normed="0"
            traveltime="0.02" CO_perVeh="0.398398" CO2_perVeh="42.516718" HC_perVeh="0.002794" PMx_perVeh="0.000610" NOx_perVeh="0.016172" fuel_perVeh="0.018276" electricity_perVeh="0"/>
        <edge id=":1110673601_0" sampledSeconds="29.08" CO_abs="396.366660" CO2_abs="49746.613908" HC_abs="2.938428" PMx_abs="0.644469" NOx_abs="18.364372" fuel_abs="21.384030" electricity_abs="0"
            CO_normed="601.598722" CO2_normed="75504.582891" HC_normed="4.459897" PMx_normed="0.978164" NOx_normed="27.873138" fuel_normed="32.456325" electricity_normed="0"
            traveltime="0.02" CO_perVeh="0.302249" CO2_perVeh="37.934181" HC_perVeh="0.002241" PMx_perVeh="0.000491" NOx_perVeh="0.014004" fuel_perVeh="0.016306" electricity_perVeh="0"/>
        <edge id=":1110673617_0" sampledSeconds="851.40" CO_abs="31822.584275" CO2_abs="3273167.744134" HC_abs="223.229991" PMx_abs="61.441712" NOx_abs="1279.701841" fuel_abs="1406.981757" electricity_abs="0"
            CO_normed="45079.803011" CO2_normed="4636762.239359" HC_normed="316.227115" PMx_normed="87.038194" NOx_normed="1812.822817" fuel_normed="1993.127268" electricity_normed="0"
            traveltime="0.02" CO_perVeh="0.564356" CO2_perVeh="58.047850" HC_perVeh="0.003959" PMx_perVeh="0.001090" NOx_perVeh="0.022695" fuel_perVeh="0.024952" electricity_perVeh="0"/>
        <edge id=":1110673621_0" sampledSeconds="26.97" CO_abs="603.020264" CO2_abs="60561.322246" HC_abs="4.135622" PMx_abs="0.900214" NOx_abs="23.269136" fuel_abs="26.032738" electricity_abs="0"
            CO_normed="1025.084618" CO2_normed="102949.243341" HC_normed="7.030216" PMx_normed="1.530290" NOx_normed="39.555609" fuel_normed="44.253504" electricity_normed="0"
            traveltime="0.02" CO_perVeh="0.456834" CO2_perVeh="45.879790" HC_perVeh="0.003133" PMx_perVeh="0.000682" NOx_perVeh="0.017628" fuel_perVeh="0.019722" electricity_perVeh="0"/>
        <edge id=":1110673630_0" sampledSeconds="286.44" CO_abs="1559.853746" CO2_abs="140768.784560" HC_abs="10.314503" PMx_abs="1.890769" NOx_abs="53.311729" fuel_abs="60.510912" electricity_abs="0"
            CO_normed="47.282854" CO2_normed="4267.034617" HC_normed="0.312657" PMx_normed="0.057314" NOx_normed="1.616005" fuel_normed="1.834229" electricity_normed="0"
            traveltime="1.29" CO_perVeh="7.018746" CO2_perVeh="633.405768" HC_perVeh="0.046411" PMx_perVeh="0.008508" NOx_perVeh="0.239882" fuel_perVeh="0.272276" electricity_perVeh="0"/>
        <edge id=":1110673630_1" sampledSeconds="337.90" CO_abs="1645.225383" CO2_abs="132427.256658" HC_abs="10.505082" PMx_abs="1.767729" NOx_abs="50.339251" fuel_abs="56.925363" electricity_abs="0"
            CO_normed="60.798852" CO2_normed="4893.812896" HC_normed="0.388212" PMx_normed="0.065326" NOx_normed="1.860273" fuel_normed="2.103661" electricity_normed="0"
            traveltime="1.08" CO_perVeh="5.244655" CO2_perVeh="422.152031" HC_perVeh="0.033488" PMx_perVeh="0.005635" NOx_perVeh="0.160472" fuel_perVeh="0.181467" electricity_perVeh="0"/>
        <edge id=":1110673650_0" sampledSeconds="199.96" CO_abs="3082.377731" CO2_abs="375894.408125" HC_abs="22.638840" PMx_abs="5.211620" NOx_abs="140.941011" fuel_abs="161.581150" electricity_abs="0"
            CO_normed="4366.489525" CO2_normed="532491.193189" HC_normed="32.070131" PMx_normed="7.382770" NOx_normed="199.656726" fuel_normed="228.895502" electricity_normed="0"
            traveltime="0.02" CO_perVeh="0.356251" CO2_perVeh="43.444641" HC_perVeh="0.002617" PMx_perVeh="0.000602" NOx_perVeh="0.016289" fuel_perVeh="0.018675" electricity_perVeh="0"/>
        <edge id=":1110673655_0" sampledSeconds="20.68" CO_abs="294.079219" CO2_abs="36023.229790" HC_abs="2.152595" PMx_abs="0.478884" NOx_abs="13.379566" fuel_abs="15.484895" electricity_abs="0"
            CO_normed="416.591975" CO2_normed="51030.428223" HC_normed="3.049361" PMx_normed="0.678385" NOx_normed="18.953464" fuel_normed="21.935869" electricity_normed="0"
            traveltime="0.02" CO_perVeh="0.335963" CO2_perVeh="41.153728" HC_perVeh="0.002459" PMx_perVeh="0.000547" NOx_perVeh="0.015285" fuel_perVeh="0.017690" electricity_perVeh="0"/>
        <edge id=":1110673663_0" sampledSeconds="110.90" CO_abs="1785.417583" CO2_abs="198064.224651" HC_abs="12.684994" PMx_abs="2.809331" NOx_abs="75.029231" fuel_abs="85.139463" electricity_abs="0"
            CO_normed="46.322685" CO2_normed="5138.779226" HC_normed="0.329112" PMx_normed="0.072888" NOx_normed="1.946635" fuel_normed="2.208945" electricity_normed="0"
            traveltime="1.30" CO_perVeh="20.970572" CO2_perVeh="2326.357756" HC_perVeh="0.148991" PMx_perVeh="0.032997" NOx_perVeh="0.881254" fuel_perVeh="1.000003" electricity_perVeh="0"/>
        <edge id=":1110673663_1" sampledSeconds="170.18" CO_abs="2392.369335" CO2_abs="309733.534138" HC_abs="17.971441" PMx_abs="4.157506" NOx_abs="115.027349" fuel_abs="133.141488" electricity_abs="0"
            CO_normed="62.145938" CO2_normed="8045.865117" HC_normed="0.466839" PMx_normed="0.107998" NOx_normed="2.988035" fuel_normed="3.458581" electricity_normed="0"
            traveltime="1.27" CO_perVeh="17.888525" CO2_perVeh="2315.978509" HC_perVeh="0.134378" PMx_perVeh="0.031087" NOx_perVeh="0.860097" fuel_perVeh="0.995542" electricity_perVeh="0"/>