<?xml version="1.0" encoding="UTF-8"?>

<!-- generated on Mon Nov  9 21:45:30 2020 by Eclipse SUMO sumo Version 1.7.0
<configuration xmlns:xsi="http://www.w3.org/2001/XMLSchema-instance" xsi:noNamespaceSchemaLocation="http://sumo.dlr.de/xsd/sumoConfiguration.xsd">

    <input>
        <net-file value="../dataSets/Porto/6AM7AM_Routing_SaoBento/Porto.net.xml"/>
        <route-files value="../results/Porto/6AM7AM_Routing_SaoBento/cost_co2-ttime/solution4/Porto.rou.xml"/>
        <additional-files value="moreOutputInfo.xml"/>
    </input>

    <output>
        <emission-output.precision value="6"/>
        <tripinfo-output value="../results/Porto/6AM7AM_Routing_SaoBento/cost_co2-ttime/solution4/Porto-tripinfo"/>
    </output>

    <processing>
        <collision.action value="warn"/>
        <time-to-teleport value="-1"/>
    </processing>

    <emissions>
        <device.emissions.probability value="1"/>
    </emissions>

    <gui_only>
        <quit-on-end value="true"/>
        <start value="true"/>
    </gui_only>

</configuration>
-->

<meandata xmlns:xsi="http://www.w3.org/2001/XMLSchema-instance" xsi:noNamespaceSchemaLocation="http://sumo.dlr.de/xsd/meandata_file.xsd">
    <interval begin="0.00" end="4699.00" id="emissions-detector">
        <edge id=":1092997347_0" sampledSeconds="265.32" CO_abs="34453.699414" CO2_abs="1375949.387533" HC_abs="189.424323" PMx_abs="28.176513" NOx_abs="597.968947" fuel_abs="591.466166" electricity_abs="0"
            CO_normed="59990.190317" CO2_normed="2395779.467158" HC_normed="329.822382" PMx_normed="49.060461" NOx_normed="1041.173272" fuel_normed="1029.850741" electricity_normed="0"
            traveltime="0.07" CO_perVeh="9.672633" CO2_perVeh="386.288082" HC_perVeh="0.053180" PMx_perVeh="0.007910" NOx_perVeh="0.167876" fuel_perVeh="0.166050" electricity_perVeh="0"/>
        <edge id=":1103427051_0" sampledSeconds="11.23" CO_abs="766.854763" CO2_abs="42398.821379" HC_abs="4.497527" PMx_abs="0.830274" NOx_abs="18.095792" fuel_abs="18.225389" electricity_abs="0"
            CO_normed="2025.872817" CO2_normed="112008.979873" HC_normed="11.881542" PMx_normed="2.193415" NOx_normed="47.805368" fuel_normed="48.147736" electricity_normed="0"
            traveltime="0.03" CO_perVeh="2.101170" CO2_perVeh="116.172130" HC_perVeh="0.012323" PMx_perVeh="0.002275" NOx_perVeh="0.049582" fuel_perVeh="0.049937" electricity_perVeh="0"/>
        <edge id=":1105984386_0" sampledSeconds="22.70" CO_abs="450.056968" CO2_abs="38463.898665" HC_abs="2.923100" PMx_abs="0.493006" NOx_abs="14.461370" fuel_abs="16.534155" electricity_abs="0"
            CO_normed="35.509562" CO2_normed="3034.807353" HC_normed="0.230633" PMx_normed="0.038898" NOx_normed="1.141004" fuel_normed="1.304547" electricity_normed="0"
            traveltime="0.95" CO_perVeh="18.888542" CO2_perVeh="1614.300035" HC_perVeh="0.122680" PMx_perVeh="0.020691" NOx_perVeh="0.606933" fuel_perVeh="0.693926" electricity_perVeh="0"/>
        <edge id=":1105984390_0" sampledSeconds="23.19" CO_abs="27.957182" CO2_abs="2098.583804" HC_abs="0.175773" PMx_abs="0.031924" NOx_abs="0.825990" fuel_abs="0.902095" electricity_abs="0"
            CO_normed="1.705300" CO2_normed="128.007004" HC_normed="0.010722" PMx_normed="0.001947" NOx_normed="0.050383" fuel_normed="0.055025" electricity_normed="0"
            traveltime="1.05" CO_perVeh="1.267844" CO2_perVeh="95.169745" HC_perVeh="0.007971" PMx_perVeh="0.001448" NOx_perVeh="0.037458" fuel_perVeh="0.040910" electricity_perVeh="0"/>
        <edge id=":1105984390_1" sampledSeconds="645.19" CO_abs="15848.166258" CO2_abs="2022807.279533" HC_abs="120.786696" PMx_abs="36.030773" NOx_abs="758.682959" fuel_abs="869.512038" electricity_abs="0"
            CO_normed="924.722337" CO2_normed="118028.486337" HC_normed="7.047765" PMx_normed="2.102354" NOx_normed="44.268281" fuel_normed="50.735031" electricity_normed="0"
            traveltime="0.64" CO_perVeh="15.608010" CO2_perVeh="1992.154519" HC_perVeh="0.118956" PMx_perVeh="0.035485" NOx_perVeh="0.747186" fuel_perVeh="0.856336" electricity_perVeh="0"/>
        <edge id=":1105984395_0" sampledSeconds="8.91" CO_abs="199.615506" CO2_abs="15866.015869" HC_abs="1.271972" PMx_abs="0.220272" NOx_abs="6.089893" fuel_abs="6.820176" electricity_abs="0"
            CO_normed="166.227741" CO2_normed="13212.260039" HC_normed="1.059222" PMx_normed="0.183429" NOx_normed="5.071295" fuel_normed="5.679431" electricity_normed="0"
            traveltime="0.09" CO_perVeh="2.024320" CO2_perVeh="160.898750" HC_perVeh="0.012899" PMx_perVeh="0.002234" NOx_perVeh="0.061758" fuel_perVeh="0.069164" electricity_perVeh="0"/>
        <edge id=":1105984398_0" sampledSeconds="22.83" CO_abs="1638.214553" CO2_abs="110805.241842" HC_abs="10.087553" PMx_abs="2.075342" NOx_abs="46.230720" fuel_abs="47.630180" electricity_abs="0"
            CO_normed="103.810560" CO2_normed="7021.518765" HC_normed="0.639229" PMx_normed="0.131511" NOx_normed="2.929553" fuel_normed="3.018235" electricity_normed="0"
            traveltime="1.10" CO_perVeh="79.167628" CO2_perVeh="5354.724825" HC_perVeh="0.487487" PMx_perVeh="0.100292" NOx_perVeh="2.234125" fuel_perVeh="2.301755" electricity_perVeh="0"/>
        <edge id=":1105984398_1" sampledSeconds="451.02" CO_abs="8371.577173" CO2_abs="968548.901463" HC_abs="60.472003" PMx_abs="14.058708" NOx_abs="367.546269" fuel_abs="416.337703" electricity_abs="0"
            CO_normed="513.501720" CO2_normed="59409.537339" HC_normed="3.709274" PMx_normed="0.862343" NOx_normed="22.544813" fuel_normed="25.537616" electricity_normed="0"
            traveltime="0.95" CO_perVeh="17.713620" CO2_perVeh="2049.375704" HC_perVeh="0.127954" PMx_perVeh="0.029747" NOx_perVeh="0.777700" fuel_perVeh="0.880939" electricity_perVeh="0"/>
        <edge id=":1106006327_0" sampledSeconds="38.49" CO_abs="5218.845473" CO2_abs="169931.849693" HC_abs="27.765339" PMx_abs="3.551468" NOx_abs="74.423666" fuel_abs="73.047678" electricity_abs="0"
            CO_normed="451.271360" CO2_normed="14693.935141" HC_normed="2.400857" PMx_normed="0.307094" NOx_normed="6.435383" fuel_normed="6.316402" electricity_normed="0"
            traveltime="2.09" CO_perVeh="283.118852" CO2_perVeh="9218.688393" HC_perVeh="1.506251" PMx_perVeh="0.192665" NOx_perVeh="4.037434" fuel_perVeh="3.962787" electricity_perVeh="0"/>
        <edge id=":1106006327_1" sampledSeconds="163.33" CO_abs="22092.349081" CO2_abs="732357.393777" HC_abs="117.850300" PMx_abs="15.280639" NOx_abs="320.524991" fuel_abs="314.814184" electricity_abs="0"
            CO_normed="1665.885871" CO2_normed="55223.816627" HC_normed="8.886567" PMx_normed="1.152245" NOx_normed="24.169365" fuel_normed="23.738739" electricity_normed="0"
            traveltime="2.32" CO_perVeh="313.629369" CO2_perVeh="10396.757099" HC_perVeh="1.673037" PMx_perVeh="0.216928" NOx_perVeh="4.550265" fuel_perVeh="4.469193" electricity_perVeh="0"/>
        <edge id=":1106006327_2" sampledSeconds="0.00" CO_abs="0" CO2_abs="0" HC_abs="0" PMx_abs="0" NOx_abs="0" fuel_abs="0" electricity_abs="0"
            CO_normed="0" CO2_normed="0" HC_normed="0" PMx_normed="0" NOx_normed="0" fuel_normed="0" electricity_normed="0"/>
        <edge id=":1106006327_3" sampledSeconds="0.00" CO_abs="0" CO2_abs="0" HC_abs="0" PMx_abs="0" NOx_abs="0" fuel_abs="0" electricity_abs="0"
            CO_normed="0" CO2_normed="0" HC_normed="0" PMx_normed="0" NOx_normed="0" fuel_normed="0" electricity_normed="0"/>
        <edge id=":1107381198_0" sampledSeconds="0.00" CO_abs="0" CO2_abs="0" HC_abs="0" PMx_abs="0" NOx_abs="0" fuel_abs="0" electricity_abs="0"
            CO_normed="0" CO2_normed="0" HC_normed="0" PMx_normed="0" NOx_normed="0" fuel_normed="0" electricity_normed="0"/>
        <edge id=":1107381198_1" sampledSeconds="35.91" CO_abs="1559.924740" CO2_abs="65768.859065" HC_abs="8.620179" PMx_abs="1.135628" NOx_abs="27.231052" fuel_abs="28.271676" electricity_abs="0"
            CO_normed="130.326090" CO2_normed="5494.751143" HC_normed="0.720185" PMx_normed="0.094878" NOx_normed="2.275056" fuel_normed="2.361997" electricity_normed="0"
            traveltime="1.48" CO_perVeh="64.226427" CO2_perVeh="2707.886304" HC_perVeh="0.354917" PMx_perVeh="0.046757" NOx_perVeh="1.121178" fuel_perVeh="1.164023" electricity_perVeh="0"/>
        <edge id=":1110338277_0" sampledSeconds="96.63" CO_abs="1574.375626" CO2_abs="187973.920181" HC_abs="11.488173" PMx_abs="2.631064" NOx_abs="70.696605" fuel_abs="80.802046" electricity_abs="0"
            CO_normed="4307.719159" CO2_normed="514323.801913" HC_normed="31.433300" PMx_normed="7.198972" NOx_normed="193.436126" fuel_normed="221.086071" electricity_normed="0"
            traveltime="0.02" CO_perVeh="0.354815" CO2_perVeh="42.363389" HC_perVeh="0.002589" PMx_perVeh="0.000593" NOx_perVeh="0.015933" fuel_perVeh="0.018210" electricity_perVeh="0"/>
        <edge id=":1110338293_0" sampledSeconds="124.17" CO_abs="5920.362152" CO2_abs="408887.525116" HC_abs="36.583196" PMx_abs="7.252704" NOx_abs="167.860154" fuel_abs="175.762846" electricity_abs="0"
            CO_normed="15119.035076" CO2_normed="1044190.317385" HC_normed="93.423782" PMx_normed="18.521482" NOx_normed="428.670322" fuel_normed="448.851704" electricity_normed="0"
            traveltime="0.03" CO_perVeh="1.357933" CO2_perVeh="93.785128" HC_perVeh="0.008391" PMx_perVeh="0.001664" NOx_perVeh="0.038502" fuel_perVeh="0.040314" electricity_perVeh="0"/>
        <edge id=":1110338295_0" sampledSeconds="0.00" CO_abs="0" CO2_abs="0" HC_abs="0" PMx_abs="0" NOx_abs="0" fuel_abs="0" electricity_abs="0"
            CO_normed="0" CO2_normed="0" HC_normed="0" PMx_normed="0" NOx_normed="0" fuel_normed="0" electricity_normed="0"/>
        <edge id=":1110673403_0" sampledSeconds="143.97" CO_abs="1988.250991" CO2_abs="250737.797676" HC_abs="14.760852" PMx_abs="3.441596" NOx_abs="93.624190" fuel_abs="107.781609" electricity_abs="0"
            CO_normed="5077.465821" CO2_normed="640317.848927" HC_normed="37.695302" PMx_normed="8.788924" NOx_normed="239.091354" fuel_normed="275.245650" electricity_normed="0"
            traveltime="0.02" CO_perVeh="0.319227" CO2_perVeh="40.257607" HC_perVeh="0.002370" PMx_perVeh="0.000553" NOx_perVeh="0.015032" fuel_perVeh="0.017305" electricity_perVeh="0"/>
        <edge id=":1110673412_0" sampledSeconds="252.99" CO_abs="45584.788221" CO2_abs="3101509.491105" HC_abs="283.470427" PMx_abs="68.243046" NOx_abs="1333.798113" fuel_abs="1333.186111" electricity_abs="0"
            CO_normed="120425.650063" CO2_normed="8193551.208973" HC_normed="748.870659" PMx_normed="180.284115" NOx_normed="3523.620730" fuel_normed="3522.003949" electricity_normed="0"
            traveltime="0.02" CO_perVeh="2.799289" CO2_perVeh="190.458774" HC_perVeh="0.017407" PMx_perVeh="0.004191" NOx_perVeh="0.081906" fuel_perVeh="0.081869" electricity_perVeh="0"/>
        <edge id=":1110673414_0" sampledSeconds="0.00" CO_abs="0" CO2_abs="0" HC_abs="0" PMx_abs="0" NOx_abs="0" fuel_abs="0" electricity_abs="0"
            CO_normed="0" CO2_normed="0" HC_normed="0" PMx_normed="0" NOx_normed="0" fuel_normed="0" electricity_normed="0"/>
        <edge id=":1110673414_1" sampledSeconds="14.27" CO_abs="1058.681700" CO2_abs="39391.310322" HC_abs="5.730623" PMx_abs="0.707867" NOx_abs="16.504823" fuel_abs="16.932975" electricity_abs="0"
            CO_normed="89.820343" CO2_normed="3342.025297" HC_normed="0.486196" PMx_normed="0.060057" NOx_normed="1.400297" fuel_normed="1.436622" electricity_normed="0"
            traveltime="1.56" CO_perVeh="115.625251" CO2_perVeh="4302.171410" HC_perVeh="0.625877" PMx_perVeh="0.077311" NOx_perVeh="1.802595" fuel_perVeh="1.849356" electricity_perVeh="0"/>
        <edge id=":1110673417_0" sampledSeconds="29.22" CO_abs="458.077423" CO2_abs="53683.508769" HC_abs="3.291662" PMx_abs="0.749404" NOx_abs="20.176972" fuel_abs="23.076277" electricity_abs="0"
            CO_normed="1253.366006" CO2_normed="146885.835564" HC_normed="9.006464" PMx_normed="2.050478" NOx_normed="55.207109" fuel_normed="63.140029" electricity_normed="0"
            traveltime="0.02" CO_perVeh="0.339991" CO2_perVeh="39.844619" HC_perVeh="0.002443" PMx_perVeh="0.000556" NOx_perVeh="0.014976" fuel_perVeh="0.017128" electricity_perVeh="0"/>
        <edge id=":1110673446_0" sampledSeconds="334.03" CO_abs="3014.611736" CO2_abs="240100.715674" HC_abs="19.419178" PMx_abs="4.481671" NOx_abs="98.734996" fuel_abs="103.208176" electricity_abs="0"
            CO_normed="7698.519011" CO2_normed="613153.562054" HC_normed="49.591431" PMx_normed="11.445000" NOx_normed="252.142999" fuel_normed="263.566316" electricity_normed="0"
            traveltime="0.02" CO_perVeh="0.205783" CO2_perVeh="16.389756" HC_perVeh="0.001326" PMx_perVeh="0.000306" NOx_perVeh="0.006740" fuel_perVeh="0.007045" electricity_perVeh="0"/>
        <edge id=":1110673451_0" sampledSeconds="36.92" CO_abs="317.044222" CO2_abs="26809.545765" HC_abs="2.049986" PMx_abs="0.330597" NOx_abs="10.000605" fuel_abs="11.524418" electricity_abs="0"
            CO_normed="899.607639" CO2_normed="76071.634434" HC_normed="5.816800" PMx_normed="0.938063" NOx_normed="28.376548" fuel_normed="32.700341" electricity_normed="0"
            traveltime="0.03" CO_perVeh="0.227362" CO2_perVeh="19.225969" HC_perVeh="0.001470" PMx_perVeh="0.000237" NOx_perVeh="0.007172" fuel_perVeh="0.008265" electricity_perVeh="0"/>
        <edge id=":1110673464_0" sampledSeconds="324.20" CO_abs="687.786119" CO2_abs="52820.416458" HC_abs="4.324786" PMx_abs="0.710129" NOx_abs="20.114470" fuel_abs="22.705474" electricity_abs="0"
            CO_normed="37.317777" CO2_normed="2865.920771" HC_normed="0.234653" PMx_normed="0.038530" NOx_normed="1.091367" fuel_normed="1.231950" electricity_normed="0"
            traveltime="1.17" CO_perVeh="2.486256" CO2_perVeh="190.938837" HC_perVeh="0.015634" PMx_perVeh="0.002567" NOx_perVeh="0.072711" fuel_perVeh="0.082077" electricity_perVeh="0"/>
        <edge id=":1110673464_1" sampledSeconds="710.16" CO_abs="15405.011512" CO2_abs="2036183.858337" HC_abs="118.646593" PMx_abs="35.771265" NOx_abs="759.945260" fuel_abs="875.262293" electricity_abs="0"
            CO_normed="819.021122" CO2_normed="108255.523678" HC_normed="6.307951" PMx_normed="1.901811" NOx_normed="40.403165" fuel_normed="46.534097" electricity_normed="0"
            traveltime="0.70" CO_perVeh="15.199614" CO2_perVeh="2009.035032" HC_perVeh="0.117065" PMx_perVeh="0.035294" NOx_perVeh="0.749813" fuel_perVeh="0.863592" electricity_perVeh="0"/>
        <edge id=":1110673479_0" sampledSeconds="133.16" CO_abs="7076.821634" CO2_abs="486777.895100" HC_abs="43.686839" PMx_abs="8.663402" NOx_abs="200.057539" fuel_abs="209.244483" electricity_abs="0"
            CO_normed="18072.325944" CO2_normed="1243101.668695" HC_normed="111.564603" PMx_normed="22.124032" NOx_normed="510.893906" fuel_normed="534.354926" electricity_normed="0"
            traveltime="0.03" CO_perVeh="1.490808" CO2_perVeh="102.544976" HC_perVeh="0.009203" PMx_perVeh="0.001825" NOx_perVeh="0.042144" fuel_perVeh="0.044080" electricity_perVeh="0"/>
        <edge id=":1110673511_0" sampledSeconds="11.74" CO_abs="104.253808" CO2_abs="17021.311364" HC_abs="0.846437" PMx_abs="0.201433" NOx_abs="6.098960" fuel_abs="7.316770" electricity_abs="0"
            CO_normed="266.236582" CO2_normed="43467.915806" HC_normed="2.161575" PMx_normed="0.514406" NOx_normed="15.575126" fuel_normed="18.685091" electricity_normed="0"
            traveltime="0.02" CO_perVeh="0.206443" CO2_perVeh="33.705567" HC_perVeh="0.001676" PMx_perVeh="0.000399" NOx_perVeh="0.012077" fuel_perVeh="0.014489" electricity_perVeh="0"/>
        <edge id=":1110673517_0" sampledSeconds="16.97" CO_abs="838.252352" CO2_abs="60050.436139" HC_abs="5.226229" PMx_abs="1.033591" NOx_abs="24.392223" fuel_abs="25.813081" electricity_abs="0"
            CO_normed="2140.674233" CO2_normed="153352.890757" HC_normed="13.346403" PMx_normed="2.639519" NOx_normed="62.291269" fuel_normed="65.919764" electricity_normed="0"
            traveltime="0.03" CO_perVeh="1.345869" CO2_perVeh="96.414936" HC_perVeh="0.008391" PMx_perVeh="0.001659" NOx_perVeh="0.039163" fuel_perVeh="0.041445" electricity_perVeh="0"/>
        <edge id=":1110673534_0" sampledSeconds="475.37" CO_abs="2563.146303" CO2_abs="230624.427702" HC_abs="16.928994" PMx_abs="3.065852" NOx_abs="87.137198" fuel_abs="99.136340" electricity_abs="0"
            CO_normed="126.852636" CO2_normed="11413.830142" HC_normed="0.837833" PMx_normed="0.151732" NOx_normed="4.312506" fuel_normed="4.906355" electricity_normed="0"
            traveltime="1.43" CO_perVeh="7.721733" CO2_perVeh="694.778967" HC_perVeh="0.051000" PMx_perVeh="0.009236" NOx_perVeh="0.262509" fuel_perVeh="0.298658" electricity_perVeh="0"/>
        <edge id=":1110673534_1" sampledSeconds="184.49" CO_abs="2938.147038" CO2_abs="357652.880824" HC_abs="21.588938" PMx_abs="4.946273" NOx_abs="133.944400" fuel_abs="153.739923" electricity_abs="0"
            CO_normed="141.392873" CO2_normed="17211.381056" HC_normed="1.038928" PMx_normed="0.238030" NOx_normed="6.445826" fuel_normed="7.398448" electricity_normed="0"
            traveltime="1.22" CO_perVeh="19.508242" CO2_perVeh="2374.686729" HC_perVeh="0.143343" PMx_perVeh="0.032841" NOx_perVeh="0.889343" fuel_perVeh="1.020778" electricity_perVeh="0"/>
        <edge id=":1110673549_0" sampledSeconds="59.91" CO_abs="72.895570" CO2_abs="7048.016215" HC_abs="0.493941" PMx_abs="0.097303" NOx_abs="2.677148" fuel_abs="3.029655" electricity_abs="0"
            CO_normed="3.494793" CO2_normed="337.899209" HC_normed="0.023681" PMx_normed="0.004665" NOx_normed="0.128349" fuel_normed="0.145249" electricity_normed="0"
            traveltime="1.25" CO_perVeh="1.518717" CO2_perVeh="146.839414" HC_perVeh="0.010291" PMx_perVeh="0.002027" NOx_perVeh="0.055776" fuel_perVeh="0.063120" electricity_perVeh="0"/>
        <edge id=":1110673549_1" sampledSeconds="638.22" CO_abs="13902.981178" CO2_abs="1824397.979372" HC_abs="106.778479" PMx_abs="32.116945" NOx_abs="681.516362" fuel_abs="784.225199" electricity_abs="0"
            CO_normed="644.755340" CO2_normed="84607.058296" HC_normed="4.951887" PMx_normed="1.489434" NOx_normed="31.605546" fuel_normed="36.368702" electricity_normed="0"
            traveltime="0.80" CO_perVeh="17.501099" CO2_perVeh="2296.555639" HC_perVeh="0.134413" PMx_perVeh="0.040429" NOx_perVeh="0.857894" fuel_perVeh="0.987184" electricity_perVeh="0"/>
        <edge id=":1110673556_0" sampledSeconds="414.63" CO_abs="50959.704021" CO2_abs="2568067.629495" HC_abs="293.119613" PMx_abs="51.853482" NOx_abs="1106.219729" fuel_abs="1103.900835" electricity_abs="0"
            CO_normed="1811.659927" CO2_normed="91296.943430" HC_normed="10.420646" PMx_normed="1.843434" NOx_normed="39.327033" fuel_normed="39.244594" electricity_normed="0"
            traveltime="2.57" CO_perVeh="316.332994" CO2_perVeh="15941.311619" HC_perVeh="1.819544" PMx_perVeh="0.321881" NOx_perVeh="6.866873" fuel_perVeh="6.852478" electricity_perVeh="0"/>
        <edge id=":1110673556_2" sampledSeconds="249.62" CO_abs="24479.923156" CO2_abs="1052811.415022" HC_abs="136.200593" PMx_abs="20.361588" NOx_abs="449.325113" fuel_abs="452.562214" electricity_abs="0"
            CO_normed="909.974273" CO2_normed="39135.388465" HC_normed="5.062885" PMx_normed="0.756886" NOx_normed="16.702434" fuel_normed="16.822764" electricity_normed="0"
            traveltime="3.03" CO_perVeh="296.936777" CO2_perVeh="12770.400715" HC_perVeh="1.652087" PMx_perVeh="0.246982" NOx_perVeh="5.450228" fuel_perVeh="5.489493" electricity_perVeh="0"/>
        <edge id=":1110673556_3" sampledSeconds="395.33" CO_abs="34302.962877" CO2_abs="1214418.052916" HC_abs="184.455852" PMx_abs="23.179138" NOx_abs="517.976166" fuel_abs="522.036037" electricity_abs="0"
            CO_normed="2900.684481" CO2_normed="102692.108896" HC_normed="15.597726" PMx_normed="1.960045" NOx_normed="43.800456" fuel_normed="44.143762" electricity_normed="0"
            traveltime="1.74" CO_perVeh="151.035794" CO2_perVeh="5347.077334" HC_perVeh="0.812158" PMx_perVeh="0.102058" NOx_perVeh="2.280647" fuel_perVeh="2.298522" electricity_perVeh="0"/>
        <edge id=":1110673556_4" sampledSeconds="221.23" CO_abs="23871.361444" CO2_abs="965257.548232" HC_abs="131.368238" PMx_abs="18.916701" NOx_abs="414.148247" fuel_abs="414.927031" electricity_abs="0"
            CO_normed="1233.198800" CO2_normed="49865.377501" HC_normed="6.786507" PMx_normed="0.977240" NOx_normed="21.394972" fuel_normed="21.435205" electricity_normed="0"
            traveltime="2.39" CO_perVeh="258.290012" CO2_perVeh="10444.162732" HC_perVeh="1.421415" PMx_perVeh="0.204680" NOx_perVeh="4.481117" fuel_perVeh="4.489543" electricity_perVeh="0"/>
        <edge id=":1110673556_5" sampledSeconds="25.00" CO_abs="2367.919654" CO2_abs="96174.580930" HC_abs="13.040898" PMx_abs="1.882469" NOx_abs="41.252519" fuel_abs="41.341741" electricity_abs="0"
            CO_normed="170.499217" CO2_normed="6924.935464" HC_normed="0.938994" PMx_normed="0.135545" NOx_normed="2.970338" fuel_normed="2.976763" electricity_normed="0"
            traveltime="1.73" CO_perVeh="163.708025" CO2_perVeh="6649.106830" HC_perVeh="0.901593" PMx_perVeh="0.130146" NOx_perVeh="2.852026" fuel_perVeh="2.858194" electricity_perVeh="0"/>
        <edge id=":1110673556_6" sampledSeconds="474.43" CO_abs="55920.589104" CO2_abs="2788892.436174" HC_abs="320.880239" PMx_abs="56.000478" NOx_abs="1199.500494" fuel_abs="1198.824790" electricity_abs="0"
            CO_normed="2038.149712" CO2_normed="101647.361153" HC_normed="11.695191" PMx_normed="2.041061" NOx_normed="43.718452" fuel_normed="43.693824" electricity_normed="0"
            traveltime="2.55" CO_perVeh="300.086490" CO2_perVeh="14966.025113" HC_perVeh="1.721939" PMx_perVeh="0.300515" NOx_perVeh="6.436876" fuel_perVeh="6.433250" electricity_perVeh="0"/>
        <edge id=":1110673561_0" sampledSeconds="100.68" CO_abs="10094.952777" CO2_abs="726407.071626" HC_abs="63.424665" PMx_abs="14.682758" NOx_abs="306.953819" fuel_abs="312.247781" electricity_abs="0"
            CO_normed="462.280321" CO2_normed="33264.513655" HC_normed="2.904419" PMx_normed="0.672371" NOx_normed="14.056402" fuel_normed="14.298829" electricity_normed="0"
            traveltime="1.19" CO_perVeh="119.130241" CO2_perVeh="8572.308496" HC_perVeh="0.748473" PMx_perVeh="0.173271" NOx_perVeh="3.622353" fuel_perVeh="3.684827" electricity_perVeh="0"/>
        <edge id=":1110673561_1" sampledSeconds="1315.77" CO_abs="120347.284440" CO2_abs="8316711.337759" HC_abs="749.210202" PMx_abs="174.158134" NOx_abs="3558.239925" fuel_abs="3574.952250" electricity_abs="0"
            CO_normed="5372.990434" CO2_normed="371305.515283" HC_normed="33.449024" PMx_normed="7.775414" NOx_normed="158.860162" fuel_normed="159.606296" electricity_normed="0"
            traveltime="1.19" CO_perVeh="109.212705" CO2_perVeh="7547.245874" HC_perVeh="0.679893" PMx_perVeh="0.158045" NOx_perVeh="3.229030" fuel_perVeh="3.244196" electricity_perVeh="0"/>
        <edge id=":1110673562_0" sampledSeconds="104.46" CO_abs="2216.604919" CO2_abs="172577.061470" HC_abs="14.031461" PMx_abs="2.350749" NOx_abs="65.975117" fuel_abs="74.184197" electricity_abs="0"
            CO_normed="6289.579113" CO2_normed="489684.504420" HC_normed="39.814034" PMx_normed="6.670210" NOx_normed="187.203282" fuel_normed="210.496409" electricity_normed="0"
            traveltime="0.03" CO_perVeh="0.565023" CO2_perVeh="43.990679" HC_perVeh="0.003577" PMx_perVeh="0.000599" NOx_perVeh="0.016817" fuel_perVeh="0.018910" electricity_perVeh="0"/>
        <edge id=":1110673564_0" sampledSeconds="28.29" CO_abs="325.923758" CO2_abs="45577.786862" HC_abs="2.513359" PMx_abs="0.569390" NOx_abs="16.629926" fuel_abs="19.592028" electricity_abs="0"
            CO_normed="2496.968568" CO2_normed="349180.746335" HC_normed="19.255360" PMx_normed="4.362211" NOx_normed="127.405265" fuel_normed="150.098530" electricity_normed="0"
            traveltime="7.776485e-03" CO_perVeh="0.089601" CO2_perVeh="12.529976" HC_perVeh="0.000691" PMx_perVeh="0.000157" NOx_perVeh="0.004572" fuel_perVeh="0.005386" electricity_perVeh="0"/>
        <edge id=":1110673588_0" sampledSeconds="11.60" CO_abs="160.710184" CO2_abs="19611.619966" HC_abs="1.183352" PMx_abs="0.268278" NOx_abs="7.340004" fuel_abs="8.430213" electricity_abs="0"
            CO_normed="492.493433" CO2_normed="60099.452545" HC_normed="3.626362" PMx_normed="0.822132" NOx_normed="22.493308" fuel_normed="25.834235" electricity_normed="0"
            traveltime="0.02" CO_perVeh="0.267850" CO2_perVeh="32.686033" HC_perVeh="0.001972" PMx_perVeh="0.000447" NOx_perVeh="0.012233" fuel_perVeh="0.014050" electricity_perVeh="0"/>
        <edge id=":1110673601_0" sampledSeconds="29.39" CO_abs="376.482197" CO2_abs="48128.593266" HC_abs="2.815481" PMx_abs="0.636564" NOx_abs="17.831228" fuel_abs="20.688486" electricity_abs="0"
            CO_normed="1030.109680" CO2_normed="131686.784238" HC_normed="7.703564" PMx_normed="1.741731" NOx_normed="48.788817" fuel_normed="56.606687" electricity_normed="0"
            traveltime="0.02" CO_perVeh="0.279430" CO2_perVeh="35.721686" HC_perVeh="0.002090" PMx_perVeh="0.000472" NOx_perVeh="0.013235" fuel_perVeh="0.015355" electricity_perVeh="0"/>
        <edge id=":1110673617_0" sampledSeconds="238.57" CO_abs="5880.880947" CO2_abs="722724.687855" HC_abs="44.032068" PMx_abs="12.953979" NOx_abs="273.045511" fuel_abs="310.666075" electricity_abs="0"
            CO_normed="15018.210547" CO2_normed="1845647.213080" HC_normed="112.446227" PMx_normed="33.081028" NOx_normed="697.285833" fuel_normed="793.358779" electricity_normed="0"
            traveltime="0.01" CO_perVeh="0.360468" CO2_perVeh="44.299301" HC_perVeh="0.002699" PMx_perVeh="0.000794" NOx_perVeh="0.016736" fuel_perVeh="0.019042" electricity_perVeh="0"/>
        <edge id=":1110673621_0" sampledSeconds="25.68" CO_abs="473.959409" CO2_abs="56786.463605" HC_abs="3.440190" PMx_abs="0.779388" NOx_abs="21.262946" fuel_abs="24.410119" electricity_abs="0"
            CO_normed="1452.439984" CO2_normed="174021.084466" HC_normed="10.542399" PMx_normed="2.388421" NOx_normed="65.159911" fuel_normed="74.804366" electricity_normed="0"
            traveltime="0.02" CO_perVeh="0.359060" CO2_perVeh="43.020048" HC_perVeh="0.002606" PMx_perVeh="0.000590" NOx_perVeh="0.016108" fuel_perVeh="0.018493" electricity_perVeh="0"/>
        <edge id=":1110673630_0" sampledSeconds="53.94" CO_abs="322.597591" CO2_abs="29365.770955" HC_abs="2.135769" PMx_abs="0.369204" NOx_abs="10.962685" fuel_abs="12.623215" electricity_abs="0"
            CO_normed="17.628289" CO2_normed="1604.687425" HC_normed="0.116709" PMx_normed="0.020175" NOx_normed="0.599054" fuel_normed="0.689793" electricity_normed="0"
            traveltime="1.26" CO_perVeh="7.529998" CO2_perVeh="685.449036" HC_perVeh="0.049853" PMx_perVeh="0.008618" NOx_perVeh="0.255888" fuel_perVeh="0.294648" electricity_perVeh="0"/>
        <edge id=":1110673630_1" sampledSeconds="7.39" CO_abs="42.018376" CO2_abs="3808.543246" HC_abs="0.277932" PMx_abs="0.048560" NOx_abs="1.426575" fuel_abs="1.637145" electricity_abs="0"
            CO_normed="2.799229" CO2_normed="253.721989" HC_normed="0.018516" PMx_normed="0.003235" NOx_normed="0.095037" fuel_normed="0.109065" electricity_normed="0"
            traveltime="1.05" CO_perVeh="5.947216" CO2_perVeh="539.055352" HC_perVeh="0.039338" PMx_perVeh="0.006873" NOx_perVeh="0.201915" fuel_perVeh="0.231719" electricity_perVeh="0"/>
        <edge id=":1110673650_0" sampledSeconds="143.30" CO_abs="2253.490158" CO2_abs="289178.349558" HC_abs="16.869826" PMx_abs="3.865889" NOx_abs="107.361522" fuel_abs="124.305709" electricity_abs="0"
            CO_normed="5754.816322" CO2_normed="738484.825430" HC_normed="43.081064" PMx_normed="9.872455" NOx_normed="274.172858" fuel_normed="317.443820" electricity_normed="0"
            traveltime="0.02" CO_perVeh="0.361813" CO2_perVeh="46.429491" HC_perVeh="0.002709" PMx_perVeh="0.000621" NOx_perVeh="0.017238" fuel_perVeh="0.019958" electricity_perVeh="0"/>
        <edge id=":1110673655_0" sampledSeconds="44.91" CO_abs="896.865741" CO2_abs="96580.459466" HC_abs="6.315184" PMx_abs="1.371301" NOx_abs="36.643911" fuel_abs="41.515887" electricity_abs="0"
            CO_normed="2290.357287" CO2_normed="246640.883930" HC_normed="16.127306" PMx_normed="3.501940" NOx_normed="93.578833" fuel_normed="106.020566" electricity_normed="0"
            traveltime="0.02" CO_perVeh="0.479992" CO2_perVeh="51.688766" HC_perVeh="0.003380" PMx_perVeh="0.000734" NOx_perVeh="0.019611" fuel_perVeh="0.022219" electricity_perVeh="0"/>
        <edge id=":1110673663_0" sampledSeconds="107.78" CO_abs="1981.036364" CO2_abs="239802.712651" HC_abs="14.438783" PMx_abs="3.312970" NOx_abs="89.785875" fuel_abs="103.081094" electricity_abs="0"
            CO_normed="92.656439" CO2_normed="11215.980611" HC_normed="0.675326" PMx_normed="0.154953" NOx_normed="4.199438" fuel_normed="4.821278" electricity_normed="0"
            traveltime="1.27" CO_perVeh="23.268207" CO2_perVeh="2816.595988" HC_perVeh="0.169590" PMx_perVeh="0.038912" NOx_perVeh="1.054577" fuel_perVeh="1.210736" electricity_perVeh="0"/>
        <edge id=":1110673663_1" sampledSeconds="154.55" CO_abs="2530.939417" CO2_abs="325751.691095" HC_abs="18.844384" PMx_abs="4.485734" NOx_abs="121.512328" fuel_abs="140.026856" electricity_abs="0"
            CO_normed="118.521054" CO2_normed="15254.586342" HC_normed="0.882461" PMx_normed="0.210062" NOx_normed="5.690286" fuel_normed="6.557301" electricity_normed="0"
            traveltime="1.25" CO_perVeh="20.462670" CO2_perVeh="2633.705676" HC_perVeh="0.152357" PMx_perVeh="0.036267" NOx_perVeh="0.982428" fuel_perVeh="1.132119" electricity_perVeh="0"/>
        <edge id=":1110673666_0" sampledSeconds="192.25" CO_abs="4138.220582" CO2_abs="336729.607679" HC_abs="26.500005" PMx_abs="4.402889" NOx_abs="127.333084" fuel_abs="144.747163" electricity_abs="0"