<?xml version="1.0" encoding="UTF-8"?>

<!-- generated on Tue Nov 10 00:59:30 2020 by Eclipse SUMO sumo Version 1.7.0
<configuration xmlns:xsi="http://www.w3.org/2001/XMLSchema-instance" xsi:noNamespaceSchemaLocation="http://sumo.dlr.de/xsd/sumoConfiguration.xsd">

    <input>
        <net-file value="../dataSets/Porto/6AM7AM_Routing_SaoBento/Porto.net.xml"/>
        <route-files value="../results/Porto/6AM7AM_Routing_SaoBento/cost_PMx-cost_co/solution3/Porto.rou.xml"/>
        <additional-files value="moreOutputInfo.xml"/>
    </input>

    <output>
        <emission-output.precision value="6"/>
        <tripinfo-output value="../results/Porto/6AM7AM_Routing_SaoBento/cost_PMx-cost_co/solution3/Porto-tripinfo"/>
    </output>

    <processing>
        <collision.action value="warn"/>
        <time-to-teleport value="-1"/>
    </processing>

    <emissions>
        <device.emissions.probability value="1"/>
    </emissions>

    <gui_only>
        <quit-on-end value="true"/>
        <start value="true"/>
    </gui_only>

</configuration>
-->

<meandata xmlns:xsi="http://www.w3.org/2001/XMLSchema-instance" xsi:noNamespaceSchemaLocation="http://sumo.dlr.de/xsd/meandata_file.xsd">
    <interval begin="0.00" end="4698.00" id="emissions-detector">
        <edge id=":1092997347_0" sampledSeconds="295.43" CO_abs="38134.094683" CO2_abs="1535134.047450" HC_abs="209.948036" PMx_abs="31.378801" NOx_abs="666.627180" fuel_abs="659.893191" electricity_abs="0"
            CO_normed="66412.564755" CO2_normed="2673518.020638" HC_normed="365.635731" PMx_normed="54.647859" NOx_normed="1160.966876" fuel_normed="1149.239274" electricity_normed="0"
            traveltime="0.07" CO_perVeh="9.463501" CO2_perVeh="380.964673" HC_perVeh="0.052101" PMx_perVeh="0.007787" NOx_perVeh="0.165433" fuel_perVeh="0.163762" electricity_perVeh="0"/>
        <edge id=":1103427051_0" sampledSeconds="10.79" CO_abs="834.658275" CO2_abs="48040.615342" HC_abs="4.940631" PMx_abs="0.935584" NOx_abs="20.437591" fuel_abs="20.650530" electricity_abs="0"
            CO_normed="2205.465122" CO2_normed="126940.455389" HC_normed="13.054912" PMx_normed="2.472148" NOx_normed="54.003412" fuel_normed="54.566073" electricity_normed="0"
            traveltime="0.03" CO_perVeh="2.286951" CO2_perVeh="131.630560" HC_perVeh="0.013537" PMx_perVeh="0.002563" NOx_perVeh="0.055999" fuel_perVeh="0.056582" electricity_perVeh="0"/>
        <edge id=":1105984386_0" sampledSeconds="23.02" CO_abs="387.514099" CO2_abs="32532.300236" HC_abs="2.499559" PMx_abs="0.397922" NOx_abs="12.116058" fuel_abs="13.984422" electricity_abs="0"
            CO_normed="30.581428" CO2_normed="2567.349711" HC_normed="0.197258" PMx_normed="0.031403" NOx_normed="0.956162" fuel_normed="1.103608" electricity_normed="0"
            traveltime="0.97" CO_perVeh="16.263667" CO2_perVeh="1365.355443" HC_perVeh="0.104905" PMx_perVeh="0.016700" NOx_perVeh="0.508502" fuel_perVeh="0.586915" electricity_perVeh="0"/>
        <edge id=":1105984390_0" sampledSeconds="23.02" CO_abs="16.166707" CO2_abs="1298.041263" HC_abs="0.103502" PMx_abs="0.018976" NOx_abs="0.504535" fuel_abs="0.557975" electricity_abs="0"
            CO_normed="0.986328" CO2_normed="79.193283" HC_normed="0.006315" PMx_normed="0.001158" NOx_normed="0.030782" fuel_normed="0.034042" electricity_normed="0"
            traveltime="1.04" CO_perVeh="0.733152" CO2_perVeh="58.865534" HC_perVeh="0.004694" PMx_perVeh="0.000861" NOx_perVeh="0.022880" fuel_perVeh="0.025304" electricity_perVeh="0"/>
        <edge id=":1105984390_1" sampledSeconds="679.82" CO_abs="15004.217518" CO2_abs="1953717.904507" HC_abs="115.097035" PMx_abs="34.521399" NOx_abs="731.133495" fuel_abs="839.813809" electricity_abs="0"
            CO_normed="875.665247" CO2_normed="114021.465540" HC_normed="6.717210" PMx_normed="2.014713" NOx_normed="42.669882" fuel_normed="49.012604" electricity_normed="0"
            traveltime="0.64" CO_perVeh="14.058044" CO2_perVeh="1830.515526" HC_perVeh="0.107839" PMx_perVeh="0.032344" NOx_perVeh="0.685028" fuel_perVeh="0.786855" electricity_perVeh="0"/>
        <edge id=":1105984395_0" sampledSeconds="8.95" CO_abs="197.219490" CO2_abs="15202.444409" HC_abs="1.244681" PMx_abs="0.206728" NOx_abs="5.819131" fuel_abs="6.534943" electricity_abs="0"
            CO_normed="164.267441" CO2_normed="12662.372488" HC_normed="1.036716" PMx_normed="0.172187" NOx_normed="4.846852" fuel_normed="5.443065" electricity_normed="0"
            traveltime="0.09" CO_perVeh="2.000021" CO2_perVeh="154.169410" HC_perVeh="0.012622" PMx_perVeh="0.002096" NOx_perVeh="0.059012" fuel_perVeh="0.066271" electricity_perVeh="0"/>
        <edge id=":1105984398_0" sampledSeconds="23.42" CO_abs="1677.245256" CO2_abs="115080.827095" HC_abs="10.359009" PMx_abs="2.109695" NOx_abs="47.692043" fuel_abs="49.468114" electricity_abs="0"
            CO_normed="106.306485" CO2_normed="7294.006769" HC_normed="0.656571" PMx_normed="0.133716" NOx_normed="3.022798" fuel_normed="3.135368" electricity_normed="0"
            traveltime="1.09" CO_perVeh="78.310738" CO2_perVeh="5373.134598" HC_perVeh="0.483663" PMx_perVeh="0.098502" NOx_perVeh="2.226746" fuel_perVeh="2.309671" electricity_perVeh="0"/>
        <edge id=":1105984398_1" sampledSeconds="451.23" CO_abs="8400.796404" CO2_abs="950223.455245" HC_abs="60.090570" PMx_abs="13.896931" NOx_abs="361.635350" fuel_abs="408.460322" electricity_abs="0"
            CO_normed="515.403673" CO2_normed="58297.884606" HC_normed="3.686662" PMx_normed="0.852601" NOx_normed="22.186966" fuel_normed="25.059761" electricity_normed="0"
            traveltime="0.95" CO_perVeh="17.765141" CO2_perVeh="2009.434951" HC_perVeh="0.127073" PMx_perVeh="0.029388" NOx_perVeh="0.764749" fuel_perVeh="0.863770" electricity_perVeh="0"/>
        <edge id=":1106006327_0" sampledSeconds="38.12" CO_abs="5147.662886" CO2_abs="168472.058468" HC_abs="27.406201" PMx_abs="3.514070" NOx_abs="73.747179" fuel_abs="72.420153" electricity_abs="0"
            CO_normed="445.210978" CO2_normed="14570.808444" HC_normed="2.370307" PMx_normed="0.303925" NOx_normed="6.378245" fuel_normed="6.263473" electricity_normed="0"
            traveltime="2.07" CO_perVeh="279.257244" CO2_perVeh="9139.495702" HC_perVeh="1.486768" PMx_perVeh="0.190636" NOx_perVeh="4.000735" fuel_perVeh="3.928745" electricity_perVeh="0"/>
        <edge id=":1106006327_1" sampledSeconds="163.88" CO_abs="21991.895250" CO2_abs="725227.933808" HC_abs="117.212518" PMx_abs="15.087396" NOx_abs="317.138445" fuel_abs="311.749649" electricity_abs="0"
            CO_normed="1658.664076" CO2_normed="54697.856051" HC_normed="8.840356" PMx_normed="1.137916" NOx_normed="23.919091" fuel_normed="23.512659" electricity_normed="0"
            traveltime="2.33" CO_perVeh="312.203297" CO2_perVeh="10295.545226" HC_perVeh="1.663983" PMx_perVeh="0.214185" NOx_perVeh="4.502189" fuel_perVeh="4.425688" electricity_perVeh="0"/>
        <edge id=":1106006327_2" sampledSeconds="0.00" CO_abs="0" CO2_abs="0" HC_abs="0" PMx_abs="0" NOx_abs="0" fuel_abs="0" electricity_abs="0"
            CO_normed="0" CO2_normed="0" HC_normed="0" PMx_normed="0" NOx_normed="0" fuel_normed="0" electricity_normed="0"/>
        <edge id=":1106006327_3" sampledSeconds="0.00" CO_abs="0" CO2_abs="0" HC_abs="0" PMx_abs="0" NOx_abs="0" fuel_abs="0" electricity_abs="0"
            CO_normed="0" CO2_normed="0" HC_normed="0" PMx_normed="0" NOx_normed="0" fuel_normed="0" electricity_normed="0"/>
        <edge id=":1107381198_0" sampledSeconds="0.00" CO_abs="0" CO2_abs="0" HC_abs="0" PMx_abs="0" NOx_abs="0" fuel_abs="0" electricity_abs="0"
            CO_normed="0" CO2_normed="0" HC_normed="0" PMx_normed="0" NOx_normed="0" fuel_normed="0" electricity_normed="0"/>
        <edge id=":1107381198_1" sampledSeconds="35.55" CO_abs="1563.226480" CO2_abs="66263.846876" HC_abs="8.645509" PMx_abs="1.136670" NOx_abs="27.383015" fuel_abs="28.484458" electricity_abs="0"
            CO_normed="130.629738" CO2_normed="5537.283987" HC_normed="0.722455" PMx_normed="0.094985" NOx_normed="2.288239" fuel_normed="2.380280" electricity_normed="0"
            traveltime="1.46" CO_perVeh="64.362369" CO2_perVeh="2728.266325" HC_perVeh="0.355960" PMx_perVeh="0.046800" NOx_perVeh="1.127435" fuel_perVeh="1.172784" electricity_perVeh="0"/>
        <edge id=":1110338277_0" sampledSeconds="96.27" CO_abs="1408.356428" CO2_abs="181623.918225" HC_abs="10.545608" PMx_abs="2.389392" NOx_abs="67.213622" fuel_abs="78.072594" electricity_abs="0"
            CO_normed="3854.286886" CO2_normed="497055.058088" HC_normed="28.860448" PMx_normed="6.539114" NOx_normed="183.945327" fuel_normed="213.663365" electricity_normed="0"
            traveltime="0.02" CO_perVeh="0.318172" CO2_perVeh="41.031997" HC_perVeh="0.002382" PMx_perVeh="0.000540" NOx_perVeh="0.015185" fuel_perVeh="0.017638" electricity_perVeh="0"/>
        <edge id=":1110338293_0" sampledSeconds="124.10" CO_abs="5784.510126" CO2_abs="401830.799574" HC_abs="35.770446" PMx_abs="6.976242" NOx_abs="163.977601" fuel_abs="172.729672" electricity_abs="0"
            CO_normed="14775.249364" CO2_normed="1026387.738376" HC_normed="91.367679" PMx_normed="17.819264" NOx_normed="418.844446" fuel_normed="441.199673" electricity_normed="0"
            traveltime="0.03" CO_perVeh="1.326773" CO2_perVeh="92.166551" HC_perVeh="0.008205" PMx_perVeh="0.001600" NOx_perVeh="0.037611" fuel_perVeh="0.039618" electricity_perVeh="0"/>
        <edge id=":1110338295_0" sampledSeconds="0.00" CO_abs="0" CO2_abs="0" HC_abs="0" PMx_abs="0" NOx_abs="0" fuel_abs="0" electricity_abs="0"
            CO_normed="0" CO2_normed="0" HC_normed="0" PMx_normed="0" NOx_normed="0" fuel_normed="0" electricity_normed="0"/>
        <edge id=":1110673403_0" sampledSeconds="143.64" CO_abs="2025.466078" CO2_abs="259118.800509" HC_abs="15.171907" PMx_abs="3.495798" NOx_abs="96.388333" fuel_abs="111.384326" electricity_abs="0"
            CO_normed="5173.604286" CO2_normed="661861.559410" HC_normed="38.753274" PMx_normed="8.929242" NOx_normed="246.202638" fuel_normed="284.506579" electricity_normed="0"
            traveltime="0.02" CO_perVeh="0.325202" CO2_perVeh="41.603233" HC_perVeh="0.002436" PMx_perVeh="0.000561" NOx_perVeh="0.015476" fuel_perVeh="0.017883" electricity_perVeh="0"/>
        <edge id=":1110673412_0" sampledSeconds="253.14" CO_abs="44903.526332" CO2_abs="3063500.076698" HC_abs="279.430507" PMx_abs="67.284624" NOx_abs="1316.503871" fuel_abs="1316.847837" electricity_abs="0"
            CO_normed="118651.146338" CO2_normed="8094860.818331" HC_normed="738.355151" PMx_normed="177.789997" NOx_normed="3478.673196" fuel_normed="3479.582077" electricity_normed="0"
            traveltime="0.02" CO_perVeh="2.765719" CO2_perVeh="188.688522" HC_perVeh="0.017211" PMx_perVeh="0.004144" NOx_perVeh="0.081087" fuel_perVeh="0.081108" electricity_perVeh="0"/>
        <edge id=":1110673414_0" sampledSeconds="0.00" CO_abs="0" CO2_abs="0" HC_abs="0" PMx_abs="0" NOx_abs="0" fuel_abs="0" electricity_abs="0"
            CO_normed="0" CO2_normed="0" HC_normed="0" PMx_normed="0" NOx_normed="0" fuel_normed="0" electricity_normed="0"/>
        <edge id=":1110673414_1" sampledSeconds="320.06" CO_abs="22555.965070" CO2_abs="865318.791575" HC_abs="122.780489" PMx_abs="15.875643" NOx_abs="364.718550" fuel_abs="371.969807" electricity_abs="0"
            CO_normed="1914.093513" CO2_normed="73430.734637" HC_normed="10.419121" PMx_normed="1.347203" NOx_normed="30.949924" fuel_normed="31.565264" electricity_normed="0"
            traveltime="1.58" CO_perVeh="111.134489" CO2_perVeh="4263.473595" HC_perVeh="0.604946" PMx_perVeh="0.078220" NOx_perVeh="1.796988" fuel_perVeh="1.832716" electricity_perVeh="0"/>
        <edge id=":1110673417_0" sampledSeconds="29.88" CO_abs="565.162172" CO2_abs="61716.408765" HC_abs="3.992926" PMx_abs="0.885278" NOx_abs="23.458099" fuel_abs="26.529274" electricity_abs="0"
            CO_normed="1546.694505" CO2_normed="168900.954474" HC_normed="10.927549" PMx_normed="2.422765" NOx_normed="64.198410" fuel_normed="72.603377" electricity_normed="0"
            traveltime="0.02" CO_perVeh="0.419471" CO2_perVeh="45.806745" HC_perVeh="0.002964" PMx_perVeh="0.000657" NOx_perVeh="0.017411" fuel_perVeh="0.019690" electricity_perVeh="0"/>
        <edge id=":1110673446_0" sampledSeconds="334.53" CO_abs="3263.541300" CO2_abs="264933.354115" HC_abs="21.141253" PMx_abs="4.859010" NOx_abs="108.300982" fuel_abs="113.882667" electricity_abs="0"
            CO_normed="8335.993103" CO2_normed="676713.548187" HC_normed="54.000646" PMx_normed="12.411264" NOx_normed="276.630861" fuel_normed="290.888039" electricity_normed="0"
            traveltime="0.02" CO_perVeh="0.222841" CO2_perVeh="18.090130" HC_perVeh="0.001444" PMx_perVeh="0.000332" NOx_perVeh="0.007395" fuel_perVeh="0.007776" electricity_perVeh="0"/>
        <edge id=":1110673451_0" sampledSeconds="37.84" CO_abs="318.271497" CO2_abs="23444.587611" HC_abs="1.981399" PMx_abs="0.309128" NOx_abs="8.919892" fuel_abs="10.077948" electricity_abs="0"
            CO_normed="903.282239" CO2_normed="66537.782349" HC_normed="5.623384" PMx_normed="0.877332" NOx_normed="25.315429" fuel_normed="28.602096" electricity_normed="0"
            traveltime="0.03" CO_perVeh="0.228243" CO2_perVeh="16.812852" HC_perVeh="0.001421" PMx_perVeh="0.000222" NOx_perVeh="0.006397" fuel_perVeh="0.007227" electricity_perVeh="0"/>
        <edge id=":1110673464_0" sampledSeconds="324.09" CO_abs="681.151057" CO2_abs="53912.376574" HC_abs="4.331054" PMx_abs="0.726026" NOx_abs="20.527847" fuel_abs="23.174849" electricity_abs="0"
            CO_normed="36.965640" CO2_normed="2925.790790" HC_normed="0.235044" PMx_normed="0.039401" NOx_normed="1.114033" fuel_normed="1.257685" electricity_normed="0"
            traveltime="1.17" CO_perVeh="2.462273" CO2_perVeh="194.886294" HC_perVeh="0.015656" PMx_perVeh="0.002624" NOx_perVeh="0.074206" fuel_perVeh="0.083774" electricity_perVeh="0"/>
        <edge id=":1110673464_1" sampledSeconds="745.24" CO_abs="16965.670726" CO2_abs="2167818.459845" HC_abs="128.939452" PMx_abs="38.435100" NOx_abs="813.544896" fuel_abs="931.845710" electricity_abs="0"
            CO_normed="902.186951" CO2_normed="115278.526770" HC_normed="6.856640" PMx_normed="2.043871" NOx_normed="43.262044" fuel_normed="49.552950" electricity_normed="0"
            traveltime="0.70" CO_perVeh="15.956425" CO2_perVeh="2038.860281" HC_perVeh="0.121269" PMx_perVeh="0.036149" NOx_perVeh="0.765149" fuel_perVeh="0.876413" electricity_perVeh="0"/>
        <edge id=":1110673479_0" sampledSeconds="132.70" CO_abs="7163.973101" CO2_abs="494400.733584" HC_abs="44.252049" PMx_abs="8.736246" NOx_abs="202.767119" fuel_abs="212.521285" electricity_abs="0"
            CO_normed="18298.781867" CO2_normed="1262837.122819" HC_normed="113.032055" PMx_normed="22.314804" NOx_normed="517.923676" fuel_normed="542.838531" electricity_normed="0"
            traveltime="0.03" CO_perVeh="1.509158" CO2_perVeh="104.150144" HC_perVeh="0.009322" PMx_perVeh="0.001840" NOx_perVeh="0.042715" fuel_perVeh="0.044770" electricity_perVeh="0"/>
        <edge id=":1110673511_0" sampledSeconds="11.82" CO_abs="231.903246" CO2_abs="23856.136707" HC_abs="1.590462" PMx_abs="0.357273" NOx_abs="9.174416" fuel_abs="10.254729" electricity_abs="0"
            CO_normed="592.345456" CO2_normed="60935.215087" HC_normed="4.062483" PMx_normed="0.912575" NOx_normed="23.434013" fuel_normed="26.193432" electricity_normed="0"
            traveltime="0.02" CO_perVeh="0.459214" CO2_perVeh="47.239875" HC_perVeh="0.003149" PMx_perVeh="0.000707" NOx_perVeh="0.018167" fuel_perVeh="0.020306" electricity_perVeh="0"/>
        <edge id=":1110673517_0" sampledSeconds="17.18" CO_abs="656.632168" CO2_abs="48677.033014" HC_abs="4.127749" PMx_abs="0.809300" NOx_abs="19.572095" fuel_abs="20.924173" electricity_abs="0"
            CO_normed="1677.221374" CO2_normed="124334.694800" HC_normed="10.543420" PMx_normed="2.067177" NOx_normed="49.992580" fuel_normed="53.446164" electricity_normed="0"
            traveltime="0.03" CO_perVeh="1.054266" CO2_perVeh="78.154187" HC_perVeh="0.006627" PMx_perVeh="0.001299" NOx_perVeh="0.031424" fuel_perVeh="0.033595" electricity_perVeh="0"/>
        <edge id=":1110673534_0" sampledSeconds="475.77" CO_abs="3375.722843" CO2_abs="300685.453872" HC_abs="22.239601" PMx_abs="4.001979" NOx_abs="113.687264" fuel_abs="129.252830" electricity_abs="0"
            CO_normed="167.103411" CO2_normed="14884.386917" HC_normed="1.100894" PMx_normed="0.198104" NOx_normed="5.627692" fuel_normed="6.398212" electricity_normed="0"
            traveltime="1.43" CO_perVeh="10.169705" CO2_perVeh="905.845204" HC_perVeh="0.066999" PMx_perVeh="0.012056" NOx_perVeh="0.342494" fuel_perVeh="0.389387" electricity_perVeh="0"/>
        <edge id=":1110673534_1" sampledSeconds="184.25" CO_abs="2894.939634" CO2_abs="378499.368572" HC_abs="21.836063" PMx_abs="5.071428" NOx_abs="140.362817" fuel_abs="162.701049" electricity_abs="0"
            CO_normed="139.343250" CO2_normed="18218.456679" HC_normed="1.051044" PMx_normed="0.244105" NOx_normed="6.756138" fuel_normed="7.831353" electricity_normed="0"
            traveltime="1.22" CO_perVeh="19.221360" CO2_perVeh="2513.099923" HC_perVeh="0.144984" PMx_perVeh="0.033672" NOx_perVeh="0.931959" fuel_perVeh="1.080277" electricity_perVeh="0"/>
        <edge id=":1110673549_0" sampledSeconds="60.24" CO_abs="69.660710" CO2_abs="5639.525931" HC_abs="0.442006" PMx_abs="0.056015" NOx_abs="2.018709" fuel_abs="2.424244" electricity_abs="0"
            CO_normed="3.340416" CO2_normed="270.430276" HC_normed="0.021195" PMx_normed="0.002686" NOx_normed="0.096802" fuel_normed="0.116249" electricity_normed="0"
            traveltime="1.26" CO_perVeh="1.451322" CO2_perVeh="117.494719" HC_perVeh="0.009209" PMx_perVeh="0.001167" NOx_perVeh="0.042058" fuel_perVeh="0.050507" electricity_perVeh="0"/>
        <edge id=":1110673549_1" sampledSeconds="639.03" CO_abs="12822.132027" CO2_abs="1771171.698520" HC_abs="100.445957" PMx_abs="30.690683" NOx_abs="656.883526" fuel_abs="761.345974" electricity_abs="0"
            CO_normed="594.757175" CO2_normed="82156.155711" HC_normed="4.659206" PMx_normed="1.423593" NOx_normed="30.469675" fuel_normed="35.315186" electricity_normed="0"
            traveltime="0.80" CO_perVeh="16.146266" CO2_perVeh="2230.347435" HC_perVeh="0.126487" PMx_perVeh="0.038647" NOx_perVeh="0.827180" fuel_perVeh="0.958725" electricity_perVeh="0"/>
        <edge id=":1110673556_0" sampledSeconds="408.83" CO_abs="50686.353591" CO2_abs="2578218.117073" HC_abs="292.161509" PMx_abs="52.199611" NOx_abs="1111.277165" fuel_abs="1108.263491" electricity_abs="0"
            CO_normed="1802.325647" CO2_normed="91677.311681" HC_normed="10.388796" PMx_normed="1.856135" NOx_normed="39.515238" fuel_normed="39.408077" electricity_normed="0"
            traveltime="2.54" CO_perVeh="314.636168" CO2_perVeh="16004.320896" HC_perVeh="1.813596" PMx_perVeh="0.324030" NOx_perVeh="6.898267" fuel_perVeh="6.879559" electricity_perVeh="0"/>
        <edge id=":1110673556_2" sampledSeconds="246.52" CO_abs="23707.852381" CO2_abs="1024913.494488" HC_abs="132.037660" PMx_abs="19.841673" NOx_abs="437.514494" fuel_abs="440.569863" electricity_abs="0"
            CO_normed="881.462236" CO2_normed="38106.468961" HC_normed="4.909184" PMx_normed="0.737717" NOx_normed="16.266868" fuel_normed="16.380467" electricity_normed="0"
            traveltime="2.99" CO_perVeh="287.571706" CO2_perVeh="12432.004285" HC_perVeh="1.601592" PMx_perVeh="0.240676" NOx_perVeh="5.306967" fuel_perVeh="5.344028" electricity_perVeh="0"/>
        <edge id=":1110673556_3" sampledSeconds="367.20" CO_abs="32481.298947" CO2_abs="1158944.431225" HC_abs="174.905813" PMx_abs="22.261079" NOx_abs="495.176556" fuel_abs="498.189431" electricity_abs="0"
            CO_normed="2747.227842" CO2_normed="98022.077696" HC_normed="14.793316" PMx_normed="1.882814" NOx_normed="41.881417" fuel_normed="42.136242" electricity_normed="0"
            traveltime="1.73" CO_perVeh="153.303866" CO2_perVeh="5469.937094" HC_perVeh="0.825513" PMx_perVeh="0.105067" NOx_perVeh="2.337113" fuel_perVeh="2.351333" electricity_perVeh="0"/>
        <edge id=":1110673556_4" sampledSeconds="174.10" CO_abs="18205.861259" CO2_abs="732123.155317" HC_abs="100.091579" PMx_abs="14.345785" NOx_abs="314.105265" fuel_abs="314.711627" electricity_abs="0"
            CO_normed="940.718243" CO2_normed="37829.663663" HC_normed="5.171849" PMx_normed="0.741264" NOx_normed="16.230188" fuel_normed="16.261520" electricity_normed="0"
            traveltime="2.40" CO_perVeh="250.713086" CO2_perVeh="10082.074838" HC_perVeh="1.378362" PMx_perVeh="0.197556" NOx_perVeh="4.325547" fuel_perVeh="4.333897" electricity_perVeh="0"/>
        <edge id=":1110673556_5" sampledSeconds="25.76" CO_abs="2351.608960" CO2_abs="92010.087939" HC_abs="12.864698" PMx_abs="1.794649" NOx_abs="39.443689" fuel_abs="39.551668" electricity_abs="0"
            CO_normed="169.360827" CO2_normed="6626.486326" HC_normed="0.926504" PMx_normed="0.129249" NOx_normed="2.840700" fuel_normed="2.848477" electricity_normed="0"
            traveltime="1.78" CO_perVeh="162.580373" CO2_perVeh="6361.191265" HC_perVeh="0.889411" PMx_perVeh="0.124074" NOx_perVeh="2.726971" fuel_perVeh="2.734436" electricity_perVeh="0"/>
        <edge id=":1110673556_6" sampledSeconds="303.86" CO_abs="36256.938804" CO2_abs="1870832.097599" HC_abs="209.624601" PMx_abs="37.753897" NOx_abs="804.849169" fuel_abs="804.188919" electricity_abs="0"
            CO_normed="1321.745712" CO2_normed="68201.132933" HC_normed="7.641859" PMx_normed="1.376317" NOx_normed="29.340754" fuel_normed="29.316685" electricity_normed="0"
            traveltime="2.41" CO_perVeh="287.125789" CO2_perVeh="14815.485264" HC_perVeh="1.660058" PMx_perVeh="0.298980" NOx_perVeh="6.373758" fuel_perVeh="6.368529" electricity_perVeh="0"/>
        <edge id=":1110673561_0" sampledSeconds="100.81" CO_abs="9524.136287" CO2_abs="685373.832282" HC_abs="59.841867" PMx_abs="13.824212" NOx_abs="289.458963" fuel_abs="294.609589" electricity_abs="0"
            CO_normed="436.233636" CO2_normed="31392.150393" HC_normed="2.740935" PMx_normed="0.633190" NOx_normed="13.258077" fuel_normed="13.493991" electricity_normed="0"
            traveltime="1.19" CO_perVeh="112.394052" CO2_perVeh="8088.076445" HC_perVeh="0.706192" PMx_perVeh="0.163139" NOx_perVeh="3.415897" fuel_perVeh="3.476679" electricity_perVeh="0"/>
        <edge id=":1110673561_1" sampledSeconds="1315.15" CO_abs="122919.950963" CO2_abs="8498049.706457" HC_abs="765.315480" PMx_abs="177.792632" NOx_abs="3634.759385" fuel_abs="3652.901063" electricity_abs="0"
            CO_normed="5489.017092" CO2_normed="379482.254305" HC_normed="34.175329" PMx_normed="7.939369" NOx_normed="162.310969" fuel_normed="163.121090" electricity_normed="0"
            traveltime="1.19" CO_perVeh="111.642320" CO2_perVeh="7718.372603" HC_perVeh="0.695099" PMx_perVeh="0.161481" NOx_perVeh="3.301278" fuel_perVeh="3.317756" electricity_perVeh="0"/>
        <edge id=":1110673562_0" sampledSeconds="104.75" CO_abs="2257.946089" CO2_abs="179557.962539" HC_abs="14.371467" PMx_abs="2.393016" NOx_abs="68.225103" fuel_abs="77.185063" electricity_abs="0"
            CO_normed="6408.247733" CO2_normed="509601.142439" HC_normed="40.787475" PMx_normed="6.791587" NOx_normed="193.628787" fuel_normed="219.057935" electricity_normed="0"
            traveltime="0.03" CO_perVeh="0.575561" CO2_perVeh="45.770142" HC_perVeh="0.003663" PMx_perVeh="0.000610" NOx_perVeh="0.017391" fuel_perVeh="0.019675" electricity_perVeh="0"/>
        <edge id=":1110673564_0" sampledSeconds="28.62" CO_abs="442.337122" CO2_abs="56320.401372" HC_abs="3.306876" PMx_abs="0.725527" NOx_abs="20.787890" fuel_abs="24.209832" electricity_abs="0"
            CO_normed="3389.556491" CO2_normed="431573.956872" HC_normed="25.340042" PMx_normed="5.559597" NOx_normed="159.294173" fuel_normed="185.515957" electricity_normed="0"
            traveltime="7.867734e-03" CO_perVeh="0.121605" CO2_perVeh="15.483272" HC_perVeh="0.000909" PMx_perVeh="0.000199" NOx_perVeh="0.005715" fuel_perVeh="0.006656" electricity_perVeh="0"/>
        <edge id=":1110673588_0" sampledSeconds="11.69" CO_abs="165.842489" CO2_abs="18436.274672" HC_abs="1.182524" PMx_abs="0.264218" NOx_abs="7.003292" fuel_abs="7.924973" electricity_abs="0"
            CO_normed="508.329467" CO2_normed="56509.654167" HC_normed="3.624595" PMx_normed="0.809865" NOx_normed="21.466028" fuel_normed="24.291106" electricity_normed="0"
            traveltime="0.02" CO_perVeh="0.276404" CO2_perVeh="30.727124" HC_perVeh="0.001971" PMx_perVeh="0.000440" NOx_perVeh="0.011672" fuel_perVeh="0.013208" electricity_perVeh="0"/>
        <edge id=":1110673601_0" sampledSeconds="29.83" CO_abs="429.078771" CO2_abs="53963.611902" HC_abs="3.167385" PMx_abs="0.704252" NOx_abs="19.965567" fuel_abs="23.196732" electricity_abs="0"
            CO_normed="1174.271405" CO2_normed="147683.666946" HC_normed="8.668267" PMx_normed="1.927346" NOx_normed="54.640303" fuel_normed="63.483120" electricity_normed="0"
            traveltime="0.02" CO_perVeh="0.318468" CO2_perVeh="40.052515" HC_perVeh="0.002351" PMx_perVeh="0.000523" NOx_perVeh="0.014819" fuel_perVeh="0.017217" electricity_perVeh="0"/>
        <edge id=":1110673617_0" sampledSeconds="247.89" CO_abs="6426.084181" CO2_abs="761181.451198" HC_abs="47.528840" PMx_abs="13.814906" NOx_abs="289.306615" fuel_abs="327.196754" electricity_abs="0"
            CO_normed="16414.008125" CO2_normed="1944269.351719" HC_normed="121.401891" PMx_normed="35.287116" NOx_normed="738.969642" fuel_normed="835.751607" electricity_normed="0"
            traveltime="0.01" CO_perVeh="0.378971" CO2_perVeh="44.889845" HC_perVeh="0.002803" PMx_perVeh="0.000815" NOx_perVeh="0.017062" fuel_perVeh="0.019296" electricity_perVeh="0"/>
        <edge id=":1110673621_0" sampledSeconds="25.78" CO_abs="435.844173" CO2_abs="53612.296181" HC_abs="3.196001" PMx_abs="0.719509" NOx_abs="19.934207" fuel_abs="23.045697" electricity_abs="0"
            CO_normed="1335.920835" CO2_normed="164328.877182" HC_normed="9.796172" PMx_normed="2.205391" NOx_normed="61.101019" fuel_normed="70.638152" electricity_normed="0"
            traveltime="0.02" CO_perVeh="0.330185" CO2_perVeh="40.615376" HC_perVeh="0.002421" PMx_perVeh="0.000545" NOx_perVeh="0.015102" fuel_perVeh="0.017459" electricity_perVeh="0"/>
        <edge id=":1110673630_0" sampledSeconds="54.06" CO_abs="322.422205" CO2_abs="32008.066824" HC_abs="2.194258" PMx_abs="0.389959" NOx_abs="11.815660" fuel_abs="13.759036" electricity_abs="0"
            CO_normed="17.622455" CO2_normed="1749.447523" HC_normed="0.119930" PMx_normed="0.021314" NOx_normed="0.645802" fuel_normed="0.752020" electricity_normed="0"
            traveltime="1.26" CO_perVeh="7.525905" CO2_perVeh="747.124895" HC_perVeh="0.051218" PMx_perVeh="0.009102" NOx_perVeh="0.275798" fuel_perVeh="0.321160" electricity_perVeh="0"/>
        <edge id=":1110673630_1" sampledSeconds="7.53" CO_abs="0" CO2_abs="0" HC_abs="0" PMx_abs="0" NOx_abs="0" fuel_abs="0" electricity_abs="0"
            CO_normed="0" CO2_normed="0" HC_normed="0" PMx_normed="0" NOx_normed="0" fuel_normed="0" electricity_normed="0"
            traveltime="1.07" CO_perVeh="0" CO2_perVeh="0" HC_perVeh="0" PMx_perVeh="0" NOx_perVeh="0" fuel_perVeh="0" electricity_perVeh="0"/>
        <edge id=":1110673650_0" sampledSeconds="142.95" CO_abs="2241.866615" CO2_abs="281411.965459" HC_abs="16.665305" PMx_abs="3.859345" NOx_abs="105.121072" fuel_abs="120.967158" electricity_abs="0"
            CO_normed="5726.351508" CO2_normed="718804.509475" HC_normed="42.567829" PMx_normed="9.857841" NOx_normed="268.508484" fuel_normed="308.983801" electricity_normed="0"
            traveltime="0.02" CO_perVeh="0.360678" CO2_perVeh="45.274389" HC_perVeh="0.002681" PMx_perVeh="0.000621" NOx_perVeh="0.016912" fuel_perVeh="0.019462" electricity_perVeh="0"/>
        <edge id=":1110673655_0" sampledSeconds="44.95" CO_abs="985.958968" CO2_abs="99865.502960" HC_abs="6.804834" PMx_abs="1.485128" NOx_abs="38.384774" fuel_abs="42.927930" electricity_abs="0"
            CO_normed="2518.413711" CO2_normed="255084.298747" HC_normed="17.381441" PMx_normed="3.793430" NOx_normed="98.045401" fuel_normed="109.649885" electricity_normed="0"
            traveltime="0.02" CO_perVeh="0.527674" CO2_perVeh="53.446884" HC_perVeh="0.003642" PMx_perVeh="0.000795" NOx_perVeh="0.020543" fuel_perVeh="0.022975" electricity_perVeh="0"/>
        <edge id=":1110673663_0" sampledSeconds="108.09" CO_abs="1777.075934" CO2_abs="223360.680920" HC_abs="13.190874" PMx_abs="3.046375" NOx_abs="83.275867" fuel_abs="96.013379" electricity_abs="0"
            CO_normed="83.134555" CO2_normed="10449.182534" HC_normed="0.617091" PMx_normed="0.142514" NOx_normed="3.895783" fuel_normed="4.491665" electricity_normed="0"
            traveltime="1.27" CO_perVeh="20.872595" CO2_perVeh="2623.476569" HC_perVeh="0.154933" PMx_perVeh="0.035781" NOx_perVeh="0.978114" fuel_perVeh="1.127722" electricity_perVeh="0"/>
        <edge id=":1110673663_1" sampledSeconds="154.22" CO_abs="2545.197503" CO2_abs="325237.613763" HC_abs="19.031410" PMx_abs="4.374882" NOx_abs="120.905336" fuel_abs="139.806053" electricity_abs="0"
            CO_normed="119.214115" CO2_normed="15233.754591" HC_normed="0.891409" PMx_normed="0.204914" NOx_normed="5.663066" fuel_normed="6.548354" electricity_normed="0"
            traveltime="1.25" CO_perVeh="20.628179" CO2_perVeh="2635.968226" HC_perVeh="0.154245" PMx_perVeh="0.035457" NOx_perVeh="0.979907" fuel_perVeh="1.133093" electricity_perVeh="0"/>
        <edge id=":1110673666_0" sampledSeconds="193.33" CO_abs="3904.584736" CO2_abs="312174.628913" HC_abs="24.885946" PMx_abs="4.136739" NOx_abs="118.478357" fuel_abs="134.191885" electricity_abs="0"