<?xml version="1.0" encoding="UTF-8"?>

<!-- generated on Tue Nov 10 04:56:31 2020 by Eclipse SUMO sumo Version 1.7.0
<configuration xmlns:xsi="http://www.w3.org/2001/XMLSchema-instance" xsi:noNamespaceSchemaLocation="http://sumo.dlr.de/xsd/sumoConfiguration.xsd">

    <input>
        <net-file value="../dataSets/Porto/8AM9AM_Routing_SaoBento/Porto.net.xml"/>
        <route-files value="../results/Porto/8AM9AM_Routing_SaoBento/cost_PMx-ttime/solution7/Porto.rou.xml"/>
        <additional-files value="moreOutputInfo.xml"/>
    </input>

    <output>
        <emission-output.precision value="6"/>
        <tripinfo-output value="../results/Porto/8AM9AM_Routing_SaoBento/cost_PMx-ttime/solution7/Porto-tripinfo"/>
    </output>

    <processing>
        <collision.action value="warn"/>
        <time-to-teleport value="-1"/>
    </processing>

    <emissions>
        <device.emissions.probability value="1"/>
    </emissions>

    <gui_only>
        <quit-on-end value="true"/>
        <start value="true"/>
    </gui_only>

</configuration>
-->

<meandata xmlns:xsi="http://www.w3.org/2001/XMLSchema-instance" xsi:noNamespaceSchemaLocation="http://sumo.dlr.de/xsd/meandata_file.xsd">
    <interval begin="0.00" end="8472.00" id="emissions-detector">
        <edge id=":1092997347_0" sampledSeconds="587.84" CO_abs="71471.799869" CO2_abs="3066111.765202" HC_abs="397.962938" PMx_abs="61.900457" NOx_abs="1325.737348" fuel_abs="1317.996981" electricity_abs="0"
            CO_normed="69023.757278" CO2_normed="2961091.712466" HC_normed="384.331964" PMx_normed="59.780251" NOx_normed="1280.328368" fuel_normed="1272.853123" electricity_normed="0"
            traveltime="0.07" CO_perVeh="8.188765" CO2_perVeh="351.294774" HC_perVeh="0.045596" PMx_perVeh="0.007092" NOx_perVeh="0.151894" fuel_perVeh="0.151007" electricity_perVeh="0"/>
        <edge id=":1103427051_0" sampledSeconds="19.65" CO_abs="1608.162520" CO2_abs="88742.839924" HC_abs="9.426586" PMx_abs="1.732761" NOx_abs="37.842590" fuel_abs="38.146656" electricity_abs="0"
            CO_normed="2356.397168" CO2_normed="130032.489876" HC_normed="13.812523" PMx_normed="2.538968" NOx_normed="55.449726" fuel_normed="55.895266" electricity_normed="0"
            traveltime="0.03" CO_perVeh="2.500896" CO2_perVeh="138.006347" HC_perVeh="0.014660" PMx_perVeh="0.002695" NOx_perVeh="0.058850" fuel_perVeh="0.059323" electricity_perVeh="0"/>
        <edge id=":1105984386_0" sampledSeconds="10.58" CO_abs="219.666670" CO2_abs="16119.468729" HC_abs="1.359495" PMx_abs="0.178353" NOx_abs="5.913239" fuel_abs="6.929207" electricity_abs="0"
            CO_normed="9.613056" CO2_normed="705.420454" HC_normed="0.059494" PMx_normed="0.007805" NOx_normed="0.258775" fuel_normed="0.303236" electricity_normed="0"
            traveltime="1.01" CO_perVeh="21.072549" CO2_perVeh="1546.335125" HC_perVeh="0.130416" PMx_perVeh="0.017109" NOx_perVeh="0.567255" fuel_perVeh="0.664717" electricity_perVeh="0"/>
        <edge id=":1105984390_0" sampledSeconds="11.04" CO_abs="12.217469" CO2_abs="1225.102115" HC_abs="0.083296" PMx_abs="0.014333" NOx_abs="0.449542" fuel_abs="0.526625" electricity_abs="0"
            CO_normed="0.413341" CO2_normed="41.447582" HC_normed="0.002818" PMx_normed="0.000485" NOx_normed="0.015209" fuel_normed="0.017817" electricity_normed="0"
            traveltime="1.14" CO_perVeh="1.266414" CO2_perVeh="126.989210" HC_perVeh="0.008634" PMx_perVeh="0.001486" NOx_perVeh="0.046598" fuel_perVeh="0.054588" electricity_perVeh="0"/>
        <edge id=":1105984390_1" sampledSeconds="2399.55" CO_abs="65728.618280" CO2_abs="7602047.529279" HC_abs="481.248349" PMx_abs="138.493335" NOx_abs="2906.032410" fuel_abs="3267.768243" electricity_abs="0"
            CO_normed="2127.190234" CO2_normed="246026.794464" HC_normed="15.574750" PMx_normed="4.482091" NOx_normed="94.048588" fuel_normed="105.755527" electricity_normed="0"
            traveltime="0.65" CO_perVeh="17.753150" CO2_perVeh="2053.295755" HC_perVeh="0.129984" PMx_perVeh="0.037407" NOx_perVeh="0.784913" fuel_perVeh="0.882617" electricity_perVeh="0"/>
        <edge id=":1105984395_0" sampledSeconds="4.15" CO_abs="75.139126" CO2_abs="5707.578452" HC_abs="0.470091" PMx_abs="0.066517" NOx_abs="2.114560" fuel_abs="2.453485" electricity_abs="0"
            CO_normed="34.705225" CO2_normed="2636.213720" HC_normed="0.217125" PMx_normed="0.030723" NOx_normed="0.976672" fuel_normed="1.133215" electricity_normed="0"
            traveltime="0.10" CO_perVeh="1.741698" CO2_perVeh="132.299627" HC_perVeh="0.010897" PMx_perVeh="0.001542" NOx_perVeh="0.049015" fuel_perVeh="0.056871" electricity_perVeh="0"/>
        <edge id=":1105984398_0" sampledSeconds="10.33" CO_abs="762.695242" CO2_abs="47551.817739" HC_abs="4.600186" PMx_abs="0.903821" NOx_abs="20.007323" fuel_abs="20.440406" electricity_abs="0"
            CO_normed="26.806573" CO2_normed="1671.311402" HC_normed="0.161683" PMx_normed="0.031767" NOx_normed="0.703201" fuel_normed="0.718422" electricity_normed="0"
            traveltime="1.21" CO_perVeh="89.255419" CO2_perVeh="5564.814350" HC_perVeh="0.538343" PMx_perVeh="0.105771" NOx_perVeh="2.341383" fuel_perVeh="2.392066" electricity_perVeh="0"/>
        <edge id=":1105984398_1" sampledSeconds="647.91" CO_abs="11983.879986" CO2_abs="1409551.155244" HC_abs="86.833034" PMx_abs="20.215926" NOx_abs="532.980927" fuel_abs="605.905884" electricity_abs="0"
            CO_normed="407.710190" CO2_normed="47955.117247" HC_normed="2.954195" PMx_normed="0.687777" NOx_normed="18.132838" fuel_normed="20.613858" electricity_normed="0"
            traveltime="0.95" CO_perVeh="17.618322" CO2_perVeh="2072.277664" HC_perVeh="0.127659" PMx_perVeh="0.029721" NOx_perVeh="0.783572" fuel_perVeh="0.890784" electricity_perVeh="0"/>
        <edge id=":1106006327_0" sampledSeconds="66.13" CO_abs="8868.399896" CO2_abs="291234.872589" HC_abs="47.236021" PMx_abs="6.056709" NOx_abs="127.382400" fuel_abs="125.191526" electricity_abs="0"
            CO_normed="425.332041" CO2_normed="13967.742116" HC_normed="2.265459" PMx_normed="0.290482" NOx_normed="6.109311" fuel_normed="6.004236" electricity_normed="0"
            traveltime="2.05" CO_perVeh="274.916984" CO2_perVeh="9028.168962" HC_perVeh="1.464298" PMx_perVeh="0.187756" NOx_perVeh="3.948805" fuel_perVeh="3.880889" electricity_perVeh="0"/>
        <edge id=":1106006327_1" sampledSeconds="681.29" CO_abs="92277.862698" CO2_abs="3089446.498146" HC_abs="492.996327" PMx_abs="64.465418" NOx_abs="1352.201536" fuel_abs="1328.041477" electricity_abs="0"
            CO_normed="3859.405156" CO2_normed="129212.201022" HC_normed="20.618949" PMx_normed="2.696185" NOx_normed="56.554123" fuel_normed="55.543659" electricity_normed="0"
            traveltime="2.29" CO_perVeh="309.754450" CO2_perVeh="10370.524104" HC_perVeh="1.654869" PMx_perVeh="0.216395" NOx_perVeh="4.539013" fuel_perVeh="4.457914" electricity_perVeh="0"/>
        <edge id=":1106006327_2" sampledSeconds="0.00" CO_abs="0" CO2_abs="0" HC_abs="0" PMx_abs="0" NOx_abs="0" fuel_abs="0" electricity_abs="0"
            CO_normed="0" CO2_normed="0" HC_normed="0" PMx_normed="0" NOx_normed="0" fuel_normed="0" electricity_normed="0"/>
        <edge id=":1106006327_3" sampledSeconds="0.00" CO_abs="0" CO2_abs="0" HC_abs="0" PMx_abs="0" NOx_abs="0" fuel_abs="0" electricity_abs="0"
            CO_normed="0" CO2_normed="0" HC_normed="0" PMx_normed="0" NOx_normed="0" fuel_normed="0" electricity_normed="0"/>
        <edge id=":1107381198_0" sampledSeconds="0.00" CO_abs="0" CO2_abs="0" HC_abs="0" PMx_abs="0" NOx_abs="0" fuel_abs="0" electricity_abs="0"
            CO_normed="0" CO2_normed="0" HC_normed="0" PMx_normed="0" NOx_normed="0" fuel_normed="0" electricity_normed="0"/>
        <edge id=":1107381198_1" sampledSeconds="103.64" CO_abs="4771.736813" CO2_abs="192168.049911" HC_abs="26.162719" PMx_abs="3.365790" NOx_abs="79.918962" fuel_abs="82.606263" electricity_abs="0"
            CO_normed="221.117798" CO2_normed="8904.886759" HC_normed="1.212356" PMx_normed="0.155968" NOx_normed="3.703370" fuel_normed="3.827897" electricity_normed="0"
            traveltime="1.55" CO_perVeh="71.442050" CO2_perVeh="2877.124180" HC_perVeh="0.391706" PMx_perVeh="0.050392" NOx_perVeh="1.196540" fuel_perVeh="1.236774" electricity_perVeh="0"/>
        <edge id=":1110338277_0" sampledSeconds="160.51" CO_abs="2601.963675" CO2_abs="311219.673036" HC_abs="18.986207" PMx_abs="4.296392" NOx_abs="116.709783" fuel_abs="133.780270" electricity_abs="0"
            CO_normed="3948.751025" CO2_normed="472308.285668" HC_normed="28.813547" PMx_normed="6.520222" NOx_normed="177.119258" fuel_normed="203.025501" electricity_normed="0"
            traveltime="0.02" CO_perVeh="0.352709" CO2_perVeh="42.187370" HC_perVeh="0.002574" PMx_perVeh="0.000582" NOx_perVeh="0.015821" fuel_perVeh="0.018135" electricity_perVeh="0"/>
        <edge id=":1110338293_0" sampledSeconds="6400.90" CO_abs="596059.003926" CO2_abs="10449829.356452" HC_abs="2958.494007" PMx_abs="248.996216" NOx_abs="4721.794125" fuel_abs="4492.205340" electricity_abs="0"
            CO_normed="844276.209526" CO2_normed="14801458.011971" HC_normed="4190.501426" PMx_normed="352.685859" NOx_normed="6688.093661" fuel_normed="6362.897082" electricity_normed="0"
            traveltime="0.43" CO_perVeh="39.839433" CO2_perVeh="698.446414" HC_perVeh="0.197740" PMx_perVeh="0.016642" NOx_perVeh="0.315596" fuel_perVeh="0.300250" electricity_perVeh="0"/>
        <edge id=":1110338295_0" sampledSeconds="0.00" CO_abs="0" CO2_abs="0" HC_abs="0" PMx_abs="0" NOx_abs="0" fuel_abs="0" electricity_abs="0"
            CO_normed="0" CO2_normed="0" HC_normed="0" PMx_normed="0" NOx_normed="0" fuel_normed="0" electricity_normed="0"/>
        <edge id=":1110673403_0" sampledSeconds="199.93" CO_abs="3052.959208" CO2_abs="390000.990634" HC_abs="22.809672" PMx_abs="5.266569" NOx_abs="145.102330" fuel_abs="167.645088" electricity_abs="0"
            CO_normed="4324.304828" CO2_normed="552409.335175" HC_normed="32.308318" PMx_normed="7.459730" NOx_normed="205.527379" fuel_normed="237.457632" electricity_normed="0"
            traveltime="0.02" CO_perVeh="0.352848" CO2_perVeh="45.074661" HC_perVeh="0.002636" PMx_perVeh="0.000609" NOx_perVeh="0.016770" fuel_perVeh="0.019376" electricity_perVeh="0"/>
        <edge id=":1110673412_0" sampledSeconds="940.75" CO_abs="166807.049695" CO2_abs="11387903.752003" HC_abs="1038.250667" PMx_abs="250.199535" NOx_abs="4893.079367" fuel_abs="4895.098996" electricity_abs="0"
            CO_normed="244417.871000" CO2_normed="16686388.227024" HC_normed="1521.320700" PMx_normed="366.610630" NOx_normed="7169.697226" fuel_normed="7172.656534" electricity_normed="0"
            traveltime="0.02" CO_perVeh="2.753671" CO2_perVeh="187.992928" HC_perVeh="0.017140" PMx_perVeh="0.004130" NOx_perVeh="0.080776" fuel_perVeh="0.080809" electricity_perVeh="0"/>
        <edge id=":1110673414_0" sampledSeconds="0.00" CO_abs="0" CO2_abs="0" HC_abs="0" PMx_abs="0" NOx_abs="0" fuel_abs="0" electricity_abs="0"
            CO_normed="0" CO2_normed="0" HC_normed="0" PMx_normed="0" NOx_normed="0" fuel_normed="0" electricity_normed="0"/>
        <edge id=":1110673414_1" sampledSeconds="239.66" CO_abs="16940.307579" CO2_abs="657117.018395" HC_abs="92.396795" PMx_abs="12.105806" NOx_abs="277.205595" fuel_abs="282.471032" electricity_abs="0"
            CO_normed="797.168437" CO2_normed="30922.280707" HC_normed="4.347962" PMx_normed="0.569669" NOx_normed="13.044601" fuel_normed="13.292379" electricity_normed="0"
            traveltime="1.55" CO_perVeh="109.910544" CO2_perVeh="4263.446152" HC_perVeh="0.599480" PMx_perVeh="0.078544" NOx_perVeh="1.798540" fuel_perVeh="1.832703" electricity_perVeh="0"/>
        <edge id=":1110673417_0" sampledSeconds="28.77" CO_abs="493.125086" CO2_abs="56758.435688" HC_abs="3.523928" PMx_abs="0.768471" NOx_abs="21.249750" fuel_abs="24.398097" electricity_abs="0"
            CO_normed="748.368706" CO2_normed="86136.840886" HC_normed="5.347927" PMx_normed="1.166235" NOx_normed="32.248710" fuel_normed="37.026655" electricity_normed="0"
            traveltime="0.02" CO_perVeh="0.376032" CO2_perVeh="43.281032" HC_perVeh="0.002687" PMx_perVeh="0.000586" NOx_perVeh="0.016204" fuel_perVeh="0.018605" electricity_perVeh="0"/>
        <edge id=":1110673446_0" sampledSeconds="1311.53" CO_abs="13007.957980" CO2_abs="1072972.635035" HC_abs="84.595365" PMx_abs="19.439290" NOx_abs="436.924122" fuel_abs="461.221795" electricity_abs="0"
            CO_normed="18424.869660" CO2_normed="1519791.267755" HC_normed="119.823463" PMx_normed="27.534405" NOx_normed="618.872694" fuel_normed="653.288662" electricity_normed="0"
            traveltime="0.02" CO_perVeh="0.225804" CO2_perVeh="18.625639" HC_perVeh="0.001468" PMx_perVeh="0.000337" NOx_perVeh="0.007585" fuel_perVeh="0.008006" electricity_perVeh="0"/>
        <edge id=":1110673451_0" sampledSeconds="36.61" CO_abs="382.532364" CO2_abs="27100.048262" HC_abs="2.357317" PMx_abs="0.362606" NOx_abs="10.360525" fuel_abs="11.649297" electricity_abs="0"
            CO_normed="602.033938" CO2_normed="42650.374980" HC_normed="3.709973" PMx_normed="0.570674" NOx_normed="16.305517" fuel_normed="18.333800" electricity_normed="0"
            traveltime="0.03" CO_perVeh="0.281842" CO2_perVeh="19.966744" HC_perVeh="0.001737" PMx_perVeh="0.000267" NOx_perVeh="0.007633" fuel_perVeh="0.008583" electricity_perVeh="0"/>
        <edge id=":1110673464_0" sampledSeconds="1038.33" CO_abs="4058.334403" CO2_abs="288124.273096" HC_abs="25.085090" PMx_abs="4.197334" NOx_abs="112.264766" fuel_abs="123.853321" electricity_abs="0"
            CO_normed="122.132061" CO2_normed="8670.850614" HC_normed="0.754914" PMx_normed="0.126315" NOx_normed="3.378511" fuel_normed="3.727258" electricity_normed="0"
            traveltime="1.23" CO_perVeh="4.812617" CO2_perVeh="341.675064" HC_perVeh="0.029747" PMx_perVeh="0.004977" NOx_perVeh="0.133130" fuel_perVeh="0.146873" electricity_perVeh="0"/>
        <edge id=":1110673464_1" sampledSeconds="2612.42" CO_abs="62473.376500" CO2_abs="7575566.378523" HC_abs="464.701072" PMx_abs="135.307443" NOx_abs="2875.295327" fuel_abs="3256.386957" electricity_abs="0"
            CO_normed="1842.245701" CO2_normed="223392.033149" HC_normed="13.703334" PMx_normed="3.990013" NOx_normed="84.788125" fuel_normed="96.025943" electricity_normed="0"
            traveltime="0.72" CO_perVeh="17.222343" CO2_perVeh="2088.393645" HC_perVeh="0.128106" PMx_perVeh="0.037301" NOx_perVeh="0.792647" fuel_perVeh="0.897704" electricity_perVeh="0"/>
        <edge id=":1110673479_0" sampledSeconds="134.41" CO_abs="6472.249882" CO2_abs="449097.340626" HC_abs="40.013198" PMx_abs="7.802749" NOx_abs="183.244445" fuel_abs="193.047516" electricity_abs="0"
            CO_normed="9167.492751" CO2_normed="636115.213351" HC_normed="56.675918" PMx_normed="11.052052" NOx_normed="259.553039" fuel_normed="273.438408" electricity_normed="0"
            traveltime="0.03" CO_perVeh="1.368296" CO2_perVeh="94.943494" HC_perVeh="0.008459" PMx_perVeh="0.001650" NOx_perVeh="0.038740" fuel_perVeh="0.040812" electricity_perVeh="0"/>
        <edge id=":1110673511_0" sampledSeconds="63.21" CO_abs="1254.247358" CO2_abs="133358.097814" HC_abs="8.766600" PMx_abs="1.873153" NOx_abs="50.503929" fuel_abs="57.325087" electricity_abs="0"
            CO_normed="1776.554331" CO2_normed="188892.489822" HC_normed="12.417280" PMx_normed="2.653191" NOx_normed="71.535310" fuel_normed="81.197007" electricity_normed="0"
            traveltime="0.02" CO_perVeh="0.480708" CO2_perVeh="51.111376" HC_perVeh="0.003360" PMx_perVeh="0.000718" NOx_perVeh="0.019356" fuel_perVeh="0.021971" electricity_perVeh="0"/>
        <edge id=":1110673517_0" sampledSeconds="182.33" CO_abs="8273.426982" CO2_abs="589336.941568" HC_abs="51.521948" PMx_abs="10.280422" NOx_abs="240.454491" fuel_abs="253.330230" electricity_abs="0"
            CO_normed="11718.735101" CO2_normed="834754.874742" HC_normed="72.977264" PMx_normed="14.561504" NOx_normed="340.587098" fuel_normed="358.824689" electricity_normed="0"
            traveltime="0.03" CO_perVeh="1.266729" CO2_perVeh="90.232256" HC_perVeh="0.007888" PMx_perVeh="0.001574" NOx_perVeh="0.036816" fuel_perVeh="0.038787" electricity_perVeh="0"/>
        <edge id=":1110673534_0" sampledSeconds="659.10" CO_abs="4531.476365" CO2_abs="373107.902015" HC_abs="29.123927" PMx_abs="5.015013" NOx_abs="141.819969" fuel_abs="160.384556" electricity_abs="0"
            CO_normed="124.389957" CO2_normed="10241.888520" HC_normed="0.799458" PMx_normed="0.137663" NOx_normed="3.892987" fuel_normed="4.402589" electricity_normed="0"
            traveltime="1.45" CO_perVeh="9.964060" CO2_perVeh="820.410204" HC_perVeh="0.064039" PMx_perVeh="0.011027" NOx_perVeh="0.311842" fuel_perVeh="0.352662" electricity_perVeh="0"/>
        <edge id=":1110673534_1" sampledSeconds="265.41" CO_abs="3717.457321" CO2_abs="472047.457903" HC_abs="27.738515" PMx_abs="6.346029" NOx_abs="175.457395" fuel_abs="202.913495" electricity_abs="0"
            CO_normed="99.224628" CO2_normed="12599.669503" HC_normed="0.740383" PMx_normed="0.169385" NOx_normed="4.683227" fuel_normed="5.416072" electricity_normed="0"
            traveltime="1.23" CO_perVeh="17.248069" CO2_perVeh="2190.181781" HC_perVeh="0.128700" PMx_perVeh="0.029444" NOx_perVeh="0.814078" fuel_perVeh="0.941468" electricity_perVeh="0"/>
        <edge id=":1110673549_0" sampledSeconds="656.36" CO_abs="1591.759903" CO2_abs="147095.737211" HC_abs="10.564348" PMx_abs="2.052431" NOx_abs="55.655637" fuel_abs="63.230512" electricity_abs="0"
            CO_normed="42.326985" CO2_normed="3911.468759" HC_normed="0.280920" PMx_normed="0.054577" NOx_normed="1.479956" fuel_normed="1.681382" electricity_normed="0"
            traveltime="1.30" CO_perVeh="3.162447" CO2_perVeh="292.244155" HC_perVeh="0.020989" PMx_perVeh="0.004078" NOx_perVeh="0.110574" fuel_perVeh="0.125624" electricity_perVeh="0"/>
        <edge id=":1110673549_1" sampledSeconds="3197.46" CO_abs="68709.939384" CO2_abs="9091906.139101" HC_abs="529.301243" PMx_abs="159.443706" NOx_abs="3394.473250" fuel_abs="3908.194574" electricity_abs="0"
            CO_normed="1767.364291" CO2_normed="233862.966490" HC_normed="13.614742" PMx_normed="4.101228" NOx_normed="87.312998" fuel_normed="100.526992" electricity_normed="0"
            traveltime="0.81" CO_perVeh="17.328427" CO2_perVeh="2292.949709" HC_perVeh="0.133488" PMx_perVeh="0.040211" NOx_perVeh="0.856075" fuel_perVeh="0.985634" electricity_perVeh="0"/>
        <edge id=":1110673556_0" sampledSeconds="461.01" CO_abs="56810.055891" CO2_abs="2755277.786702" HC_abs="324.150776" PMx_abs="55.740482" NOx_abs="1188.612373" fuel_abs="1184.375911" electricity_abs="0"
            CO_normed="1120.197233" CO2_normed="54329.370133" HC_normed="6.391699" PMx_normed="1.099107" NOx_normed="23.437405" fuel_normed="23.353869" electricity_normed="0"
            traveltime="2.72" CO_perVeh="334.889817" CO2_perVeh="16242.097629" HC_perVeh="1.910838" PMx_perVeh="0.328585" NOx_perVeh="7.006756" fuel_perVeh="6.981782" electricity_perVeh="0"/>
        <edge id=":1110673556_2" sampledSeconds="176.18" CO_abs="16806.541082" CO2_abs="717325.868075" HC_abs="93.380773" PMx_abs="13.902975" NOx_abs="306.345629" fuel_abs="308.350237" electricity_abs="0"
            CO_normed="346.510902" CO2_normed="14789.553218" HC_normed="1.925289" PMx_normed="0.286646" NOx_normed="6.316118" fuel_normed="6.357448" electricity_normed="0"
            traveltime="3.05" CO_perVeh="290.609457" CO2_perVeh="12403.604053" HC_perVeh="1.614689" PMx_perVeh="0.240403" NOx_perVeh="5.297160" fuel_perVeh="5.331823" electricity_perVeh="0"/>
        <edge id=":1110673556_3" sampledSeconds="243.96" CO_abs="26011.148957" CO2_abs="895031.378303" HC_abs="139.395207" PMx_abs="17.854973" NOx_abs="386.666043" fuel_abs="384.742279" electricity_abs="0"
            CO_normed="1219.966463" CO2_normed="41978.471113" HC_normed="6.537869" PMx_normed="0.837428" NOx_normed="18.135285" fuel_normed="18.045057" electricity_normed="0"
            traveltime="1.86" CO_perVeh="198.424641" CO2_perVeh="6827.698405" HC_perVeh="1.063369" PMx_perVeh="0.136206" NOx_perVeh="2.949661" fuel_perVeh="2.934986" electricity_perVeh="0"/>
        <edge id=":1110673556_4" sampledSeconds="46.30" CO_abs="5624.340989" CO2_abs="210049.690630" HC_abs="30.551365" PMx_abs="4.227550" NOx_abs="90.878674" fuel_abs="90.292463" electricity_abs="0"
            CO_normed="161.156210" CO2_normed="6018.627274" HC_normed="0.875399" PMx_normed="0.121133" NOx_normed="2.603978" fuel_normed="2.587182" electricity_normed="0"
            traveltime="2.70" CO_perVeh="327.685145" CO2_perVeh="12237.907252" HC_perVeh="1.779982" PMx_perVeh="0.246305" NOx_perVeh="5.294770" fuel_perVeh="5.260616" electricity_perVeh="0"/>
        <edge id=":1110673556_5" sampledSeconds="22.43" CO_abs="1737.495965" CO2_abs="79136.088891" HC_abs="9.762828" PMx_abs="1.475298" NOx_abs="33.437774" fuel_abs="34.017486" electricity_abs="0"
            CO_normed="69.390294" CO2_normed="3160.454252" HC_normed="0.389898" PMx_normed="0.058919" NOx_normed="1.335403" fuel_normed="1.358555" electricity_normed="0"
            traveltime="1.55" CO_perVeh="120.123178" CO2_perVeh="5471.137010" HC_perVeh="0.674961" PMx_perVeh="0.101996" NOx_perVeh="2.311747" fuel_perVeh="2.351826" electricity_perVeh="0"/>
        <edge id=":1110673556_6" sampledSeconds="212.26" CO_abs="26189.761862" CO2_abs="1326499.188390" HC_abs="150.823530" PMx_abs="26.838847" NOx_abs="571.317455" fuel_abs="570.204287" electricity_abs="0"
            CO_normed="529.438344" CO2_normed="26815.804489" HC_normed="3.048969" PMx_normed="0.542560" NOx_normed="11.549451" fuel_normed="11.526948" electricity_normed="0"
            traveltime="2.47" CO_perVeh="305.177002" CO2_perVeh="15457.072421" HC_perVeh="1.757476" PMx_perVeh="0.312740" NOx_perVeh="6.657294" fuel_perVeh="6.644323" electricity_perVeh="0"/>
        <edge id=":1110673561_0" sampledSeconds="105.59" CO_abs="9829.551261" CO2_abs="696651.660367" HC_abs="61.505411" PMx_abs="14.029591" NOx_abs="294.670549" fuel_abs="299.457494" electricity_abs="0"
            CO_normed="249.663069" CO2_normed="17694.418274" HC_normed="1.562190" PMx_normed="0.356341" NOx_normed="7.484406" fuel_normed="7.605991" electricity_normed="0"
            traveltime="1.25" CO_perVeh="115.998245" CO2_perVeh="8221.165762" HC_perVeh="0.725824" PMx_perVeh="0.165563" NOx_perVeh="3.477398" fuel_perVeh="3.533889" electricity_perVeh="0"/>
        <edge id=":1110673561_1" sampledSeconds="5188.36" CO_abs="479045.683927" CO2_abs="33242558.712878" HC_abs="2985.390033" PMx_abs="694.162562" NOx_abs="14206.222274" fuel_abs="14289.371038" electricity_abs="0"
            CO_normed="11862.499354" CO2_normed="823177.923317" HC_normed="73.926535" PMx_normed="17.189390" NOx_normed="351.785452" fuel_normed="353.844446" electricity_normed="0"
            traveltime="1.19" CO_perVeh="110.060080" CO2_perVeh="7637.431647" HC_perVeh="0.685889" PMx_perVeh="0.159483" NOx_perVeh="3.263860" fuel_perVeh="3.282963" electricity_perVeh="0"/>
        <edge id=":1110673562_0" sampledSeconds="300.80" CO_abs="6634.451571" CO2_abs="510310.721865" HC_abs="41.850605" PMx_abs="6.961603" NOx_abs="195.310636" fuel_abs="219.362857" electricity_abs="0"
            CO_normed="10441.377985" CO2_normed="803133.021506" HC_normed="65.864974" PMx_normed="10.956253" NOx_normed="307.382179" fuel_normed="345.235847" electricity_normed="0"
            traveltime="0.03" CO_perVeh="0.594722" CO2_perVeh="45.744985" HC_perVeh="0.003752" PMx_perVeh="0.000624" NOx_perVeh="0.017508" fuel_perVeh="0.019664" electricity_perVeh="0"/>
        <edge id=":1110673564_0" sampledSeconds="27.65" CO_abs="452.066833" CO2_abs="54052.707258" HC_abs="3.291781" PMx_abs="0.750104" NOx_abs="20.284017" fuel_abs="23.234983" electricity_abs="0"
            CO_normed="1920.963881" CO2_normed="229685.724894" HC_normed="13.987739" PMx_normed="3.187413" NOx_normed="86.192706" fuel_normed="98.732224" electricity_normed="0"
            traveltime="7.809215e-03" CO_perVeh="0.127684" CO2_perVeh="15.266970" HC_perVeh="0.000930" PMx_perVeh="0.000212" NOx_perVeh="0.005729" fuel_perVeh="0.006563" electricity_perVeh="0"/>
        <edge id=":1110673588_0" sampledSeconds="62.64" CO_abs="1023.460192" CO2_abs="122678.970360" HC_abs="7.474951" PMx_abs="1.634165" NOx_abs="45.689082" fuel_abs="52.734623" electricity_abs="0"
            CO_normed="1739.592395" CO2_normed="208519.496362" HC_normed="12.705300" PMx_normed="2.777617" NOx_normed="77.658496" fuel_normed="89.633920" electricity_normed="0"
            traveltime="0.02" CO_perVeh="0.330148" CO2_perVeh="39.573861" HC_perVeh="0.002411" PMx_perVeh="0.000527" NOx_perVeh="0.014738" fuel_perVeh="0.017011" electricity_perVeh="0"/>
        <edge id=":1110673601_0" sampledSeconds="28.72" CO_abs="539.736638" CO2_abs="59704.132631" HC_abs="3.833072" PMx_abs="0.839383" NOx_abs="22.573436" fuel_abs="25.664303" electricity_abs="0"
            CO_normed="819.106593" CO2_normed="90607.242966" HC_normed="5.817087" PMx_normed="1.273851" NOx_normed="34.257542" fuel_normed="38.948255" electricity_normed="0"
            traveltime="0.02" CO_perVeh="0.411575" CO2_perVeh="45.527267" HC_perVeh="0.002923" PMx_perVeh="0.000640" NOx_perVeh="0.017213" fuel_perVeh="0.019570" electricity_perVeh="0"/>
        <edge id=":1110673617_0" sampledSeconds="855.48" CO_abs="30504.172013" CO2_abs="3123627.184335" HC_abs="213.552793" PMx_abs="58.654589" NOx_abs="1222.112105" fuel_abs="1342.701255" electricity_abs="0"
            CO_normed="43207.042511" CO2_normed="4424401.110957" HC_normed="302.482710" PMx_normed="83.080154" NOx_normed="1731.036976" fuel_normed="1901.843137" electricity_normed="0"
            traveltime="0.02" CO_perVeh="0.540724" CO2_perVeh="55.370108" HC_perVeh="0.003785" PMx_perVeh="0.001040" NOx_perVeh="0.021663" fuel_perVeh="0.023801" electricity_perVeh="0"/>
        <edge id=":1110673621_0" sampledSeconds="26.59" CO_abs="692.950442" CO2_abs="65278.458264" HC_abs="4.655678" PMx_abs="0.992094" NOx_abs="25.325443" fuel_abs="28.060427" electricity_abs="0"
            CO_normed="1177.819448" CO2_normed="110954.886568" HC_normed="7.913334" PMx_normed="1.686279" NOx_normed="43.046079" fuel_normed="47.694777" electricity_normed="0"
            traveltime="0.02" CO_perVeh="0.524962" CO2_perVeh="49.453377" HC_perVeh="0.003527" PMx_perVeh="0.000752" NOx_perVeh="0.019186" fuel_perVeh="0.021258" electricity_perVeh="0"/>
        <edge id=":1110673630_0" sampledSeconds="287.79" CO_abs="1301.907011" CO2_abs="122530.394027" HC_abs="8.706402" PMx_abs="1.508956" NOx_abs="45.501470" fuel_abs="52.671116" electricity_abs="0"
            CO_normed="39.459221" CO2_normed="3713.747480" HC_normed="0.263880" PMx_normed="0.045735" NOx_normed="1.379094" fuel_normed="1.596398" electricity_normed="0"
            traveltime="1.29" CO_perVeh="5.858084" CO2_perVeh="551.339976" HC_perVeh="0.039175" PMx_perVeh="0.006790" NOx_perVeh="0.204739" fuel_perVeh="0.237000" electricity_perVeh="0"/>
        <edge id=":1110673630_1" sampledSeconds="338.09" CO_abs="1223.807927" CO2_abs="102898.423520" HC_abs="7.911666" PMx_abs="1.332998" NOx_abs="38.794858" fuel_abs="44.232080" electricity_abs="0"
            CO_normed="45.220148" CO2_normed="3802.134137" HC_normed="0.292339" PMx_normed="0.049255" NOx_normed="1.433484" fuel_normed="1.634391" electricity_normed="0"
            traveltime="1.08" CO_perVeh="3.901259" CO2_perVeh="328.019923" HC_perVeh="0.025221" PMx_perVeh="0.004249" NOx_perVeh="0.123670" fuel_perVeh="0.141003" electricity_perVeh="0"/>
        <edge id=":1110673650_0" sampledSeconds="200.70" CO_abs="2841.864881" CO2_abs="358902.431746" HC_abs="21.163372" PMx_abs="4.898299" NOx_abs="133.867104" fuel_abs="154.277072" electricity_abs="0"
            CO_normed="4025.304363" CO2_normed="508360.384910" HC_normed="29.976447" PMx_normed="6.938100" NOx_normed="189.613461" fuel_normed="218.522765" electricity_normed="0"
            traveltime="0.02" CO_perVeh="0.328451" CO2_perVeh="41.480421" HC_perVeh="0.002446" PMx_perVeh="0.000566" NOx_perVeh="0.015472" fuel_perVeh="0.017831" electricity_perVeh="0"/>
        <edge id=":1110673655_0" sampledSeconds="20.61" CO_abs="284.552157" CO2_abs="38480.538390" HC_abs="2.170642" PMx_abs="0.483002" NOx_abs="14.082422" fuel_abs="16.541213" electricity_abs="0"
            CO_normed="403.048381" CO2_normed="54505.011884" HC_normed="3.074563" PMx_normed="0.684138" NOx_normed="19.946774" fuel_normed="23.429481" electricity_normed="0"
            traveltime="0.02" CO_perVeh="0.325079" CO2_perVeh="43.961011" HC_perVeh="0.002480" PMx_perVeh="0.000552" NOx_perVeh="0.016088" fuel_perVeh="0.018897" electricity_perVeh="0"/>
        <edge id=":1110673663_0" sampledSeconds="112.59" CO_abs="2017.270348" CO2_abs="224583.908574" HC_abs="14.334425" PMx_abs="3.076542" NOx_abs="84.427778" fuel_abs="96.539313" electricity_abs="0"
            CO_normed="52.331931" CO2_normed="5826.145041" HC_normed="0.371863" PMx_normed="0.079811" NOx_normed="2.190221" fuel_normed="2.504418" electricity_normed="0"
            traveltime="1.32" CO_perVeh="23.693792" CO2_perVeh="2637.843955" HC_perVeh="0.168365" PMx_perVeh="0.036135" NOx_perVeh="0.991644" fuel_perVeh="1.133900" electricity_perVeh="0"/>
        <edge id=":1110673663_1" sampledSeconds="170.20" CO_abs="2478.753285" CO2_abs="328158.564949" HC_abs="18.744686" PMx_abs="4.277207" NOx_abs="121.025303" fuel_abs="141.061784" electricity_abs="0"
            CO_normed="64.382310" CO2_normed="8523.481015" HC_normed="0.486868" PMx_normed="0.111095" NOx_normed="3.143471" fuel_normed="3.663892" electricity_normed="0"
            traveltime="1.27" CO_perVeh="18.553524" CO2_perVeh="2456.274178" HC_perVeh="0.140304" PMx_perVeh="0.032015" NOx_perVeh="0.905877" fuel_perVeh="1.055851" electricity_perVeh="0"/>