<?xml version="1.0" encoding="UTF-8"?>

<!-- generated on Tue Nov 10 06:31:30 2020 by Eclipse SUMO sumo Version 1.7.0
<configuration xmlns:xsi="http://www.w3.org/2001/XMLSchema-instance" xsi:noNamespaceSchemaLocation="http://sumo.dlr.de/xsd/sumoConfiguration.xsd">

    <input>
        <net-file value="../dataSets/Porto/8AM9AM_Routing_SaoBento/Porto.net.xml"/>
        <route-files value="../results/Porto/8AM9AM_Routing_SaoBento/cost_co-length/solution8/Porto.rou.xml"/>
        <additional-files value="moreOutputInfo.xml"/>
    </input>

    <output>
        <emission-output.precision value="6"/>
        <tripinfo-output value="../results/Porto/8AM9AM_Routing_SaoBento/cost_co-length/solution8/Porto-tripinfo"/>
    </output>

    <processing>
        <collision.action value="warn"/>
        <time-to-teleport value="-1"/>
    </processing>

    <emissions>
        <device.emissions.probability value="1"/>
    </emissions>

    <gui_only>
        <quit-on-end value="true"/>
        <start value="true"/>
    </gui_only>

</configuration>
-->

<meandata xmlns:xsi="http://www.w3.org/2001/XMLSchema-instance" xsi:noNamespaceSchemaLocation="http://sumo.dlr.de/xsd/meandata_file.xsd">
    <interval begin="0.00" end="8471.00" id="emissions-detector">
        <edge id=":1092997347_0" sampledSeconds="593.41" CO_abs="72887.106796" CO2_abs="3116609.233336" HC_abs="405.631091" PMx_abs="63.113373" NOx_abs="1348.873812" fuel_abs="1339.703695" electricity_abs="0"
            CO_normed="70398.896895" CO2_normed="3010214.861402" HC_normed="391.783713" PMx_normed="60.958818" NOx_normed="1302.826146" fuel_normed="1293.969077" electricity_normed="0"
            traveltime="0.07" CO_perVeh="8.342518" CO2_perVeh="356.721116" HC_perVeh="0.046428" PMx_perVeh="0.007224" NOx_perVeh="0.154390" fuel_perVeh="0.153340" electricity_perVeh="0"/>
        <edge id=":1103427051_0" sampledSeconds="19.27" CO_abs="1704.562877" CO2_abs="95470.199912" HC_abs="10.034304" PMx_abs="1.906634" NOx_abs="40.966832" fuel_abs="41.038368" electricity_abs="0"
            CO_normed="2497.944858" CO2_normed="139906.423002" HC_normed="14.704731" PMx_normed="2.794070" NOx_normed="60.034681" fuel_normed="60.139512" electricity_normed="0"
            traveltime="0.03" CO_perVeh="2.650811" CO2_perVeh="148.468243" HC_perVeh="0.015605" PMx_perVeh="0.002965" NOx_perVeh="0.063709" fuel_perVeh="0.063820" electricity_perVeh="0"/>
        <edge id=":1105984386_0" sampledSeconds="10.51" CO_abs="211.171518" CO2_abs="14963.779855" HC_abs="1.301420" PMx_abs="0.200523" NOx_abs="5.725661" fuel_abs="6.432368" electricity_abs="0"
            CO_normed="9.242382" CO2_normed="654.922483" HC_normed="0.056959" PMx_normed="0.008776" NOx_normed="0.250596" fuel_normed="0.281527" electricity_normed="0"
            traveltime="1.01" CO_perVeh="20.257612" CO2_perVeh="1435.470286" HC_perVeh="0.124845" PMx_perVeh="0.019236" NOx_perVeh="0.549261" fuel_perVeh="0.617055" electricity_perVeh="0"/>
        <edge id=":1105984390_0" sampledSeconds="10.30" CO_abs="43.109650" CO2_abs="2356.231892" HC_abs="0.249991" PMx_abs="0.034757" NOx_abs="0.931052" fuel_abs="1.012858" electricity_abs="0"
            CO_normed="1.458655" CO2_normed="79.725309" HC_normed="0.008459" PMx_normed="0.001176" NOx_normed="0.031503" fuel_normed="0.034271" electricity_normed="0"
            traveltime="1.07" CO_perVeh="4.468575" CO2_perVeh="244.237621" HC_perVeh="0.025913" PMx_perVeh="0.003603" NOx_perVeh="0.096509" fuel_perVeh="0.104989" electricity_perVeh="0"/>
        <edge id=":1105984390_1" sampledSeconds="2398.40" CO_abs="61784.953758" CO2_abs="7452785.815304" HC_abs="459.034698" PMx_abs="133.892858" NOx_abs="2828.216089" fuel_abs="3203.608943" electricity_abs="0"
            CO_normed="1999.796569" CO2_normed="241224.676809" HC_normed="14.857598" PMx_normed="4.333717" NOx_normed="91.541006" fuel_normed="103.691365" electricity_normed="0"
            traveltime="0.65" CO_perVeh="16.693939" CO2_perVeh="2013.699901" HC_perVeh="0.124029" PMx_perVeh="0.036177" NOx_perVeh="0.764168" fuel_perVeh="0.865597" electricity_perVeh="0"/>
        <edge id=":1105984395_0" sampledSeconds="4.17" CO_abs="22.581261" CO2_abs="1587.070465" HC_abs="0.138429" PMx_abs="0.018971" NOx_abs="0.591801" fuel_abs="0.682226" electricity_abs="0"
            CO_normed="10.431054" CO2_normed="733.121914" HC_normed="0.063945" PMx_normed="0.008763" NOx_normed="0.273373" fuel_normed="0.315143" electricity_normed="0"
            traveltime="0.10" CO_perVeh="0.523426" CO2_perVeh="36.787726" HC_perVeh="0.003209" PMx_perVeh="0.000440" NOx_perVeh="0.013718" fuel_perVeh="0.015814" electricity_perVeh="0"/>
        <edge id=":1105984398_0" sampledSeconds="11.84" CO_abs="555.652644" CO2_abs="40771.641072" HC_abs="3.469937" PMx_abs="0.612630" NOx_abs="16.002582" fuel_abs="17.526085" electricity_abs="0"
            CO_normed="19.531918" CO2_normed="1433.176606" HC_normed="0.121973" PMx_normed="0.021535" NOx_normed="0.562512" fuel_normed="0.616065" electricity_normed="0"
            traveltime="1.23" CO_perVeh="57.530983" CO2_perVeh="4221.400900" HC_perVeh="0.359269" PMx_perVeh="0.063430" NOx_perVeh="1.656870" fuel_perVeh="1.814610" electricity_perVeh="0"/>
        <edge id=":1105984398_1" sampledSeconds="646.08" CO_abs="12143.374567" CO2_abs="1386143.541411" HC_abs="87.214718" PMx_abs="20.219624" NOx_abs="526.914102" fuel_abs="595.843704" electricity_abs="0"
            CO_normed="413.185214" CO2_normed="47164.320989" HC_normed="2.967530" PMx_normed="0.687984" NOx_normed="17.928551" fuel_normed="20.273920" electricity_normed="0"
            traveltime="0.95" CO_perVeh="17.899081" CO2_perVeh="2043.146744" HC_perVeh="0.128553" PMx_perVeh="0.029803" NOx_perVeh="0.776660" fuel_perVeh="0.878261" electricity_perVeh="0"/>
        <edge id=":1106006327_0" sampledSeconds="69.34" CO_abs="9289.553181" CO2_abs="295071.483555" HC_abs="49.236429" PMx_abs="6.143387" NOx_abs="129.079945" fuel_abs="126.841001" electricity_abs="0"
            CO_normed="445.583317" CO2_normed="14153.418139" HC_normed="2.361678" PMx_normed="0.294674" NOx_normed="6.191457" fuel_normed="6.084064" electricity_normed="0"
            traveltime="2.15" CO_perVeh="287.972573" CO2_perVeh="9147.102426" HC_perVeh="1.526310" PMx_perVeh="0.190443" NOx_perVeh="4.001429" fuel_perVeh="3.932022" electricity_perVeh="0"/>
        <edge id=":1106006327_1" sampledSeconds="681.54" CO_abs="92347.563753" CO2_abs="3091431.010574" HC_abs="493.362191" PMx_abs="64.516906" NOx_abs="1353.129547" fuel_abs="1328.894542" electricity_abs="0"
            CO_normed="3862.776261" CO2_normed="129310.464025" HC_normed="20.636687" PMx_normed="2.698657" NOx_normed="56.599616" fuel_normed="55.585898" electricity_normed="0"
            traveltime="2.29" CO_perVeh="309.988419" CO2_perVeh="10377.185632" HC_perVeh="1.656097" PMx_perVeh="0.216568" NOx_perVeh="4.542128" fuel_perVeh="4.460777" electricity_perVeh="0"/>
        <edge id=":1106006327_2" sampledSeconds="0.00" CO_abs="0" CO2_abs="0" HC_abs="0" PMx_abs="0" NOx_abs="0" fuel_abs="0" electricity_abs="0"
            CO_normed="0" CO2_normed="0" HC_normed="0" PMx_normed="0" NOx_normed="0" fuel_normed="0" electricity_normed="0"/>
        <edge id=":1106006327_3" sampledSeconds="0.00" CO_abs="0" CO2_abs="0" HC_abs="0" PMx_abs="0" NOx_abs="0" fuel_abs="0" electricity_abs="0"
            CO_normed="0" CO2_normed="0" HC_normed="0" PMx_normed="0" NOx_normed="0" fuel_normed="0" electricity_normed="0"/>
        <edge id=":1107381198_0" sampledSeconds="0.00" CO_abs="0" CO2_abs="0" HC_abs="0" PMx_abs="0" NOx_abs="0" fuel_abs="0" electricity_abs="0"
            CO_normed="0" CO2_normed="0" HC_normed="0" PMx_normed="0" NOx_normed="0" fuel_normed="0" electricity_normed="0"/>
        <edge id=":1107381198_1" sampledSeconds="104.64" CO_abs="4590.432498" CO2_abs="177453.155494" HC_abs="24.979144" PMx_abs="3.044395" NOx_abs="73.422248" fuel_abs="76.281101" electricity_abs="0"
            CO_normed="212.741437" CO2_normed="8223.983111" HC_normed="1.157647" PMx_normed="0.141091" NOx_normed="3.402720" fuel_normed="3.535212" electricity_normed="0"
            traveltime="1.57" CO_perVeh="68.727576" CO2_perVeh="2656.813995" HC_perVeh="0.373986" PMx_perVeh="0.045580" NOx_perVeh="1.099272" fuel_perVeh="1.142074" electricity_perVeh="0"/>
        <edge id=":1110338277_0" sampledSeconds="161.29" CO_abs="2471.237886" CO2_abs="293418.783534" HC_abs="17.957884" PMx_abs="4.082241" NOx_abs="110.232825" fuel_abs="126.128377" electricity_abs="0"
            CO_normed="3750.803747" CO2_normed="445346.147665" HC_normed="27.256177" PMx_normed="6.195957" NOx_normed="167.309548" fuel_normed="191.435552" electricity_normed="0"
            traveltime="0.02" CO_perVeh="0.334705" CO2_perVeh="39.740757" HC_perVeh="0.002432" PMx_perVeh="0.000553" NOx_perVeh="0.014930" fuel_perVeh="0.017083" electricity_perVeh="0"/>
        <edge id=":1110338293_0" sampledSeconds="6325.97" CO_abs="580729.680332" CO2_abs="10243053.894935" HC_abs="2883.898595" PMx_abs="243.725022" NOx_abs="4626.152580" fuel_abs="4403.313557" electricity_abs="0"
            CO_normed="822660.390035" CO2_normed="14510287.656619" HC_normed="4085.324418" PMx_normed="345.260331" NOx_normed="6553.397587" fuel_normed="6237.724317" electricity_normed="0"
            traveltime="0.42" CO_perVeh="38.878395" CO2_perVeh="685.746760" HC_perVeh="0.193070" PMx_perVeh="0.016317" NOx_perVeh="0.309709" fuel_perVeh="0.294791" electricity_perVeh="0"/>
        <edge id=":1110338295_0" sampledSeconds="0.00" CO_abs="0" CO2_abs="0" HC_abs="0" PMx_abs="0" NOx_abs="0" fuel_abs="0" electricity_abs="0"
            CO_normed="0" CO2_normed="0" HC_normed="0" PMx_normed="0" NOx_normed="0" fuel_normed="0" electricity_normed="0"/>
        <edge id=":1110673403_0" sampledSeconds="200.13" CO_abs="3302.111805" CO2_abs="391592.966377" HC_abs="24.030406" PMx_abs="5.545689" NOx_abs="147.671622" fuel_abs="168.329191" electricity_abs="0"
            CO_normed="4677.764332" CO2_normed="554729.736339" HC_normed="34.041420" PMx_normed="7.856011" NOx_normed="209.191296" fuel_normed="238.454762" electricity_normed="0"
            traveltime="0.02" CO_perVeh="0.381645" CO2_perVeh="45.258819" HC_perVeh="0.002777" PMx_perVeh="0.000641" NOx_perVeh="0.017067" fuel_perVeh="0.019455" electricity_perVeh="0"/>
        <edge id=":1110673412_0" sampledSeconds="939.26" CO_abs="167143.772031" CO2_abs="11407640.635060" HC_abs="1040.261210" PMx_abs="250.758681" NOx_abs="4902.137318" fuel_abs="4903.582777" electricity_abs="0"
            CO_normed="244940.172886" CO2_normed="16717281.388517" HC_normed="1524.446633" PMx_normed="367.473306" NOx_normed="7183.817546" fuel_normed="7185.935788" electricity_normed="0"
            traveltime="0.02" CO_perVeh="2.757810" CO2_perVeh="188.221794" HC_perVeh="0.017164" PMx_perVeh="0.004137" NOx_perVeh="0.080883" fuel_perVeh="0.080907" electricity_perVeh="0"/>
        <edge id=":1110673414_0" sampledSeconds="0.00" CO_abs="0" CO2_abs="0" HC_abs="0" PMx_abs="0" NOx_abs="0" fuel_abs="0" electricity_abs="0"
            CO_normed="0" CO2_normed="0" HC_normed="0" PMx_normed="0" NOx_normed="0" fuel_normed="0" electricity_normed="0"/>
        <edge id=":1110673414_1" sampledSeconds="7.12" CO_abs="354.530062" CO2_abs="13020.428790" HC_abs="1.911764" PMx_abs="0.217705" NOx_abs="5.355162" fuel_abs="5.597065" electricity_abs="0"
            CO_normed="16.685266" CO2_normed="612.781091" HC_normed="0.089973" PMx_normed="0.010246" NOx_normed="0.252030" fuel_normed="0.263415" electricity_normed="0"
            traveltime="1.55" CO_perVeh="77.440892" CO2_perVeh="2844.084953" HC_perVeh="0.417591" PMx_perVeh="0.047554" NOx_perVeh="1.169742" fuel_perVeh="1.222581" electricity_perVeh="0"/>
        <edge id=":1110673417_0" sampledSeconds="28.96" CO_abs="506.082987" CO2_abs="58942.587448" HC_abs="3.643036" PMx_abs="0.799044" NOx_abs="22.029998" fuel_abs="25.336973" electricity_abs="0"
            CO_normed="768.124337" CO2_normed="89462.078526" HC_normed="5.529340" PMx_normed="1.212776" NOx_normed="33.436764" fuel_normed="38.456036" electricity_normed="0"
            traveltime="0.02" CO_perVeh="0.385913" CO2_perVeh="44.946552" HC_perVeh="0.002778" PMx_perVeh="0.000609" NOx_perVeh="0.016799" fuel_perVeh="0.019321" electricity_perVeh="0"/>
        <edge id=":1110673446_0" sampledSeconds="1310.40" CO_abs="13700.892615" CO2_abs="1087467.094137" HC_abs="88.238918" PMx_abs="20.220281" NOx_abs="447.023417" fuel_abs="467.451876" electricity_abs="0"
            CO_normed="19408.654396" CO2_normed="1540503.497774" HC_normed="124.999058" PMx_normed="28.644006" NOx_normed="633.252391" fuel_normed="662.191301" electricity_normed="0"
            traveltime="0.02" CO_perVeh="0.238141" CO2_perVeh="18.901741" HC_perVeh="0.001534" PMx_perVeh="0.000351" NOx_perVeh="0.007770" fuel_perVeh="0.008125" electricity_perVeh="0"/>
        <edge id=":1110673451_0" sampledSeconds="36.78" CO_abs="379.194976" CO2_abs="27320.549364" HC_abs="2.353851" PMx_abs="0.398639" NOx_abs="10.649139" fuel_abs="11.744027" electricity_abs="0"
            CO_normed="596.851967" CO2_normed="43002.478044" HC_normed="3.704955" PMx_normed="0.627457" NOx_normed="16.761719" fuel_normed="18.485069" electricity_normed="0"
            traveltime="0.03" CO_perVeh="0.279383" CO2_perVeh="20.129205" HC_perVeh="0.001734" PMx_perVeh="0.000294" NOx_perVeh="0.007846" fuel_perVeh="0.008653" electricity_perVeh="0"/>
        <edge id=":1110673464_0" sampledSeconds="1026.69" CO_abs="3514.301145" CO2_abs="259674.802955" HC_abs="21.931589" PMx_abs="3.705028" NOx_abs="100.484314" fuel_abs="111.624023" electricity_abs="0"
            CO_normed="105.772336" CO2_normed="7815.610957" HC_normed="0.660090" PMx_normed="0.111513" NOx_normed="3.024345" fuel_normed="3.359625" electricity_normed="0"
            traveltime="1.22" CO_perVeh="4.167471" CO2_perVeh="307.938121" HC_perVeh="0.026008" PMx_perVeh="0.004394" NOx_perVeh="0.119160" fuel_perVeh="0.132371" electricity_perVeh="0"/>
        <edge id=":1110673464_1" sampledSeconds="2613.56" CO_abs="65641.608731" CO2_abs="7856526.909183" HC_abs="486.109778" PMx_abs="140.960640" NOx_abs="2988.946370" fuel_abs="3377.158446" electricity_abs="0"
            CO_normed="1935.900600" CO2_normed="231704.485123" HC_normed="14.336337" PMx_normed="4.157207" NOx_normed="88.149928" fuel_normed="99.599068" electricity_normed="0"
            traveltime="0.72" CO_perVeh="18.092810" CO2_perVeh="2165.496127" HC_perVeh="0.133987" PMx_perVeh="0.038853" NOx_perVeh="0.823844" fuel_perVeh="0.930847" electricity_perVeh="0"/>
        <edge id=":1110673479_0" sampledSeconds="134.44" CO_abs="6856.221418" CO2_abs="468238.996685" HC_abs="42.231317" PMx_abs="8.268829" NOx_abs="192.054142" fuel_abs="201.275560" electricity_abs="0"
            CO_normed="9712.508207" CO2_normed="663306.334579" HC_normed="59.824790" PMx_normed="11.713605" NOx_normed="272.063476" fuel_normed="285.126517" electricity_normed="0"
            traveltime="0.03" CO_perVeh="1.449467" CO2_perVeh="98.989957" HC_perVeh="0.008928" PMx_perVeh="0.001748" NOx_perVeh="0.040602" fuel_perVeh="0.042551" electricity_perVeh="0"/>
        <edge id=":1110673511_0" sampledSeconds="63.93" CO_abs="940.647602" CO2_abs="105822.282959" HC_abs="6.693734" PMx_abs="1.424648" NOx_abs="39.603969" fuel_abs="45.488642" electricity_abs="0"
            CO_normed="1332.519327" CO2_normed="149907.613683" HC_normed="9.482329" PMx_normed="2.018153" NOx_normed="56.102895" fuel_normed="64.439111" electricity_normed="0"
            traveltime="0.02" CO_perVeh="0.360521" CO2_perVeh="40.558407" HC_perVeh="0.002566" PMx_perVeh="0.000546" NOx_perVeh="0.015179" fuel_perVeh="0.017434" electricity_perVeh="0"/>
        <edge id=":1110673517_0" sampledSeconds="182.04" CO_abs="8530.347739" CO2_abs="594586.698888" HC_abs="52.840366" PMx_abs="10.526951" NOx_abs="243.783488" fuel_abs="255.586773" electricity_abs="0"
            CO_normed="12084.071877" CO2_normed="842290.212095" HC_normed="74.853546" PMx_normed="14.912455" NOx_normed="345.343153" fuel_normed="362.063662" electricity_normed="0"
            traveltime="0.03" CO_perVeh="1.306065" CO2_perVeh="91.036036" HC_perVeh="0.008090" PMx_perVeh="0.001612" NOx_perVeh="0.037325" fuel_perVeh="0.039132" electricity_perVeh="0"/>
        <edge id=":1110673534_0" sampledSeconds="658.31" CO_abs="4709.666954" CO2_abs="385898.024291" HC_abs="30.291334" PMx_abs="5.393045" NOx_abs="148.018030" fuel_abs="165.882240" electricity_abs="0"
            CO_normed="129.296587" CO2_normed="10594.230502" HC_normed="0.831601" PMx_normed="0.148058" NOx_normed="4.063605" fuel_normed="4.554039" electricity_normed="0"
            traveltime="1.45" CO_perVeh="10.355863" CO2_perVeh="848.532814" HC_perVeh="0.066606" PMx_perVeh="0.011859" NOx_perVeh="0.325470" fuel_perVeh="0.364751" electricity_perVeh="0"/>
        <edge id=":1110673534_1" sampledSeconds="264.33" CO_abs="3863.764794" CO2_abs="487697.682898" HC_abs="28.659661" PMx_abs="6.550795" NOx_abs="181.232686" fuel_abs="209.640883" electricity_abs="0"
            CO_normed="103.141973" CO2_normed="13018.934675" HC_normed="0.765061" PMx_normed="0.174871" NOx_normed="4.837949" fuel_normed="5.596297" electricity_normed="0"
            traveltime="1.23" CO_perVeh="17.926937" CO2_perVeh="2262.799639" HC_perVeh="0.132974" PMx_perVeh="0.030394" NOx_perVeh="0.840876" fuel_perVeh="0.972683" electricity_perVeh="0"/>
        <edge id=":1110673549_0" sampledSeconds="650.21" CO_abs="1811.194161" CO2_abs="171939.328152" HC_abs="12.120894" PMx_abs="2.454270" NOx_abs="65.255359" fuel_abs="73.909655" electricity_abs="0"
            CO_normed="48.167716" CO2_normed="4572.632191" HC_normed="0.322349" PMx_normed="0.065270" NOx_normed="1.735430" fuel_normed="1.965587" electricity_normed="0"
            traveltime="1.29" CO_perVeh="3.598411" CO2_perVeh="341.602447" HC_perVeh="0.024081" PMx_perVeh="0.004876" NOx_perVeh="0.129647" fuel_perVeh="0.146841" electricity_perVeh="0"/>
        <edge id=":1110673549_1" sampledSeconds="3199.29" CO_abs="68499.642098" CO2_abs="8885231.645624" HC_abs="523.776552" PMx_abs="156.707315" NOx_abs="3327.706643" fuel_abs="3819.354032" electricity_abs="0"
            CO_normed="1762.163001" CO2_normed="228573.843335" HC_normed="13.474226" PMx_normed="4.031318" NOx_normed="85.605725" fuel_normed="98.253424" electricity_normed="0"
            traveltime="0.81" CO_perVeh="17.278875" CO2_perVeh="2241.278984" HC_perVeh="0.132121" PMx_perVeh="0.039529" NOx_perVeh="0.839406" fuel_perVeh="0.963423" electricity_perVeh="0"/>
        <edge id=":1110673556_0" sampledSeconds="458.26" CO_abs="57147.435945" CO2_abs="2782392.832530" HC_abs="326.364271" PMx_abs="56.408360" NOx_abs="1200.871061" fuel_abs="1196.031158" electricity_abs="0"
            CO_normed="1126.982816" CO2_normed="54870.509195" HC_normed="6.436105" PMx_normed="1.112408" NOx_normed="23.681921" fuel_normed="23.586475" electricity_normed="0"
            traveltime="2.70" CO_perVeh="336.878640" CO2_perVeh="16401.938217" HC_perVeh="1.923886" PMx_perVeh="0.332522" NOx_perVeh="7.079019" fuel_perVeh="7.050489" electricity_perVeh="0"/>
        <edge id=":1110673556_2" sampledSeconds="172.43" CO_abs="16573.053451" CO2_abs="716750.465100" HC_abs="92.316223" PMx_abs="13.918976" NOx_abs="306.263123" fuel_abs="308.102665" electricity_abs="0"
            CO_normed="341.737280" CO2_normed="14779.434281" HC_normed="1.903566" PMx_normed="0.287010" NOx_normed="6.315163" fuel_normed="6.353094" electricity_normed="0"
            traveltime="2.98" CO_perVeh="286.571776" CO2_perVeh="12393.639746" HC_perVeh="1.596279" PMx_perVeh="0.240679" NOx_perVeh="5.295727" fuel_perVeh="5.327535" electricity_perVeh="0"/>
        <edge id=":1110673556_3" sampledSeconds="186.25" CO_abs="19775.348195" CO2_abs="674641.486202" HC_abs="105.832042" PMx_abs="13.440946" NOx_abs="291.367316" fuel_abs="290.004641" electricity_abs="0"
            CO_normed="927.606451" CO2_normed="31645.551259" HC_normed="4.964286" PMx_normed="0.630477" NOx_normed="13.667228" fuel_normed="13.603309" electricity_normed="0"
            traveltime="1.88" CO_perVeh="199.592998" CO2_perVeh="6809.170462" HC_perVeh="1.068165" PMx_perVeh="0.135660" NOx_perVeh="2.940776" fuel_perVeh="2.927023" electricity_perVeh="0"/>
        <edge id=":1110673556_4" sampledSeconds="33.85" CO_abs="3899.656045" CO2_abs="151013.774387" HC_abs="21.306096" PMx_abs="2.999579" NOx_abs="65.076871" fuel_abs="64.915081" electricity_abs="0"
            CO_normed="111.751400" CO2_normed="4327.561319" HC_normed="0.610563" PMx_normed="0.085958" NOx_normed="1.864890" fuel_normed="1.860254" electricity_normed="0"
            traveltime="2.56" CO_perVeh="295.362100" CO2_perVeh="11437.866569" HC_perVeh="1.613735" PMx_perVeh="0.227190" NOx_perVeh="4.928958" fuel_perVeh="4.916704" electricity_perVeh="0"/>
        <edge id=":1110673556_5" sampledSeconds="21.87" CO_abs="1344.010416" CO2_abs="62697.921169" HC_abs="7.574866" PMx_abs="1.100644" NOx_abs="26.021125" fuel_abs="26.951445" electricity_abs="0"
            CO_normed="53.682017" CO2_normed="2504.259515" HC_normed="0.302553" PMx_normed="0.043962" NOx_normed="1.039327" fuel_normed="1.076486" electricity_normed="0"
            traveltime="1.51" CO_perVeh="92.919239" CO2_perVeh="4334.671093" HC_perVeh="0.523694" PMx_perVeh="0.076094" NOx_perVeh="1.798991" fuel_perVeh="1.863310" electricity_perVeh="0"/>
        <edge id=":1110673556_6" sampledSeconds="556.81" CO_abs="65231.002165" CO2_abs="3121923.074300" HC_abs="371.090109" PMx_abs="62.725183" NOx_abs="1344.462768" fuel_abs="1341.982365" electricity_abs="0"
            CO_normed="1318.831034" CO2_normed="63118.592372" HC_normed="7.502647" PMx_normed="1.268169" NOx_normed="27.182155" fuel_normed="27.132007" electricity_normed="0"
            traveltime="2.70" CO_perVeh="316.711006" CO2_perVeh="15157.630012" HC_perVeh="1.801725" PMx_perVeh="0.304545" NOx_perVeh="6.527665" fuel_perVeh="6.515622" electricity_perVeh="0"/>
        <edge id=":1110673561_0" sampledSeconds="102.21" CO_abs="10009.012408" CO2_abs="721810.240560" HC_abs="62.878976" PMx_abs="14.441863" NOx_abs="304.381696" fuel_abs="310.271993" electricity_abs="0"
            CO_normed="254.251255" CO2_normed="18335.591187" HC_normed="1.597266" PMx_normed="0.366856" NOx_normed="7.731974" fuel_normed="7.881601" electricity_normed="0"
            traveltime="1.21" CO_perVeh="118.116061" CO2_perVeh="8518.061428" HC_perVeh="0.742033" PMx_perVeh="0.170428" NOx_perVeh="3.591999" fuel_perVeh="3.661511" electricity_perVeh="0"/>
        <edge id=":1110673561_1" sampledSeconds="5191.45" CO_abs="480617.189922" CO2_abs="33263831.663003" HC_abs="2993.411043" PMx_abs="695.843951" NOx_abs="14225.540596" fuel_abs="14298.514247" electricity_abs="0"
            CO_normed="11902.819160" CO2_normed="823801.938733" HC_normed="74.133908" PMx_normed="17.233060" NOx_normed="352.305412" fuel_normed="354.112655" electricity_normed="0"
            traveltime="1.19" CO_perVeh="110.394677" CO2_perVeh="7640.488189" HC_perVeh="0.687567" PMx_perVeh="0.159831" NOx_perVeh="3.267515" fuel_perVeh="3.284277" electricity_perVeh="0"/>
        <edge id=":1110673562_0" sampledSeconds="301.28" CO_abs="6616.063139" CO2_abs="498289.237853" HC_abs="41.494402" PMx_abs="6.831869" NOx_abs="191.084744" fuel_abs="214.195336" electricity_abs="0"
            CO_normed="10413.667239" CO2_normed="784306.044705" HC_normed="65.312087" PMx_normed="10.753345" NOx_normed="300.766921" fuel_normed="337.142936" electricity_normed="0"
            traveltime="0.03" CO_perVeh="0.593073" CO2_perVeh="44.667362" HC_perVeh="0.003720" PMx_perVeh="0.000612" NOx_perVeh="0.017129" fuel_perVeh="0.019201" electricity_perVeh="0"/>
        <edge id=":1110673564_0" sampledSeconds="27.93" CO_abs="455.743347" CO2_abs="51413.257708" HC_abs="3.230033" PMx_abs="0.712317" NOx_abs="19.332230" fuel_abs="22.100411" electricity_abs="0"
            CO_normed="1936.815073" CO2_normed="218495.723941" HC_normed="13.726974" PMx_normed="3.027198" NOx_normed="82.157985" fuel_normed="93.922181" electricity_normed="0"
            traveltime="7.888807e-03" CO_perVeh="0.128723" CO2_perVeh="14.521468" HC_perVeh="0.000912" PMx_perVeh="0.000201" NOx_perVeh="0.005460" fuel_perVeh="0.006242" electricity_perVeh="0"/>
        <edge id=":1110673588_0" sampledSeconds="62.70" CO_abs="1080.395701" CO2_abs="121451.608996" HC_abs="7.695508" PMx_abs="1.624476" NOx_abs="45.415454" fuel_abs="52.207062" electricity_abs="0"
            CO_normed="1836.583414" CO2_normed="206457.699155" HC_normed="13.081728" PMx_normed="2.761476" NOx_normed="77.202518" fuel_normed="88.747691" electricity_normed="0"
            traveltime="0.02" CO_perVeh="0.348515" CO2_perVeh="39.177938" HC_perVeh="0.002482" PMx_perVeh="0.000524" NOx_perVeh="0.014650" fuel_perVeh="0.016841" electricity_perVeh="0"/>
        <edge id=":1110673601_0" sampledSeconds="29.16" CO_abs="425.977457" CO2_abs="47812.217531" HC_abs="3.041161" PMx_abs="0.684084" NOx_abs="18.099003" fuel_abs="20.552449" electricity_abs="0"
            CO_normed="646.541496" CO2_normed="72568.588256" HC_normed="4.615824" PMx_normed="1.038292" NOx_normed="27.470365" fuel_normed="31.194166" electricity_normed="0"
            traveltime="0.02" CO_perVeh="0.324833" CO2_perVeh="36.459613" HC_perVeh="0.002319" PMx_perVeh="0.000522" NOx_perVeh="0.013802" fuel_perVeh="0.015672" electricity_perVeh="0"/>
        <edge id=":1110673617_0" sampledSeconds="855.98" CO_abs="31442.895595" CO2_abs="3213976.915494" HC_abs="220.137059" PMx_abs="60.376541" NOx_abs="1257.904317" fuel_abs="1381.538388" electricity_abs="0"
            CO_normed="44541.936860" CO2_normed="4552912.641474" HC_normed="311.845675" PMx_normed="85.529276" NOx_normed="1781.944494" fuel_normed="1957.084248" electricity_normed="0"
            traveltime="0.02" CO_perVeh="0.556546" CO2_perVeh="56.888066" HC_perVeh="0.003896" PMx_perVeh="0.001069" NOx_perVeh="0.022265" fuel_perVeh="0.024454" electricity_perVeh="0"/>
        <edge id=":1110673621_0" sampledSeconds="26.52" CO_abs="431.887526" CO2_abs="45247.172952" HC_abs="3.000150" PMx_abs="0.654110" NOx_abs="17.258009" fuel_abs="19.449849" electricity_abs="0"
            CO_normed="734.173106" CO2_normed="76916.455025" HC_normed="5.100007" PMx_normed="1.111933" NOx_normed="29.337189" fuel_normed="33.063136" electricity_normed="0"
            traveltime="0.02" CO_perVeh="0.327188" CO2_perVeh="34.278161" HC_perVeh="0.002273" PMx_perVeh="0.000496" NOx_perVeh="0.013074" fuel_perVeh="0.014735" electricity_perVeh="0"/>
        <edge id=":1110673630_0" sampledSeconds="286.12" CO_abs="1129.646704" CO2_abs="109992.807725" HC_abs="7.641478" PMx_abs="1.360139" NOx_abs="40.778578" fuel_abs="47.281658" electricity_abs="0"
            CO_normed="34.242262" CO2_normed="3334.142009" HC_normed="0.231631" PMx_normed="0.041229" NOx_normed="1.236095" fuel_normed="1.433219" electricity_normed="0"
            traveltime="1.29" CO_perVeh="5.082979" CO2_perVeh="494.925626" HC_perVeh="0.034384" PMx_perVeh="0.006120" NOx_perVeh="0.183488" fuel_perVeh="0.212749" electricity_perVeh="0"/>
        <edge id=":1110673630_1" sampledSeconds="335.57" CO_abs="1189.447045" CO2_abs="93823.165206" HC_abs="7.551325" PMx_abs="1.244854" NOx_abs="35.648298" fuel_abs="40.330984" electricity_abs="0"
            CO_normed="43.955689" CO2_normed="3467.209300" HC_normed="0.279057" PMx_normed="0.046003" NOx_normed="1.317373" fuel_normed="1.490420" electricity_normed="0"
            traveltime="1.07" CO_perVeh="3.791734" CO2_perVeh="299.090681" HC_perVeh="0.024072" PMx_perVeh="0.003968" NOx_perVeh="0.113640" fuel_perVeh="0.128568" electricity_perVeh="0"/>
        <edge id=":1110673650_0" sampledSeconds="199.41" CO_abs="3041.862060" CO2_abs="381402.703611" HC_abs="22.511709" PMx_abs="5.153660" NOx_abs="142.000157" fuel_abs="163.949071" electricity_abs="0"
            CO_normed="4309.095114" CO2_normed="540294.232480" HC_normed="31.890038" PMx_normed="7.300664" NOx_normed="201.157110" fuel_normed="232.249894" electricity_normed="0"
            traveltime="0.02" CO_perVeh="0.351978" CO2_perVeh="44.132608" HC_perVeh="0.002605" PMx_perVeh="0.000596" NOx_perVeh="0.016431" fuel_perVeh="0.018971" electricity_perVeh="0"/>
        <edge id=":1110673655_0" sampledSeconds="20.71" CO_abs="416.582178" CO2_abs="44087.762001" HC_abs="2.915646" PMx_abs="0.643407" NOx_abs="16.829026" fuel_abs="18.951459" electricity_abs="0"
            CO_normed="590.129399" CO2_normed="62454.626846" HC_normed="4.130298" PMx_normed="0.911449" NOx_normed="23.839961" fuel_normed="26.846595" electricity_normed="0"
            traveltime="0.02" CO_perVeh="0.475913" CO2_perVeh="50.366826" HC_perVeh="0.003331" PMx_perVeh="0.000735" NOx_perVeh="0.019226" fuel_perVeh="0.021651" electricity_perVeh="0"/>
        <edge id=":1110673663_0" sampledSeconds="111.58" CO_abs="1964.717153" CO2_abs="212674.311766" HC_abs="13.809001" PMx_abs="3.000218" NOx_abs="80.527785" fuel_abs="91.419778" electricity_abs="0"
            CO_normed="50.974615" CO2_normed="5517.838152" HC_normed="0.358275" PMx_normed="0.077841" NOx_normed="2.089295" fuel_normed="2.371887" electricity_normed="0"
            traveltime="1.31" CO_perVeh="23.076530" CO2_perVeh="2497.960122" HC_perVeh="0.162193" PMx_perVeh="0.035239" NOx_perVeh="0.945837" fuel_perVeh="1.073768" electricity_perVeh="0"/>
        <edge id=":1110673663_1" sampledSeconds="169.94" CO_abs="2734.820160" CO2_abs="354114.466454" HC_abs="20.567670" PMx_abs="4.723268" NOx_abs="131.367129" fuel_abs="152.219040" electricity_abs="0"
            CO_normed="71.041691" CO2_normed="9198.736717" HC_normed="0.534281" PMx_normed="0.122695" NOx_normed="3.412489" fuel_normed="3.954153" electricity_normed="0"
            traveltime="1.27" CO_perVeh="20.461514" CO2_perVeh="2649.431300" HC_perVeh="0.153884" PMx_perVeh="0.035339" NOx_perVeh="0.982869" fuel_perVeh="1.138880" electricity_perVeh="0"/>