<?xml version="1.0" encoding="UTF-8"?>

<!-- generated on Tue Nov 10 07:14:08 2020 by Eclipse SUMO sumo Version 1.7.0
<configuration xmlns:xsi="http://www.w3.org/2001/XMLSchema-instance" xsi:noNamespaceSchemaLocation="http://sumo.dlr.de/xsd/sumoConfiguration.xsd">

    <input>
        <net-file value="../dataSets/Porto/8AM9AM_Routing_SaoBento/Porto.net.xml"/>
        <route-files value="../results/Porto/8AM9AM_Routing_SaoBento/cost_co-length/solution23/Porto.rou.xml"/>
        <additional-files value="moreOutputInfo.xml"/>
    </input>

    <output>
        <emission-output.precision value="6"/>
        <tripinfo-output value="../results/Porto/8AM9AM_Routing_SaoBento/cost_co-length/solution23/Porto-tripinfo"/>
    </output>

    <processing>
        <collision.action value="warn"/>
        <time-to-teleport value="-1"/>
    </processing>

    <emissions>
        <device.emissions.probability value="1"/>
    </emissions>

    <gui_only>
        <quit-on-end value="true"/>
        <start value="true"/>
    </gui_only>

</configuration>
-->

<meandata xmlns:xsi="http://www.w3.org/2001/XMLSchema-instance" xsi:noNamespaceSchemaLocation="http://sumo.dlr.de/xsd/meandata_file.xsd">
    <interval begin="0.00" end="8471.00" id="emissions-detector">
        <edge id=":1092997347_0" sampledSeconds="600.41" CO_abs="72263.074127" CO2_abs="3073471.191109" HC_abs="401.749048" PMx_abs="62.188279" NOx_abs="1329.747661" fuel_abs="1321.160824" electricity_abs="0"
            CO_normed="69796.167367" CO2_normed="2968549.459652" HC_normed="388.034195" PMx_normed="60.065305" NOx_normed="1284.352920" fuel_normed="1276.059220" electricity_normed="0"
            traveltime="0.07" CO_perVeh="8.277504" CO2_perVeh="352.056290" HC_perVeh="0.046019" PMx_perVeh="0.007123" NOx_perVeh="0.152318" fuel_perVeh="0.151335" electricity_perVeh="0"/>
        <edge id=":1103427051_0" sampledSeconds="19.62" CO_abs="1596.216088" CO2_abs="90178.017769" HC_abs="9.406590" PMx_abs="1.753372" NOx_abs="38.363878" fuel_abs="38.763559" electricity_abs="0"
            CO_normed="2339.168488" CO2_normed="132151.015827" HC_normed="13.784849" PMx_normed="2.569471" NOx_normed="56.220192" fuel_normed="56.805903" electricity_normed="0"
            traveltime="0.03" CO_perVeh="2.482318" CO2_perVeh="140.238230" HC_perVeh="0.014628" PMx_perVeh="0.002727" NOx_perVeh="0.059661" fuel_perVeh="0.060282" electricity_perVeh="0"/>
        <edge id=":1105984386_0" sampledSeconds="10.47" CO_abs="345.674767" CO2_abs="24555.445421" HC_abs="2.136905" PMx_abs="0.355659" NOx_abs="9.566036" fuel_abs="10.555424" electricity_abs="0"
            CO_normed="15.129211" CO2_normed="1074.722659" HC_normed="0.093526" PMx_normed="0.015566" NOx_normed="0.418678" fuel_normed="0.461981" electricity_normed="0"
            traveltime="1.00" CO_perVeh="33.160462" CO2_perVeh="2355.595485" HC_perVeh="0.204993" PMx_perVeh="0.034118" NOx_perVeh="0.917667" fuel_perVeh="1.012578" electricity_perVeh="0"/>
        <edge id=":1105984390_0" sampledSeconds="10.92" CO_abs="40.328893" CO2_abs="3174.087961" HC_abs="0.256421" PMx_abs="0.044964" NOx_abs="1.224257" fuel_abs="1.364415" electricity_abs="0"
            CO_normed="1.364566" CO2_normed="107.398233" HC_normed="0.008676" PMx_normed="0.001521" NOx_normed="0.041424" fuel_normed="0.046166" electricity_normed="0"
            traveltime="1.13" CO_perVeh="4.180333" CO2_perVeh="329.013327" HC_perVeh="0.026580" PMx_perVeh="0.004661" NOx_perVeh="0.126902" fuel_perVeh="0.141430" electricity_perVeh="0"/>
        <edge id=":1105984390_1" sampledSeconds="2401.10" CO_abs="64506.529808" CO2_abs="7593827.035962" HC_abs="475.400486" PMx_abs="137.523323" NOx_abs="2894.988830" fuel_abs="3264.235173" electricity_abs="0"
            CO_normed="2087.885952" CO2_normed="245789.764779" HC_normed="15.387310" PMx_normed="4.451224" NOx_normed="93.702243" fuel_normed="105.653657" electricity_normed="0"
            traveltime="0.65" CO_perVeh="17.418467" CO2_perVeh="2050.533902" HC_perVeh="0.128371" PMx_perVeh="0.037135" NOx_perVeh="0.781723" fuel_perVeh="0.881430" electricity_perVeh="0"/>
        <edge id=":1105984395_0" sampledSeconds="4.29" CO_abs="92.146993" CO2_abs="6571.616264" HC_abs="0.566261" PMx_abs="0.074291" NOx_abs="2.421726" fuel_abs="2.824912" electricity_abs="0"
            CO_normed="42.565835" CO2_normed="3035.653425" HC_normed="0.261575" PMx_normed="0.034318" NOx_normed="1.118678" fuel_normed="1.304923" electricity_normed="0"
            traveltime="0.10" CO_perVeh="2.135934" CO2_perVeh="152.327714" HC_perVeh="0.013126" PMx_perVeh="0.001722" NOx_perVeh="0.056135" fuel_perVeh="0.065480" electricity_perVeh="0"/>
        <edge id=":1105984398_0" sampledSeconds="10.88" CO_abs="725.762356" CO2_abs="46852.357567" HC_abs="4.416385" PMx_abs="0.889089" NOx_abs="19.674269" fuel_abs="20.139722" electricity_abs="0"
            CO_normed="25.511498" CO2_normed="1646.921758" HC_normed="0.155242" PMx_normed="0.031253" NOx_normed="0.691576" fuel_normed="0.707938" electricity_normed="0"
            traveltime="1.16" CO_perVeh="77.214359" CO2_perVeh="4984.654751" HC_perVeh="0.469862" PMx_perVeh="0.094591" NOx_perVeh="2.093159" fuel_perVeh="2.142679" electricity_perVeh="0"/>
        <edge id=":1105984398_1" sampledSeconds="648.72" CO_abs="11356.569402" CO2_abs="1349989.973111" HC_abs="82.846848" PMx_abs="19.181143" NOx_abs="509.304933" fuel_abs="580.303295" electricity_abs="0"
            CO_normed="386.413722" CO2_normed="45934.175301" HC_normed="2.818911" PMx_normed="0.652649" NOx_normed="17.329390" fuel_normed="19.745149" electricity_normed="0"
            traveltime="0.95" CO_perVeh="16.674648" CO2_perVeh="1982.166147" HC_perVeh="0.121643" PMx_perVeh="0.028163" NOx_perVeh="0.747803" fuel_perVeh="0.852049" electricity_perVeh="0"/>
        <edge id=":1106006327_0" sampledSeconds="65.36" CO_abs="8879.051956" CO2_abs="295427.531774" HC_abs="47.392285" PMx_abs="6.171877" NOx_abs="129.389395" fuel_abs="126.993659" electricity_abs="0"
            CO_normed="425.893189" CO2_normed="14170.496371" HC_normed="2.273221" PMx_normed="0.296041" NOx_normed="6.206300" fuel_normed="6.091386" electricity_normed="0"
            traveltime="2.03" CO_perVeh="275.247193" CO2_perVeh="9158.139783" HC_perVeh="1.469143" PMx_perVeh="0.191326" NOx_perVeh="4.011021" fuel_perVeh="3.936755" electricity_perVeh="0"/>
        <edge id=":1106006327_1" sampledSeconds="683.75" CO_abs="92493.936448" CO2_abs="3087867.085582" HC_abs="493.930193" PMx_abs="64.408645" NOx_abs="1351.366563" fuel_abs="1327.362806" electricity_abs="0"
            CO_normed="3868.898837" CO2_normed="129161.389764" HC_normed="20.660446" PMx_normed="2.694128" NOx_normed="56.525873" fuel_normed="55.521828" electricity_normed="0"
            traveltime="2.30" CO_perVeh="310.479757" CO2_perVeh="10365.222398" HC_perVeh="1.658004" PMx_perVeh="0.216204" NOx_perVeh="4.536210" fuel_perVeh="4.455636" electricity_perVeh="0"/>
        <edge id=":1106006327_2" sampledSeconds="0.00" CO_abs="0" CO2_abs="0" HC_abs="0" PMx_abs="0" NOx_abs="0" fuel_abs="0" electricity_abs="0"
            CO_normed="0" CO2_normed="0" HC_normed="0" PMx_normed="0" NOx_normed="0" fuel_normed="0" electricity_normed="0"/>
        <edge id=":1106006327_3" sampledSeconds="0.00" CO_abs="0" CO2_abs="0" HC_abs="0" PMx_abs="0" NOx_abs="0" fuel_abs="0" electricity_abs="0"
            CO_normed="0" CO2_normed="0" HC_normed="0" PMx_normed="0" NOx_normed="0" fuel_normed="0" electricity_normed="0"/>
        <edge id=":1107381198_0" sampledSeconds="0.00" CO_abs="0" CO2_abs="0" HC_abs="0" PMx_abs="0" NOx_abs="0" fuel_abs="0" electricity_abs="0"
            CO_normed="0" CO2_normed="0" HC_normed="0" PMx_normed="0" NOx_normed="0" fuel_normed="0" electricity_normed="0"/>
        <edge id=":1107381198_1" sampledSeconds="104.32" CO_abs="4919.478975" CO2_abs="195076.497882" HC_abs="26.901069" PMx_abs="3.422386" NOx_abs="81.184398" fuel_abs="83.856556" electricity_abs="0"
            CO_normed="227.990942" CO2_normed="9040.728634" HC_normed="1.246717" PMx_normed="0.158609" NOx_normed="3.762453" fuel_normed="3.886293" electricity_normed="0"
            traveltime="1.56" CO_perVeh="73.654033" CO2_perVeh="2920.669223" HC_perVeh="0.402761" PMx_perVeh="0.051240" NOx_perVeh="1.215486" fuel_perVeh="1.255493" electricity_perVeh="0"/>
        <edge id=":1110338277_0" sampledSeconds="160.47" CO_abs="2442.301536" CO2_abs="299513.334330" HC_abs="17.933388" PMx_abs="4.119574" NOx_abs="112.034721" fuel_abs="128.748185" electricity_abs="0"
            CO_normed="3706.884636" CO2_normed="454596.355461" HC_normed="27.218998" PMx_normed="6.252621" NOx_normed="170.044435" fuel_normed="195.411854" electricity_normed="0"
            traveltime="0.02" CO_perVeh="0.330786" CO2_perVeh="40.566205" HC_perVeh="0.002429" PMx_perVeh="0.000558" NOx_perVeh="0.015174" fuel_perVeh="0.017438" electricity_perVeh="0"/>
        <edge id=":1110338293_0" sampledSeconds="6535.46" CO_abs="606030.174158" CO2_abs="10594859.069415" HC_abs="3007.258607" PMx_abs="252.561329" NOx_abs="4787.990804" fuel_abs="4554.552458" electricity_abs="0"
            CO_normed="858501.014035" CO2_normed="15008654.094319" HC_normed="4260.075940" PMx_normed="357.777825" NOx_normed="6782.657259" fuel_normed="6451.969011" electricity_normed="0"
            traveltime="0.44" CO_perVeh="40.497773" CO2_perVeh="707.998074" HC_perVeh="0.200959" PMx_perVeh="0.016877" NOx_perVeh="0.319956" fuel_perVeh="0.304357" electricity_perVeh="0"/>
        <edge id=":1110338295_0" sampledSeconds="0.00" CO_abs="0" CO2_abs="0" HC_abs="0" PMx_abs="0" NOx_abs="0" fuel_abs="0" electricity_abs="0"
            CO_normed="0" CO2_normed="0" HC_normed="0" PMx_normed="0" NOx_normed="0" fuel_normed="0" electricity_normed="0"/>
        <edge id=":1110673403_0" sampledSeconds="200.21" CO_abs="3121.308378" CO2_abs="387750.621849" HC_abs="23.060273" PMx_abs="5.316390" NOx_abs="144.885180" fuel_abs="166.677686" electricity_abs="0"
            CO_normed="4421.638595" CO2_normed="549286.679518" HC_normed="32.667132" PMx_normed="7.531186" NOx_normed="205.244029" fuel_normed="236.115243" electricity_normed="0"
            traveltime="0.02" CO_perVeh="0.360748" CO2_perVeh="44.814573" HC_perVeh="0.002665" PMx_perVeh="0.000614" NOx_perVeh="0.016745" fuel_perVeh="0.019264" electricity_perVeh="0"/>
        <edge id=":1110673412_0" sampledSeconds="940.14" CO_abs="166263.147904" CO2_abs="11353590.119500" HC_abs="1034.937231" PMx_abs="249.450337" NOx_abs="4878.529302" fuel_abs="4880.349196" electricity_abs="0"
            CO_normed="243649.665779" CO2_normed="16638073.276452" HC_normed="1516.644630" PMx_normed="365.555999" NOx_normed="7149.221273" fuel_normed="7151.888230" electricity_normed="0"
            traveltime="0.02" CO_perVeh="2.746320" CO2_perVeh="187.537620" HC_perVeh="0.017095" PMx_perVeh="0.004120" NOx_perVeh="0.080583" fuel_perVeh="0.080613" electricity_perVeh="0"/>
        <edge id=":1110673414_0" sampledSeconds="0.00" CO_abs="0" CO2_abs="0" HC_abs="0" PMx_abs="0" NOx_abs="0" fuel_abs="0" electricity_abs="0"
            CO_normed="0" CO2_normed="0" HC_normed="0" PMx_normed="0" NOx_normed="0" fuel_normed="0" electricity_normed="0"/>
        <edge id=":1110673414_1" sampledSeconds="6.88" CO_abs="225.943484" CO2_abs="10300.291028" HC_abs="1.270405" PMx_abs="0.195304" NOx_abs="4.374149" fuel_abs="4.427684" electricity_abs="0"
            CO_normed="10.633589" CO2_normed="484.763111" HC_normed="0.059789" PMx_normed="0.009192" NOx_normed="0.205861" fuel_normed="0.208380" electricity_normed="0"
            traveltime="1.50" CO_perVeh="49.353403" CO2_perVeh="2249.918432" HC_perVeh="0.277498" PMx_perVeh="0.042661" NOx_perVeh="0.955456" fuel_perVeh="0.967150" electricity_perVeh="0"/>
        <edge id=":1110673417_0" sampledSeconds="29.22" CO_abs="521.417187" CO2_abs="60061.443119" HC_abs="3.740772" PMx_abs="0.824229" NOx_abs="22.540066" fuel_abs="25.817910" electricity_abs="0"
            CO_normed="791.398331" CO2_normed="91160.259047" HC_normed="5.677681" PMx_normed="1.251001" NOx_normed="34.210937" fuel_normed="39.185994" electricity_normed="0"
            traveltime="0.02" CO_perVeh="0.397606" CO2_perVeh="45.799733" HC_perVeh="0.002853" PMx_perVeh="0.000629" NOx_perVeh="0.017188" fuel_perVeh="0.019687" electricity_perVeh="0"/>
        <edge id=":1110673446_0" sampledSeconds="1314.03" CO_abs="13722.055574" CO2_abs="1108586.340408" HC_abs="88.720090" PMx_abs="20.348443" NOx_abs="453.554097" fuel_abs="476.530289" electricity_abs="0"
            CO_normed="19438.633796" CO2_normed="1570420.975670" HC_normed="125.680685" PMx_normed="28.825560" NOx_normed="642.503739" fuel_normed="675.051762" electricity_normed="0"
            traveltime="0.02" CO_perVeh="0.238170" CO2_perVeh="19.241397" HC_perVeh="0.001540" PMx_perVeh="0.000353" NOx_perVeh="0.007872" fuel_perVeh="0.008271" electricity_perVeh="0"/>
        <edge id=":1110673451_0" sampledSeconds="36.66" CO_abs="409.540036" CO2_abs="26780.843360" HC_abs="2.482125" PMx_abs="0.412817" NOx_abs="10.621590" fuel_abs="11.512023" electricity_abs="0"
            CO_normed="644.615017" CO2_normed="42152.982112" HC_normed="3.906859" PMx_normed="0.649772" NOx_normed="16.718356" fuel_normed="18.119896" electricity_normed="0"
            traveltime="0.03" CO_perVeh="0.301740" CO2_perVeh="19.731561" HC_perVeh="0.001829" PMx_perVeh="0.000304" NOx_perVeh="0.007826" fuel_perVeh="0.008482" electricity_perVeh="0"/>
        <edge id=":1110673464_0" sampledSeconds="1038.34" CO_abs="4309.181127" CO2_abs="309552.859058" HC_abs="26.745664" PMx_abs="4.621894" NOx_abs="121.291845" fuel_abs="133.064419" electricity_abs="0"
            CO_normed="129.696385" CO2_normed="9316.825080" HC_normed="0.804983" PMx_normed="0.139108" NOx_normed="3.650604" fuel_normed="4.004931" electricity_normed="0"
            traveltime="1.23" CO_perVeh="5.110086" CO2_perVeh="367.086368" HC_perVeh="0.031717" PMx_perVeh="0.005481" NOx_perVeh="0.143835" fuel_perVeh="0.157796" electricity_perVeh="0"/>
        <edge id=":1110673464_1" sampledSeconds="2610.90" CO_abs="66193.039658" CO2_abs="7893103.292878" HC_abs="489.816157" PMx_abs="141.936781" NOx_abs="3004.718242" fuel_abs="3392.880740" electricity_abs="0"
            CO_normed="1952.163386" CO2_normed="232783.194870" HC_normed="14.445645" PMx_normed="4.185996" NOx_normed="88.615071" fuel_normed="100.062750" electricity_normed="0"
            traveltime="0.72" CO_perVeh="18.243324" CO2_perVeh="2175.401492" HC_perVeh="0.134997" PMx_perVeh="0.039119" NOx_perVeh="0.828124" fuel_perVeh="0.935105" electricity_perVeh="0"/>
        <edge id=":1110673479_0" sampledSeconds="133.99" CO_abs="6531.195099" CO2_abs="448842.220903" HC_abs="40.303382" PMx_abs="7.957904" NOx_abs="184.244918" fuel_abs="192.937653" electricity_abs="0"
            CO_normed="9252.076637" CO2_normed="635828.904596" HC_normed="57.093683" PMx_normed="11.273149" NOx_normed="261.000947" fuel_normed="273.315056" electricity_normed="0"
            traveltime="0.03" CO_perVeh="1.380754" CO2_perVeh="94.889304" HC_perVeh="0.008520" PMx_perVeh="0.001682" NOx_perVeh="0.038951" fuel_perVeh="0.040789" electricity_perVeh="0"/>
        <edge id=":1110673511_0" sampledSeconds="63.28" CO_abs="1233.958296" CO2_abs="131198.509250" HC_abs="8.642792" PMx_abs="1.894475" NOx_abs="49.999584" fuel_abs="56.396695" electricity_abs="0"
            CO_normed="1748.022613" CO2_normed="185855.520128" HC_normed="12.243360" PMx_normed="2.683708" NOx_normed="70.829300" fuel_normed="79.891434" electricity_normed="0"
            traveltime="0.02" CO_perVeh="0.472938" CO2_perVeh="50.284367" HC_perVeh="0.003313" PMx_perVeh="0.000726" NOx_perVeh="0.019163" fuel_perVeh="0.021615" electricity_perVeh="0"/>
        <edge id=":1110673517_0" sampledSeconds="182.30" CO_abs="8341.966276" CO2_abs="594660.161173" HC_abs="51.936347" PMx_abs="10.247660" NOx_abs="241.775255" fuel_abs="255.618641" electricity_abs="0"
            CO_normed="11817.211109" CO2_normed="842394.278606" HC_normed="73.572915" PMx_normed="14.516812" NOx_normed="342.498296" fuel_normed="362.108805" electricity_normed="0"
            traveltime="0.03" CO_perVeh="1.277223" CO2_perVeh="91.047284" HC_perVeh="0.007952" PMx_perVeh="0.001569" NOx_perVeh="0.037018" fuel_perVeh="0.039137" electricity_perVeh="0"/>
        <edge id=":1110673534_0" sampledSeconds="658.48" CO_abs="5117.362508" CO2_abs="426839.471950" HC_abs="33.044539" PMx_abs="5.725771" NOx_abs="162.065183" fuel_abs="183.481642" electricity_abs="0"
            CO_normed="140.489234" CO2_normed="11718.214317" HC_normed="0.907186" PMx_normed="0.157192" NOx_normed="4.449248" fuel_normed="5.037203" electricity_normed="0"
            traveltime="1.45" CO_perVeh="11.252318" CO2_perVeh="938.556461" HC_perVeh="0.072660" PMx_perVeh="0.012590" NOx_perVeh="0.356357" fuel_perVeh="0.403449" electricity_perVeh="0"/>
        <edge id=":1110673534_1" sampledSeconds="264.81" CO_abs="3786.261715" CO2_abs="512545.843703" HC_abs="28.800286" PMx_abs="6.652864" NOx_abs="188.495438" fuel_abs="220.322232" electricity_abs="0"
            CO_normed="101.073053" CO2_normed="13682.248432" HC_normed="0.768814" PMx_normed="0.177596" NOx_normed="5.031826" fuel_normed="5.881432" electricity_normed="0"
            traveltime="1.23" CO_perVeh="17.567304" CO2_perVeh="2378.084131" HC_perVeh="0.133626" PMx_perVeh="0.030868" NOx_perVeh="0.874572" fuel_perVeh="1.022240" electricity_perVeh="0"/>
        <edge id=":1110673549_0" sampledSeconds="652.20" CO_abs="1572.031971" CO2_abs="162405.408030" HC_abs="10.879693" PMx_abs="2.255005" NOx_abs="61.025156" fuel_abs="69.811426" electricity_abs="0"
            CO_normed="41.807329" CO2_normed="4319.082811" HC_normed="0.289339" PMx_normed="0.059971" NOx_normed="1.622931" fuel_normed="1.856597" electricity_normed="0"
            traveltime="1.30" CO_perVeh="3.123253" CO2_perVeh="322.660821" HC_perVeh="0.021615" PMx_perVeh="0.004480" NOx_perVeh="0.121242" fuel_perVeh="0.138699" electricity_perVeh="0"/>
        <edge id=":1110673549_1" sampledSeconds="3199.30" CO_abs="69435.447522" CO2_abs="9159994.242037" HC_abs="534.895855" PMx_abs="160.891381" NOx_abs="3421.748060" fuel_abs="3937.462425" electricity_abs="0"
            CO_normed="1786.236728" CO2_normed="235642.150068" HC_normed="13.760272" PMx_normed="4.138954" NOx_normed="88.024954" fuel_normed="101.291779" electricity_normed="0"
            traveltime="0.81" CO_perVeh="17.514364" CO2_perVeh="2310.512615" HC_perVeh="0.134922" PMx_perVeh="0.040583" NOx_perVeh="0.863100" fuel_perVeh="0.993184" electricity_perVeh="0"/>
        <edge id=":1110673556_0" sampledSeconds="472.56" CO_abs="58537.172403" CO2_abs="2790177.768004" HC_abs="332.801970" PMx_abs="56.413701" NOx_abs="1203.807284" fuel_abs="1199.378794" electricity_abs="0"
            CO_normed="1154.389279" CO2_normed="55024.032942" HC_normed="6.563061" PMx_normed="1.112513" NOx_normed="23.739825" fuel_normed="23.652492" electricity_normed="0"
            traveltime="2.79" CO_perVeh="345.071003" CO2_perVeh="16447.829663" HC_perVeh="1.961836" PMx_perVeh="0.332553" NOx_perVeh="7.096328" fuel_perVeh="7.070223" electricity_perVeh="0"/>
        <edge id=":1110673556_2" sampledSeconds="177.68" CO_abs="17312.174125" CO2_abs="731759.411714" HC_abs="96.037247" PMx_abs="14.295184" NOx_abs="313.341574" fuel_abs="314.554611" electricity_abs="0"
            CO_normed="356.977989" CO2_normed="15088.919591" HC_normed="1.980293" PMx_normed="0.294767" NOx_normed="6.461121" fuel_normed="6.486133" electricity_normed="0"
            traveltime="3.07" CO_perVeh="299.352229" CO2_perVeh="12653.165880" HC_perVeh="1.660621" PMx_perVeh="0.247184" NOx_perVeh="5.418124" fuel_perVeh="5.439099" electricity_perVeh="0"/>
        <edge id=":1110673556_3" sampledSeconds="339.33" CO_abs="34164.523618" CO2_abs="1176352.461585" HC_abs="183.054372" PMx_abs="23.192950" NOx_abs="506.495165" fuel_abs="505.672638" electricity_abs="0"
            CO_normed="1602.562554" CO2_normed="55179.414375" HC_normed="8.586570" PMx_normed="1.087917" NOx_normed="23.758276" fuel_normed="23.719694" electricity_normed="0"
            traveltime="1.84" CO_perVeh="185.235626" CO2_perVeh="6378.030833" HC_perVeh="0.992497" PMx_perVeh="0.125749" NOx_perVeh="2.746151" fuel_perVeh="2.741692" electricity_perVeh="0"/>
        <edge id=":1110673556_4" sampledSeconds="91.21" CO_abs="9498.663400" CO2_abs="370296.321082" HC_abs="51.942933" PMx_abs="7.281511" NOx_abs="159.056592" fuel_abs="159.176374" electricity_abs="0"
            CO_normed="272.200655" CO2_normed="10611.482577" HC_normed="1.488515" PMx_normed="0.208664" NOx_normed="4.558042" fuel_normed="4.561475" electricity_normed="0"
            traveltime="2.47" CO_perVeh="257.538637" CO2_perVeh="10039.897823" HC_perVeh="1.408336" PMx_perVeh="0.197425" NOx_perVeh="4.312524" fuel_perVeh="4.315772" electricity_perVeh="0"/>
        <edge id=":1110673556_5" sampledSeconds="22.72" CO_abs="1261.476210" CO2_abs="57529.472167" HC_abs="7.086316" PMx_abs="1.053682" NOx_abs="24.183819" fuel_abs="24.729681" electricity_abs="0"
            CO_normed="50.385463" CO2_normed="2297.823044" HC_normed="0.283039" PMx_normed="0.042086" NOx_normed="0.965942" fuel_normed="0.987745" electricity_normed="0"
            traveltime="1.57" CO_perVeh="87.213170" CO2_perVeh="3977.346224" HC_perVeh="0.489918" PMx_perVeh="0.072847" NOx_perVeh="1.671968" fuel_perVeh="1.709706" electricity_perVeh="0"/>
        <edge id=":1110673556_6" sampledSeconds="554.73" CO_abs="66227.598127" CO2_abs="3182328.264491" HC_abs="377.123794" PMx_abs="64.206406" NOx_abs="1372.009563" fuel_abs="1367.947379" electricity_abs="0"
            CO_normed="1338.980068" CO2_normed="64339.855832" HC_normed="7.624635" PMx_normed="1.298116" NOx_normed="27.739092" fuel_normed="27.656964" electricity_normed="0"
            traveltime="2.69" CO_perVeh="321.549632" CO2_perVeh="15450.907321" HC_perVeh="1.831019" PMx_perVeh="0.311736" NOx_perVeh="6.661410" fuel_perVeh="6.641687" electricity_perVeh="0"/>
        <edge id=":1110673561_0" sampledSeconds="103.35" CO_abs="9942.051988" CO2_abs="695667.199738" HC_abs="62.039628" PMx_abs="14.203084" NOx_abs="295.674259" fuel_abs="299.034118" electricity_abs="0"
            CO_normed="252.550311" CO2_normed="17671.499599" HC_normed="1.575945" PMx_normed="0.360790" NOx_normed="7.510786" fuel_normed="7.596134" electricity_normed="0"
            traveltime="1.22" CO_perVeh="117.325863" CO2_perVeh="8209.548171" HC_perVeh="0.732128" PMx_perVeh="0.167610" NOx_perVeh="3.489243" fuel_perVeh="3.528893" electricity_perVeh="0"/>
        <edge id=":1110673561_1" sampledSeconds="5193.50" CO_abs="483471.028543" CO2_abs="33504585.215478" HC_abs="3011.939584" PMx_abs="700.081638" NOx_abs="14322.568637" fuel_abs="14402.003302" electricity_abs="0"
            CO_normed="11973.496459" CO2_normed="829764.367995" HC_normed="74.592780" PMx_normed="17.338009" NOx_normed="354.708379" fuel_normed="356.675634" electricity_normed="0"
            traveltime="1.19" CO_perVeh="111.052323" CO2_perVeh="7695.935878" HC_perVeh="0.691836" PMx_perVeh="0.160807" NOx_perVeh="3.289865" fuel_perVeh="3.308111" electricity_perVeh="0"/>
        <edge id=":1110673562_0" sampledSeconds="301.52" CO_abs="6637.365935" CO2_abs="514613.181125" HC_abs="41.940044" PMx_abs="6.886346" NOx_abs="196.052388" fuel_abs="221.212482" electricity_abs="0"
            CO_normed="10447.197788" CO2_normed="809999.891591" HC_normed="66.013527" PMx_normed="10.839093" NOx_normed="308.585980" fuel_normed="348.187906" electricity_normed="0"
            traveltime="0.03" CO_perVeh="0.594983" CO2_perVeh="46.130664" HC_perVeh="0.003760" PMx_perVeh="0.000617" NOx_perVeh="0.017574" fuel_perVeh="0.019830" electricity_perVeh="0"/>
        <edge id=":1110673564_0" sampledSeconds="27.76" CO_abs="624.504351" CO2_abs="66236.307867" HC_abs="4.379892" PMx_abs="0.984276" NOx_abs="25.396905" fuel_abs="28.472152" electricity_abs="0"
            CO_normed="2654.014475" CO2_normed="281490.624864" HC_normed="18.613637" PMx_normed="4.182970" NOx_normed="107.931600" fuel_normed="121.000763" electricity_normed="0"
            traveltime="7.840837e-03" CO_perVeh="0.176390" CO2_perVeh="18.708331" HC_perVeh="0.001237" PMx_perVeh="0.000278" NOx_perVeh="0.007173" fuel_perVeh="0.008042" electricity_perVeh="0"/>
        <edge id=":1110673588_0" sampledSeconds="63.01" CO_abs="1192.227568" CO2_abs="124956.961172" HC_abs="8.290957" PMx_abs="1.748489" NOx_abs="47.322947" fuel_abs="53.713809" electricity_abs="0"
            CO_normed="2026.688346" CO2_normed="212416.508190" HC_normed="14.093942" PMx_normed="2.972286" NOx_normed="80.445100" fuel_normed="91.309037" electricity_normed="0"
            traveltime="0.02" CO_perVeh="0.384590" CO2_perVeh="40.308697" HC_perVeh="0.002675" PMx_perVeh="0.000564" NOx_perVeh="0.015265" fuel_perVeh="0.017327" electricity_perVeh="0"/>
        <edge id=":1110673601_0" sampledSeconds="29.07" CO_abs="630.197331" CO2_abs="68134.437199" HC_abs="4.414270" PMx_abs="0.967579" NOx_abs="25.809828" fuel_abs="29.288132" electricity_abs="0"
            CO_normed="956.503024" CO2_normed="103413.315140" HC_normed="6.699906" PMx_normed="1.468576" NOx_normed="39.173728" fuel_normed="44.453039" electricity_normed="0"
            traveltime="0.02" CO_perVeh="0.480556" CO2_perVeh="51.955779" HC_perVeh="0.003366" PMx_perVeh="0.000738" NOx_perVeh="0.019681" fuel_perVeh="0.022334" electricity_perVeh="0"/>
        <edge id=":1110673617_0" sampledSeconds="855.30" CO_abs="32629.824077" CO2_abs="3285980.525515" HC_abs="227.387991" PMx_abs="62.066168" NOx_abs="1290.491500" fuel_abs="1412.489059" electricity_abs="0"
            CO_normed="46223.337141" CO2_normed="4654912.797330" HC_normed="322.117329" PMx_normed="87.922798" NOx_normed="1828.107426" fuel_normed="2000.928900" electricity_normed="0"
            traveltime="0.02" CO_perVeh="0.577955" CO2_perVeh="58.202826" HC_perVeh="0.004028" PMx_perVeh="0.001099" NOx_perVeh="0.022858" fuel_perVeh="0.025019" electricity_perVeh="0"/>
        <edge id=":1110673621_0" sampledSeconds="26.40" CO_abs="541.426518" CO2_abs="51913.807141" HC_abs="3.669372" PMx_abs="0.786694" NOx_abs="20.125832" fuel_abs="22.315531" electricity_abs="0"
            CO_normed="920.380339" CO2_normed="88249.182249" HC_normed="6.237629" PMx_normed="1.337315" NOx_normed="34.212251" fuel_normed="37.934558" electricity_normed="0"
            traveltime="0.02" CO_perVeh="0.410172" CO2_perVeh="39.328642" HC_perVeh="0.002780" PMx_perVeh="0.000596" NOx_perVeh="0.015247" fuel_perVeh="0.016906" electricity_perVeh="0"/>
        <edge id=":1110673630_0" sampledSeconds="286.14" CO_abs="1521.373541" CO2_abs="130250.679105" HC_abs="9.892170" PMx_abs="1.697689" NOx_abs="49.123193" fuel_abs="55.989729" electricity_abs="0"
            CO_normed="46.116428" CO2_normed="3948.205978" HC_normed="0.299855" PMx_normed="0.051461" NOx_normed="1.489040" fuel_normed="1.697181" electricity_normed="0"
            traveltime="1.29" CO_perVeh="6.845600" CO2_perVeh="586.078310" HC_perVeh="0.044511" PMx_perVeh="0.007639" NOx_perVeh="0.221036" fuel_perVeh="0.251932" electricity_perVeh="0"/>
        <edge id=":1110673630_1" sampledSeconds="338.47" CO_abs="1330.861995" CO2_abs="108648.559792" HC_abs="8.532134" PMx_abs="1.428108" NOx_abs="41.150692" fuel_abs="46.703838" electricity_abs="0"
            CO_normed="49.181639" CO2_normed="4015.077684" HC_normed="0.315303" PMx_normed="0.052775" NOx_normed="1.520713" fuel_normed="1.725928" electricity_normed="0"
            traveltime="1.08" CO_perVeh="4.242536" CO2_perVeh="346.351002" HC_perVeh="0.027199" PMx_perVeh="0.004553" NOx_perVeh="0.131181" fuel_perVeh="0.148883" electricity_perVeh="0"/>
        <edge id=":1110673650_0" sampledSeconds="200.07" CO_abs="3247.261863" CO2_abs="398315.601937" HC_abs="23.901220" PMx_abs="5.490798" NOx_abs="149.053743" fuel_abs="171.219117" electricity_abs="0"
            CO_normed="4600.064025" CO2_normed="564253.007112" HC_normed="33.858416" PMx_normed="7.778252" NOx_normed="211.149204" fuel_normed="242.548625" electricity_normed="0"
            traveltime="0.02" CO_perVeh="0.375306" CO2_perVeh="46.035765" HC_perVeh="0.002762" PMx_perVeh="0.000635" NOx_perVeh="0.017227" fuel_perVeh="0.019789" electricity_perVeh="0"/>
        <edge id=":1110673655_0" sampledSeconds="20.63" CO_abs="277.893675" CO2_abs="34102.890582" HC_abs="2.049756" PMx_abs="0.448427" NOx_abs="12.644738" fuel_abs="14.659430" electricity_abs="0"
            CO_normed="393.663570" CO2_normed="48310.079918" HC_normed="2.903680" PMx_normed="0.635241" NOx_normed="17.912509" fuel_normed="20.766516" electricity_normed="0"
            traveltime="0.02" CO_perVeh="0.317472" CO2_perVeh="38.959890" HC_perVeh="0.002342" PMx_perVeh="0.000512" NOx_perVeh="0.014446" fuel_perVeh="0.016747" electricity_perVeh="0"/>
        <edge id=":1110673663_0" sampledSeconds="112.36" CO_abs="2015.915513" CO2_abs="215531.384070" HC_abs="14.106341" PMx_abs="3.041153" NOx_abs="81.691046" fuel_abs="92.647926" electricity_abs="0"
            CO_normed="52.302958" CO2_normed="5591.964935" HC_normed="0.365989" PMx_normed="0.078903" NOx_normed="2.119475" fuel_normed="2.403752" electricity_normed="0"
            traveltime="1.32" CO_perVeh="23.677879" CO2_perVeh="2531.517784" HC_perVeh="0.165686" PMx_perVeh="0.035720" NOx_perVeh="0.959500" fuel_perVeh="1.088194" electricity_perVeh="0"/>
        <edge id=":1110673663_1" sampledSeconds="170.84" CO_abs="2954.494520" CO2_abs="340175.589709" HC_abs="21.278017" PMx_abs="4.839751" NOx_abs="128.653343" fuel_abs="146.227062" electricity_abs="0"
            CO_normed="76.748113" CO2_normed="8836.650247" HC_normed="0.552733" PMx_normed="0.125721" NOx_normed="3.341993" fuel_normed="3.798501" electricity_normed="0"
            traveltime="1.27" CO_perVeh="22.028819" CO2_perVeh="2536.361613" HC_perVeh="0.158650" PMx_perVeh="0.036085" NOx_perVeh="0.959244" fuel_perVeh="1.090274" electricity_perVeh="0"/>