<?xml version="1.0" encoding="UTF-8"?>

<!-- generated on Tue Nov 10 05:04:43 2020 by Eclipse SUMO sumo Version 1.7.0
<configuration xmlns:xsi="http://www.w3.org/2001/XMLSchema-instance" xsi:noNamespaceSchemaLocation="http://sumo.dlr.de/xsd/sumoConfiguration.xsd">

    <input>
        <net-file value="../dataSets/Porto/8AM9AM_Routing_SaoBento/Porto.net.xml"/>
        <route-files value="../results/Porto/8AM9AM_Routing_SaoBento/cost_PMx-ttime/solution10/Porto.rou.xml"/>
        <additional-files value="moreOutputInfo.xml"/>
    </input>

    <output>
        <emission-output.precision value="6"/>
        <tripinfo-output value="../results/Porto/8AM9AM_Routing_SaoBento/cost_PMx-ttime/solution10/Porto-tripinfo"/>
    </output>

    <processing>
        <collision.action value="warn"/>
        <time-to-teleport value="-1"/>
    </processing>

    <emissions>
        <device.emissions.probability value="1"/>
    </emissions>

    <gui_only>
        <quit-on-end value="true"/>
        <start value="true"/>
    </gui_only>

</configuration>
-->

<meandata xmlns:xsi="http://www.w3.org/2001/XMLSchema-instance" xsi:noNamespaceSchemaLocation="http://sumo.dlr.de/xsd/meandata_file.xsd">
    <interval begin="0.00" end="8471.00" id="emissions-detector">
        <edge id=":1092997347_0" sampledSeconds="593.88" CO_abs="73012.576551" CO2_abs="3123939.202644" HC_abs="406.378760" PMx_abs="63.282115" NOx_abs="1352.336905" fuel_abs="1342.854464" electricity_abs="0"
            CO_normed="70520.083382" CO2_normed="3017294.601238" HC_normed="392.505859" PMx_normed="61.121799" NOx_normed="1306.171017" fuel_normed="1297.012286" electricity_normed="0"
            traveltime="0.07" CO_perVeh="8.350760" CO2_perVeh="357.298251" HC_perVeh="0.046479" PMx_perVeh="0.007238" NOx_perVeh="0.154673" fuel_perVeh="0.153588" electricity_perVeh="0"/>
        <edge id=":1103427051_0" sampledSeconds="19.50" CO_abs="1553.080998" CO2_abs="87429.673702" HC_abs="9.138576" PMx_abs="1.667346" NOx_abs="36.982520" fuel_abs="37.582222" electricity_abs="0"
            CO_normed="2275.956343" CO2_normed="128123.465994" HC_normed="13.392089" PMx_normed="2.443405" NOx_normed="54.195886" fuel_normed="55.074717" electricity_normed="0"
            traveltime="0.03" CO_perVeh="2.415238" CO2_perVeh="135.964207" HC_perVeh="0.014212" PMx_perVeh="0.002593" NOx_perVeh="0.057512" fuel_perVeh="0.058445" electricity_perVeh="0"/>
        <edge id=":1105984386_0" sampledSeconds="10.62" CO_abs="188.150852" CO2_abs="13466.031958" HC_abs="1.163703" PMx_abs="0.185602" NOx_abs="5.181057" fuel_abs="5.788533" electricity_abs="0"
            CO_normed="8.234833" CO2_normed="589.370277" HC_normed="0.050932" PMx_normed="0.008123" NOx_normed="0.226760" fuel_normed="0.253348" electricity_normed="0"
            traveltime="1.02" CO_perVeh="18.049247" CO2_perVeh="1291.791843" HC_perVeh="0.111634" PMx_perVeh="0.017805" NOx_perVeh="0.497017" fuel_perVeh="0.555292" electricity_perVeh="0"/>
        <edge id=":1105984390_0" sampledSeconds="10.53" CO_abs="0" CO2_abs="0" HC_abs="0" PMx_abs="0" NOx_abs="0" fuel_abs="0" electricity_abs="0"
            CO_normed="0" CO2_normed="0" HC_normed="0" PMx_normed="0" NOx_normed="0" fuel_normed="0" electricity_normed="0"
            traveltime="1.09" CO_perVeh="0" CO2_perVeh="0" HC_perVeh="0" PMx_perVeh="0" NOx_perVeh="0" fuel_perVeh="0" electricity_perVeh="0"/>
        <edge id=":1105984390_1" sampledSeconds="2398.34" CO_abs="63536.808750" CO2_abs="7528862.319841" HC_abs="468.719025" PMx_abs="136.036902" NOx_abs="2865.481821" fuel_abs="3236.310112" electricity_abs="0"
            CO_normed="2056.498944" CO2_normed="243687.048689" HC_normed="15.171051" PMx_normed="4.403113" NOx_normed="92.747188" fuel_normed="104.749805" electricity_normed="0"
            traveltime="0.65" CO_perVeh="17.155580" CO2_perVeh="2032.868861" HC_perVeh="0.126559" PMx_perVeh="0.036731" NOx_perVeh="0.773709" fuel_perVeh="0.873836" electricity_perVeh="0"/>
        <edge id=":1105984395_0" sampledSeconds="4.04" CO_abs="153.077948" CO2_abs="10298.051691" HC_abs="0.935076" PMx_abs="0.161325" NOx_abs="4.098524" fuel_abs="4.426717" electricity_abs="0"
            CO_normed="70.711919" CO2_normed="4757.020896" HC_normed="0.431944" PMx_normed="0.074521" NOx_normed="1.893248" fuel_normed="2.044851" electricity_normed="0"
            traveltime="0.09" CO_perVeh="3.548292" CO2_perVeh="238.705154" HC_perVeh="0.021675" PMx_perVeh="0.003739" NOx_perVeh="0.095002" fuel_perVeh="0.102610" electricity_perVeh="0"/>
        <edge id=":1105984398_0" sampledSeconds="11.72" CO_abs="726.558331" CO2_abs="48836.878895" HC_abs="4.455399" PMx_abs="0.858799" NOx_abs="20.035580" fuel_abs="20.992861" electricity_abs="0"
            CO_normed="25.539477" CO2_normed="1716.680283" HC_normed="0.156613" PMx_normed="0.030188" NOx_normed="0.704277" fuel_normed="0.737927" electricity_normed="0"
            traveltime="1.21" CO_perVeh="75.124169" CO2_perVeh="5049.601388" HC_perVeh="0.460676" PMx_perVeh="0.088797" NOx_perVeh="2.071625" fuel_perVeh="2.170605" electricity_perVeh="0"/>
        <edge id=":1105984398_1" sampledSeconds="647.22" CO_abs="11355.148780" CO2_abs="1352523.987399" HC_abs="82.696847" PMx_abs="19.161843" NOx_abs="509.718133" fuel_abs="581.392608" electricity_abs="0"
            CO_normed="386.365384" CO2_normed="46020.396576" HC_normed="2.813807" PMx_normed="0.651993" NOx_normed="17.343449" fuel_normed="19.782214" electricity_normed="0"
            traveltime="0.95" CO_perVeh="16.712799" CO2_perVeh="1990.679454" HC_perVeh="0.121715" PMx_perVeh="0.028203" NOx_perVeh="0.750216" fuel_perVeh="0.855709" electricity_perVeh="0"/>
        <edge id=":1106006327_0" sampledSeconds="68.35" CO_abs="9087.770680" CO2_abs="292209.340473" HC_abs="48.256556" PMx_abs="6.098259" NOx_abs="127.920047" fuel_abs="125.610547" electricity_abs="0"
            CO_normed="435.904605" CO2_normed="14016.132396" HC_normed="2.314677" PMx_normed="0.292509" NOx_normed="6.135821" fuel_normed="6.025044" electricity_normed="0"
            traveltime="2.12" CO_perVeh="281.717393" CO2_perVeh="9058.377092" HC_perVeh="1.495935" PMx_perVeh="0.189044" NOx_perVeh="3.965472" fuel_perVeh="3.893879" electricity_perVeh="0"/>
        <edge id=":1106006327_1" sampledSeconds="688.36" CO_abs="92835.463058" CO2_abs="3081866.767358" HC_abs="495.315850" PMx_abs="64.222206" NOx_abs="1348.366438" fuel_abs="1324.784022" electricity_abs="0"
            CO_normed="3883.184443" CO2_normed="128910.404401" HC_normed="20.718406" PMx_normed="2.686330" NOx_normed="56.400382" fuel_normed="55.413961" electricity_normed="0"
            traveltime="2.31" CO_perVeh="311.626179" CO2_perVeh="10345.080782" HC_perVeh="1.662655" PMx_perVeh="0.215578" NOx_perVeh="4.526140" fuel_perVeh="4.446979" electricity_perVeh="0"/>
        <edge id=":1106006327_2" sampledSeconds="0.00" CO_abs="0" CO2_abs="0" HC_abs="0" PMx_abs="0" NOx_abs="0" fuel_abs="0" electricity_abs="0"
            CO_normed="0" CO2_normed="0" HC_normed="0" PMx_normed="0" NOx_normed="0" fuel_normed="0" electricity_normed="0"/>
        <edge id=":1106006327_3" sampledSeconds="0.00" CO_abs="0" CO2_abs="0" HC_abs="0" PMx_abs="0" NOx_abs="0" fuel_abs="0" electricity_abs="0"
            CO_normed="0" CO2_normed="0" HC_normed="0" PMx_normed="0" NOx_normed="0" fuel_normed="0" electricity_normed="0"/>
        <edge id=":1107381198_0" sampledSeconds="0.00" CO_abs="0" CO2_abs="0" HC_abs="0" PMx_abs="0" NOx_abs="0" fuel_abs="0" electricity_abs="0"
            CO_normed="0" CO2_normed="0" HC_normed="0" PMx_normed="0" NOx_normed="0" fuel_normed="0" electricity_normed="0"/>
        <edge id=":1107381198_1" sampledSeconds="105.21" CO_abs="4408.996257" CO2_abs="173041.629945" HC_abs="24.066933" PMx_abs="3.036426" NOx_abs="72.022593" fuel_abs="74.384575" electricity_abs="0"
            CO_normed="204.332860" CO2_normed="8019.533033" HC_normed="1.115371" PMx_normed="0.140722" NOx_normed="3.337853" fuel_normed="3.447318" electricity_normed="0"
            traveltime="1.58" CO_perVeh="66.011128" CO2_perVeh="2590.764999" HC_perVeh="0.360328" PMx_perVeh="0.045461" NOx_perVeh="1.078316" fuel_perVeh="1.113680" electricity_perVeh="0"/>
        <edge id=":1110338277_0" sampledSeconds="160.43" CO_abs="2710.683297" CO2_abs="319413.493081" HC_abs="19.670376" PMx_abs="4.499688" NOx_abs="120.372118" fuel_abs="137.302342" electricity_abs="0"
            CO_normed="4114.230007" CO2_normed="484800.485307" HC_normed="29.855369" PMx_normed="6.829552" NOx_normed="182.698798" fuel_normed="208.395211" electricity_normed="0"
            traveltime="0.02" CO_perVeh="0.367137" CO2_perVeh="43.261650" HC_perVeh="0.002664" PMx_perVeh="0.000609" NOx_perVeh="0.016303" fuel_perVeh="0.018596" electricity_perVeh="0"/>
        <edge id=":1110338293_0" sampledSeconds="6539.59" CO_abs="588405.072665" CO2_abs="10350655.737200" HC_abs="2921.273548" PMx_abs="246.115914" NOx_abs="4674.348441" fuel_abs="4449.571282" electricity_abs="0"
            CO_normed="833533.333960" CO2_normed="14662716.190107" HC_normed="4138.269694" PMx_normed="348.647264" NOx_normed="6621.671738" fuel_normed="6303.252908" electricity_normed="0"
            traveltime="0.44" CO_perVeh="39.348132" CO2_perVeh="692.174463" HC_perVeh="0.195353" PMx_perVeh="0.016458" NOx_perVeh="0.312585" fuel_perVeh="0.297554" electricity_perVeh="0"/>
        <edge id=":1110338295_0" sampledSeconds="0.00" CO_abs="0" CO2_abs="0" HC_abs="0" PMx_abs="0" NOx_abs="0" fuel_abs="0" electricity_abs="0"
            CO_normed="0" CO2_normed="0" HC_normed="0" PMx_normed="0" NOx_normed="0" fuel_normed="0" electricity_normed="0"/>
        <edge id=":1110673403_0" sampledSeconds="200.33" CO_abs="3116.541938" CO2_abs="378152.410907" HC_abs="22.890549" PMx_abs="5.263955" NOx_abs="141.912061" fuel_abs="162.551760" electricity_abs="0"
            CO_normed="4414.886466" CO2_normed="535689.874971" HC_normed="32.426702" PMx_normed="7.456906" NOx_normed="201.032314" fuel_normed="230.270466" electricity_normed="0"
            traveltime="0.02" CO_perVeh="0.360197" CO2_perVeh="43.705339" HC_perVeh="0.002646" PMx_perVeh="0.000608" NOx_perVeh="0.016402" fuel_perVeh="0.018787" electricity_perVeh="0"/>
        <edge id=":1110673412_0" sampledSeconds="940.20" CO_abs="167475.068782" CO2_abs="11414426.714236" HC_abs="1041.955507" PMx_abs="250.995572" NOx_abs="4906.971199" fuel_abs="4906.499708" electricity_abs="0"
            CO_normed="245425.670387" CO2_normed="16727226.021131" HC_normed="1526.929534" PMx_normed="367.820458" NOx_normed="7190.901337" fuel_normed="7190.210392" electricity_normed="0"
            traveltime="0.02" CO_perVeh="2.767595" CO2_perVeh="188.628169" HC_perVeh="0.017219" PMx_perVeh="0.004148" NOx_perVeh="0.081090" fuel_perVeh="0.081082" electricity_perVeh="0"/>
        <edge id=":1110673414_0" sampledSeconds="0.00" CO_abs="0" CO2_abs="0" HC_abs="0" PMx_abs="0" NOx_abs="0" fuel_abs="0" electricity_abs="0"
            CO_normed="0" CO2_normed="0" HC_normed="0" PMx_normed="0" NOx_normed="0" fuel_normed="0" electricity_normed="0"/>
        <edge id=":1110673414_1" sampledSeconds="298.08" CO_abs="21695.874295" CO2_abs="835110.614787" HC_abs="118.212822" PMx_abs="15.560028" NOx_abs="353.448161" fuel_abs="358.983967" electricity_abs="0"
            CO_normed="1021.074016" CO2_normed="39302.852599" HC_normed="5.563456" PMx_normed="0.732302" NOx_normed="16.634348" fuel_normed="16.894880" electricity_normed="0"
            traveltime="1.56" CO_perVeh="113.738023" CO2_perVeh="4377.967403" HC_perVeh="0.619717" PMx_perVeh="0.081572" NOx_perVeh="1.852910" fuel_perVeh="1.881930" electricity_perVeh="0"/>
        <edge id=":1110673417_0" sampledSeconds="28.95" CO_abs="462.761991" CO2_abs="55994.990357" HC_abs="3.366449" PMx_abs="0.749866" NOx_abs="20.835360" fuel_abs="24.069923" electricity_abs="0"
            CO_normed="702.372450" CO2_normed="84988.264704" HC_normed="5.109540" PMx_normed="1.138134" NOx_normed="31.623562" fuel_normed="36.532929" electricity_normed="0"
            traveltime="0.02" CO_perVeh="0.352878" CO2_perVeh="42.698868" HC_perVeh="0.002567" PMx_perVeh="0.000572" NOx_perVeh="0.015888" fuel_perVeh="0.018354" electricity_perVeh="0"/>
        <edge id=":1110673446_0" sampledSeconds="1313.61" CO_abs="14418.460596" CO2_abs="1163073.355794" HC_abs="93.180943" PMx_abs="21.205244" NOx_abs="475.289664" fuel_abs="499.951958" electricity_abs="0"
            CO_normed="20425.159621" CO2_normed="1647607.162027" HC_normed="131.999920" PMx_normed="30.039303" NOx_normed="673.294294" fuel_normed="708.230845" electricity_normed="0"
            traveltime="0.02" CO_perVeh="0.250384" CO2_perVeh="20.197400" HC_perVeh="0.001618" PMx_perVeh="0.000368" NOx_perVeh="0.008254" fuel_perVeh="0.008682" electricity_perVeh="0"/>
        <edge id=":1110673451_0" sampledSeconds="36.55" CO_abs="400.840237" CO2_abs="26869.496400" HC_abs="2.446547" PMx_abs="0.422672" NOx_abs="10.708455" fuel_abs="11.550110" electricity_abs="0"
            CO_normed="630.921555" CO2_normed="42292.521780" HC_normed="3.850859" PMx_normed="0.665285" NOx_normed="16.855081" fuel_normed="18.179845" electricity_normed="0"
            traveltime="0.03" CO_perVeh="0.295331" CO2_perVeh="19.796878" HC_perVeh="0.001803" PMx_perVeh="0.000311" NOx_perVeh="0.007890" fuel_perVeh="0.008510" electricity_perVeh="0"/>
        <edge id=":1110673464_0" sampledSeconds="1039.87" CO_abs="4022.204325" CO2_abs="307237.053574" HC_abs="25.288916" PMx_abs="4.193108" NOx_abs="117.534465" fuel_abs="132.069357" electricity_abs="0"
            CO_normed="121.059047" CO2_normed="9247.124692" HC_normed="0.761138" PMx_normed="0.126203" NOx_normed="3.537516" fuel_normed="3.974982" electricity_normed="0"
            traveltime="1.23" CO_perVeh="4.769773" CO2_perVeh="364.340295" HC_perVeh="0.029989" PMx_perVeh="0.004972" NOx_perVeh="0.139379" fuel_perVeh="0.156616" electricity_perVeh="0"/>
        <edge id=":1110673464_1" sampledSeconds="2605.34" CO_abs="65893.527932" CO2_abs="7851616.527041" HC_abs="487.665634" PMx_abs="141.312963" NOx_abs="2989.276358" fuel_abs="3375.047428" electricity_abs="0"
            CO_normed="1943.330194" CO2_normed="231559.668262" HC_normed="14.382222" PMx_normed="4.167598" NOx_normed="88.159660" fuel_normed="99.536810" electricity_normed="0"
            traveltime="0.72" CO_perVeh="18.164721" CO2_perVeh="2164.437512" HC_perVeh="0.134434" PMx_perVeh="0.038955" NOx_perVeh="0.824047" fuel_perVeh="0.930392" electricity_perVeh="0"/>
        <edge id=":1110673479_0" sampledSeconds="134.84" CO_abs="6264.710211" CO2_abs="433798.512481" HC_abs="38.720953" PMx_abs="7.605033" NOx_abs="177.462708" fuel_abs="186.471117" electricity_abs="0"
            CO_normed="8874.574729" CO2_normed="614518.020278" HC_normed="54.852018" PMx_normed="10.773274" NOx_normed="251.393283" fuel_normed="264.154574" electricity_normed="0"
            traveltime="0.03" CO_perVeh="1.324416" CO2_perVeh="91.708928" HC_perVeh="0.008186" PMx_perVeh="0.001608" NOx_perVeh="0.037517" fuel_perVeh="0.039422" electricity_perVeh="0"/>
        <edge id=":1110673511_0" sampledSeconds="63.40" CO_abs="1262.063679" CO2_abs="134134.895291" HC_abs="8.830972" PMx_abs="1.898658" NOx_abs="50.925601" fuel_abs="57.658976" electricity_abs="0"
            CO_normed="1787.836636" CO2_normed="190015.198146" HC_normed="12.509935" PMx_normed="2.689634" NOx_normed="72.141095" fuel_normed="81.679579" electricity_normed="0"
            traveltime="0.02" CO_perVeh="0.483704" CO2_perVeh="51.409094" HC_perVeh="0.003385" PMx_perVeh="0.000728" NOx_perVeh="0.019518" fuel_perVeh="0.022099" electricity_perVeh="0"/>
        <edge id=":1110673517_0" sampledSeconds="181.88" CO_abs="8446.749724" CO2_abs="602100.668802" HC_abs="52.600051" PMx_abs="10.425166" NOx_abs="245.154444" fuel_abs="258.816915" electricity_abs="0"
            CO_normed="11965.647112" CO2_normed="852934.485376" HC_normed="74.513117" PMx_normed="14.768268" NOx_normed="347.285247" fuel_normed="366.639473" electricity_normed="0"
            traveltime="0.03" CO_perVeh="1.293270" CO2_perVeh="92.186783" HC_perVeh="0.008054" PMx_perVeh="0.001596" NOx_perVeh="0.037535" fuel_perVeh="0.039627" electricity_perVeh="0"/>
        <edge id=":1110673534_0" sampledSeconds="656.74" CO_abs="5119.301492" CO2_abs="405458.439126" HC_abs="32.626476" PMx_abs="5.821786" NOx_abs="156.740336" fuel_abs="174.290372" electricity_abs="0"
            CO_normed="140.542466" CO2_normed="11131.231291" HC_normed="0.895709" PMx_normed="0.159828" NOx_normed="4.303062" fuel_normed="4.784871" electricity_normed="0"
            traveltime="1.44" CO_perVeh="11.256582" CO2_perVeh="891.542752" HC_perVeh="0.071741" PMx_perVeh="0.012801" NOx_perVeh="0.344649" fuel_perVeh="0.383239" electricity_perVeh="0"/>
        <edge id=":1110673534_1" sampledSeconds="264.32" CO_abs="4285.334872" CO2_abs="523473.607529" HC_abs="31.502424" PMx_abs="7.222549" NOx_abs="195.966637" fuel_abs="225.019281" electricity_abs="0"
            CO_normed="114.395653" CO2_normed="13973.961615" HC_normed="0.840947" PMx_normed="0.192804" NOx_normed="5.231267" fuel_normed="6.006818" electricity_normed="0"
            traveltime="1.23" CO_perVeh="19.882879" CO2_perVeh="2428.786214" HC_perVeh="0.146163" PMx_perVeh="0.033511" NOx_perVeh="0.909236" fuel_perVeh="1.044033" electricity_perVeh="0"/>
        <edge id=":1110673549_0" sampledSeconds="651.65" CO_abs="1655.773515" CO2_abs="151177.539878" HC_abs="11.046042" PMx_abs="2.241358" NOx_abs="58.125368" fuel_abs="64.984936" electricity_abs="0"
            CO_normed="44.034389" CO2_normed="4020.483812" HC_normed="0.293763" PMx_normed="0.059608" NOx_normed="1.545812" fuel_normed="1.728239" electricity_normed="0"
            traveltime="1.29" CO_perVeh="3.289627" CO2_perVeh="300.353724" HC_perVeh="0.021946" PMx_perVeh="0.004453" NOx_perVeh="0.115481" fuel_perVeh="0.129110" electricity_perVeh="0"/>
        <edge id=":1110673549_1" sampledSeconds="3197.31" CO_abs="72924.049664" CO2_abs="9396170.908458" HC_abs="556.705322" PMx_abs="166.220462" NOx_abs="3522.614889" fuel_abs="4038.983129" electricity_abs="0"
            CO_normed="1875.981513" CO2_normed="241717.828284" HC_normed="14.321323" PMx_normed="4.276045" NOx_normed="90.619767" fuel_normed="103.903413" electricity_normed="0"
            traveltime="0.81" CO_perVeh="18.390154" CO2_perVeh="2369.547866" HC_perVeh="0.140391" PMx_perVeh="0.041918" NOx_perVeh="0.888341" fuel_perVeh="1.018560" electricity_perVeh="0"/>
        <edge id=":1110673556_0" sampledSeconds="462.93" CO_abs="56680.748989" CO2_abs="2734601.353772" HC_abs="323.045202" PMx_abs="55.227574" NOx_abs="1178.959256" fuel_abs="1175.488410" electricity_abs="0"
            CO_normed="1117.779460" CO2_normed="53928.031647" HC_normed="6.370651" PMx_normed="1.089122" NOx_normed="23.249806" fuel_normed="23.181359" electricity_normed="0"
            traveltime="2.73" CO_perVeh="334.127565" CO2_perVeh="16120.212045" HC_perVeh="1.904320" PMx_perVeh="0.325561" NOx_perVeh="6.949851" fuel_perVeh="6.929391" electricity_perVeh="0"/>
        <edge id=":1110673556_2" sampledSeconds="173.86" CO_abs="16999.306980" CO2_abs="733372.808439" HC_abs="94.613530" PMx_abs="14.064252" NOx_abs="312.145727" fuel_abs="315.248267" electricity_abs="0"
            CO_normed="350.526651" CO2_normed="15122.187921" HC_normed="1.950936" PMx_normed="0.290006" NOx_normed="6.436462" fuel_normed="6.500437" electricity_normed="0"
            traveltime="3.01" CO_perVeh="293.942309" CO2_perVeh="12681.063815" HC_perVeh="1.636003" PMx_perVeh="0.243191" NOx_perVeh="5.397446" fuel_perVeh="5.451093" electricity_perVeh="0"/>
        <edge id=":1110673556_3" sampledSeconds="197.37" CO_abs="20973.266282" CO2_abs="711389.560770" HC_abs="112.154140" PMx_abs="14.230737" NOx_abs="307.602103" fuel_abs="305.801362" electricity_abs="0"
            CO_normed="983.797449" CO2_normed="33369.300986" HC_normed="5.260838" PMx_normed="0.667524" NOx_normed="14.428757" fuel_normed="14.344289" electricity_normed="0"
            traveltime="1.90" CO_perVeh="202.344627" CO2_perVeh="6863.301764" HC_perVeh="1.082034" PMx_perVeh="0.137294" NOx_perVeh="2.967665" fuel_perVeh="2.950292" electricity_perVeh="0"/>
        <edge id=":1110673556_4" sampledSeconds="21.45" CO_abs="2402.139046" CO2_abs="99518.492163" HC_abs="13.283990" PMx_abs="1.982679" NOx_abs="42.873890" fuel_abs="42.779069" electricity_abs="0"
            CO_normed="68.837456" CO2_normed="2851.874797" HC_normed="0.380676" PMx_normed="0.056817" NOx_normed="1.228626" fuel_normed="1.225908" electricity_normed="0"
            traveltime="2.32" CO_perVeh="259.913338" CO2_perVeh="10767.979270" HC_perVeh="1.437338" PMx_perVeh="0.214527" NOx_perVeh="4.638989" fuel_perVeh="4.628729" electricity_perVeh="0"/>
        <edge id=":1110673556_5" sampledSeconds="22.20" CO_abs="1061.693715" CO2_abs="48856.017173" HC_abs="5.968997" PMx_abs="0.865087" NOx_abs="20.333067" fuel_abs="21.001339" electricity_abs="0"
            CO_normed="42.405817" CO2_normed="1951.390789" HC_normed="0.238412" PMx_normed="0.034553" NOx_normed="0.812137" fuel_normed="0.838828" electricity_normed="0"
            traveltime="1.53" CO_perVeh="73.401047" CO2_perVeh="3377.699953" HC_perVeh="0.412671" PMx_perVeh="0.059808" NOx_perVeh="1.405743" fuel_perVeh="1.451944" electricity_perVeh="0"/>
        <edge id=":1110673556_6" sampledSeconds="216.61" CO_abs="26357.118142" CO2_abs="1321611.264226" HC_abs="151.443373" PMx_abs="26.681358" NOx_abs="569.264745" fuel_abs="568.103452" electricity_abs="0"
            CO_normed="532.884429" CO2_normed="26720.146741" HC_normed="3.061860" PMx_normed="0.539440" NOx_normed="11.509313" fuel_normed="11.485834" electricity_normed="0"
            traveltime="2.52" CO_perVeh="307.127126" CO2_perVeh="15400.115735" HC_perVeh="1.764699" PMx_perVeh="0.310905" NOx_perVeh="6.633375" fuel_perVeh="6.619843" electricity_perVeh="0"/>
        <edge id=":1110673561_0" sampledSeconds="102.45" CO_abs="9419.910725" CO2_abs="681939.821025" HC_abs="59.301497" PMx_abs="13.680881" NOx_abs="287.671285" fuel_abs="293.133527" electricity_abs="0"
            CO_normed="239.286758" CO2_normed="17322.793541" HC_normed="1.506390" PMx_normed="0.347525" NOx_normed="7.307493" fuel_normed="7.446246" electricity_normed="0"
            traveltime="1.21" CO_perVeh="111.164090" CO2_perVeh="8047.551779" HC_perVeh="0.699815" PMx_perVeh="0.161448" NOx_perVeh="3.394800" fuel_perVeh="3.459260" electricity_perVeh="0"/>
        <edge id=":1110673561_1" sampledSeconds="5198.89" CO_abs="480300.644087" CO2_abs="33310544.026175" HC_abs="2992.639793" PMx_abs="695.251076" NOx_abs="14235.411601" fuel_abs="14318.595146" electricity_abs="0"
            CO_normed="11894.979682" CO2_normed="824958.802913" HC_normed="74.114807" PMx_normed="17.218377" NOx_normed="352.549874" fuel_normed="354.609973" electricity_normed="0"
            traveltime="1.19" CO_perVeh="110.279397" CO2_perVeh="7648.265239" HC_perVeh="0.687125" PMx_perVeh="0.159633" NOx_perVeh="3.268521" fuel_perVeh="3.287620" electricity_perVeh="0"/>
        <edge id=":1110673562_0" sampledSeconds="300.15" CO_abs="7046.765179" CO2_abs="539771.310257" HC_abs="44.415293" PMx_abs="7.439962" NOx_abs="207.111769" fuel_abs="232.026731" electricity_abs="0"
            CO_normed="11091.591200" CO2_normed="849598.725466" HC_normed="69.909563" PMx_normed="11.710482" NOx_normed="325.993419" fuel_normed="365.209508" electricity_normed="0"
            traveltime="0.03" CO_perVeh="0.631682" CO2_perVeh="48.385874" HC_perVeh="0.003981" PMx_perVeh="0.000667" NOx_perVeh="0.018566" fuel_perVeh="0.020799" electricity_perVeh="0"/>
        <edge id=":1110673564_0" sampledSeconds="27.74" CO_abs="650.912525" CO2_abs="66573.782643" HC_abs="4.514645" PMx_abs="1.004077" NOx_abs="25.647883" fuel_abs="28.617213" electricity_abs="0"
            CO_normed="2766.243763" CO2_normed="282924.822944" HC_normed="19.186308" PMx_normed="4.267119" NOx_normed="108.998204" fuel_normed="121.617244" electricity_normed="0"
            traveltime="7.833855e-03" CO_perVeh="0.183848" CO2_perVeh="18.803497" HC_perVeh="0.001275" PMx_perVeh="0.000284" NOx_perVeh="0.007244" fuel_perVeh="0.008083" electricity_perVeh="0"/>
        <edge id=":1110673588_0" sampledSeconds="62.96" CO_abs="1158.634974" CO2_abs="124273.120977" HC_abs="8.124556" PMx_abs="1.764558" NOx_abs="47.166266" fuel_abs="53.419798" electricity_abs="0"
            CO_normed="1969.583712" CO2_normed="211254.036367" HC_normed="13.811074" PMx_normed="2.999603" NOx_normed="80.178755" fuel_normed="90.809242" electricity_normed="0"
            traveltime="0.02" CO_perVeh="0.373753" CO2_perVeh="40.088104" HC_perVeh="0.002621" PMx_perVeh="0.000569" NOx_perVeh="0.015215" fuel_perVeh="0.017232" electricity_perVeh="0"/>
        <edge id=":1110673601_0" sampledSeconds="28.89" CO_abs="627.452321" CO2_abs="67279.939718" HC_abs="4.392659" PMx_abs="0.987893" NOx_abs="25.688367" fuel_abs="28.920776" electricity_abs="0"
            CO_normed="952.336692" CO2_normed="102116.373081" HC_normed="6.667105" PMx_normed="1.499407" NOx_normed="38.989375" fuel_normed="43.895472" electricity_normed="0"
            traveltime="0.02" CO_perVeh="0.478463" CO2_perVeh="51.304183" HC_perVeh="0.003350" PMx_perVeh="0.000753" NOx_perVeh="0.019589" fuel_perVeh="0.022053" electricity_perVeh="0"/>
        <edge id=":1110673617_0" sampledSeconds="854.50" CO_abs="33566.593436" CO2_abs="3329261.936264" HC_abs="232.664435" PMx_abs="63.195398" NOx_abs="1311.001245" fuel_abs="1431.093502" electricity_abs="0"
            CO_normed="47550.362558" CO2_normed="4716225.148763" HC_normed="329.591928" PMx_normed="89.522462" NOx_normed="1857.161485" fuel_normed="2027.283912" electricity_normed="0"
            traveltime="0.02" CO_perVeh="0.595187" CO2_perVeh="59.032923" HC_perVeh="0.004125" PMx_perVeh="0.001121" NOx_perVeh="0.023246" fuel_perVeh="0.025375" electricity_perVeh="0"/>
        <edge id=":1110673621_0" sampledSeconds="26.09" CO_abs="641.844303" CO2_abs="63635.822667" HC_abs="4.397985" PMx_abs="0.967211" NOx_abs="24.628584" fuel_abs="27.354308" electricity_abs="0"
            CO_normed="1091.082277" CO2_normed="108175.639996" HC_normed="7.476210" PMx_normed="1.644179" NOx_normed="41.866558" fuel_normed="46.500063" electricity_normed="0"
            traveltime="0.02" CO_perVeh="0.486246" CO2_perVeh="48.208957" HC_perVeh="0.003332" PMx_perVeh="0.000733" NOx_perVeh="0.018658" fuel_perVeh="0.020723" electricity_perVeh="0"/>
        <edge id=":1110673630_0" sampledSeconds="286.53" CO_abs="1545.432921" CO2_abs="141499.913004" HC_abs="10.259820" PMx_abs="1.823082" NOx_abs="53.054743" fuel_abs="60.825299" electricity_abs="0"
            CO_normed="46.845725" CO2_normed="4289.196849" HC_normed="0.310999" PMx_normed="0.055262" NOx_normed="1.608215" fuel_normed="1.843759" electricity_normed="0"
            traveltime="1.29" CO_perVeh="6.953858" CO2_perVeh="636.695567" HC_perVeh="0.046165" PMx_perVeh="0.008203" NOx_perVeh="0.238726" fuel_perVeh="0.273691" electricity_perVeh="0"/>
        <edge id=":1110673630_1" sampledSeconds="337.05" CO_abs="909.041129" CO2_abs="81190.323309" HC_abs="5.980283" PMx_abs="1.012809" NOx_abs="30.272652" fuel_abs="34.900621" electricity_abs="0"
            CO_normed="33.593365" CO2_normed="3000.366097" HC_normed="0.221000" PMx_normed="0.037428" NOx_normed="1.118718" fuel_normed="1.289743" electricity_normed="0"
            traveltime="1.07" CO_perVeh="2.897844" CO2_perVeh="258.818771" HC_perVeh="0.019064" PMx_perVeh="0.003229" NOx_perVeh="0.096503" fuel_perVeh="0.111256" electricity_perVeh="0"/>
        <edge id=":1110673650_0" sampledSeconds="200.06" CO_abs="3208.253289" CO2_abs="394400.166306" HC_abs="23.626702" PMx_abs="5.458916" NOx_abs="147.736924" fuel_abs="169.535994" electricity_abs="0"
            CO_normed="4544.804565" CO2_normed="558706.409593" HC_normed="33.469535" PMx_normed="7.733089" NOx_normed="209.283803" fuel_normed="240.164316" electricity_normed="0"
            traveltime="0.02" CO_perVeh="0.370796" CO2_perVeh="45.583099" HC_perVeh="0.002731" PMx_perVeh="0.000631" NOx_perVeh="0.017075" fuel_perVeh="0.019594" electricity_perVeh="0"/>
        <edge id=":1110673655_0" sampledSeconds="20.70" CO_abs="326.145661" CO2_abs="37008.421752" HC_abs="2.325998" PMx_abs="0.506663" NOx_abs="13.894659" fuel_abs="15.908382" electricity_abs="0"
            CO_normed="462.017227" CO2_normed="52426.048993" HC_normed="3.295004" PMx_normed="0.717738" NOx_normed="19.683143" fuel_normed="22.535779" electricity_normed="0"
            traveltime="0.02" CO_perVeh="0.372596" CO2_perVeh="42.279233" HC_perVeh="0.002657" PMx_perVeh="0.000579" NOx_perVeh="0.015874" fuel_perVeh="0.018174" electricity_perVeh="0"/>
        <edge id=":1110673663_0" sampledSeconds="111.42" CO_abs="1911.580364" CO2_abs="222099.784710" HC_abs="13.779102" PMx_abs="2.979923" NOx_abs="82.923185" fuel_abs="95.471531" electricity_abs="0"
            CO_normed="49.595981" CO2_normed="5762.382186" HC_normed="0.357499" PMx_normed="0.077314" NOx_normed="2.151443" fuel_normed="2.477010" electricity_normed="0"
            traveltime="1.31" CO_perVeh="22.452413" CO2_perVeh="2608.666748" HC_perVeh="0.161842" PMx_perVeh="0.035001" NOx_perVeh="0.973972" fuel_perVeh="1.121358" electricity_perVeh="0"/>
        <edge id=":1110673663_1" sampledSeconds="170.32" CO_abs="2223.685778" CO2_abs="289453.717151" HC_abs="16.751384" PMx_abs="3.857121" NOx_abs="107.275116" fuel_abs="124.424083" electricity_abs="0"
            CO_normed="57.764090" CO2_normed="7519.061739" HC_normed="0.435146" PMx_normed="0.100195" NOx_normed="2.786657" fuel_normed="3.232131" electricity_normed="0"
            traveltime="1.27" CO_perVeh="16.599085" CO2_perVeh="2160.677021" HC_perVeh="0.125044" PMx_perVeh="0.028792" NOx_perVeh="0.800774" fuel_perVeh="0.928785" electricity_perVeh="0"/>
        <edge id=":1110673666_0" sampledSeconds="273.43" CO_abs="6721.007694" CO2_abs="516332.853258" HC_abs="42.437775" PMx_abs="7.348130" NOx_abs="199.524733" fuel_abs="221.951086" electricity_abs="0"