<?xml version="1.0" encoding="UTF-8"?>

<!-- generated on Tue Nov 10 11:43:57 2020 by Eclipse SUMO sumo Version 1.7.0
<configuration xmlns:xsi="http://www.w3.org/2001/XMLSchema-instance" xsi:noNamespaceSchemaLocation="http://sumo.dlr.de/xsd/sumoConfiguration.xsd">

    <input>
        <net-file value="../dataSets/Porto/8AM9AM_Routing_SaoBento/Porto.net.xml"/>
        <route-files value="../results/Porto/8AM9AM_Routing_SaoBento/inputdata/cost_PMx-length/solution4/Porto.rou.xml"/>
        <additional-files value="moreOutputInfo.xml"/>
    </input>

    <output>
        <emission-output.precision value="6"/>
        <tripinfo-output value="../results/Porto/8AM9AM_Routing_SaoBento/inputdata/cost_PMx-length/solution4/Porto-tripinfo"/>
    </output>

    <processing>
        <collision.action value="warn"/>
        <time-to-teleport value="-1"/>
    </processing>

    <emissions>
        <device.emissions.probability value="1"/>
    </emissions>

    <gui_only>
        <quit-on-end value="true"/>
        <start value="true"/>
    </gui_only>

</configuration>
-->

<meandata xmlns:xsi="http://www.w3.org/2001/XMLSchema-instance" xsi:noNamespaceSchemaLocation="http://sumo.dlr.de/xsd/meandata_file.xsd">
    <interval begin="0.00" end="8560.00" id="emissions-detector">
        <edge id=":1092997347_0" sampledSeconds="593.38" CO_abs="72496.231067" CO2_abs="3099336.361832" HC_abs="403.430540" PMx_abs="62.710454" NOx_abs="1341.145236" fuel_abs="1332.278872" electricity_abs="0"
            CO_normed="69293.338955" CO2_normed="2962407.312711" HC_normed="385.606931" PMx_normed="59.939899" NOx_normed="1281.893280" fuel_normed="1273.418633" electricity_normed="0"
            traveltime="0.07" CO_perVeh="8.310912" CO2_perVeh="355.305533" HC_perVeh="0.046249" PMx_perVeh="0.007189" NOx_perVeh="0.153748" fuel_perVeh="0.152731" electricity_perVeh="0"/>
        <edge id=":1103427051_0" sampledSeconds="19.38" CO_abs="1598.159606" CO2_abs="89196.529415" HC_abs="9.393628" PMx_abs="1.746956" NOx_abs="38.054141" fuel_abs="38.341655" electricity_abs="0"
            CO_normed="2317.666203" CO2_normed="129353.652068" HC_normed="13.622729" PMx_normed="2.533451" NOx_normed="55.186476" fuel_normed="55.603431" electricity_normed="0"
            traveltime="0.03" CO_perVeh="2.485340" CO2_perVeh="138.711892" HC_perVeh="0.014608" PMx_perVeh="0.002717" NOx_perVeh="0.059179" fuel_perVeh="0.059626" electricity_perVeh="0"/>
        <edge id=":1105984386_0" sampledSeconds="10.49" CO_abs="225.123245" CO2_abs="15447.750431" HC_abs="1.377570" PMx_abs="0.217098" NOx_abs="5.982640" fuel_abs="6.640399" electricity_abs="0"
            CO_normed="9.750566" CO2_normed="669.074920" HC_normed="0.059665" PMx_normed="0.009403" NOx_normed="0.259121" fuel_normed="0.287610" electricity_normed="0"
            traveltime="1.01" CO_perVeh="21.595996" CO2_perVeh="1481.897418" HC_perVeh="0.132150" PMx_perVeh="0.020826" NOx_perVeh="0.573913" fuel_perVeh="0.637011" electricity_perVeh="0"/>
        <edge id=":1105984390_0" sampledSeconds="10.55" CO_abs="0" CO2_abs="0" HC_abs="0" PMx_abs="0" NOx_abs="0" fuel_abs="0" electricity_abs="0"
            CO_normed="0" CO2_normed="0" HC_normed="0" PMx_normed="0" NOx_normed="0" fuel_normed="0" electricity_normed="0"
            traveltime="1.09" CO_perVeh="0" CO2_perVeh="0" HC_perVeh="0" PMx_perVeh="0" NOx_perVeh="0" fuel_perVeh="0" electricity_perVeh="0"/>
        <edge id=":1105984390_1" sampledSeconds="2393.22" CO_abs="61833.369230" CO2_abs="7473134.182900" HC_abs="460.112072" PMx_abs="134.317934" NOx_abs="2835.580258" fuel_abs="3212.355717" electricity_abs="0"
            CO_normed="1980.555064" CO2_normed="239368.385328" HC_normed="14.737630" PMx_normed="4.302273" NOx_normed="90.825115" fuel_normed="102.893429" electricity_normed="0"
            traveltime="0.65" CO_perVeh="16.696078" CO2_perVeh="2017.875348" HC_perVeh="0.124238" PMx_perVeh="0.036268" NOx_perVeh="0.765656" fuel_perVeh="0.867392" electricity_perVeh="0"/>
        <edge id=":1105984395_0" sampledSeconds="4.17" CO_abs="65.149904" CO2_abs="4714.233538" HC_abs="0.403616" PMx_abs="0.062275" NOx_abs="1.796727" fuel_abs="2.026473" electricity_abs="0"
            CO_normed="29.782057" CO2_normed="2155.023458" HC_normed="0.184506" PMx_normed="0.028468" NOx_normed="0.821340" fuel_normed="0.926364" electricity_normed="0"
            traveltime="0.10" CO_perVeh="1.510151" CO2_perVeh="109.274247" HC_perVeh="0.009356" PMx_perVeh="0.001444" NOx_perVeh="0.041647" fuel_perVeh="0.046973" electricity_perVeh="0"/>
        <edge id=":1105984398_0" sampledSeconds="10.82" CO_abs="780.226473" CO2_abs="51482.174534" HC_abs="4.763988" PMx_abs="0.919025" NOx_abs="21.217734" fuel_abs="22.129949" electricity_abs="0"
            CO_normed="27.140830" CO2_normed="1790.850439" HC_normed="0.165719" PMx_normed="0.031969" NOx_normed="0.738077" fuel_normed="0.769809" electricity_normed="0"
            traveltime="1.14" CO_perVeh="82.515901" CO2_perVeh="5444.698635" HC_perVeh="0.503834" PMx_perVeh="0.097195" NOx_perVeh="2.243964" fuel_perVeh="2.340439" electricity_perVeh="0"/>
        <edge id=":1105984398_1" sampledSeconds="646.50" CO_abs="11981.453688" CO2_abs="1389868.221567" HC_abs="86.465416" PMx_abs="20.118586" NOx_abs="526.914799" fuel_abs="597.444883" electricity_abs="0"
            CO_normed="403.437079" CO2_normed="46799.360962" HC_normed="2.911446" PMx_normed="0.677429" NOx_normed="17.742168" fuel_normed="20.117043" electricity_normed="0"
            traveltime="0.95" CO_perVeh="17.682677" CO2_perVeh="2051.219445" HC_perVeh="0.127609" PMx_perVeh="0.029692" NOx_perVeh="0.777641" fuel_perVeh="0.881731" electricity_perVeh="0"/>
        <edge id=":1106006327_0" sampledSeconds="259.59" CO_abs="34884.832848" CO2_abs="1134197.264477" HC_abs="185.543061" PMx_abs="23.655192" NOx_abs="496.457004" fuel_abs="487.551312" electricity_abs="0"
            CO_normed="1655.890675" CO2_normed="53837.341935" HC_normed="8.807238" PMx_normed="1.122849" NOx_normed="23.565500" fuel_normed="23.142770" electricity_normed="0"
            traveltime="2.09" CO_perVeh="280.367213" CO2_perVeh="9115.472250" HC_perVeh="1.491198" PMx_perVeh="0.190115" NOx_perVeh="3.989994" fuel_perVeh="3.918419" electricity_perVeh="0"/>
        <edge id=":1106006327_1" sampledSeconds="687.33" CO_abs="92692.497154" CO2_abs="3079987.390030" HC_abs="494.622652" PMx_abs="64.179650" NOx_abs="1347.517239" fuel_abs="1323.976077" electricity_abs="0"
            CO_normed="3836.892314" CO2_normed="127492.303105" HC_normed="20.474298" PMx_normed="2.656638" NOx_normed="55.778825" fuel_normed="54.804367" electricity_normed="0"
            traveltime="2.31" CO_perVeh="311.146277" CO2_perVeh="10338.772168" HC_perVeh="1.660329" PMx_perVeh="0.215436" NOx_perVeh="4.523289" fuel_perVeh="4.444267" electricity_perVeh="0"/>
        <edge id=":1106006327_2" sampledSeconds="0.00" CO_abs="0" CO2_abs="0" HC_abs="0" PMx_abs="0" NOx_abs="0" fuel_abs="0" electricity_abs="0"
            CO_normed="0" CO2_normed="0" HC_normed="0" PMx_normed="0" NOx_normed="0" fuel_normed="0" electricity_normed="0"/>
        <edge id=":1106006327_3" sampledSeconds="0.00" CO_abs="0" CO2_abs="0" HC_abs="0" PMx_abs="0" NOx_abs="0" fuel_abs="0" electricity_abs="0"
            CO_normed="0" CO2_normed="0" HC_normed="0" PMx_normed="0" NOx_normed="0" fuel_normed="0" electricity_normed="0"/>
        <edge id=":1107381198_0" sampledSeconds="0.00" CO_abs="0" CO2_abs="0" HC_abs="0" PMx_abs="0" NOx_abs="0" fuel_abs="0" electricity_abs="0"
            CO_normed="0" CO2_normed="0" HC_normed="0" PMx_normed="0" NOx_normed="0" fuel_normed="0" electricity_normed="0"/>
        <edge id=":1107381198_1" sampledSeconds="103.36" CO_abs="4369.962149" CO2_abs="175729.235646" HC_abs="23.963116" PMx_abs="3.127031" NOx_abs="73.403794" fuel_abs="75.539727" electricity_abs="0"
            CO_normed="200.418162" CO2_normed="8059.413166" HC_normed="1.099013" PMx_normed="0.143414" NOx_normed="3.366494" fuel_normed="3.464454" electricity_normed="0"
            traveltime="1.55" CO_perVeh="65.426713" CO2_perVeh="2631.003610" HC_perVeh="0.358774" PMx_perVeh="0.046818" NOx_perVeh="1.098996" fuel_perVeh="1.130975" electricity_perVeh="0"/>
        <edge id=":1110338277_0" sampledSeconds="160.64" CO_abs="2327.200389" CO2_abs="285851.086571" HC_abs="17.152777" PMx_abs="3.906617" NOx_abs="106.827500" fuel_abs="122.875399" electricity_abs="0"
            CO_normed="3495.461199" CO2_normed="429349.095317" HC_normed="25.763516" PMx_normed="5.867749" NOx_normed="160.455191" fuel_normed="184.559178" electricity_normed="0"
            traveltime="0.02" CO_perVeh="0.315197" CO2_perVeh="38.715785" HC_perVeh="0.002323" PMx_perVeh="0.000529" NOx_perVeh="0.014469" fuel_perVeh="0.016642" electricity_perVeh="0"/>
        <edge id=":1110338293_0" sampledSeconds="6660.98" CO_abs="634770.947856" CO2_abs="11078568.883257" HC_abs="3149.536840" PMx_abs="264.726812" NOx_abs="5010.114724" fuel_abs="4762.491212" electricity_abs="0"
            CO_normed="889865.814751" CO2_normed="15530704.041949" HC_normed="4415.238561" PMx_normed="371.112353" NOx_normed="7023.525314" fuel_normed="6676.389550" electricity_normed="0"
            traveltime="0.45" CO_perVeh="42.498550" CO2_perVeh="741.721277" HC_perVeh="0.210865" PMx_perVeh="0.017724" NOx_perVeh="0.335432" fuel_perVeh="0.318854" electricity_perVeh="0"/>
        <edge id=":1110338295_0" sampledSeconds="0.00" CO_abs="0" CO2_abs="0" HC_abs="0" PMx_abs="0" NOx_abs="0" fuel_abs="0" electricity_abs="0"
            CO_normed="0" CO2_normed="0" HC_normed="0" PMx_normed="0" NOx_normed="0" fuel_normed="0" electricity_normed="0"/>
        <edge id=":1110673403_0" sampledSeconds="200.42" CO_abs="3073.884587" CO2_abs="392044.797299" HC_abs="22.981709" PMx_abs="5.269898" NOx_abs="145.750187" fuel_abs="168.523679" electricity_abs="0"
            CO_normed="4309.184001" CO2_normed="549595.510232" HC_normed="32.217348" PMx_normed="7.387707" NOx_normed="204.322692" fuel_normed="236.248148" electricity_normed="0"
            traveltime="0.02" CO_perVeh="0.355267" CO2_perVeh="45.310875" HC_perVeh="0.002656" PMx_perVeh="0.000609" NOx_perVeh="0.016845" fuel_perVeh="0.019477" electricity_perVeh="0"/>
        <edge id=":1110673412_0" sampledSeconds="941.05" CO_abs="166582.577731" CO2_abs="11379514.834213" HC_abs="1036.931645" PMx_abs="249.945170" NOx_abs="4888.714689" fuel_abs="4891.493049" electricity_abs="0"
            CO_normed="241579.632545" CO2_normed="16502680.230087" HC_normed="1503.768096" PMx_normed="362.472854" NOx_normed="7089.660361" fuel_normed="7093.689565" electricity_normed="0"
            traveltime="0.02" CO_perVeh="2.748044" CO2_perVeh="187.723170" HC_perVeh="0.017106" PMx_perVeh="0.004123" NOx_perVeh="0.080647" fuel_perVeh="0.080693" electricity_perVeh="0"/>
        <edge id=":1110673414_0" sampledSeconds="0.00" CO_abs="0" CO2_abs="0" HC_abs="0" PMx_abs="0" NOx_abs="0" fuel_abs="0" electricity_abs="0"
            CO_normed="0" CO2_normed="0" HC_normed="0" PMx_normed="0" NOx_normed="0" fuel_normed="0" electricity_normed="0"/>
        <edge id=":1110673414_1" sampledSeconds="239.27" CO_abs="15969.671710" CO2_abs="626936.813898" HC_abs="87.289304" PMx_abs="11.586682" NOx_abs="264.704626" fuel_abs="269.497425" electricity_abs="0"
            CO_normed="743.767118" CO2_normed="29198.783521" HC_normed="4.065388" PMx_normed="0.539635" NOx_normed="12.328281" fuel_normed="12.551499" electricity_normed="0"
            traveltime="1.55" CO_perVeh="103.612737" CO2_perVeh="4067.625221" HC_perVeh="0.566341" PMx_perVeh="0.075175" NOx_perVeh="1.717429" fuel_perVeh="1.748525" electricity_perVeh="0"/>
        <edge id=":1110673417_0" sampledSeconds="29.13" CO_abs="499.764158" CO2_abs="56047.589436" HC_abs="3.566384" PMx_abs="0.821152" NOx_abs="21.348210" fuel_abs="24.092457" electricity_abs="0"
            CO_normed="750.647100" CO2_normed="84183.628993" HC_normed="5.356718" PMx_normed="1.233373" NOx_normed="32.065069" fuel_normed="36.186934" electricity_normed="0"
            traveltime="0.02" CO_perVeh="0.381094" CO2_perVeh="42.738977" HC_perVeh="0.002720" PMx_perVeh="0.000626" NOx_perVeh="0.016279" fuel_perVeh="0.018372" electricity_perVeh="0"/>
        <edge id=":1110673446_0" sampledSeconds="1312.02" CO_abs="13209.238219" CO2_abs="1090449.482090" HC_abs="85.927768" PMx_abs="19.632912" NOx_abs="443.506227" fuel_abs="468.734449" electricity_abs="0"
            CO_normed="18517.623671" CO2_normed="1528667.498257" HC_normed="120.459487" PMx_normed="27.522774" NOx_normed="621.737701" fuel_normed="657.104367" electricity_normed="0"
            traveltime="0.02" CO_perVeh="0.229198" CO2_perVeh="18.920790" HC_perVeh="0.001491" PMx_perVeh="0.000341" NOx_perVeh="0.007695" fuel_perVeh="0.008133" electricity_perVeh="0"/>
        <edge id=":1110673451_0" sampledSeconds="36.63" CO_abs="366.908773" CO2_abs="23109.497401" HC_abs="2.194606" PMx_abs="0.313359" NOx_abs="8.894577" fuel_abs="9.933933" electricity_abs="0"
            CO_normed="571.508992" CO2_normed="35996.101870" HC_normed="3.418389" PMx_normed="0.488098" NOx_normed="13.854481" fuel_normed="15.473416" electricity_normed="0"
            traveltime="0.03" CO_perVeh="0.270331" CO2_perVeh="17.026590" HC_perVeh="0.001617" PMx_perVeh="0.000231" NOx_perVeh="0.006553" fuel_perVeh="0.007319" electricity_perVeh="0"/>
        <edge id=":1110673464_0" sampledSeconds="1038.14" CO_abs="4016.737844" CO2_abs="285016.924183" HC_abs="24.770108" PMx_abs="4.044821" NOx_abs="110.264381" fuel_abs="122.517762" electricity_abs="0"
            CO_normed="119.637555" CO2_normed="8489.159400" HC_normed="0.737772" PMx_normed="0.120474" NOx_normed="3.284198" fuel_normed="3.649162" electricity_normed="0"
            traveltime="1.23" CO_perVeh="4.763291" CO2_perVeh="337.990344" HC_perVeh="0.029374" PMx_perVeh="0.004797" NOx_perVeh="0.130758" fuel_perVeh="0.145289" electricity_perVeh="0"/>
        <edge id=":1110673464_1" sampledSeconds="2602.35" CO_abs="60803.571391" CO2_abs="7561498.371298" HC_abs="456.883020" PMx_abs="134.290615" NOx_abs="2857.702571" fuel_abs="3250.340392" electricity_abs="0"
            CO_normed="1774.572897" CO2_normed="220684.899965" HC_normed="13.334286" PMx_normed="3.919317" NOx_normed="83.403021" fuel_normed="94.862289" electricity_normed="0"
            traveltime="0.72" CO_perVeh="16.757970" CO2_perVeh="2084.011885" HC_perVeh="0.125921" PMx_perVeh="0.037012" NOx_perVeh="0.787607" fuel_perVeh="0.895821" electricity_perVeh="0"/>
        <edge id=":1110673479_0" sampledSeconds="134.40" CO_abs="6461.921284" CO2_abs="446716.097868" HC_abs="39.942781" PMx_abs="7.935845" NOx_abs="183.427796" fuel_abs="192.023674" electricity_abs="0"
            CO_normed="9058.768155" CO2_normed="626237.520376" HC_normed="55.994553" PMx_normed="11.125017" NOx_normed="257.141769" fuel_normed="269.192066" electricity_normed="0"
            traveltime="0.03" CO_perVeh="1.366109" CO2_perVeh="94.439822" HC_perVeh="0.008444" PMx_perVeh="0.001678" NOx_perVeh="0.038778" fuel_perVeh="0.040596" electricity_perVeh="0"/>
        <edge id=":1110673511_0" sampledSeconds="63.25" CO_abs="1312.288268" CO2_abs="133141.960348" HC_abs="9.045933" PMx_abs="1.945530" NOx_abs="51.007494" fuel_abs="57.232106" electricity_abs="0"
            CO_normed="1839.656451" CO2_normed="186647.607965" HC_normed="12.681214" PMx_normed="2.727378" NOx_normed="71.505833" fuel_normed="80.231925" electricity_normed="0"
            traveltime="0.02" CO_perVeh="0.502953" CO2_perVeh="51.028538" HC_perVeh="0.003467" PMx_perVeh="0.000746" NOx_perVeh="0.019549" fuel_perVeh="0.021935" electricity_perVeh="0"/>
        <edge id=":1110673517_0" sampledSeconds="183.28" CO_abs="7855.249862" CO2_abs="556395.954722" HC_abs="48.834586" PMx_abs="9.650792" NOx_abs="226.697698" fuel_abs="239.170456" electricity_abs="0"
            CO_normed="11012.032517" CO2_normed="779994.329050" HC_normed="68.459700" PMx_normed="13.529148" NOx_normed="317.800511" fuel_normed="335.285686" electricity_normed="0"
            traveltime="0.03" CO_perVeh="1.202702" CO2_perVeh="85.188724" HC_perVeh="0.007477" PMx_perVeh="0.001478" NOx_perVeh="0.034709" fuel_perVeh="0.036619" electricity_perVeh="0"/>
        <edge id=":1110673534_0" sampledSeconds="658.68" CO_abs="4783.406052" CO2_abs="396460.566534" HC_abs="30.845749" PMx_abs="5.534867" NOx_abs="151.948441" fuel_abs="170.422623" electricity_abs="0"
            CO_normed="129.955609" CO2_normed="10771.043429" HC_normed="0.838018" PMx_normed="0.150371" NOx_normed="4.128136" fuel_normed="4.630043" electricity_normed="0"
            traveltime="1.45" CO_perVeh="10.517998" CO2_perVeh="871.757770" HC_perVeh="0.067825" PMx_perVeh="0.012170" NOx_perVeh="0.334112" fuel_perVeh="0.374734" electricity_perVeh="0"/>
        <edge id=":1110673534_1" sampledSeconds="264.37" CO_abs="4214.515972" CO2_abs="534334.225573" HC_abs="31.316910" PMx_abs="7.118068" NOx_abs="198.183316" fuel_abs="229.688064" electricity_abs="0"
            CO_normed="111.335426" CO2_normed="14115.577978" HC_normed="0.827303" PMx_normed="0.188039" NOx_normed="5.235435" fuel_normed="6.067700" electricity_normed="0"
            traveltime="1.23" CO_perVeh="19.554297" CO2_perVeh="2479.176757" HC_perVeh="0.145303" PMx_perVeh="0.033026" NOx_perVeh="0.919521" fuel_perVeh="1.065695" electricity_perVeh="0"/>
        <edge id=":1110673549_0" sampledSeconds="654.51" CO_abs="1745.796861" CO2_abs="181775.621354" HC_abs="12.022525" PMx_abs="2.504477" NOx_abs="67.966391" fuel_abs="78.137909" electricity_abs="0"
            CO_normed="45.945784" CO2_normed="4783.960652" HC_normed="0.316408" PMx_normed="0.065913" NOx_normed="1.788736" fuel_normed="2.056429" electricity_normed="0"
            traveltime="1.30" CO_perVeh="3.468484" CO2_perVeh="361.144995" HC_perVeh="0.023886" PMx_perVeh="0.004976" NOx_perVeh="0.135033" fuel_perVeh="0.155241" electricity_perVeh="0"/>
        <edge id=":1110673549_1" sampledSeconds="3197.52" CO_abs="68879.291128" CO2_abs="8979890.268348" HC_abs="528.208080" PMx_abs="158.216466" NOx_abs="3361.735359" fuel_abs="3860.043510" electricity_abs="0"
            CO_normed="1753.506427" CO2_normed="228607.104431" HC_normed="13.446948" PMx_normed="4.027823" NOx_normed="85.581957" fuel_normed="98.267723" electricity_normed="0"
            traveltime="0.81" CO_perVeh="17.371889" CO2_perVeh="2264.797638" HC_perVeh="0.133218" PMx_perVeh="0.039903" NOx_perVeh="0.847856" fuel_perVeh="0.973533" electricity_perVeh="0"/>
        <edge id=":1110673556_0" sampledSeconds="465.55" CO_abs="57552.280086" CO2_abs="2773750.121083" HC_abs="327.936993" PMx_abs="56.010171" NOx_abs="1195.994251" fuel_abs="1192.316836" electricity_abs="0"
            CO_normed="1123.166123" CO2_normed="54131.342216" HC_normed="6.399881" PMx_normed="1.093071" NOx_normed="23.340521" fuel_normed="23.268755" electricity_normed="0"
            traveltime="2.74" CO_perVeh="339.265157" CO2_perVeh="16350.990264" HC_perVeh="1.933157" PMx_perVeh="0.330175" NOx_perVeh="7.050271" fuel_perVeh="7.028593" electricity_perVeh="0"/>
        <edge id=":1110673556_2" sampledSeconds="178.15" CO_abs="18020.232998" CO2_abs="760552.422950" HC_abs="99.928291" PMx_abs="14.801301" NOx_abs="325.202772" fuel_abs="326.931715" electricity_abs="0"
            CO_normed="367.714831" CO2_normed="15519.577663" HC_normed="2.039103" PMx_normed="0.302030" NOx_normed="6.635979" fuel_normed="6.671259" electricity_normed="0"
            traveltime="3.08" CO_perVeh="311.595579" CO2_perVeh="13151.038188" HC_perVeh="1.727903" PMx_perVeh="0.255936" NOx_perVeh="5.623221" fuel_perVeh="5.653117" electricity_perVeh="0"/>
        <edge id=":1110673556_3" sampledSeconds="239.21" CO_abs="25763.359382" CO2_abs="883914.560083" HC_abs="138.016261" PMx_abs="17.696636" NOx_abs="382.294269" fuel_abs="379.963518" electricity_abs="0"
            CO_normed="1195.922482" CO2_normed="41030.879499" HC_normed="6.406647" PMx_normed="0.821469" NOx_normed="17.745912" fuel_normed="17.637720" electricity_normed="0"
            traveltime="1.87" CO_perVeh="201.213782" CO2_perVeh="6903.439463" HC_perVeh="1.077917" PMx_perVeh="0.138212" NOx_perVeh="2.985747" fuel_perVeh="2.967544" electricity_perVeh="0"/>
        <edge id=":1110673556_4" sampledSeconds="50.30" CO_abs="5436.366799" CO2_abs="206988.818871" HC_abs="29.618212" PMx_abs="4.121778" NOx_abs="89.264640" fuel_abs="88.976687" electricity_abs="0"
            CO_normed="154.168745" CO2_normed="5869.950939" HC_normed="0.839936" PMx_normed="0.116889" NOx_normed="2.531437" fuel_normed="2.523271" electricity_normed="0"
            traveltime="2.56" CO_perVeh="276.751864" CO2_perVeh="10537.284114" HC_perVeh="1.507789" PMx_perVeh="0.209829" NOx_perVeh="4.544240" fuel_perVeh="4.529581" electricity_perVeh="0"/>
        <edge id=":1110673556_5" sampledSeconds="21.75" CO_abs="1302.709946" CO2_abs="60561.340750" HC_abs="7.340361" PMx_abs="1.080351" NOx_abs="25.248746" fuel_abs="26.032988" electricity_abs="0"
            CO_normed="51.491416" CO2_normed="2393.770935" HC_normed="0.290138" PMx_normed="0.042702" NOx_normed="0.997992" fuel_normed="1.028990" electricity_normed="0"
            traveltime="1.50" CO_perVeh="90.063897" CO2_perVeh="4186.956891" HC_perVeh="0.507482" PMx_perVeh="0.074691" NOx_perVeh="1.745592" fuel_perVeh="1.799812" electricity_perVeh="0"/>
        <edge id=":1110673556_6" sampledSeconds="212.91" CO_abs="25918.531999" CO2_abs="1309145.702479" HC_abs="149.159686" PMx_abs="26.425748" NOx_abs="563.553473" fuel_abs="562.744923" electricity_abs="0"
            CO_normed="518.568849" CO2_normed="26192.925568" HC_normed="2.984334" PMx_normed="0.528717" NOx_normed="11.275379" fuel_normed="11.259202" electricity_normed="0"
            traveltime="2.48" CO_perVeh="302.016488" CO2_perVeh="15254.860395" HC_perVeh="1.738088" PMx_perVeh="0.307927" NOx_perVeh="6.566824" fuel_perVeh="6.557402" electricity_perVeh="0"/>
        <edge id=":1110673561_0" sampledSeconds="104.23" CO_abs="9717.717382" CO2_abs="691089.977014" HC_abs="60.852928" PMx_abs="13.955941" NOx_abs="292.463739" fuel_abs="297.066710" electricity_abs="0"
            CO_normed="244.285146" CO2_normed="17372.702776" HC_normed="1.529728" PMx_normed="0.350826" NOx_normed="7.351989" fuel_normed="7.467699" electricity_normed="0"
            traveltime="1.23" CO_perVeh="114.678497" CO2_perVeh="8155.532501" HC_perVeh="0.718124" PMx_perVeh="0.164694" NOx_perVeh="3.451356" fuel_perVeh="3.505676" electricity_perVeh="0"/>
        <edge id=":1110673561_1" sampledSeconds="5179.91" CO_abs="486164.568354" CO2_abs="33673593.458334" HC_abs="3028.400629" PMx_abs="703.901917" NOx_abs="14396.844418" fuel_abs="14474.651556" electricity_abs="0"
            CO_normed="11915.019485" CO2_normed="825279.233179" HC_normed="74.220655" PMx_normed="17.251370" NOx_normed="352.840772" fuel_normed="354.747685" electricity_normed="0"
            traveltime="1.19" CO_perVeh="111.704742" CO2_perVeh="7737.092168" HC_perVeh="0.695828" PMx_perVeh="0.161734" NOx_perVeh="3.307925" fuel_perVeh="3.325802" electricity_perVeh="0"/>
        <edge id=":1110673562_0" sampledSeconds="303.17" CO_abs="6355.171290" CO2_abs="492813.626975" HC_abs="40.167615" PMx_abs="6.660682" NOx_abs="188.157103" fuel_abs="211.841588" electricity_abs="0"
            CO_normed="9899.020700" CO2_normed="767622.471924" HC_normed="62.566378" PMx_normed="10.374895" NOx_normed="293.079600" fuel_normed="329.971321" electricity_normed="0"
            traveltime="0.03" CO_perVeh="0.569688" CO2_perVeh="44.176634" HC_perVeh="0.003601" PMx_perVeh="0.000597" NOx_perVeh="0.016867" fuel_perVeh="0.018990" electricity_perVeh="0"/>
        <edge id=":1110673564_0" sampledSeconds="27.96" CO_abs="473.236836" CO2_abs="53216.731232" HC_abs="3.385204" PMx_abs="0.751561" NOx_abs="20.103399" fuel_abs="22.875634" electricity_abs="0"
            CO_normed="1990.248375" CO2_normed="223808.682750" HC_normed="14.236839" PMx_normed="3.160772" NOx_normed="84.547003" fuel_normed="96.205939" electricity_normed="0"
            traveltime="7.896183e-03" CO_perVeh="0.133664" CO2_perVeh="15.030852" HC_perVeh="0.000956" PMx_perVeh="0.000212" NOx_perVeh="0.005678" fuel_perVeh="0.006461" electricity_perVeh="0"/>
        <edge id=":1110673588_0" sampledSeconds="63.01" CO_abs="1079.089859" CO2_abs="118278.142625" HC_abs="7.633017" PMx_abs="1.636040" NOx_abs="44.606228" fuel_abs="50.842858" electricity_abs="0"
            CO_normed="1815.291352" CO2_normed="198972.576379" HC_normed="12.840590" PMx_normed="2.752218" NOx_normed="75.038514" fuel_normed="85.530041" electricity_normed="0"
            traveltime="0.02" CO_perVeh="0.348094" CO2_perVeh="38.154240" HC_perVeh="0.002462" PMx_perVeh="0.000528" NOx_perVeh="0.014389" fuel_perVeh="0.016401" electricity_perVeh="0"/>
        <edge id=":1110673601_0" sampledSeconds="28.87" CO_abs="532.324777" CO2_abs="62174.533061" HC_abs="3.847845" PMx_abs="0.872474" NOx_abs="23.399734" fuel_abs="26.726210" electricity_abs="0"
            CO_normed="799.553237" CO2_normed="93386.314678" HC_normed="5.779474" PMx_normed="1.310459" NOx_normed="35.146462" fuel_normed="40.142839" electricity_normed="0"
            traveltime="0.02" CO_perVeh="0.405923" CO2_perVeh="47.411066" HC_perVeh="0.002934" PMx_perVeh="0.000665" NOx_perVeh="0.017843" fuel_perVeh="0.020380" electricity_perVeh="0"/>
        <edge id=":1110673617_0" sampledSeconds="850.79" CO_abs="30439.697622" CO2_abs="3140067.240845" HC_abs="213.789653" PMx_abs="58.870858" NOx_abs="1227.021003" fuel_abs="1349.768137" electricity_abs="0"
            CO_normed="42672.473302" CO2_normed="4401963.421745" HC_normed="299.705121" PMx_normed="82.529241" NOx_normed="1720.122901" fuel_normed="1892.198323" electricity_normed="0"
            traveltime="0.02" CO_perVeh="0.539662" CO2_perVeh="55.669929" HC_perVeh="0.003790" PMx_perVeh="0.001044" NOx_perVeh="0.021754" fuel_perVeh="0.023930" electricity_perVeh="0"/>
        <edge id=":1110673621_0" sampledSeconds="26.43" CO_abs="549.294389" CO2_abs="55276.116626" HC_abs="3.778128" PMx_abs="0.826515" NOx_abs="21.293587" fuel_abs="23.760844" electricity_abs="0"
            CO_normed="924.046636" CO2_normed="92987.859745" HC_normed="6.355729" PMx_normed="1.390398" NOx_normed="35.820987" fuel_normed="39.971512" electricity_normed="0"
            traveltime="0.02" CO_perVeh="0.416132" CO2_perVeh="41.875846" HC_perVeh="0.002862" PMx_perVeh="0.000626" NOx_perVeh="0.016132" fuel_perVeh="0.018001" electricity_perVeh="0"/>
        <edge id=":1110673630_0" sampledSeconds="288.14" CO_abs="1622.130111" CO2_abs="138243.912704" HC_abs="10.547661" PMx_abs="1.877382" NOx_abs="52.613343" fuel_abs="59.425604" electricity_abs="0"
            CO_normed="48.659362" CO2_normed="4146.930334" HC_normed="0.316400" PMx_normed="0.056316" NOx_normed="1.578253" fuel_normed="1.782602" electricity_normed="0"
            traveltime="1.30" CO_perVeh="7.298966" CO2_perVeh="622.044809" HC_perVeh="0.047460" PMx_perVeh="0.008448" NOx_perVeh="0.236740" fuel_perVeh="0.267393" electricity_perVeh="0"/>
        <edge id=":1110673630_1" sampledSeconds="337.60" CO_abs="1244.129589" CO2_abs="102855.191194" HC_abs="8.002169" PMx_abs="1.330702" NOx_abs="38.791499" fuel_abs="44.213514" electricity_abs="0"
            CO_normed="45.498441" CO2_normed="3761.465749" HC_normed="0.292643" PMx_normed="0.048664" NOx_normed="1.418625" fuel_normed="1.616910" electricity_normed="0"
            traveltime="1.08" CO_perVeh="3.966040" CO2_perVeh="327.882106" HC_perVeh="0.025509" PMx_perVeh="0.004242" NOx_perVeh="0.123660" fuel_perVeh="0.140944" electricity_perVeh="0"/>
        <edge id=":1110673650_0" sampledSeconds="200.27" CO_abs="2886.107942" CO2_abs="361166.043370" HC_abs="21.375363" PMx_abs="4.903457" NOx_abs="134.633260" fuel_abs="155.250150" electricity_abs="0"
            CO_normed="4045.945713" CO2_normed="506307.537435" HC_normed="29.965462" PMx_normed="6.874006" NOx_normed="188.738215" fuel_normed="217.640397" electricity_normed="0"
            traveltime="0.02" CO_perVeh="0.333566" CO2_perVeh="41.742239" HC_perVeh="0.002470" PMx_perVeh="0.000567" NOx_perVeh="0.015560" fuel_perVeh="0.017943" electricity_perVeh="0"/>
        <edge id=":1110673655_0" sampledSeconds="20.79" CO_abs="296.746876" CO2_abs="35052.489773" HC_abs="2.158573" PMx_abs="0.478008" NOx_abs="13.116600" fuel_abs="15.067606" electricity_abs="0"
            CO_normed="416.000294" CO2_normed="49139.004354" HC_normed="3.026037" PMx_normed="0.670105" NOx_normed="18.387757" fuel_normed="21.122812" electricity_normed="0"
            traveltime="0.02" CO_perVeh="0.339010" CO2_perVeh="40.044733" HC_perVeh="0.002466" PMx_perVeh="0.000546" NOx_perVeh="0.014985" fuel_perVeh="0.017214" electricity_perVeh="0"/>
        <edge id=":1110673663_0" sampledSeconds="111.28" CO_abs="1733.008527" CO2_abs="215726.015156" HC_abs="12.819441" PMx_abs="2.853046" NOx_abs="80.064654" fuel_abs="92.731690" electricity_abs="0"
            CO_normed="44.495443" CO2_normed="5538.821381" HC_normed="0.329142" PMx_normed="0.073253" NOx_normed="2.055681" fuel_normed="2.380910" electricity_normed="0"
            traveltime="1.31" CO_perVeh="20.355003" CO2_perVeh="2533.803818" HC_perVeh="0.150570" PMx_perVeh="0.033510" NOx_perVeh="0.940397" fuel_perVeh="1.089177" electricity_perVeh="0"/>
        <edge id=":1110673663_1" sampledSeconds="170.64" CO_abs="2955.441125" CO2_abs="354245.635723" HC_abs="21.579284" PMx_abs="4.893233" NOx_abs="132.871074" fuel_abs="152.275314" electricity_abs="0"
            CO_normed="75.974482" CO2_normed="9106.467568" HC_normed="0.554731" PMx_normed="0.125789" NOx_normed="3.415670" fuel_normed="3.914488" electricity_normed="0"
            traveltime="1.28" CO_perVeh="22.083299" CO2_perVeh="2646.952524" HC_perVeh="0.161242" PMx_perVeh="0.036563" NOx_perVeh="0.992824" fuel_perVeh="1.137814" electricity_perVeh="0"/>
        <edge id=":1110673666_0" sampledSeconds="274.04" CO_abs="6263.446897" CO2_abs="497592.927969" HC_abs="39.893129" PMx_abs="6.837185" NOx_abs="190.458470" fuel_abs="213.895750" electricity_abs="0"