<?xml version="1.0" encoding="UTF-8"?>

<!-- generated on Tue Nov 10 12:31:54 2020 by Eclipse SUMO sumo Version 1.7.0
<configuration xmlns:xsi="http://www.w3.org/2001/XMLSchema-instance" xsi:noNamespaceSchemaLocation="http://sumo.dlr.de/xsd/sumoConfiguration.xsd">

    <input>
        <net-file value="../dataSets/Porto/8AM9AM_Routing_SaoBento/Porto.net.xml"/>
        <route-files value="../results/Porto/8AM9AM_Routing_SaoBento/inputdata/cost_PMx-length/solution20/Porto.rou.xml"/>
        <additional-files value="moreOutputInfo.xml"/>
    </input>

    <output>
        <emission-output.precision value="6"/>
        <tripinfo-output value="../results/Porto/8AM9AM_Routing_SaoBento/inputdata/cost_PMx-length/solution20/Porto-tripinfo"/>
    </output>

    <processing>
        <collision.action value="warn"/>
        <time-to-teleport value="-1"/>
    </processing>

    <emissions>
        <device.emissions.probability value="1"/>
    </emissions>

    <gui_only>
        <quit-on-end value="true"/>
        <start value="true"/>
    </gui_only>

</configuration>
-->

<meandata xmlns:xsi="http://www.w3.org/2001/XMLSchema-instance" xsi:noNamespaceSchemaLocation="http://sumo.dlr.de/xsd/meandata_file.xsd">
    <interval begin="0.00" end="8472.00" id="emissions-detector">
        <edge id=":1092997347_0" sampledSeconds="592.15" CO_abs="72389.519898" CO2_abs="3098709.817187" HC_abs="402.945907" PMx_abs="62.748216" NOx_abs="1340.965074" fuel_abs="1332.009415" electricity_abs="0"
            CO_normed="69910.043682" CO2_normed="2992573.220307" HC_normed="389.144257" PMx_normed="60.598973" NOx_normed="1295.034516" fuel_normed="1286.385605" electricity_normed="0"
            traveltime="0.07" CO_perVeh="8.284957" CO2_perVeh="354.646313" HC_perVeh="0.046117" PMx_perVeh="0.007182" NOx_perVeh="0.153473" fuel_perVeh="0.152448" electricity_perVeh="0"/>
        <edge id=":1103427051_0" sampledSeconds="19.52" CO_abs="1551.800529" CO2_abs="86306.960243" HC_abs="9.112374" PMx_abs="1.683056" NOx_abs="36.775519" fuel_abs="37.099572" electricity_abs="0"
            CO_normed="2273.811461" CO2_normed="126463.261077" HC_normed="13.352116" PMx_normed="2.466136" NOx_normed="53.886176" fuel_normed="54.361003" electricity_normed="0"
            traveltime="0.03" CO_perVeh="2.413246" CO2_perVeh="134.218246" HC_perVeh="0.014171" PMx_perVeh="0.002617" NOx_perVeh="0.057191" fuel_perVeh="0.057695" electricity_perVeh="0"/>
        <edge id=":1105984386_0" sampledSeconds="10.72" CO_abs="213.441969" CO2_abs="15230.158926" HC_abs="1.318772" PMx_abs="0.208426" NOx_abs="5.850186" fuel_abs="6.546867" electricity_abs="0"
            CO_normed="9.340651" CO2_normed="666.502463" HC_normed="0.057712" PMx_normed="0.009121" NOx_normed="0.256016" fuel_normed="0.286504" electricity_normed="0"
            traveltime="1.03" CO_perVeh="20.475415" CO2_perVeh="1461.023940" HC_perVeh="0.126509" PMx_perVeh="0.019994" NOx_perVeh="0.561206" fuel_perVeh="0.628039" electricity_perVeh="0"/>
        <edge id=":1105984390_0" sampledSeconds="10.74" CO_abs="0" CO2_abs="0" HC_abs="0" PMx_abs="0" NOx_abs="0" fuel_abs="0" electricity_abs="0"
            CO_normed="0" CO2_normed="0" HC_normed="0" PMx_normed="0" NOx_normed="0" fuel_normed="0" electricity_normed="0"
            traveltime="1.11" CO_perVeh="0" CO2_perVeh="0" HC_perVeh="0" PMx_perVeh="0" NOx_perVeh="0" fuel_perVeh="0" electricity_perVeh="0"/>
        <edge id=":1105984390_1" sampledSeconds="2401.46" CO_abs="64386.619622" CO2_abs="7596234.915617" HC_abs="474.582780" PMx_abs="137.496503" NOx_abs="2893.956510" fuel_abs="3265.270287" electricity_abs="0"
            CO_normed="2083.758826" CO2_normed="245838.679525" HC_normed="15.359031" PMx_normed="4.449831" NOx_normed="93.657773" fuel_normed="105.674686" electricity_normed="0"
            traveltime="0.65" CO_perVeh="17.391919" CO2_perVeh="2051.871948" HC_perVeh="0.128193" PMx_perVeh="0.037140" NOx_perVeh="0.781707" fuel_perVeh="0.882005" electricity_perVeh="0"/>
        <edge id=":1105984395_0" sampledSeconds="4.16" CO_abs="115.459216" CO2_abs="7750.770148" HC_abs="0.701513" PMx_abs="0.103956" NOx_abs="2.972510" fuel_abs="3.331770" electricity_abs="0"
            CO_normed="53.328250" CO2_normed="3579.922165" HC_normed="0.324015" PMx_normed="0.048015" NOx_normed="1.372942" fuel_normed="1.538876" electricity_normed="0"
            traveltime="0.10" CO_perVeh="2.676303" CO2_perVeh="179.660079" HC_perVeh="0.016261" PMx_perVeh="0.002410" NOx_perVeh="0.068902" fuel_perVeh="0.077229" electricity_perVeh="0"/>
        <edge id=":1105984398_0" sampledSeconds="10.66" CO_abs="698.669013" CO2_abs="46689.313996" HC_abs="4.277210" PMx_abs="0.817840" NOx_abs="19.134953" fuel_abs="20.069724" electricity_abs="0"
            CO_normed="24.556232" CO2_normed="1640.996844" HC_normed="0.150332" PMx_normed="0.028745" NOx_normed="0.672539" fuel_normed="0.705394" electricity_normed="0"
            traveltime="1.15" CO_perVeh="75.349453" CO2_perVeh="5035.308855" HC_perVeh="0.461285" PMx_perVeh="0.088202" NOx_perVeh="2.063650" fuel_perVeh="2.164462" electricity_perVeh="0"/>
        <edge id=":1105984398_1" sampledSeconds="644.01" CO_abs="11526.579425" CO2_abs="1361119.962399" HC_abs="83.534875" PMx_abs="19.446817" NOx_abs="514.079167" fuel_abs="585.087450" electricity_abs="0"
            CO_normed="392.152116" CO2_normed="46307.412924" HC_normed="2.841986" PMx_normed="0.661611" NOx_normed="17.489771" fuel_normed="19.905583" electricity_normed="0"
            traveltime="0.95" CO_perVeh="17.023547" CO2_perVeh="2010.231173" HC_perVeh="0.123372" PMx_perVeh="0.028721" NOx_perVeh="0.759241" fuel_perVeh="0.864113" electricity_perVeh="0"/>
        <edge id=":1106006327_0" sampledSeconds="67.91" CO_abs="9172.911856" CO2_abs="296553.666355" HC_abs="48.748229" PMx_abs="6.190212" NOx_abs="129.830995" fuel_abs="127.477976" electricity_abs="0"
            CO_normed="439.936557" CO2_normed="14222.833614" HC_normed="2.337985" PMx_normed="0.296885" NOx_normed="6.226747" fuel_normed="6.113895" electricity_normed="0"
            traveltime="2.11" CO_perVeh="284.356737" CO2_perVeh="9193.049522" HC_perVeh="1.511176" PMx_perVeh="0.191894" NOx_perVeh="4.024711" fuel_perVeh="3.951768" electricity_perVeh="0"/>
        <edge id=":1106006327_1" sampledSeconds="687.72" CO_abs="92968.431598" CO2_abs="3090583.184596" HC_abs="496.142309" PMx_abs="64.461210" NOx_abs="1352.507692" fuel_abs="1328.530704" electricity_abs="0"
            CO_normed="3888.287329" CO2_normed="129259.741498" HC_normed="20.750526" PMx_normed="2.696009" NOx_normed="56.566927" fuel_normed="55.564120" electricity_normed="0"
            traveltime="2.31" CO_perVeh="312.072522" CO2_perVeh="10374.339685" HC_perVeh="1.665430" PMx_perVeh="0.216381" NOx_perVeh="4.540041" fuel_perVeh="4.459556" electricity_perVeh="0"/>
        <edge id=":1106006327_2" sampledSeconds="0.00" CO_abs="0" CO2_abs="0" HC_abs="0" PMx_abs="0" NOx_abs="0" fuel_abs="0" electricity_abs="0"
            CO_normed="0" CO2_normed="0" HC_normed="0" PMx_normed="0" NOx_normed="0" fuel_normed="0" electricity_normed="0"/>
        <edge id=":1106006327_3" sampledSeconds="0.00" CO_abs="0" CO2_abs="0" HC_abs="0" PMx_abs="0" NOx_abs="0" fuel_abs="0" electricity_abs="0"
            CO_normed="0" CO2_normed="0" HC_normed="0" PMx_normed="0" NOx_normed="0" fuel_normed="0" electricity_normed="0"/>
        <edge id=":1107381198_0" sampledSeconds="0.00" CO_abs="0" CO2_abs="0" HC_abs="0" PMx_abs="0" NOx_abs="0" fuel_abs="0" electricity_abs="0"
            CO_normed="0" CO2_normed="0" HC_normed="0" PMx_normed="0" NOx_normed="0" fuel_normed="0" electricity_normed="0"/>
        <edge id=":1107381198_1" sampledSeconds="103.90" CO_abs="4402.450874" CO2_abs="172210.850055" HC_abs="24.000116" PMx_abs="2.930560" NOx_abs="71.073262" fuel_abs="74.027606" electricity_abs="0"
            CO_normed="204.005434" CO2_normed="7980.088881" HC_normed="1.112143" PMx_normed="0.135799" NOx_normed="3.293468" fuel_normed="3.430370" electricity_normed="0"
            traveltime="1.56" CO_perVeh="65.913131" CO2_perVeh="2578.326631" HC_perVeh="0.359328" PMx_perVeh="0.043876" NOx_perVeh="1.064103" fuel_perVeh="1.108335" electricity_perVeh="0"/>
        <edge id=":1110338277_0" sampledSeconds="159.67" CO_abs="2737.943090" CO2_abs="327093.343702" HC_abs="19.939961" PMx_abs="4.570267" NOx_abs="122.922248" fuel_abs="140.603616" electricity_abs="0"
            CO_normed="4155.113958" CO2_normed="496398.235080" HC_normed="30.260969" PMx_normed="6.935857" NOx_normed="186.547321" fuel_normed="213.380639" electricity_normed="0"
            traveltime="0.02" CO_perVeh="0.370828" CO2_perVeh="44.301653" HC_perVeh="0.002701" PMx_perVeh="0.000619" NOx_perVeh="0.016649" fuel_perVeh="0.019043" electricity_perVeh="0"/>
        <edge id=":1110338293_0" sampledSeconds="6768.49" CO_abs="649015.227438" CO2_abs="11320556.255908" HC_abs="3220.084646" PMx_abs="270.686218" NOx_abs="5120.410169" fuel_abs="4866.517614" electricity_abs="0"
            CO_normed="919285.024700" CO2_normed="16034782.232164" HC_normed="4561.026410" PMx_normed="383.408240" NOx_normed="7252.705621" fuel_normed="6893.084439" electricity_normed="0"
            traveltime="0.45" CO_perVeh="43.372468" CO2_perVeh="756.531493" HC_perVeh="0.215192" PMx_perVeh="0.018089" NOx_perVeh="0.342187" fuel_perVeh="0.325220" electricity_perVeh="0"/>
        <edge id=":1110338295_0" sampledSeconds="0.00" CO_abs="0" CO2_abs="0" HC_abs="0" PMx_abs="0" NOx_abs="0" fuel_abs="0" electricity_abs="0"
            CO_normed="0" CO2_normed="0" HC_normed="0" PMx_normed="0" NOx_normed="0" fuel_normed="0" electricity_normed="0"/>
        <edge id=":1110673403_0" sampledSeconds="201.00" CO_abs="3009.944133" CO2_abs="367704.351273" HC_abs="22.137533" PMx_abs="5.033838" NOx_abs="137.501165" fuel_abs="158.060684" electricity_abs="0"
            CO_normed="4263.376959" CO2_normed="520827.693022" HC_normed="31.356279" PMx_normed="7.130081" NOx_normed="194.760857" fuel_normed="223.881989" electricity_normed="0"
            traveltime="0.02" CO_perVeh="0.347877" CO2_perVeh="42.497710" HC_perVeh="0.002559" PMx_perVeh="0.000582" NOx_perVeh="0.015892" fuel_perVeh="0.018268" electricity_perVeh="0"/>
        <edge id=":1110673412_0" sampledSeconds="940.30" CO_abs="166850.149284" CO2_abs="11394879.923257" HC_abs="1038.571533" PMx_abs="250.311851" NOx_abs="4895.982971" fuel_abs="4898.097695" electricity_abs="0"
            CO_normed="244481.023665" CO2_normed="16696610.222610" HC_normed="1521.790856" PMx_normed="366.775204" NOx_normed="7173.951799" fuel_normed="7177.050448" electricity_normed="0"
            traveltime="0.02" CO_perVeh="2.755284" CO2_perVeh="188.169608" HC_perVeh="0.017150" PMx_perVeh="0.004134" NOx_perVeh="0.080850" fuel_perVeh="0.080885" electricity_perVeh="0"/>
        <edge id=":1110673414_0" sampledSeconds="0.00" CO_abs="0" CO2_abs="0" HC_abs="0" PMx_abs="0" NOx_abs="0" fuel_abs="0" electricity_abs="0"
            CO_normed="0" CO2_normed="0" HC_normed="0" PMx_normed="0" NOx_normed="0" fuel_normed="0" electricity_normed="0"/>
        <edge id=":1110673414_1" sampledSeconds="6.68" CO_abs="436.848898" CO2_abs="17599.706434" HC_abs="2.393716" PMx_abs="0.299894" NOx_abs="7.266126" fuel_abs="7.565505" electricity_abs="0"
            CO_normed="20.557015" CO2_normed="828.198095" HC_normed="0.112642" PMx_normed="0.014112" NOx_normed="0.341926" fuel_normed="0.356014" electricity_normed="0"
            traveltime="1.46" CO_perVeh="95.422002" CO2_perVeh="3844.348067" HC_perVeh="0.522865" PMx_perVeh="0.065507" NOx_perVeh="1.587158" fuel_perVeh="1.652552" electricity_perVeh="0"/>
        <edge id=":1110673417_0" sampledSeconds="28.77" CO_abs="589.334434" CO2_abs="64359.969172" HC_abs="4.144178" PMx_abs="0.917070" NOx_abs="24.408285" fuel_abs="27.665636" electricity_abs="0"
            CO_normed="894.376418" CO2_normed="97672.960094" HC_normed="6.289222" PMx_normed="1.391749" NOx_normed="37.042116" fuel_normed="41.985486" electricity_normed="0"
            traveltime="0.02" CO_perVeh="0.449396" CO2_perVeh="49.077566" HC_perVeh="0.003160" PMx_perVeh="0.000699" NOx_perVeh="0.018612" fuel_perVeh="0.021096" electricity_perVeh="0"/>
        <edge id=":1110673446_0" sampledSeconds="1314.00" CO_abs="13214.121908" CO2_abs="1089064.952593" HC_abs="85.889160" PMx_abs="19.654106" NOx_abs="443.165263" fuel_abs="468.139252" electricity_abs="0"
            CO_normed="18716.886555" CO2_normed="1542584.918687" HC_normed="121.656034" PMx_normed="27.838677" NOx_normed="627.712837" fuel_normed="663.086759" electricity_normed="0"
            traveltime="0.02" CO_perVeh="0.229367" CO2_perVeh="18.903649" HC_perVeh="0.001491" PMx_perVeh="0.000341" NOx_perVeh="0.007692" fuel_perVeh="0.008126" electricity_perVeh="0"/>
        <edge id=":1110673451_0" sampledSeconds="36.45" CO_abs="262.850017" CO2_abs="19494.274577" HC_abs="1.638486" PMx_abs="0.251998" NOx_abs="7.382287" fuel_abs="8.379863" electricity_abs="0"
            CO_normed="413.676451" CO2_normed="30680.318818" HC_normed="2.578668" PMx_normed="0.396598" NOx_normed="11.618330" fuel_normed="13.188328" electricity_normed="0"
            traveltime="0.03" CO_perVeh="0.193662" CO2_perVeh="14.362970" HC_perVeh="0.001207" PMx_perVeh="0.000186" NOx_perVeh="0.005439" fuel_perVeh="0.006174" electricity_perVeh="0"/>
        <edge id=":1110673464_0" sampledSeconds="1039.48" CO_abs="4011.046728" CO2_abs="287268.156854" HC_abs="24.819845" PMx_abs="3.987559" NOx_abs="110.591905" fuel_abs="123.485589" electricity_abs="0"
            CO_normed="120.708980" CO2_normed="8645.086536" HC_normed="0.746932" PMx_normed="0.120002" NOx_normed="3.328168" fuel_normed="3.716192" electricity_normed="0"
            traveltime="1.23" CO_perVeh="4.756544" CO2_perVeh="340.660094" HC_perVeh="0.029433" PMx_perVeh="0.004729" NOx_perVeh="0.131147" fuel_perVeh="0.146437" electricity_perVeh="0"/>
        <edge id=":1110673464_1" sampledSeconds="2607.95" CO_abs="64418.104179" CO2_abs="7808452.511917" HC_abs="479.568429" PMx_abs="139.691155" NOx_abs="2964.239979" fuel_abs="3356.493826" electricity_abs="0"
            CO_normed="1899.592789" CO2_normed="230259.494172" HC_normed="14.141750" PMx_normed="4.119282" NOx_normed="87.410969" fuel_normed="98.977943" electricity_normed="0"
            traveltime="0.72" CO_perVeh="17.764942" CO2_perVeh="2153.380795" HC_perVeh="0.132253" PMx_perVeh="0.038523" NOx_perVeh="0.817465" fuel_perVeh="0.925639" electricity_perVeh="0"/>
        <edge id=":1110673479_0" sampledSeconds="134.57" CO_abs="6123.869408" CO2_abs="423735.207167" HC_abs="37.830958" PMx_abs="7.364280" NOx_abs="172.940015" fuel_abs="182.145441" electricity_abs="0"
            CO_normed="8674.035989" CO2_normed="600191.511568" HC_normed="53.584926" PMx_normed="10.430992" NOx_normed="244.957528" fuel_normed="257.996375" electricity_normed="0"
            traveltime="0.03" CO_perVeh="1.294644" CO2_perVeh="89.581669" HC_perVeh="0.007998" PMx_perVeh="0.001557" NOx_perVeh="0.036561" fuel_perVeh="0.038507" electricity_perVeh="0"/>
        <edge id=":1110673511_0" sampledSeconds="63.66" CO_abs="825.420498" CO2_abs="99712.112707" HC_abs="6.041259" PMx_abs="1.303429" NOx_abs="36.979308" fuel_abs="42.862151" electricity_abs="0"
            CO_normed="1169.150846" CO2_normed="141235.287121" HC_normed="8.557024" PMx_normed="1.846216" NOx_normed="52.378623" fuel_normed="60.711262" electricity_normed="0"
            traveltime="0.02" CO_perVeh="0.316354" CO2_perVeh="38.216076" HC_perVeh="0.002315" PMx_perVeh="0.000500" NOx_perVeh="0.014173" fuel_perVeh="0.016428" electricity_perVeh="0"/>
        <edge id=":1110673517_0" sampledSeconds="183.18" CO_abs="8008.779281" CO2_abs="567471.440638" HC_abs="49.767869" PMx_abs="9.712893" NOx_abs="230.429783" fuel_abs="243.931517" electricity_abs="0"
            CO_normed="11343.880001" CO2_normed="803783.910252" HC_normed="70.492733" PMx_normed="13.757639" NOx_normed="326.387795" fuel_normed="345.512063" electricity_normed="0"
            traveltime="0.03" CO_perVeh="1.226209" CO2_perVeh="86.884471" HC_perVeh="0.007620" PMx_perVeh="0.001487" NOx_perVeh="0.035281" fuel_perVeh="0.037348" electricity_perVeh="0"/>
        <edge id=":1110673534_0" sampledSeconds="661.23" CO_abs="4932.835721" CO2_abs="415056.063451" HC_abs="31.969261" PMx_abs="5.735785" NOx_abs="158.666041" fuel_abs="178.416121" electricity_abs="0"
            CO_normed="135.407353" CO2_normed="11393.374164" HC_normed="0.877563" PMx_normed="0.157448" NOx_normed="4.355415" fuel_normed="4.897559" electricity_normed="0"
            traveltime="1.45" CO_perVeh="10.846571" CO2_perVeh="912.646499" HC_perVeh="0.070296" PMx_perVeh="0.012612" NOx_perVeh="0.348883" fuel_perVeh="0.392310" electricity_perVeh="0"/>
        <edge id=":1110673534_1" sampledSeconds="264.92" CO_abs="4030.195615" CO2_abs="523796.453705" HC_abs="30.233825" PMx_abs="6.993728" NOx_abs="194.059941" fuel_abs="225.158233" electricity_abs="0"
            CO_normed="107.572092" CO2_normed="13980.929445" HC_normed="0.806987" PMx_normed="0.186673" NOx_normed="5.179757" fuel_normed="6.009818" electricity_normed="0"
            traveltime="1.23" CO_perVeh="18.699097" CO2_perVeh="2430.284139" HC_perVeh="0.140277" PMx_perVeh="0.032449" NOx_perVeh="0.900389" fuel_perVeh="1.044678" electricity_perVeh="0"/>
        <edge id=":1110673549_0" sampledSeconds="650.54" CO_abs="1681.957071" CO2_abs="153783.675242" HC_abs="11.154818" PMx_abs="2.305485" NOx_abs="59.055695" fuel_abs="66.105174" electricity_abs="0"
            CO_normed="44.725447" CO2_normed="4089.309811" HC_normed="0.296621" PMx_normed="0.061306" NOx_normed="1.570368" fuel_normed="1.757823" electricity_normed="0"
            traveltime="1.29" CO_perVeh="3.341648" CO2_perVeh="305.531515" HC_perVeh="0.022162" PMx_perVeh="0.004580" NOx_perVeh="0.117330" fuel_perVeh="0.131335" electricity_perVeh="0"/>
        <edge id=":1110673549_1" sampledSeconds="3198.09" CO_abs="69297.099794" CO2_abs="9179248.386871" HC_abs="534.286236" PMx_abs="160.911779" NOx_abs="3427.380768" fuel_abs="3945.739019" electricity_abs="0"
            CO_normed="1782.467293" CO2_normed="236109.592979" HC_normed="13.742967" PMx_normed="4.138990" NOx_normed="88.159449" fuel_normed="101.492714" electricity_normed="0"
            traveltime="0.81" CO_perVeh="17.478707" CO2_perVeh="2315.268468" HC_perVeh="0.134762" PMx_perVeh="0.040587" NOx_perVeh="0.864483" fuel_perVeh="0.995228" electricity_perVeh="0"/>
        <edge id=":1110673556_0" sampledSeconds="468.13" CO_abs="58279.799976" CO2_abs="2791411.901469" HC_abs="331.713976" PMx_abs="56.668978" NOx_abs="1205.725902" fuel_abs="1199.908712" electricity_abs="0"
            CO_normed="1149.178075" CO2_normed="55041.873135" HC_normed="6.540833" PMx_normed="1.117415" NOx_normed="23.774855" fuel_normed="23.660150" electricity_normed="0"
            traveltime="2.76" CO_perVeh="343.553817" CO2_perVeh="16455.104762" HC_perVeh="1.955422" PMx_perVeh="0.334058" NOx_perVeh="7.107638" fuel_perVeh="7.073346" electricity_perVeh="0"/>
        <edge id=":1110673556_2" sampledSeconds="177.36" CO_abs="18224.757109" CO2_abs="775227.971197" HC_abs="101.186770" PMx_abs="14.969924" NOx_abs="330.689587" fuel_abs="333.240218" electricity_abs="0"
            CO_normed="375.751143" CO2_normed="15983.356862" HC_normed="2.086231" PMx_normed="0.308644" NOx_normed="6.818033" fuel_normed="6.870621" electricity_normed="0"
            traveltime="3.07" CO_perVeh="315.132093" CO2_perVeh="13404.799388" HC_perVeh="1.749664" PMx_perVeh="0.258851" NOx_perVeh="5.718096" fuel_perVeh="5.762200" electricity_perVeh="0"/>
        <edge id=":1110673556_3" sampledSeconds="335.89" CO_abs="34321.745163" CO2_abs="1196371.982781" HC_abs="184.264505" PMx_abs="23.654816" NOx_abs="515.514368" fuel_abs="514.277866" electricity_abs="0"
            CO_normed="1609.747348" CO2_normed="56111.850308" HC_normed="8.642314" PMx_normed="1.109451" NOx_normed="24.178488" fuel_normed="24.120493" electricity_normed="0"
            traveltime="1.82" CO_perVeh="186.088061" CO2_perVeh="6486.574086" HC_perVeh="0.999058" PMx_perVeh="0.128253" NOx_perVeh="2.795052" fuel_perVeh="2.788348" electricity_perVeh="0"/>
        <edge id=":1110673556_4" sampledSeconds="93.83" CO_abs="10782.008130" CO2_abs="419404.128974" HC_abs="58.959795" PMx_abs="8.359348" NOx_abs="180.896181" fuel_abs="180.285809" electricity_abs="0"
            CO_normed="308.940651" CO2_normed="12017.333242" HC_normed="1.689396" PMx_normed="0.239523" NOx_normed="5.183282" fuel_normed="5.165792" electricity_normed="0"
            traveltime="2.54" CO_perVeh="291.655444" CO2_perVeh="11344.964309" HC_perVeh="1.594874" PMx_perVeh="0.226122" NOx_perVeh="4.893277" fuel_perVeh="4.876767" electricity_perVeh="0"/>
        <edge id=":1110673556_5" sampledSeconds="22.54" CO_abs="1042.588382" CO2_abs="48497.186804" HC_abs="5.874557" PMx_abs="0.861780" NOx_abs="20.206386" fuel_abs="20.847076" electricity_abs="0"
            CO_normed="41.637803" CO2_normed="1936.829863" HC_normed="0.234612" PMx_normed="0.034417" NOx_normed="0.806981" fuel_normed="0.832569" electricity_normed="0"
            traveltime="1.56" CO_perVeh="72.080184" CO2_perVeh="3352.891927" HC_perVeh="0.406142" PMx_perVeh="0.059580" NOx_perVeh="1.396985" fuel_perVeh="1.441279" electricity_perVeh="0"/>
        <edge id=":1110673556_6" sampledSeconds="550.44" CO_abs="65559.578625" CO2_abs="3163385.763820" HC_abs="373.631125" PMx_abs="63.760058" NOx_abs="1363.236007" fuel_abs="1359.804689" electricity_abs="0"
            CO_normed="1325.317692" CO2_normed="63949.329867" HC_normed="7.553129" PMx_normed="1.288940" NOx_normed="27.558457" fuel_normed="27.489091" electricity_normed="0"
            traveltime="2.67" CO_perVeh="318.306249" CO2_perVeh="15358.937292" HC_perVeh="1.814062" PMx_perVeh="0.309569" NOx_perVeh="6.618812" fuel_perVeh="6.602152" electricity_perVeh="0"/>
        <edge id=":1110673561_0" sampledSeconds="101.82" CO_abs="9911.518300" CO2_abs="695292.917752" HC_abs="61.868099" PMx_abs="14.256152" NOx_abs="295.687530" fuel_abs="298.873134" electricity_abs="0"
            CO_normed="251.744969" CO2_normed="17659.907253" HC_normed="1.571402" PMx_normed="0.362095" NOx_normed="7.510237" fuel_normed="7.591149" electricity_normed="0"
            traveltime="1.20" CO_perVeh="116.965536" CO2_perVeh="8205.131281" HC_perVeh="0.730104" PMx_perVeh="0.168236" NOx_perVeh="3.489400" fuel_perVeh="3.526993" electricity_perVeh="0"/>
        <edge id=":1110673561_1" sampledSeconds="5195.10" CO_abs="482287.916393" CO2_abs="33437832.210919" HC_abs="3004.751438" PMx_abs="698.211452" NOx_abs="14291.080774" fuel_abs="14373.309916" electricity_abs="0"
            CO_normed="11942.786020" CO2_normed="828013.436551" HC_normed="74.405977" PMx_normed="17.289651" NOx_normed="353.886784" fuel_normed="355.923006" electricity_normed="0"
            traveltime="1.19" CO_perVeh="110.788305" CO2_perVeh="7681.139483" HC_perVeh="0.690234" PMx_perVeh="0.160389" NOx_perVeh="3.282862" fuel_perVeh="3.301751" electricity_perVeh="0"/>
        <edge id=":1110673562_0" sampledSeconds="301.13" CO_abs="6521.367743" CO2_abs="498785.984193" HC_abs="41.090616" PMx_abs="6.915703" NOx_abs="191.670166" fuel_abs="214.408673" electricity_abs="0"
            CO_normed="10263.405324" CO2_normed="784995.253688" HC_normed="64.668895" PMx_normed="10.884014" NOx_normed="301.652764" fuel_normed="337.438894" electricity_normed="0"
            traveltime="0.03" CO_perVeh="0.584585" CO2_perVeh="44.711891" HC_perVeh="0.003683" PMx_perVeh="0.000620" NOx_perVeh="0.017182" fuel_perVeh="0.019220" electricity_perVeh="0"/>
        <edge id=":1110673564_0" sampledSeconds="27.85" CO_abs="407.285746" CO2_abs="49765.565368" HC_abs="2.969362" PMx_abs="0.678005" NOx_abs="18.558774" fuel_abs="21.392133" electricity_abs="0"
            CO_normed="1730.675974" CO2_normed="211468.408080" HC_normed="12.617684" PMx_normed="2.881043" NOx_normed="78.861646" fuel_normed="90.901416" electricity_normed="0"
            traveltime="7.865199e-03" CO_perVeh="0.115036" CO2_perVeh="14.056084" HC_perVeh="0.000839" PMx_perVeh="0.000191" NOx_perVeh="0.005242" fuel_perVeh="0.006042" electricity_perVeh="0"/>
        <edge id=":1110673588_0" sampledSeconds="62.88" CO_abs="1218.306708" CO2_abs="132871.137702" HC_abs="8.583211" PMx_abs="1.817892" NOx_abs="49.958703" fuel_abs="57.115815" electricity_abs="0"
            CO_normed="2070.776275" CO2_normed="225843.293545" HC_normed="14.589028" PMx_normed="3.089902" NOx_normed="84.915642" fuel_normed="97.080706" electricity_normed="0"
            traveltime="0.02" CO_perVeh="0.393002" CO2_perVeh="42.861657" HC_perVeh="0.002769" PMx_perVeh="0.000586" NOx_perVeh="0.016116" fuel_perVeh="0.018424" electricity_perVeh="0"/>
        <edge id=":1110673601_0" sampledSeconds="29.03" CO_abs="581.587955" CO2_abs="64055.420095" HC_abs="4.102631" PMx_abs="0.906093" NOx_abs="24.231424" fuel_abs="27.534731" electricity_abs="0"
            CO_normed="882.620328" CO2_normed="97210.775134" HC_normed="6.226170" PMx_normed="1.375091" NOx_normed="36.773711" fuel_normed="41.786824" electricity_normed="0"
            traveltime="0.02" CO_perVeh="0.443489" CO2_perVeh="48.845332" HC_perVeh="0.003128" PMx_perVeh="0.000691" NOx_perVeh="0.018478" fuel_perVeh="0.020997" electricity_perVeh="0"/>
        <edge id=":1110673617_0" sampledSeconds="855.52" CO_abs="32053.387064" CO2_abs="3258756.424297" HC_abs="224.123953" PMx_abs="61.341030" NOx_abs="1277.545798" fuel_abs="1400.786853" electricity_abs="0"
            CO_normed="45401.398107" CO2_normed="4615802.300703" HC_normed="317.456025" PMx_normed="86.885312" NOx_normed="1809.554954" fuel_normed="1984.117355" electricity_normed="0"
            traveltime="0.02" CO_perVeh="0.568347" CO2_perVeh="57.781881" HC_perVeh="0.003974" PMx_perVeh="0.001088" NOx_perVeh="0.022653" fuel_perVeh="0.024838" electricity_perVeh="0"/>
        <edge id=":1110673621_0" sampledSeconds="26.05" CO_abs="657.642763" CO2_abs="68564.230232" HC_abs="4.564027" PMx_abs="1.032215" NOx_abs="26.368816" fuel_abs="29.472811" electricity_abs="0"
            CO_normed="1117.806397" CO2_normed="116539.768100" HC_normed="7.757554" PMx_normed="1.754473" NOx_normed="44.819518" fuel_normed="50.095430" electricity_normed="0"
            traveltime="0.02" CO_perVeh="0.498214" CO2_perVeh="51.942599" HC_perVeh="0.003458" PMx_perVeh="0.000782" NOx_perVeh="0.019976" fuel_perVeh="0.022328" electricity_perVeh="0"/>
        <edge id=":1110673630_0" sampledSeconds="288.87" CO_abs="1166.775694" CO2_abs="105579.966897" HC_abs="7.689961" PMx_abs="1.222463" NOx_abs="38.732495" fuel_abs="45.384932" electricity_abs="0"
            CO_normed="35.363555" CO2_normed="3200.000613" HC_normed="0.233073" PMx_normed="0.037051" NOx_normed="1.173935" fuel_normed="1.375562" electricity_normed="0"
            traveltime="1.30" CO_perVeh="5.250045" CO2_perVeh="475.069528" HC_perVeh="0.034602" PMx_perVeh="0.005501" NOx_perVeh="0.174281" fuel_perVeh="0.204215" electricity_perVeh="0"/>
        <edge id=":1110673630_1" sampledSeconds="338.52" CO_abs="1420.570472" CO2_abs="111850.683015" HC_abs="9.010490" PMx_abs="1.504435" NOx_abs="42.641430" fuel_abs="48.080292" electricity_abs="0"
            CO_normed="52.490595" CO2_normed="4132.923378" HC_normed="0.332941" PMx_normed="0.055589" NOx_normed="1.575616" fuel_normed="1.776584" electricity_normed="0"
            traveltime="1.08" CO_perVeh="4.528499" CO2_perVeh="356.557964" HC_perVeh="0.028724" PMx_perVeh="0.004796" NOx_perVeh="0.135932" fuel_perVeh="0.153271" electricity_perVeh="0"/>
        <edge id=":1110673650_0" sampledSeconds="199.71" CO_abs="3017.669868" CO2_abs="383036.126083" HC_abs="22.514169" PMx_abs="5.181078" NOx_abs="142.593593" fuel_abs="164.651190" electricity_abs="0"
            CO_normed="4274.319927" CO2_normed="542544.087937" HC_normed="31.889757" PMx_normed="7.338638" NOx_normed="201.973927" fuel_normed="233.216983" electricity_normed="0"
            traveltime="0.02" CO_perVeh="0.348770" CO2_perVeh="44.269800" HC_perVeh="0.002602" PMx_perVeh="0.000599" NOx_perVeh="0.016480" fuel_perVeh="0.019030" electricity_perVeh="0"/>
        <edge id=":1110673655_0" sampledSeconds="20.68" CO_abs="380.448110" CO2_abs="42450.038282" HC_abs="2.681709" PMx_abs="0.589053" NOx_abs="15.967958" fuel_abs="18.247499" electricity_abs="0"
            CO_normed="538.878342" CO2_normed="60127.532977" HC_normed="3.798454" PMx_normed="0.834353" NOx_normed="22.617504" fuel_normed="25.846316" electricity_normed="0"
            traveltime="0.02" CO_perVeh="0.434632" CO2_perVeh="48.495855" HC_perVeh="0.003064" PMx_perVeh="0.000673" NOx_perVeh="0.018242" fuel_perVeh="0.020846" electricity_perVeh="0"/>
        <edge id=":1110673663_0" sampledSeconds="109.52" CO_abs="2028.984870" CO2_abs="222962.791855" HC_abs="14.364187" PMx_abs="3.155769" NOx_abs="84.443942" fuel_abs="95.842332" electricity_abs="0"
            CO_normed="52.635829" CO2_normed="5784.090108" HC_normed="0.372635" PMx_normed="0.081867" NOx_normed="2.190641" fuel_normed="2.486337" electricity_normed="0"
            traveltime="1.29" CO_perVeh="23.831384" CO2_perVeh="2618.803174" HC_perVeh="0.168714" PMx_perVeh="0.037066" NOx_perVeh="0.991834" fuel_perVeh="1.125713" electricity_perVeh="0"/>
        <edge id=":1110673663_1" sampledSeconds="169.84" CO_abs="2546.323561" CO2_abs="326194.437577" HC_abs="19.067130" PMx_abs="4.322279" NOx_abs="120.829265" fuel_abs="140.217451" electricity_abs="0"
            CO_normed="66.137358" CO2_normed="8472.465427" HC_normed="0.495243" PMx_normed="0.112265" NOx_normed="3.138379" fuel_normed="3.641961" electricity_normed="0"
            traveltime="1.27" CO_perVeh="19.023164" CO2_perVeh="2436.944961" HC_perVeh="0.142447" PMx_perVeh="0.032291" NOx_perVeh="0.902696" fuel_perVeh="1.047542" electricity_perVeh="0"/>
        <edge id=":1110673666_0" sampledSeconds="273.26" CO_abs="6110.191942" CO2_abs="488362.373115" HC_abs="38.931564" PMx_abs="6.497736" NOx_abs="185.532515" fuel_abs="209.928188" electricity_abs="0"