<?xml version="1.0" encoding="UTF-8"?>

<!-- generated on Tue Nov 10 06:43:09 2020 by Eclipse SUMO sumo Version 1.7.0
<configuration xmlns:xsi="http://www.w3.org/2001/XMLSchema-instance" xsi:noNamespaceSchemaLocation="http://sumo.dlr.de/xsd/sumoConfiguration.xsd">

    <input>
        <net-file value="../dataSets/Porto/8AM9AM_Routing_SaoBento/Porto.net.xml"/>
        <route-files value="../results/Porto/8AM9AM_Routing_SaoBento/cost_co-length/solution12/Porto.rou.xml"/>
        <additional-files value="moreOutputInfo.xml"/>
    </input>

    <output>
        <emission-output.precision value="6"/>
        <tripinfo-output value="../results/Porto/8AM9AM_Routing_SaoBento/cost_co-length/solution12/Porto-tripinfo"/>
    </output>

    <processing>
        <collision.action value="warn"/>
        <time-to-teleport value="-1"/>
    </processing>

    <emissions>
        <device.emissions.probability value="1"/>
    </emissions>

    <gui_only>
        <quit-on-end value="true"/>
        <start value="true"/>
    </gui_only>

</configuration>
-->

<meandata xmlns:xsi="http://www.w3.org/2001/XMLSchema-instance" xsi:noNamespaceSchemaLocation="http://sumo.dlr.de/xsd/meandata_file.xsd">
    <interval begin="0.00" end="8562.00" id="emissions-detector">
        <edge id=":1092997347_0" sampledSeconds="594.55" CO_abs="72076.490401" CO2_abs="3083325.550859" HC_abs="401.134089" PMx_abs="62.352680" NOx_abs="1334.082129" fuel_abs="1325.396479" electricity_abs="0"
            CO_normed="68876.049947" CO2_normed="2946415.446448" HC_normed="383.322376" PMx_normed="59.584009" NOx_normed="1274.844361" fuel_normed="1266.544383" electricity_normed="0"
            traveltime="0.07" CO_perVeh="8.263103" CO2_perVeh="353.483295" HC_perVeh="0.045987" PMx_perVeh="0.007148" NOx_perVeh="0.152944" fuel_perVeh="0.151948" electricity_perVeh="0"/>
        <edge id=":1103427051_0" sampledSeconds="19.18" CO_abs="1576.926889" CO2_abs="89285.916104" HC_abs="9.300796" PMx_abs="1.751891" NOx_abs="38.085234" fuel_abs="38.380057" electricity_abs="0"
            CO_normed="2286.340123" CO2_normed="129453.035454" HC_normed="13.484952" PMx_normed="2.540015" NOx_normed="55.218665" fuel_normed="55.646121" electricity_normed="0"
            traveltime="0.03" CO_perVeh="2.452321" CO2_perVeh="138.850899" HC_perVeh="0.014464" PMx_perVeh="0.002724" NOx_perVeh="0.059227" fuel_perVeh="0.059686" electricity_perVeh="0"/>
        <edge id=":1105984386_0" sampledSeconds="10.48" CO_abs="203.143867" CO2_abs="14485.183639" HC_abs="1.262125" PMx_abs="0.235700" NOx_abs="5.806929" fuel_abs="6.226573" electricity_abs="0"
            CO_normed="8.796538" CO2_normed="627.237554" HC_normed="0.054653" PMx_normed="0.010206" NOx_normed="0.251452" fuel_normed="0.269623" electricity_normed="0"
            traveltime="1.01" CO_perVeh="19.487522" CO2_perVeh="1389.558715" HC_perVeh="0.121075" PMx_perVeh="0.022611" NOx_perVeh="0.557057" fuel_perVeh="0.597313" electricity_perVeh="0"/>
        <edge id=":1105984390_0" sampledSeconds="11.01" CO_abs="60.774054" CO2_abs="3869.736577" HC_abs="0.363968" PMx_abs="0.049879" NOx_abs="1.473453" fuel_abs="1.663462" electricity_abs="0"
            CO_normed="2.034491" CO2_normed="129.544518" HC_normed="0.012184" PMx_normed="0.001670" NOx_normed="0.049326" fuel_normed="0.055687" electricity_normed="0"
            traveltime="1.14" CO_perVeh="6.299597" CO2_perVeh="401.121494" HC_perVeh="0.037728" PMx_perVeh="0.005170" NOx_perVeh="0.152732" fuel_perVeh="0.172428" electricity_perVeh="0"/>
        <edge id=":1105984390_1" sampledSeconds="2395.34" CO_abs="64131.669948" CO2_abs="7521610.864463" HC_abs="471.559256" PMx_abs="136.383238" NOx_abs="2868.047912" fuel_abs="3233.192695" electricity_abs="0"
            CO_normed="2053.691001" CO2_normed="240864.841888" HC_normed="15.100761" PMx_normed="4.367406" NOx_normed="91.843612" fuel_normed="103.536657" electricity_normed="0"
            traveltime="0.65" CO_perVeh="17.320244" CO2_perVeh="2031.385365" HC_perVeh="0.127356" PMx_perVeh="0.036833" NOx_perVeh="0.774583" fuel_perVeh="0.873199" electricity_perVeh="0"/>
        <edge id=":1105984395_0" sampledSeconds="4.04" CO_abs="95.592619" CO2_abs="6320.272829" HC_abs="0.579591" PMx_abs="0.090258" NOx_abs="2.461615" fuel_abs="2.716845" electricity_abs="0"
            CO_normed="43.688166" CO2_normed="2888.519315" HC_normed="0.264887" PMx_normed="0.041250" NOx_normed="1.125018" fuel_normed="1.241664" electricity_normed="0"
            traveltime="0.09" CO_perVeh="2.215803" CO2_perVeh="146.501663" HC_perVeh="0.013435" PMx_perVeh="0.002092" NOx_perVeh="0.057059" fuel_perVeh="0.062975" electricity_perVeh="0"/>
        <edge id=":1105984398_0" sampledSeconds="10.45" CO_abs="585.981743" CO2_abs="38996.879590" HC_abs="3.587892" PMx_abs="0.706454" NOx_abs="16.138797" fuel_abs="16.763043" electricity_abs="0"
            CO_normed="20.379103" CO2_normed="1356.222153" HC_normed="0.124779" PMx_normed="0.024569" NOx_normed="0.561270" fuel_normed="0.582980" electricity_normed="0"
            traveltime="1.15" CO_perVeh="64.671581" CO2_perVeh="4303.871024" HC_perVeh="0.395976" PMx_perVeh="0.077967" NOx_perVeh="1.781150" fuel_perVeh="1.850045" electricity_perVeh="0"/>
        <edge id=":1105984398_1" sampledSeconds="644.66" CO_abs="11817.404024" CO2_abs="1365601.736901" HC_abs="85.228689" PMx_abs="19.749647" NOx_abs="517.838892" fuel_abs="587.013815" electricity_abs="0"
            CO_normed="397.820284" CO2_normed="45971.523800" HC_normed="2.869133" PMx_normed="0.664851" NOx_normed="17.432493" fuel_normed="19.761193" electricity_normed="0"
            traveltime="0.95" CO_perVeh="17.438215" CO2_perVeh="2015.134302" HC_perVeh="0.125767" PMx_perVeh="0.029143" NOx_perVeh="0.764143" fuel_perVeh="0.866220" electricity_perVeh="0"/>
        <edge id=":1106006327_0" sampledSeconds="406.87" CO_abs="55192.629645" CO2_abs="1798702.734682" HC_abs="293.675117" PMx_abs="37.594990" NOx_abs="787.787030" fuel_abs="773.198495" electricity_abs="0"
            CO_normed="2619.236064" CO2_normed="85359.713808" HC_normed="13.936724" PMx_normed="1.784118" NOx_normed="37.385430" fuel_normed="36.693113" electricity_normed="0"
            traveltime="2.09" CO_perVeh="282.913038" CO2_perVeh="9220.007422" HC_perVeh="1.505355" PMx_perVeh="0.192709" NOx_perVeh="4.038134" fuel_perVeh="3.963354" electricity_perVeh="0"/>
        <edge id=":1106006327_1" sampledSeconds="681.91" CO_abs="92607.999954" CO2_abs="3101684.246957" HC_abs="494.802266" PMx_abs="64.786861" NOx_abs="1357.957108" fuel_abs="1333.301915" electricity_abs="0"
            CO_normed="3832.499212" CO2_normed="128360.427151" HC_normed="20.476949" PMx_normed="2.681146" NOx_normed="56.197840" fuel_normed="55.177507" electricity_normed="0"
            traveltime="2.29" CO_perVeh="310.862640" CO2_perVeh="10411.603265" HC_perVeh="1.660931" PMx_perVeh="0.217474" NOx_perVeh="4.558333" fuel_perVeh="4.475572" electricity_perVeh="0"/>
        <edge id=":1106006327_2" sampledSeconds="0.00" CO_abs="0" CO2_abs="0" HC_abs="0" PMx_abs="0" NOx_abs="0" fuel_abs="0" electricity_abs="0"
            CO_normed="0" CO2_normed="0" HC_normed="0" PMx_normed="0" NOx_normed="0" fuel_normed="0" electricity_normed="0"/>
        <edge id=":1106006327_3" sampledSeconds="0.00" CO_abs="0" CO2_abs="0" HC_abs="0" PMx_abs="0" NOx_abs="0" fuel_abs="0" electricity_abs="0"
            CO_normed="0" CO2_normed="0" HC_normed="0" PMx_normed="0" NOx_normed="0" fuel_normed="0" electricity_normed="0"/>
        <edge id=":1107381198_0" sampledSeconds="0.00" CO_abs="0" CO2_abs="0" HC_abs="0" PMx_abs="0" NOx_abs="0" fuel_abs="0" electricity_abs="0"
            CO_normed="0" CO2_normed="0" HC_normed="0" PMx_normed="0" NOx_normed="0" fuel_normed="0" electricity_normed="0"/>
        <edge id=":1107381198_1" sampledSeconds="102.93" CO_abs="4493.477851" CO2_abs="177396.562969" HC_abs="24.542657" PMx_abs="3.059604" NOx_abs="73.486660" fuel_abs="76.256669" electricity_abs="0"
            CO_normed="206.034784" CO2_normed="8133.980797" HC_normed="1.125329" PMx_normed="0.140289" NOx_normed="3.369508" fuel_normed="3.496518" electricity_normed="0"
            traveltime="1.54" CO_perVeh="67.275979" CO2_perVeh="2655.966697" HC_perVeh="0.367451" PMx_perVeh="0.045808" NOx_perVeh="1.100236" fuel_perVeh="1.141709" electricity_perVeh="0"/>
        <edge id=":1110338277_0" sampledSeconds="160.31" CO_abs="2723.674753" CO2_abs="322315.021081" HC_abs="19.791486" PMx_abs="4.483097" NOx_abs="121.169719" fuel_abs="138.549658" electricity_abs="0"
            CO_normed="4090.011142" CO2_normed="484004.937052" HC_normed="29.719921" PMx_normed="6.732051" NOx_normed="181.954729" fuel_normed="208.053346" electricity_normed="0"
            traveltime="0.02" CO_perVeh="0.370253" CO2_perVeh="43.815136" HC_perVeh="0.002690" PMx_perVeh="0.000609" NOx_perVeh="0.016472" fuel_perVeh="0.018834" electricity_perVeh="0"/>
        <edge id=":1110338293_0" sampledSeconds="6536.85" CO_abs="620755.386606" CO2_abs="10869879.720169" HC_abs="3080.819496" PMx_abs="259.335986" NOx_abs="4913.235092" fuel_abs="4672.778081" electricity_abs="0"
            CO_normed="870014.557262" CO2_normed="15234589.656859" HC_normed="4317.896981" PMx_normed="363.470197" NOx_normed="6886.103843" fuel_normed="6549.093316" electricity_normed="0"
            traveltime="0.44" CO_perVeh="41.503600" CO2_perVeh="726.758324" HC_perVeh="0.205983" PMx_perVeh="0.017339" NOx_perVeh="0.328498" fuel_perVeh="0.312421" electricity_perVeh="0"/>
        <edge id=":1110338295_0" sampledSeconds="0.00" CO_abs="0" CO2_abs="0" HC_abs="0" PMx_abs="0" NOx_abs="0" fuel_abs="0" electricity_abs="0"
            CO_normed="0" CO2_normed="0" HC_normed="0" PMx_normed="0" NOx_normed="0" fuel_normed="0" electricity_normed="0"/>
        <edge id=":1110673403_0" sampledSeconds="200.42" CO_abs="3185.452955" CO2_abs="396696.413766" HC_abs="23.581622" PMx_abs="5.413926" NOx_abs="148.078290" fuel_abs="170.523141" electricity_abs="0"
            CO_normed="4464.545136" CO2_normed="555986.564494" HC_normed="33.050626" PMx_normed="7.587843" NOx_normed="207.537898" fuel_normed="238.995293" electricity_normed="0"
            traveltime="0.02" CO_perVeh="0.368161" CO2_perVeh="45.848489" HC_perVeh="0.002725" PMx_perVeh="0.000626" NOx_perVeh="0.017114" fuel_perVeh="0.019708" electricity_perVeh="0"/>
        <edge id=":1110673412_0" sampledSeconds="940.90" CO_abs="165997.898439" CO2_abs="11348186.124001" HC_abs="1033.567404" PMx_abs="249.196140" NOx_abs="4874.658134" fuel_abs="4878.026399" electricity_abs="0"
            CO_normed="240675.492505" CO2_normed="16453402.784719" HC_normed="1498.539116" PMx_normed="361.302187" NOx_normed="7067.624098" fuel_normed="7072.507647" electricity_normed="0"
            traveltime="0.02" CO_perVeh="2.739662" CO2_perVeh="187.292724" HC_perVeh="0.017058" PMx_perVeh="0.004113" NOx_perVeh="0.080452" fuel_perVeh="0.080508" electricity_perVeh="0"/>
        <edge id=":1110673414_0" sampledSeconds="0.00" CO_abs="0" CO2_abs="0" HC_abs="0" PMx_abs="0" NOx_abs="0" fuel_abs="0" electricity_abs="0"
            CO_normed="0" CO2_normed="0" HC_normed="0" PMx_normed="0" NOx_normed="0" fuel_normed="0" electricity_normed="0"/>
        <edge id=":1110673414_1" sampledSeconds="7.23" CO_abs="276.410737" CO2_abs="10577.956064" HC_abs="1.501657" PMx_abs="0.182175" NOx_abs="4.383572" fuel_abs="4.547106" electricity_abs="0"
            CO_normed="12.870471" CO2_normed="492.539750" HC_normed="0.069921" PMx_normed="0.008483" NOx_normed="0.204112" fuel_normed="0.211726" electricity_normed="0"
            traveltime="1.58" CO_perVeh="60.377091" CO2_perVeh="2310.569503" HC_perVeh="0.328011" PMx_perVeh="0.039793" NOx_perVeh="0.957515" fuel_perVeh="0.993236" electricity_perVeh="0"/>
        <edge id=":1110673417_0" sampledSeconds="28.88" CO_abs="466.151570" CO2_abs="53535.411250" HC_abs="3.342808" PMx_abs="0.747778" NOx_abs="20.145155" fuel_abs="23.012625" electricity_abs="0"
            CO_normed="699.997353" CO2_normed="80391.547578" HC_normed="5.019733" PMx_normed="1.122902" NOx_normed="30.251008" fuel_normed="34.556950" electricity_normed="0"
            traveltime="0.02" CO_perVeh="0.355463" CO2_perVeh="40.823321" HC_perVeh="0.002549" PMx_perVeh="0.000570" NOx_perVeh="0.015362" fuel_perVeh="0.017548" electricity_perVeh="0"/>
        <edge id=":1110673446_0" sampledSeconds="1312.49" CO_abs="13753.201100" CO2_abs="1120389.035240" HC_abs="89.137882" PMx_abs="20.357454" NOx_abs="457.137601" fuel_abs="481.603941" electricity_abs="0"
            CO_normed="19275.684794" CO2_normed="1570271.948480" HC_normed="124.930458" PMx_normed="28.531820" NOx_normed="640.697409" fuel_normed="674.988004" electricity_normed="0"
            traveltime="0.02" CO_perVeh="0.238855" CO2_perVeh="19.458046" HC_perVeh="0.001548" PMx_perVeh="0.000354" NOx_perVeh="0.007939" fuel_perVeh="0.008364" electricity_perVeh="0"/>
        <edge id=":1110673451_0" sampledSeconds="36.74" CO_abs="274.475271" CO2_abs="19629.312091" HC_abs="1.700566" PMx_abs="0.287517" NOx_abs="7.660270" fuel_abs="8.437867" electricity_abs="0"
            CO_normed="427.431708" CO2_normed="30568.110397" HC_normed="2.648238" PMx_normed="0.447742" NOx_normed="11.929097" fuel_normed="13.140025" electricity_normed="0"
            traveltime="0.03" CO_perVeh="0.202228" CO2_perVeh="14.462463" HC_perVeh="0.001253" PMx_perVeh="0.000212" NOx_perVeh="0.005644" fuel_perVeh="0.006217" electricity_perVeh="0"/>
        <edge id=":1110673464_0" sampledSeconds="1029.67" CO_abs="3395.588490" CO2_abs="243205.764264" HC_abs="21.013977" PMx_abs="3.392519" NOx_abs="93.806836" fuel_abs="104.544819" electricity_abs="0"
            CO_normed="101.113148" CO2_normed="7242.132138" HC_normed="0.625750" PMx_normed="0.101022" NOx_normed="2.793361" fuel_normed="3.113115" electricity_normed="0"
            traveltime="1.22" CO_perVeh="4.026693" CO2_perVeh="288.407999" HC_perVeh="0.024920" PMx_perVeh="0.004023" NOx_perVeh="0.111242" fuel_perVeh="0.123976" electricity_perVeh="0"/>
        <edge id=":1110673464_1" sampledSeconds="2610.82" CO_abs="68006.035230" CO2_abs="8116306.619685" HC_abs="503.127739" PMx_abs="145.848277" NOx_abs="3088.311541" fuel_abs="3488.825677" electricity_abs="0"
            CO_normed="1984.315627" CO2_normed="236821.835057" HC_normed="14.680524" PMx_normed="4.255637" NOx_normed="90.112368" fuel_normed="101.798778" electricity_normed="0"
            traveltime="0.72" CO_perVeh="18.742625" CO2_perVeh="2236.873459" HC_perVeh="0.138663" PMx_perVeh="0.040196" NOx_perVeh="0.851146" fuel_perVeh="0.961529" electricity_perVeh="0"/>
        <edge id=":1110673479_0" sampledSeconds="134.51" CO_abs="6452.525873" CO2_abs="446562.451978" HC_abs="39.865390" PMx_abs="7.775052" NOx_abs="182.390644" fuel_abs="191.957859" electricity_abs="0"
            CO_normed="9043.484055" CO2_normed="625875.896256" HC_normed="55.873007" PMx_normed="10.897060" NOx_normed="255.628093" fuel_normed="269.036943" electricity_normed="0"
            traveltime="0.03" CO_perVeh="1.364122" CO2_perVeh="94.407340" HC_perVeh="0.008428" PMx_perVeh="0.001644" NOx_perVeh="0.038559" fuel_perVeh="0.040582" electricity_perVeh="0"/>
        <edge id=":1110673511_0" sampledSeconds="63.38" CO_abs="1046.693531" CO2_abs="122371.201082" HC_abs="7.574505" PMx_abs="1.626332" NOx_abs="45.621090" fuel_abs="52.602347" electricity_abs="0"
            CO_normed="1466.984627" CO2_normed="171508.340690" HC_normed="10.615984" PMx_normed="2.279372" NOx_normed="63.939859" fuel_normed="73.724382" electricity_normed="0"
            traveltime="0.02" CO_perVeh="0.401160" CO2_perVeh="46.900492" HC_perVeh="0.002903" PMx_perVeh="0.000623" NOx_perVeh="0.017485" fuel_perVeh="0.020161" electricity_perVeh="0"/>
        <edge id=":1110673517_0" sampledSeconds="181.47" CO_abs="8826.970964" CO2_abs="616871.138858" HC_abs="54.716608" PMx_abs="10.937316" NOx_abs="252.984725" fuel_abs="265.165837" electricity_abs="0"
            CO_normed="12371.367855" CO2_normed="864570.622085" HC_normed="76.687607" PMx_normed="15.329105" NOx_normed="354.568641" fuel_normed="371.640977" electricity_normed="0"
            traveltime="0.03" CO_perVeh="1.351481" CO2_perVeh="94.447965" HC_perVeh="0.008378" PMx_perVeh="0.001675" NOx_perVeh="0.038734" fuel_perVeh="0.040599" electricity_perVeh="0"/>
        <edge id=":1110673534_0" sampledSeconds="659.37" CO_abs="4719.993532" CO2_abs="386837.914559" HC_abs="30.352806" PMx_abs="5.369928" NOx_abs="148.153249" fuel_abs="166.286315" electricity_abs="0"
            CO_normed="128.202863" CO2_normed="10507.160209" HC_normed="0.824433" PMx_normed="0.145856" NOx_normed="4.024088" fuel_normed="4.516612" electricity_normed="0"
            traveltime="1.45" CO_perVeh="10.378564" CO2_perVeh="850.599067" HC_perVeh="0.066741" PMx_perVeh="0.011808" NOx_perVeh="0.325767" fuel_perVeh="0.365639" electricity_perVeh="0"/>
        <edge id=":1110673534_1" sampledSeconds="263.95" CO_abs="4117.106843" CO2_abs="522285.846244" HC_abs="30.709803" PMx_abs="7.072495" NOx_abs="194.509374" fuel_abs="224.508800" electricity_abs="0"
            CO_normed="108.736751" CO2_normed="13794.071432" HC_normed="0.811075" PMx_normed="0.186791" NOx_normed="5.137180" fuel_normed="5.929493" electricity_normed="0"
            traveltime="1.22" CO_perVeh="19.102343" CO2_perVeh="2423.275299" HC_perVeh="0.142486" PMx_perVeh="0.032815" NOx_perVeh="0.902475" fuel_perVeh="1.041665" electricity_perVeh="0"/>
        <edge id=":1110673549_0" sampledSeconds="654.12" CO_abs="1560.929444" CO2_abs="162538.497474" HC_abs="10.758111" PMx_abs="2.210019" NOx_abs="60.826012" fuel_abs="69.868679" electricity_abs="0"
            CO_normed="41.070858" CO2_normed="4276.679876" HC_normed="0.283065" PMx_normed="0.058150" NOx_normed="1.600442" fuel_normed="1.838370" electricity_normed="0"
            traveltime="1.30" CO_perVeh="3.101195" CO2_perVeh="322.925278" HC_perVeh="0.021374" PMx_perVeh="0.004391" NOx_perVeh="0.120847" fuel_perVeh="0.138812" electricity_perVeh="0"/>
        <edge id=":1110673549_1" sampledSeconds="3197.04" CO_abs="69422.433284" CO2_abs="9077634.402101" HC_abs="533.121740" PMx_abs="159.901067" NOx_abs="3396.484446" fuel_abs="3902.059299" electricity_abs="0"
            CO_normed="1766.920730" CO2_normed="231041.460915" HC_normed="13.568868" PMx_normed="4.069758" NOx_normed="86.446390" fuel_normed="99.314143" electricity_normed="0"
            traveltime="0.81" CO_perVeh="17.511661" CO2_perVeh="2289.814003" HC_perVeh="0.134479" PMx_perVeh="0.040335" NOx_perVeh="0.856756" fuel_perVeh="0.984286" electricity_perVeh="0"/>
        <edge id=":1110673556_0" sampledSeconds="464.74" CO_abs="57213.653593" CO2_abs="2762717.386263" HC_abs="326.124251" PMx_abs="55.722211" NOx_abs="1190.787884" fuel_abs="1187.574342" electricity_abs="0"
            CO_normed="1116.296813" CO2_normed="53903.437737" HC_normed="6.363017" PMx_normed="1.087197" NOx_normed="23.233488" fuel_normed="23.170788" electricity_normed="0"
            traveltime="2.74" CO_perVeh="337.269467" CO2_perVeh="16285.976557" HC_perVeh="1.922474" PMx_perVeh="0.328478" NOx_perVeh="7.019590" fuel_perVeh="7.000647" electricity_perVeh="0"/>
        <edge id=":1110673556_2" sampledSeconds="174.42" CO_abs="17140.358035" CO2_abs="735222.299096" HC_abs="95.321370" PMx_abs="14.235496" NOx_abs="313.877975" fuel_abs="316.043160" electricity_abs="0"
            CO_normed="349.678697" CO2_normed="14999.195166" HC_normed="1.944642" PMx_normed="0.290417" NOx_normed="6.403393" fuel_normed="6.447564" electricity_normed="0"
            traveltime="3.02" CO_perVeh="296.381283" CO2_perVeh="12713.044151" HC_perVeh="1.648243" PMx_perVeh="0.246152" NOx_perVeh="5.427399" fuel_perVeh="5.464838" electricity_perVeh="0"/>
        <edge id=":1110673556_3" sampledSeconds="338.54" CO_abs="34360.730068" CO2_abs="1182139.417353" HC_abs="184.085914" PMx_abs="23.326888" NOx_abs="509.119480" fuel_abs="508.160241" electricity_abs="0"
            CO_normed="1594.635626" CO2_normed="54861.512707" HC_normed="8.543182" PMx_normed="1.082570" NOx_normed="23.627556" fuel_normed="23.583039" electricity_normed="0"
            traveltime="1.85" CO_perVeh="187.851928" CO2_perVeh="6462.818683" HC_perVeh="1.006407" PMx_perVeh="0.127529" NOx_perVeh="2.783383" fuel_perVeh="2.778139" electricity_perVeh="0"/>
        <edge id=":1110673556_4" sampledSeconds="96.31" CO_abs="10548.332477" CO2_abs="409873.468767" HC_abs="57.673910" PMx_abs="8.183972" NOx_abs="176.890196" fuel_abs="176.188928" electricity_abs="0"
            CO_normed="299.067993" CO2_normed="11620.797502" HC_normed="1.635180" PMx_normed="0.232033" NOx_normed="5.015219" fuel_normed="4.995336" electricity_normed="0"
            traveltime="2.52" CO_perVeh="275.495352" CO2_perVeh="10704.842277" HC_perVeh="1.506294" PMx_perVeh="0.213744" NOx_perVeh="4.619918" fuel_perVeh="4.601602" electricity_perVeh="0"/>
        <edge id=":1110673556_5" sampledSeconds="23.10" CO_abs="1055.548323" CO2_abs="47623.157596" HC_abs="5.908086" PMx_abs="0.825055" NOx_abs="19.712523" fuel_abs="20.471424" electricity_abs="0"
            CO_normed="41.712265" CO2_normed="1881.931609" HC_normed="0.233471" PMx_normed="0.032604" NOx_normed="0.778983" fuel_normed="0.808972" electricity_normed="0"
            traveltime="1.60" CO_perVeh="72.976180" CO2_perVeh="3292.465216" HC_perVeh="0.408460" PMx_perVeh="0.057041" NOx_perVeh="1.362841" fuel_perVeh="1.415308" electricity_perVeh="0"/>
        <edge id=":1110673556_6" sampledSeconds="553.54" CO_abs="66771.164303" CO2_abs="3204231.234879" HC_abs="380.101134" PMx_abs="64.567129" NOx_abs="1380.892995" fuel_abs="1377.362736" electricity_abs="0"
            CO_normed="1335.621848" CO2_normed="64094.153362" HC_normed="7.603153" PMx_normed="1.291535" NOx_normed="27.621966" fuel_normed="27.551351" electricity_normed="0"
            traveltime="2.69" CO_perVeh="324.188765" CO2_perVeh="15557.251085" HC_perVeh="1.845475" PMx_perVeh="0.313488" NOx_perVeh="6.704541" fuel_perVeh="6.687401" electricity_perVeh="0"/>
        <edge id=":1110673561_0" sampledSeconds="103.41" CO_abs="9706.847811" CO2_abs="688643.128383" HC_abs="60.754960" PMx_abs="13.928412" NOx_abs="291.584608" fuel_abs="296.014912" electricity_abs="0"
            CO_normed="243.954906" CO2_normed="17307.149874" HC_normed="1.526909" PMx_normed="0.350052" NOx_normed="7.328177" fuel_normed="7.439520" electricity_normed="0"
            traveltime="1.22" CO_perVeh="114.550226" CO2_perVeh="8126.657312" HC_perVeh="0.716967" PMx_perVeh="0.164369" NOx_perVeh="3.440981" fuel_perVeh="3.493263" electricity_perVeh="0"/>
        <edge id=":1110673561_1" sampledSeconds="5187.49" CO_abs="485163.028762" CO2_abs="33597107.439399" HC_abs="3022.003192" PMx_abs="702.261949" NOx_abs="14365.009270" fuel_abs="14441.773951" electricity_abs="0"
            CO_normed="11887.696051" CO2_normed="823212.359035" HC_normed="74.046564" PMx_normed="17.207157" NOx_normed="351.978312" fuel_normed="353.859237" electricity_normed="0"
            traveltime="1.19" CO_perVeh="111.471935" CO2_perVeh="7719.332191" HC_perVeh="0.694341" PMx_perVeh="0.161353" NOx_perVeh="3.300531" fuel_perVeh="3.318168" electricity_perVeh="0"/>
        <edge id=":1110673562_0" sampledSeconds="301.55" CO_abs="6915.300044" CO2_abs="528902.013198" HC_abs="43.554899" PMx_abs="7.222002" NOx_abs="202.504653" fuel_abs="227.354555" electricity_abs="0"
            CO_normed="10768.979279" CO2_normed="823642.471694" HC_normed="67.826675" PMx_normed="11.246597" NOx_normed="315.354128" fuel_normed="354.052098" electricity_normed="0"
            traveltime="0.03" CO_perVeh="0.619897" CO2_perVeh="47.411535" HC_perVeh="0.003904" PMx_perVeh="0.000647" NOx_perVeh="0.018153" fuel_perVeh="0.020380" electricity_perVeh="0"/>
        <edge id=":1110673564_0" sampledSeconds="27.57" CO_abs="475.838155" CO2_abs="54286.487745" HC_abs="3.406531" PMx_abs="0.788439" NOx_abs="20.601611" fuel_abs="23.335439" electricity_abs="0"
            CO_normed="2000.721043" CO2_normed="228254.328289" HC_normed="14.323184" PMx_normed="3.315092" NOx_normed="86.622052" fuel_normed="98.116774" electricity_normed="0"
            traveltime="7.785653e-03" CO_perVeh="0.134399" CO2_perVeh="15.333000" HC_perVeh="0.000962" PMx_perVeh="0.000223" NOx_perVeh="0.005819" fuel_perVeh="0.006591" electricity_perVeh="0"/>
        <edge id=":1110673588_0" sampledSeconds="62.83" CO_abs="1261.120959" CO2_abs="132448.705335" HC_abs="8.798115" PMx_abs="1.857145" NOx_abs="50.221484" fuel_abs="56.934191" electricity_abs="0"
            CO_normed="2121.016329" CO2_normed="222758.859708" HC_normed="14.797111" PMx_normed="3.123439" NOx_normed="84.465004" fuel_normed="95.754771" electricity_normed="0"
            traveltime="0.02" CO_perVeh="0.406813" CO2_perVeh="42.725389" HC_perVeh="0.002838" PMx_perVeh="0.000599" NOx_perVeh="0.016200" fuel_perVeh="0.018366" electricity_perVeh="0"/>
        <edge id=":1110673601_0" sampledSeconds="28.95" CO_abs="488.931760" CO2_abs="61614.800009" HC_abs="3.617139" PMx_abs="0.805373" NOx_abs="22.782668" fuel_abs="26.485663" electricity_abs="0"
            CO_normed="734.205266" CO2_normed="92523.976388" HC_normed="5.431684" PMx_normed="1.209390" NOx_normed="34.211635" fuel_normed="39.772243" electricity_normed="0"
            traveltime="0.02" CO_perVeh="0.372834" CO2_perVeh="46.984242" HC_perVeh="0.002758" PMx_perVeh="0.000614" NOx_perVeh="0.017373" fuel_perVeh="0.020197" electricity_perVeh="0"/>
        <edge id=":1110673617_0" sampledSeconds="852.94" CO_abs="32577.749087" CO2_abs="3289177.911763" HC_abs="227.146307" PMx_abs="62.070639" NOx_abs="1290.364443" fuel_abs="1413.863569" electricity_abs="0"
            CO_normed="45659.073703" CO2_normed="4609919.988455" HC_normed="318.355020" PMx_normed="86.994589" NOx_normed="1808.499570" fuel_normed="1981.588744" electricity_normed="0"
            traveltime="0.02" CO_perVeh="0.577831" CO2_perVeh="58.340099" HC_perVeh="0.004029" PMx_perVeh="0.001101" NOx_perVeh="0.022887" fuel_perVeh="0.025078" electricity_perVeh="0"/>
        <edge id=":1110673621_0" sampledSeconds="26.25" CO_abs="563.317973" CO2_abs="54776.790148" HC_abs="3.832479" PMx_abs="0.845033" NOx_abs="21.284704" fuel_abs="23.546179" electricity_abs="0"
            CO_normed="947.416353" CO2_normed="92126.346430" HC_normed="6.445654" PMx_normed="1.421219" NOx_normed="35.797680" fuel_normed="39.601142" electricity_normed="0"
            traveltime="0.02" CO_perVeh="0.426756" CO2_perVeh="41.497568" HC_perVeh="0.002903" PMx_perVeh="0.000640" NOx_perVeh="0.016125" fuel_perVeh="0.017838" electricity_perVeh="0"/>
        <edge id=":1110673630_0" sampledSeconds="287.12" CO_abs="1156.063933" CO2_abs="104936.478475" HC_abs="7.644296" PMx_abs="1.306788" NOx_abs="39.103934" fuel_abs="45.108175" electricity_abs="0"
            CO_normed="34.670581" CO2_normed="3147.065264" HC_normed="0.229254" PMx_normed="0.039191" NOx_normed="1.172735" fuel_normed="1.352803" electricity_normed="0"
            traveltime="1.29" CO_perVeh="5.201846" CO2_perVeh="472.174076" HC_perVeh="0.034396" PMx_perVeh="0.005880" NOx_perVeh="0.175953" fuel_perVeh="0.202970" electricity_perVeh="0"/>
        <edge id=":1110673630_1" sampledSeconds="337.26" CO_abs="1101.148841" CO2_abs="89015.234358" HC_abs="7.048176" PMx_abs="1.216770" NOx_abs="34.012021" fuel_abs="38.264165" electricity_abs="0"
            CO_normed="40.260157" CO2_normed="3254.571196" HC_normed="0.257695" PMx_normed="0.044488" NOx_normed="1.243546" fuel_normed="1.399013" electricity_normed="0"
            traveltime="1.08" CO_perVeh="3.510246" CO2_perVeh="283.763048" HC_perVeh="0.022468" PMx_perVeh="0.003879" NOx_perVeh="0.108424" fuel_perVeh="0.121979" electricity_perVeh="0"/>
        <edge id=":1110673650_0" sampledSeconds="199.76" CO_abs="2854.794610" CO2_abs="355974.071854" HC_abs="21.161850" PMx_abs="4.908885" NOx_abs="133.156119" fuel_abs="153.018241" electricity_abs="0"
            CO_normed="4001.113679" CO2_normed="498912.504350" HC_normed="29.659215" PMx_normed="6.880007" NOx_normed="186.623853" fuel_normed="214.461445" electricity_normed="0"
            traveltime="0.02" CO_perVeh="0.329945" CO2_perVeh="41.141974" HC_perVeh="0.002446" PMx_perVeh="0.000567" NOx_perVeh="0.015390" fuel_perVeh="0.017685" electricity_perVeh="0"/>
        <edge id=":1110673655_0" sampledSeconds="20.69" CO_abs="359.206350" CO2_abs="40411.318734" HC_abs="2.574171" PMx_abs="0.584701" NOx_abs="15.348812" fuel_abs="17.371106" electricity_abs="0"
            CO_normed="503.442677" CO2_normed="56638.148191" HC_normed="3.607808" PMx_normed="0.819483" NOx_normed="21.511999" fuel_normed="24.346329" electricity_normed="0"
            traveltime="0.02" CO_perVeh="0.410365" CO2_perVeh="46.166777" HC_perVeh="0.002941" PMx_perVeh="0.000668" NOx_perVeh="0.017535" fuel_perVeh="0.019845" electricity_perVeh="0"/>
        <edge id=":1110673663_0" sampledSeconds="110.29" CO_abs="1887.399145" CO2_abs="216166.366326" HC_abs="13.576725" PMx_abs="2.996596" NOx_abs="81.291249" fuel_abs="92.920884" electricity_abs="0"
            CO_normed="48.448143" CO2_normed="5548.831056" HC_normed="0.348505" PMx_normed="0.076920" NOx_normed="2.086686" fuel_normed="2.385211" electricity_normed="0"
            traveltime="1.30" CO_perVeh="22.168540" CO2_perVeh="2538.992699" HC_perVeh="0.159466" PMx_perVeh="0.035197" NOx_perVeh="0.954810" fuel_perVeh="1.091407" electricity_perVeh="0"/>
        <edge id=":1110673663_1" sampledSeconds="170.70" CO_abs="2323.200629" CO2_abs="304515.033217" HC_abs="17.431375" PMx_abs="3.954270" NOx_abs="112.212624" fuel_abs="130.898438" electricity_abs="0"
            CO_normed="59.707748" CO2_normed="7826.231957" HC_normed="0.447998" PMx_normed="0.101627" NOx_normed="2.883937" fuel_normed="3.364174" electricity_normed="0"
            traveltime="1.27" CO_perVeh="17.350990" CO2_perVeh="2274.292269" HC_perVeh="0.130187" PMx_perVeh="0.029533" NOx_perVeh="0.838068" fuel_perVeh="0.977624" electricity_perVeh="0"/>