<?xml version="1.0" encoding="UTF-8"?>

<!-- generated on qua 02 set 2020 19:24:49 by Eclipse SUMO GUI Version 1.6.0
<configuration xmlns:xsi="http://www.w3.org/2001/XMLSchema-instance" xsi:noNamespaceSchemaLocation="http://sumo.dlr.de/xsd/sumoConfiguration.xsd">

    <input>
        <net-file value="../dataSets/Angeja_Estarreja/angeja_estarreja.net.xml"/>
        <route-files value="../results/angeja_estarreja/length-ttime/solution7/angeja_estarreja.rou.xml"/>
        <additional-files value="moreOutputInfo.xml"/>
    </input>

    <output>
        <emission-output.precision value="6"/>
        <tripinfo-output value="../results/angeja_estarreja/length-ttime/solution7/angeja_estarreja-tripinfo"/>
    </output>

    <processing>
        <collision.action value="warn"/>
        <time-to-teleport value="-1"/>
    </processing>

    <emissions>
        <device.emissions.probability value="1"/>
    </emissions>

    <gui_only>
        <gui-settings-file value="gui-settings.xml"/>
        <quit-on-end value="true"/>
        <start value="true"/>
        <window-size value="924,923"/>
        <window-pos value="996,27"/>
    </gui_only>

</configuration>
-->

<meandata xmlns:xsi="http://www.w3.org/2001/XMLSchema-instance" xsi:noNamespaceSchemaLocation="http://sumo.dlr.de/xsd/meandata_file.xsd">
    <interval begin="0.00" end="19080.00" id="emissions-detector">
        <edge id=":10_0" sampledSeconds="415.34" CO_abs="41704.280272" CO2_abs="2296988.913634" HC_abs="244.394761" PMx_abs="45.013900" NOx_abs="979.857153" fuel_abs="987.374708" electricity_abs="0"
            CO_normed="449.898921" CO2_normed="24779.538859" HC_normed="2.636491" PMx_normed="0.485603" NOx_normed="10.570538" fuel_normed="10.651636" electricity_normed="0"
            traveltime="1.90" CO_perVeh="190.916128" CO2_perVeh="10515.281081" HC_perVeh="1.118804" PMx_perVeh="0.206067" NOx_perVeh="4.485643" fuel_perVeh="4.520058" electricity_perVeh="0"/>
        <edge id=":10_1" sampledSeconds="0.00" CO_abs="0" CO2_abs="0" HC_abs="0" PMx_abs="0" NOx_abs="0" fuel_abs="0" electricity_abs="0"
            CO_normed="0" CO2_normed="0" HC_normed="0" PMx_normed="0" NOx_normed="0" fuel_normed="0" electricity_normed="0"/>
        <edge id=":100_0" sampledSeconds="0.00" CO_abs="0" CO2_abs="0" HC_abs="0" PMx_abs="0" NOx_abs="0" fuel_abs="0" electricity_abs="0"
            CO_normed="0" CO2_normed="0" HC_normed="0" PMx_normed="0" NOx_normed="0" fuel_normed="0" electricity_normed="0"/>
        <edge id=":100_1" sampledSeconds="912.12" CO_abs="21544.639942" CO2_abs="2723554.546095" HC_abs="164.222698" PMx_abs="49.214846" NOx_abs="1016.850978" fuel_abs="1170.731271" electricity_abs="0"
            CO_normed="137.517808" CO2_normed="17384.242769" HC_normed="1.048221" PMx_normed="0.314135" NOx_normed="6.490483" fuel_normed="7.472689" electricity_normed="0"
            traveltime="1.37" CO_perVeh="32.398088" CO2_perVeh="4095.587576" HC_perVeh="0.246952" PMx_perVeh="0.074008" NOx_perVeh="1.529105" fuel_perVeh="1.760505" electricity_perVeh="0"/>
        <edge id=":101_0" sampledSeconds="438.32" CO_abs="11404.728040" CO2_abs="1375105.401163" HC_abs="85.348204" PMx_abs="25.187831" NOx_abs="517.403135" fuel_abs="591.094533" electricity_abs="0"
            CO_normed="263.382556" CO2_normed="31756.897096" HC_normed="1.971045" PMx_normed="0.581692" NOx_normed="11.948988" fuel_normed="13.650829" electricity_normed="0"
            traveltime="0.38" CO_perVeh="9.852204" CO2_perVeh="1187.912493" HC_perVeh="0.073730" PMx_perVeh="0.021759" NOx_perVeh="0.446969" fuel_perVeh="0.510629" electricity_perVeh="0"/>
        <edge id=":102_0" sampledSeconds="341.39" CO_abs="8048.686347" CO2_abs="1033058.574679" HC_abs="61.718898" PMx_abs="18.593492" NOx_abs="384.597959" fuel_abs="444.064604" electricity_abs="0"
            CO_normed="187.483959" CO2_normed="24063.791630" HC_normed="1.437664" PMx_normed="0.433112" NOx_normed="8.958723" fuel_normed="10.343923" electricity_normed="0"
            traveltime="0.38" CO_perVeh="8.854262" CO2_perVeh="1136.455162" HC_perVeh="0.067896" PMx_perVeh="0.020454" NOx_perVeh="0.423092" fuel_perVeh="0.488510" electricity_perVeh="0"/>
        <edge id=":103_0" sampledSeconds="434.20" CO_abs="10389.048137" CO2_abs="1287144.736796" HC_abs="78.617103" PMx_abs="23.405586" NOx_abs="482.045913" fuel_abs="553.284435" electricity_abs="0"
            CO_normed="243.502828" CO2_normed="30168.633231" HC_normed="1.842660" PMx_normed="0.548590" NOx_normed="11.298392" fuel_normed="12.968111" electricity_normed="0"
            traveltime="0.37" CO_perVeh="8.925878" CO2_perVeh="1105.866115" HC_perVeh="0.067545" PMx_perVeh="0.020109" NOx_perVeh="0.414156" fuel_perVeh="0.475361" electricity_perVeh="0"/>
        <edge id=":104_0" sampledSeconds="340.89" CO_abs="8693.473818" CO2_abs="1046504.431761" HC_abs="65.004179" PMx_abs="19.180328" NOx_abs="393.725595" fuel_abs="449.844100" electricity_abs="0"
            CO_normed="202.753780" CO2_normed="24407.128105" HC_normed="1.516062" PMx_normed="0.447334" NOx_normed="9.182676" fuel_normed="10.491501" electricity_normed="0"
            traveltime="0.37" CO_perVeh="9.559215" CO2_perVeh="1150.720759" HC_perVeh="0.071478" PMx_perVeh="0.021090" NOx_perVeh="0.432935" fuel_perVeh="0.494642" electricity_perVeh="0"/>
        <edge id=":105_0" sampledSeconds="168.69" CO_abs="4094.413357" CO2_abs="504273.743745" HC_abs="30.915140" PMx_abs="9.184608" NOx_abs="189.071828" fuel_abs="216.764120" electricity_abs="0"
            CO_normed="3511.503737" CO2_normed="432481.769935" HC_normed="26.513842" PMx_normed="7.877022" NOx_normed="162.154226" fuel_normed="185.904048" electricity_normed="0"
            traveltime="0.01" CO_perVeh="0.247598" CO2_perVeh="30.494504" HC_perVeh="0.001870" PMx_perVeh="0.000555" NOx_perVeh="0.011434" fuel_perVeh="0.013108" electricity_perVeh="0"/>
        <edge id=":106_0" sampledSeconds="134.55" CO_abs="3241.665462" CO2_abs="405952.418558" HC_abs="24.625607" PMx_abs="7.357034" NOx_abs="151.785292" fuel_abs="174.500325" electricity_abs="0"
            CO_normed="1973.016106" CO2_normed="247079.986949" HC_normed="14.988197" PMx_normed="4.477805" NOx_normed="92.383014" fuel_normed="106.208353" electricity_normed="0"
            traveltime="0.01" CO_perVeh="0.346597" CO2_perVeh="43.404193" HC_perVeh="0.002633" PMx_perVeh="0.000787" NOx_perVeh="0.016229" fuel_perVeh="0.018657" electricity_perVeh="0"/>
        <edge id=":107_0" sampledSeconds="438.54" CO_abs="10700.145634" CO2_abs="1364939.450036" HC_abs="81.895554" PMx_abs="24.608086" NOx_abs="508.907344" fuel_abs="586.724956" electricity_abs="0"
            CO_normed="247.110820" CO2_normed="31522.123046" HC_normed="1.891309" PMx_normed="0.568303" NOx_normed="11.752785" fuel_normed="13.549917" electricity_normed="0"
            traveltime="0.38" CO_perVeh="9.243536" CO2_perVeh="1179.130431" HC_perVeh="0.070747" PMx_perVeh="0.021258" NOx_perVeh="0.439630" fuel_perVeh="0.506854" electricity_perVeh="0"/>
        <edge id=":108_0" sampledSeconds="93.42" CO_abs="7897.412218" CO2_abs="580051.278318" HC_abs="49.869270" PMx_abs="11.561810" NOx_abs="244.007267" fuel_abs="249.336513" electricity_abs="0"
            CO_normed="123.863489" CO2_normed="9097.559220" HC_normed="0.782153" PMx_normed="0.181336" NOx_normed="3.827025" fuel_normed="3.910609" electricity_normed="0"
            traveltime="0.85" CO_perVeh="72.178065" CO2_perVeh="5301.354163" HC_perVeh="0.455778" PMx_perVeh="0.105669" NOx_perVeh="2.230094" fuel_perVeh="2.278801" electricity_perVeh="0"/>
        <edge id=":108_1" sampledSeconds="402.72" CO_abs="9762.268522" CO2_abs="1214950.400587" HC_abs="73.980289" PMx_abs="22.058745" NOx_abs="454.680331" fuel_abs="522.251425" electricity_abs="0"
            CO_normed="142.785849" CO2_normed="17770.226716" HC_normed="1.082058" PMx_normed="0.322638" NOx_normed="6.650290" fuel_normed="7.638605" electricity_normed="0"
            traveltime="0.60" CO_perVeh="14.502092" CO2_perVeh="1804.838915" HC_perVeh="0.109900" PMx_perVeh="0.032769" NOx_perVeh="0.675439" fuel_perVeh="0.775817" electricity_perVeh="0"/>
        <edge id=":109_0" sampledSeconds="307.10" CO_abs="124.136005" CO2_abs="17814.261312" HC_abs="0.970432" PMx_abs="0.251446" NOx_abs="6.487389" fuel_abs="7.657596" electricity_abs="0"
            CO_normed="1.866286" CO2_normed="267.823217" HC_normed="0.014590" PMx_normed="0.003780" NOx_normed="0.097533" fuel_normed="0.115126" electricity_normed="0"
            traveltime="0.85" CO_perVeh="0.345029" CO2_perVeh="49.513676" HC_perVeh="0.002697" PMx_perVeh="0.000699" NOx_perVeh="0.018031" fuel_perVeh="0.021284" electricity_perVeh="0"/>
        <edge id=":109_1" sampledSeconds="524.59" CO_abs="12291.411824" CO2_abs="1546971.391989" HC_abs="93.437995" PMx_abs="27.978112" NOx_abs="577.776774" fuel_abs="664.972086" electricity_abs="0"
            CO_normed="120.537126" CO2_normed="15170.550661" HC_normed="0.916310" PMx_normed="0.274371" NOx_normed="5.666034" fuel_normed="6.521124" electricity_normed="0"
            traveltime="0.89" CO_perVeh="20.929347" CO2_perVeh="2634.123877" HC_perVeh="0.159103" PMx_perVeh="0.047640" NOx_perVeh="0.983816" fuel_perVeh="1.132289" electricity_perVeh="0"/>
        <edge id=":11_0" sampledSeconds="296.31" CO_abs="18170.191742" CO2_abs="1322148.511835" HC_abs="113.937006" PMx_abs="23.565336" NOx_abs="541.844256" fuel_abs="568.332930" electricity_abs="0"
            CO_normed="187.854141" CO2_normed="13669.149773" HC_normed="1.177948" PMx_normed="0.243632" NOx_normed="5.601905" fuel_normed="5.875760" electricity_normed="0"
            traveltime="1.59" CO_perVeh="97.416569" CO2_perVeh="7088.487174" HC_perVeh="0.610855" PMx_perVeh="0.126342" NOx_perVeh="2.905011" fuel_perVeh="3.047026" electricity_perVeh="0"/>
        <edge id=":11_1" sampledSeconds="50.66" CO_abs="1106.452359" CO2_abs="98719.832865" HC_abs="7.279704" PMx_abs="1.245844" NOx_abs="36.912379" fuel_abs="42.435866" electricity_abs="0"
            CO_normed="11.728348" CO2_normed="1046.426043" HC_normed="0.077165" PMx_normed="0.013206" NOx_normed="0.391270" fuel_normed="0.449818" electricity_normed="0"
            traveltime="1.67" CO_perVeh="36.391079" CO2_perVeh="3246.882899" HC_perVeh="0.239429" PMx_perVeh="0.040976" NOx_perVeh="1.214044" fuel_perVeh="1.395710" electricity_perVeh="0"/>
        <edge id=":110_0" sampledSeconds="94.88" CO_abs="0" CO2_abs="0" HC_abs="0" PMx_abs="0" NOx_abs="0" fuel_abs="0" electricity_abs="0"
            CO_normed="0" CO2_normed="0" HC_normed="0" PMx_normed="0" NOx_normed="0" fuel_normed="0" electricity_normed="0"
            traveltime="0.93" CO_perVeh="0" CO2_perVeh="0" HC_perVeh="0" PMx_perVeh="0" NOx_perVeh="0" fuel_perVeh="0" electricity_perVeh="0"/>
        <edge id=":110_1" sampledSeconds="443.93" CO_abs="10805.989519" CO2_abs="1330723.677374" HC_abs="81.623269" PMx_abs="24.243917" NOx_abs="498.996354" fuel_abs="572.016981" electricity_abs="0"
            CO_normed="138.698364" CO2_normed="17080.267968" HC_normed="1.047661" PMx_normed="0.311179" NOx_normed="6.404779" fuel_normed="7.342023" electricity_normed="0"
            traveltime="0.68" CO_perVeh="16.599583" CO2_perVeh="2044.186475" HC_perVeh="0.125385" PMx_perVeh="0.037242" NOx_perVeh="0.766531" fuel_perVeh="0.878702" electricity_perVeh="0"/>
        <edge id=":111_0" sampledSeconds="340.82" CO_abs="8335.846765" CO2_abs="1098134.358766" HC_abs="64.620014" PMx_abs="19.621167" NOx_abs="407.371818" fuel_abs="472.037796" electricity_abs="0"
            CO_normed="192.509336" CO2_normed="25360.484949" HC_normed="1.492345" PMx_normed="0.453134" NOx_normed="9.407908" fuel_normed="10.901314" electricity_normed="0"
            traveltime="0.38" CO_perVeh="9.264009" CO2_perVeh="1220.407110" HC_perVeh="0.071815" PMx_perVeh="0.021806" NOx_perVeh="0.452731" fuel_perVeh="0.524597" electricity_perVeh="0"/>
        <edge id=":114_0" sampledSeconds="107.02" CO_abs="10846.283423" CO2_abs="766185.231694" HC_abs="67.862548" PMx_abs="15.742718" NOx_abs="325.797787" fuel_abs="329.346259" electricity_abs="0"
            CO_normed="144.117505" CO2_normed="10180.510652" HC_normed="0.901708" PMx_normed="0.209178" NOx_normed="4.328963" fuel_normed="4.376113" electricity_normed="0"
            traveltime="0.99" CO_perVeh="100.340223" CO2_perVeh="7088.068204" HC_perVeh="0.627804" PMx_perVeh="0.145638" NOx_perVeh="3.013993" fuel_perVeh="3.046820" electricity_perVeh="0"/>
        <edge id=":114_1" sampledSeconds="416.29" CO_abs="9880.802417" CO2_abs="1247275.714840" HC_abs="75.200490" PMx_abs="22.530033" NOx_abs="465.819805" fuel_abs="536.146655" electricity_abs="0"
            CO_normed="130.462025" CO2_normed="16468.512284" HC_normed="0.992916" PMx_normed="0.297477" NOx_normed="6.150492" fuel_normed="7.079059" electricity_normed="0"
            traveltime="0.66" CO_perVeh="15.744780" CO2_perVeh="1987.498658" HC_perVeh="0.119830" PMx_perVeh="0.035901" NOx_perVeh="0.742271" fuel_perVeh="0.854335" electricity_perVeh="0"/>
        <edge id=":115_0" sampledSeconds="80.17" CO_abs="68.484882" CO2_abs="10285.617809" HC_abs="0.547708" PMx_abs="0.129973" NOx_abs="3.750758" fuel_abs="4.421362" electricity_abs="0"
            CO_normed="1.547506" CO2_normed="232.417078" HC_normed="0.012376" PMx_normed="0.002937" NOx_normed="0.084753" fuel_normed="0.099906" electricity_normed="0"
            traveltime="0.63" CO_perVeh="0.538921" CO2_perVeh="80.939505" HC_perVeh="0.004310" PMx_perVeh="0.001023" NOx_perVeh="0.029515" fuel_perVeh="0.034793" electricity_perVeh="0"/>
        <edge id=":115_1" sampledSeconds="72.15" CO_abs="1061.635846" CO2_abs="183387.156785" HC_abs="8.878014" PMx_abs="2.628832" NOx_abs="67.116551" fuel_abs="78.830081" electricity_abs="0"
            CO_normed="21.423385" CO2_normed="3700.679180" HC_normed="0.179155" PMx_normed="0.053049" NOx_normed="1.354385" fuel_normed="1.590759" electricity_normed="0"
            traveltime="0.59" CO_perVeh="8.691266" CO2_perVeh="1501.330808" HC_perVeh="0.072681" PMx_perVeh="0.021521" NOx_perVeh="0.549461" fuel_perVeh="0.645356" electricity_perVeh="0"/>
        <edge id=":116_0" sampledSeconds="75.32" CO_abs="164.494474" CO2_abs="22548.164419" HC_abs="1.256007" PMx_abs="0.293625" NOx_abs="8.303354" fuel_abs="9.692518" electricity_abs="0"
            CO_normed="4.149291" CO2_normed="568.766129" HC_normed="0.031682" PMx_normed="0.007407" NOx_normed="0.209448" fuel_normed="0.244489" electricity_normed="0"
            traveltime="0.57" CO_perVeh="1.242057" CO2_perVeh="170.255564" HC_perVeh="0.009484" PMx_perVeh="0.002217" NOx_perVeh="0.062697" fuel_perVeh="0.073186" electricity_perVeh="0"/>
        <edge id=":117_0" sampledSeconds="241.54" CO_abs="13581.318278" CO2_abs="1134549.859502" HC_abs="88.824102" PMx_abs="20.777843" NOx_abs="462.794451" fuel_abs="487.690622" electricity_abs="0"
            CO_normed="306.887770" CO2_normed="25636.648051" HC_normed="2.007098" PMx_normed="0.469503" NOx_normed="10.457450" fuel_normed="11.020012" electricity_normed="0"
            traveltime="0.60" CO_perVeh="33.985222" CO2_perVeh="2839.041724" HC_perVeh="0.222269" PMx_perVeh="0.051993" NOx_perVeh="1.158074" fuel_perVeh="1.220373" electricity_perVeh="0"/>
        <edge id=":117_1" sampledSeconds="75.61" CO_abs="4669.984393" CO2_abs="391545.891498" HC_abs="30.566406" PMx_abs="7.179613" NOx_abs="159.703078" fuel_abs="168.307484" electricity_abs="0"
            CO_normed="99.450240" CO2_normed="8338.214820" HC_normed="0.650931" PMx_normed="0.152894" NOx_normed="3.400977" fuel_normed="3.584213" electricity_normed="0"
            traveltime="0.64" CO_perVeh="39.482105" CO2_perVeh="3310.301439" HC_perVeh="0.258422" PMx_perVeh="0.060700" NOx_perVeh="1.350200" fuel_perVeh="1.422946" electricity_perVeh="0"/>
        <edge id=":118_0" sampledSeconds="897.47" CO_abs="12453.653680" CO2_abs="1967971.449290" HC_abs="100.736179" PMx_abs="28.948069" NOx_abs="727.657654" fuel_abs="845.944070" electricity_abs="0"
            CO_normed="37.783341" CO2_normed="5970.660360" HC_normed="0.305625" PMx_normed="0.087826" NOx_normed="2.207652" fuel_normed="2.566523" electricity_normed="0"
            traveltime="3.92" CO_perVeh="54.332869" CO2_perVeh="8585.876646" HC_perVeh="0.439492" PMx_perVeh="0.126295" NOx_perVeh="3.174629" fuel_perVeh="3.690689" electricity_perVeh="0"/>
        <edge id=":118_4" sampledSeconds="283.99" CO_abs="3699.451896" CO2_abs="599123.896344" HC_abs="30.099401" PMx_abs="8.585904" NOx_abs="219.906089" fuel_abs="257.537184" electricity_abs="0"
            CO_normed="11.245526" CO2_normed="1821.205809" HC_normed="0.091496" PMx_normed="0.026099" NOx_normed="0.668466" fuel_normed="0.782857" electricity_normed="0"
            traveltime="3.94" CO_perVeh="51.290609" CO2_perVeh="8306.481714" HC_perVeh="0.417310" PMx_perVeh="0.119038" NOx_perVeh="3.048862" fuel_perVeh="3.570594" electricity_perVeh="0"/>
        <edge id=":118_5" sampledSeconds="238.66" CO_abs="3747.153064" CO2_abs="570753.428238" HC_abs="29.673362" PMx_abs="8.565494" NOx_abs="212.140195" fuel_abs="245.341529" electricity_abs="0"
            CO_normed="11.503580" CO2_normed="1752.185585" HC_normed="0.091096" PMx_normed="0.026296" NOx_normed="0.651260" fuel_normed="0.753187" electricity_normed="0"
            traveltime="3.82" CO_perVeh="59.971154" CO2_perVeh="9134.599342" HC_perVeh="0.474906" PMx_perVeh="0.137086" NOx_perVeh="3.395189" fuel_perVeh="3.926558" electricity_perVeh="0"/>
        <edge id=":119_0" sampledSeconds="139.05" CO_abs="2044.680198" CO2_abs="305888.521917" HC_abs="16.267008" PMx_abs="4.613778" NOx_abs="114.077623" fuel_abs="131.487888" electricity_abs="0"
            CO_normed="43.839627" CO2_normed="6558.501756" HC_normed="0.348778" PMx_normed="0.098923" NOx_normed="2.445918" fuel_normed="2.819209" electricity_normed="0"
            traveltime="0.56" CO_perVeh="8.197005" CO2_perVeh="1226.289481" HC_perVeh="0.065213" PMx_perVeh="0.018496" NOx_perVeh="0.457331" fuel_perVeh="0.527127" electricity_perVeh="0"/>
        <edge id=":12_0" sampledSeconds="587.82" CO_abs="54563.724245" CO2_abs="3095385.736183" HC_abs="321.977041" PMx_abs="60.723181" NOx_abs="1319.312754" fuel_abs="1330.569120" electricity_abs="0"
            CO_normed="511.173898" CO2_normed="28998.760902" HC_normed="3.016404" PMx_normed="0.568878" NOx_normed="12.359828" fuel_normed="12.465282" electricity_normed="0"
            traveltime="2.11" CO_perVeh="196.092560" CO2_perVeh="11124.279366" HC_perVeh="1.157130" PMx_perVeh="0.218229" NOx_perVeh="4.741381" fuel_perVeh="4.781835" electricity_perVeh="0"/>
        <edge id=":12_1" sampledSeconds="56.62" CO_abs="1053.112567" CO2_abs="90445.668587" HC_abs="6.860893" PMx_abs="1.213138" NOx_abs="34.327691" fuel_abs="38.879040" electricity_abs="0"
            CO_normed="9.856175" CO2_normed="846.489112" HC_normed="0.064212" PMx_normed="0.011354" NOx_normed="0.321276" fuel_normed="0.363872" electricity_normed="0"
            traveltime="1.91" CO_perVeh="35.512427" CO2_perVeh="3049.954300" HC_perVeh="0.231359" PMx_perVeh="0.040909" NOx_perVeh="1.157578" fuel_perVeh="1.311056" electricity_perVeh="0"/>
        <edge id=":120_0" sampledSeconds="39.02" CO_abs="480.963973" CO2_abs="80958.368710" HC_abs="3.949325" PMx_abs="1.165811" NOx_abs="29.596987" fuel_abs="34.800450" electricity_abs="0"
            CO_normed="378.116331" CO2_normed="63646.516281" HC_normed="3.104816" PMx_normed="0.916518" NOx_normed="23.268072" fuel_normed="27.358844" electricity_normed="0"
            traveltime="0.02" CO_perVeh="0.185060" CO2_perVeh="31.150314" HC_perVeh="0.001520" PMx_perVeh="0.000449" NOx_perVeh="0.011388" fuel_perVeh="0.013390" electricity_perVeh="0"/>
        <edge id=":121_0" sampledSeconds="371.98" CO_abs="52955.595411" CO2_abs="1425555.149427" HC_abs="274.608499" PMx_abs="30.758804" NOx_abs="630.409803" fuel_abs="612.802016" electricity_abs="0"
            CO_normed="30277.641745" CO2_normed="815068.696071" HC_normed="157.008862" PMx_normed="17.586509" NOx_normed="360.440139" fuel_normed="350.372793" electricity_normed="0"
            traveltime="0.11" CO_perVeh="16.203553" CO2_perVeh="436.196736" HC_perVeh="0.084026" PMx_perVeh="0.009412" NOx_perVeh="0.192895" fuel_perVeh="0.187507" electricity_perVeh="0"/>
        <edge id=":122_0" sampledSeconds="134.76" CO_abs="1250.930406" CO2_abs="123011.352553" HC_abs="8.607591" PMx_abs="2.227555" NOx_abs="49.050101" fuel_abs="52.876847" electricity_abs="0"
            CO_normed="27.540794" CO2_normed="2708.248444" HC_normed="0.189507" PMx_normed="0.049042" NOx_normed="1.079899" fuel_normed="1.164150" electricity_normed="0"
            traveltime="0.54" CO_perVeh="4.974957" CO2_perVeh="489.216812" HC_perVeh="0.034232" PMx_perVeh="0.008859" NOx_perVeh="0.195073" fuel_perVeh="0.210292" electricity_perVeh="0"/>
        <edge id=":123_0" sampledSeconds="313.70" CO_abs="40842.236872" CO2_abs="2490247.923460" HC_abs="245.789682" PMx_abs="51.254595" NOx_abs="1069.662896" fuel_abs="1070.441669" electricity_abs="0"
            CO_normed="155.741359" CO2_normed="9495.919539" HC_normed="0.937256" PMx_normed="0.195446" NOx_normed="4.078884" fuel_normed="4.081854" electricity_normed="0"
            traveltime="4.27" CO_perVeh="556.192084" CO2_perVeh="33912.348800" HC_perVeh="3.347179" PMx_perVeh="0.697988" NOx_perVeh="14.566735" fuel_perVeh="14.577340" electricity_perVeh="0"/>
        <edge id=":123_1" sampledSeconds="0.00" CO_abs="0" CO2_abs="0" HC_abs="0" PMx_abs="0" NOx_abs="0" fuel_abs="0" electricity_abs="0"
            CO_normed="0" CO2_normed="0" HC_normed="0" PMx_normed="0" NOx_normed="0" fuel_normed="0" electricity_normed="0"/>
        <edge id=":123_2" sampledSeconds="264.72" CO_abs="35635.297908" CO2_abs="2183492.238519" HC_abs="214.762457" PMx_abs="45.203713" NOx_abs="939.346611" fuel_abs="938.581151" electricity_abs="0"
            CO_normed="137.189168" CO2_normed="8406.032802" HC_normed="0.826795" PMx_normed="0.174026" NOx_normed="3.616307" fuel_normed="3.613360" electricity_normed="0"
            traveltime="4.16" CO_perVeh="560.115825" CO2_perVeh="34320.144002" HC_perVeh="3.375638" PMx_perVeh="0.710512" NOx_perVeh="14.764656" fuel_perVeh="14.752624" electricity_perVeh="0"/>
        <edge id=":123_3" sampledSeconds="468.88" CO_abs="22618.590917" CO2_abs="2139865.806937" HC_abs="153.685570" PMx_abs="39.827210" NOx_abs="857.681669" fuel_abs="919.827889" electricity_abs="0"
            CO_normed="89.095170" CO2_normed="8428.982577" HC_normed="0.605371" PMx_normed="0.156880" NOx_normed="3.378429" fuel_normed="3.623224" electricity_normed="0"
            traveltime="2.81" CO_perVeh="135.381430" CO2_perVeh="12807.963732" HC_perVeh="0.919870" PMx_perVeh="0.238382" NOx_perVeh="5.133572" fuel_perVeh="5.505543" electricity_perVeh="0"/>
        <edge id=":123_5" sampledSeconds="0.00" CO_abs="0" CO2_abs="0" HC_abs="0" PMx_abs="0" NOx_abs="0" fuel_abs="0" electricity_abs="0"
            CO_normed="0" CO2_normed="0" HC_normed="0" PMx_normed="0" NOx_normed="0" fuel_normed="0" electricity_normed="0"/>
        <edge id=":123_6" sampledSeconds="195.05" CO_abs="9434.767323" CO2_abs="891357.923106" HC_abs="64.089292" PMx_abs="16.575747" NOx_abs="357.549049" fuel_abs="383.152939" electricity_abs="0"
            CO_normed="35.897253" CO2_normed="3391.424485" HC_normed="0.243846" PMx_normed="0.063067" NOx_normed="1.360397" fuel_normed="1.457814" electricity_normed="0"
            traveltime="2.92" CO_perVeh="141.148359" CO2_perVeh="13335.115094" HC_perVeh="0.958805" PMx_perVeh="0.247981" NOx_perVeh="5.349094" fuel_perVeh="5.732140" electricity_perVeh="0"/>
        <edge id=":124_0" sampledSeconds="118.73" CO_abs="4248.793310" CO2_abs="381239.553011" HC_abs="28.291873" PMx_abs="7.253300" NOx_abs="154.081192" fuel_abs="163.876892" electricity_abs="0"
            CO_normed="99.461429" CO2_normed="8924.564657" HC_normed="0.662294" PMx_normed="0.169795" NOx_normed="3.606938" fuel_normed="3.836249" electricity_normed="0"
            traveltime="0.46" CO_perVeh="16.507645" CO2_perVeh="1481.212870" HC_perVeh="0.109921" PMx_perVeh="0.028181" NOx_perVeh="0.598645" fuel_perVeh="0.636704" electricity_perVeh="0"/>
        <edge id=":125_0" sampledSeconds="141.04" CO_abs="6013.380623" CO2_abs="598910.695481" HC_abs="41.506534" PMx_abs="11.215723" NOx_abs="236.886539" fuel_abs="257.443575" electricity_abs="0"
            CO_normed="378.200039" CO2_normed="37667.339338" HC_normed="2.610474" PMx_normed="0.705391" NOx_normed="14.898524" fuel_normed="16.191420" electricity_normed="0"
            traveltime="0.16" CO_perVeh="6.886865" CO2_perVeh="685.906504" HC_perVeh="0.047536" PMx_perVeh="0.012845" NOx_perVeh="0.271296" fuel_perVeh="0.294839" electricity_perVeh="0"/>
        <edge id=":125_3" sampledSeconds="0.00" CO_abs="0" CO2_abs="0" HC_abs="0" PMx_abs="0" NOx_abs="0" fuel_abs="0" electricity_abs="0"
            CO_normed="0" CO2_normed="0" HC_normed="0" PMx_normed="0" NOx_normed="0" fuel_normed="0" electricity_normed="0"/>
        <edge id=":126_0" sampledSeconds="27.65" CO_abs="313.721967" CO2_abs="23369.520877" HC_abs="1.969314" PMx_abs="0.360448" NOx_abs="9.220428" fuel_abs="10.045598" electricity_abs="0"
            CO_normed="10.330336" CO2_normed="769.518946" HC_normed="0.064846" PMx_normed="0.011869" NOx_normed="0.303613" fuel_normed="0.330785" electricity_normed="0"
            traveltime="0.56" CO_perVeh="6.324257" CO2_perVeh="471.101397" HC_perVeh="0.039699" PMx_perVeh="0.007266" NOx_perVeh="0.185873" fuel_perVeh="0.202507" electricity_perVeh="0"/>
        <edge id=":126_1" sampledSeconds="80.89" CO_abs="1366.557446" CO2_abs="198128.476782" HC_abs="10.776289" PMx_abs="3.244349" NOx_abs="73.873720" fuel_abs="85.166445" electricity_abs="0"
            CO_normed="40.037427" CO2_normed="5804.771967" HC_normed="0.315724" PMx_normed="0.095053" NOx_normed="2.164354" fuel_normed="2.495208" electricity_normed="0"
            traveltime="0.35" CO_perVeh="5.913329" CO2_perVeh="857.335961" HC_perVeh="0.046631" PMx_perVeh="0.014039" NOx_perVeh="0.319664" fuel_perVeh="0.368530" electricity_perVeh="0"/>
        <edge id=":127_0" sampledSeconds="234.80" CO_abs="4645.841752" CO2_abs="644868.829955" HC_abs="36.061334" PMx_abs="10.766513" NOx_abs="241.508008" fuel_abs="277.199751" electricity_abs="0"
            CO_normed="107.423274" CO2_normed="14910.951488" HC_normed="0.833827" PMx_normed="0.248948" NOx_normed="5.584258" fuel_normed="6.409539" electricity_normed="0"
            traveltime="0.44" CO_perVeh="8.687836" CO2_perVeh="1205.920288" HC_perVeh="0.067436" PMx_perVeh="0.020134" NOx_perVeh="0.451626" fuel_perVeh="0.518370" electricity_perVeh="0"/>
        <edge id=":128_0" sampledSeconds="229.61" CO_abs="336.879215" CO2_abs="43246.949356" HC_abs="2.528270" PMx_abs="0.701670" NOx_abs="16.405388" fuel_abs="18.589913" electricity_abs="0"
            CO_normed="5.205743" CO2_normed="668.288433" HC_normed="0.039069" PMx_normed="0.010843" NOx_normed="0.253510" fuel_normed="0.287267" electricity_normed="0"
            traveltime="0.75" CO_perVeh="1.107445" CO2_perVeh="142.168465" HC_perVeh="0.008311" PMx_perVeh="0.002307" NOx_perVeh="0.053930" fuel_perVeh="0.061112" electricity_perVeh="0"/>
        <edge id=":128_1" sampledSeconds="141.53" CO_abs="119.726828" CO2_abs="18842.025650" HC_abs="0.975012" PMx_abs="0.226135" NOx_abs="6.804932" fuel_abs="8.099420" electricity_abs="0"
            CO_normed="1.911165" CO2_normed="300.769812" HC_normed="0.015564" PMx_normed="0.003610" NOx_normed="0.108625" fuel_normed="0.129289" electricity_normed="0"
            traveltime="0.85" CO_perVeh="0.717694" CO2_perVeh="112.947233" HC_perVeh="0.005845" PMx_perVeh="0.001356" NOx_perVeh="0.040792" fuel_perVeh="0.048551" electricity_perVeh="0"/>
        <edge id=":129_0" sampledSeconds="104.78" CO_abs="5804.883299" CO2_abs="517322.898618" HC_abs="38.666012" PMx_abs="9.788422" NOx_abs="209.864549" fuel_abs="222.372722" electricity_abs="0"
            CO_normed="135.217407" CO2_normed="12050.381985" HC_normed="0.900676" PMx_normed="0.228009" NOx_normed="4.888529" fuel_normed="5.179891" electricity_normed="0"
            traveltime="0.50" CO_perVeh="27.512100" CO2_perVeh="2451.839021" HC_perVeh="0.183257" PMx_perVeh="0.046392" NOx_perVeh="0.994648" fuel_perVeh="1.053930" electricity_perVeh="0"/>
        <edge id=":13_0" sampledSeconds="60.18" CO_abs="5347.764568" CO2_abs="379100.834427" HC_abs="33.413350" PMx_abs="7.367305" NOx_abs="159.107408" fuel_abs="162.957819" electricity_abs="0"
            CO_normed="37.804878" CO2_normed="2679.972249" HC_normed="0.236209" PMx_normed="0.052082" NOx_normed="1.124776" fuel_normed="1.151995" electricity_normed="0"
            traveltime="2.13" CO_perVeh="189.159028" CO2_perVeh="13409.405840" HC_perVeh="1.181884" PMx_perVeh="0.260593" NOx_perVeh="5.627885" fuel_perVeh="5.764080" electricity_perVeh="0"/>
        <edge id=":13_1" sampledSeconds="533.99" CO_abs="13022.800436" CO2_abs="1012886.970521" HC_abs="82.543722" PMx_abs="14.479465" NOx_abs="391.670799" fuel_abs="435.399856" electricity_abs="0"
            CO_normed="129.732426" CO2_normed="10090.324665" HC_normed="0.822296" PMx_normed="0.144244" NOx_normed="3.901803" fuel_normed="4.337430" electricity_normed="0"
            traveltime="1.86" CO_perVeh="45.465693" CO2_perVeh="3536.229283" HC_perVeh="0.288180" PMx_perVeh="0.050551" NOx_perVeh="1.367416" fuel_perVeh="1.520084" electricity_perVeh="0"/>
        <edge id=":132_0" sampledSeconds="41.29" CO_abs="452.968117" CO2_abs="83788.749341" HC_abs="3.858428" PMx_abs="1.140895" NOx_abs="30.305675" fuel_abs="36.017156" electricity_abs="0"
            CO_normed="854.656825" CO2_normed="158091.979888" HC_normed="7.280052" PMx_normed="2.152633" NOx_normed="57.180519" fuel_normed="67.956897" electricity_normed="0"
            traveltime="6.401778e-03" CO_perVeh="0.070223" CO2_perVeh="12.989693" HC_perVeh="0.000598" PMx_perVeh="0.000177" NOx_perVeh="0.004698" fuel_perVeh="0.005584" electricity_perVeh="0"/>