<?xml version="1.0" encoding="UTF-8"?>

<!-- generated on Tue Nov 10 04:10:45 2020 by Eclipse SUMO sumo Version 1.7.0
<configuration xmlns:xsi="http://www.w3.org/2001/XMLSchema-instance" xsi:noNamespaceSchemaLocation="http://sumo.dlr.de/xsd/sumoConfiguration.xsd">

    <input>
        <net-file value="../dataSets/Porto/8AM9AM_Routing_SaoBento/Porto.net.xml"/>
        <route-files value="../results/Porto/8AM9AM_Routing_SaoBento/cost_co-ttime/solution9/Porto.rou.xml"/>
        <additional-files value="moreOutputInfo.xml"/>
    </input>

    <output>
        <emission-output.precision value="6"/>
        <tripinfo-output value="../results/Porto/8AM9AM_Routing_SaoBento/cost_co-ttime/solution9/Porto-tripinfo"/>
    </output>

    <processing>
        <collision.action value="warn"/>
        <time-to-teleport value="-1"/>
    </processing>

    <emissions>
        <device.emissions.probability value="1"/>
    </emissions>

    <gui_only>
        <quit-on-end value="true"/>
        <start value="true"/>
    </gui_only>

</configuration>
-->

<meandata xmlns:xsi="http://www.w3.org/2001/XMLSchema-instance" xsi:noNamespaceSchemaLocation="http://sumo.dlr.de/xsd/meandata_file.xsd">
    <interval begin="0.00" end="8562.00" id="emissions-detector">
        <edge id=":1092997347_0" sampledSeconds="599.08" CO_abs="72442.508477" CO2_abs="3074894.663967" HC_abs="402.544661" PMx_abs="61.996455" NOx_abs="1329.472714" fuel_abs="1321.773124" electricity_abs="0"
            CO_normed="69225.815579" CO2_normed="2938358.919508" HC_normed="384.670313" PMx_normed="59.243602" NOx_normed="1270.439620" fuel_normed="1263.081917" electricity_normed="0"
            traveltime="0.07" CO_perVeh="8.306498" CO2_perVeh="352.577620" HC_perVeh="0.046157" PMx_perVeh="0.007109" NOx_perVeh="0.152442" fuel_perVeh="0.151559" electricity_perVeh="0"/>
        <edge id=":1103427051_0" sampledSeconds="19.45" CO_abs="1639.739843" CO2_abs="92360.235071" HC_abs="9.655046" PMx_abs="1.789327" NOx_abs="39.255218" fuel_abs="39.701612" electricity_abs="0"
            CO_normed="2377.410787" CO2_normed="133910.400510" HC_normed="13.998569" PMx_normed="2.594292" NOx_normed="56.914992" fuel_normed="57.562204" electricity_normed="0"
            traveltime="0.03" CO_perVeh="2.550003" CO2_perVeh="143.631854" HC_perVeh="0.015015" PMx_perVeh="0.002783" NOx_perVeh="0.061047" fuel_perVeh="0.061741" electricity_perVeh="0"/>
        <edge id=":1105984386_0" sampledSeconds="10.58" CO_abs="239.971376" CO2_abs="16623.889105" HC_abs="1.472315" PMx_abs="0.234643" NOx_abs="6.442580" fuel_abs="7.145973" electricity_abs="0"
            CO_normed="10.391243" CO2_normed="719.847798" HC_normed="0.063754" PMx_normed="0.010161" NOx_normed="0.278977" fuel_normed="0.309435" electricity_normed="0"
            traveltime="1.01" CO_perVeh="23.020372" CO2_perVeh="1594.723999" HC_perVeh="0.141239" PMx_perVeh="0.022509" NOx_perVeh="0.618035" fuel_perVeh="0.685511" electricity_perVeh="0"/>
        <edge id=":1105984390_0" sampledSeconds="10.48" CO_abs="9.837468" CO2_abs="642.643118" HC_abs="0.059331" PMx_abs="0.008492" NOx_abs="0.246003" fuel_abs="0.276249" electricity_abs="0"
            CO_normed="0.329322" CO2_normed="21.513323" HC_normed="0.001986" PMx_normed="0.000284" NOx_normed="0.008235" fuel_normed="0.009248" electricity_normed="0"
            traveltime="1.09" CO_perVeh="1.019713" CO2_perVeh="66.613828" HC_perVeh="0.006150" PMx_perVeh="0.000880" NOx_perVeh="0.025500" fuel_perVeh="0.028635" electricity_perVeh="0"/>
        <edge id=":1105984390_1" sampledSeconds="2398.90" CO_abs="61616.903496" CO2_abs="7313917.734750" HC_abs="455.296720" PMx_abs="132.144908" NOx_abs="2783.585381" fuel_abs="3143.915373" electricity_abs="0"
            CO_normed="1973.160535" CO2_normed="234213.876589" HC_normed="14.579985" PMx_normed="4.231682" NOx_normed="89.138865" fuel_normed="100.677726" electricity_normed="0"
            traveltime="0.65" CO_perVeh="16.640036" CO2_perVeh="1975.169866" HC_perVeh="0.122956" PMx_perVeh="0.035687" NOx_perVeh="0.751725" fuel_perVeh="0.849034" electricity_perVeh="0"/>
        <edge id=":1105984395_0" sampledSeconds="4.10" CO_abs="99.244167" CO2_abs="7074.492413" HC_abs="0.613348" PMx_abs="0.098494" NOx_abs="2.728388" fuel_abs="3.041053" electricity_abs="0"
            CO_normed="45.357012" CO2_normed="3233.216118" HC_normed="0.280315" PMx_normed="0.045014" NOx_normed="1.246940" fuel_normed="1.389836" electricity_normed="0"
            traveltime="0.09" CO_perVeh="2.300444" CO2_perVeh="163.984203" HC_perVeh="0.014217" PMx_perVeh="0.002283" NOx_perVeh="0.063243" fuel_perVeh="0.070491" electricity_perVeh="0"/>
        <edge id=":1105984398_0" sampledSeconds="10.76" CO_abs="656.504799" CO2_abs="45683.388290" HC_abs="4.059427" PMx_abs="0.782428" NOx_abs="18.579588" fuel_abs="19.637326" electricity_abs="0"
            CO_normed="22.831733" CO2_normed="1588.763610" HC_normed="0.141178" PMx_normed="0.027211" NOx_normed="0.646155" fuel_normed="0.682941" electricity_normed="0"
            traveltime="1.14" CO_perVeh="69.300491" CO2_perVeh="4822.327674" HC_perVeh="0.428512" PMx_perVeh="0.082593" NOx_perVeh="1.961257" fuel_perVeh="2.072912" electricity_perVeh="0"/>
        <edge id=":1105984398_1" sampledSeconds="648.98" CO_abs="12326.403569" CO2_abs="1364459.131705" HC_abs="87.563157" PMx_abs="20.336205" NOx_abs="521.863004" fuel_abs="586.522113" electricity_abs="0"
            CO_normed="414.955210" CO2_normed="45933.059217" HC_normed="2.947720" PMx_normed="0.684597" NOx_normed="17.567961" fuel_normed="19.744640" electricity_normed="0"
            traveltime="0.96" CO_perVeh="18.153193" CO2_perVeh="2009.449852" HC_perVeh="0.128955" PMx_perVeh="0.029949" NOx_perVeh="0.768552" fuel_perVeh="0.863776" electricity_perVeh="0"/>
        <edge id=":1106006327_0" sampledSeconds="193.07" CO_abs="26139.061487" CO2_abs="858401.769907" HC_abs="139.239230" PMx_abs="17.920242" NOx_abs="375.851889" fuel_abs="368.996326" electricity_abs="0"
            CO_normed="1240.462231" CO2_normed="40736.541952" HC_normed="6.607774" PMx_normed="0.850428" NOx_normed="17.836527" fuel_normed="17.511187" electricity_normed="0"
            traveltime="2.06" CO_perVeh="278.956029" CO2_perVeh="9160.862530" HC_perVeh="1.485961" PMx_perVeh="0.191245" NOx_perVeh="4.011091" fuel_perVeh="3.937928" electricity_perVeh="0"/>
        <edge id=":1106006327_1" sampledSeconds="681.87" CO_abs="92230.690065" CO2_abs="3084538.944648" HC_abs="492.656653" PMx_abs="64.331886" NOx_abs="1349.863642" fuel_abs="1325.932029" electricity_abs="0"
            CO_normed="3816.884580" CO2_normed="127650.884157" HC_normed="20.388155" PMx_normed="2.662318" NOx_normed="55.862899" fuel_normed="54.872511" electricity_normed="0"
            traveltime="2.29" CO_perVeh="309.596102" CO2_perVeh="10354.050635" HC_perVeh="1.653729" PMx_perVeh="0.215947" NOx_perVeh="4.531166" fuel_perVeh="4.450833" electricity_perVeh="0"/>
        <edge id=":1106006327_2" sampledSeconds="0.00" CO_abs="0" CO2_abs="0" HC_abs="0" PMx_abs="0" NOx_abs="0" fuel_abs="0" electricity_abs="0"
            CO_normed="0" CO2_normed="0" HC_normed="0" PMx_normed="0" NOx_normed="0" fuel_normed="0" electricity_normed="0"/>
        <edge id=":1106006327_3" sampledSeconds="0.00" CO_abs="0" CO2_abs="0" HC_abs="0" PMx_abs="0" NOx_abs="0" fuel_abs="0" electricity_abs="0"
            CO_normed="0" CO2_normed="0" HC_normed="0" PMx_normed="0" NOx_normed="0" fuel_normed="0" electricity_normed="0"/>
        <edge id=":1107381198_0" sampledSeconds="0.00" CO_abs="0" CO2_abs="0" HC_abs="0" PMx_abs="0" NOx_abs="0" fuel_abs="0" electricity_abs="0"
            CO_normed="0" CO2_normed="0" HC_normed="0" PMx_normed="0" NOx_normed="0" fuel_normed="0" electricity_normed="0"/>
        <edge id=":1107381198_1" sampledSeconds="104.00" CO_abs="3994.290487" CO2_abs="161929.889193" HC_abs="21.936213" PMx_abs="2.891427" NOx_abs="67.705801" fuel_abs="69.607837" electricity_abs="0"
            CO_normed="183.146063" CO2_normed="7424.803430" HC_normed="1.005818" PMx_normed="0.132578" NOx_normed="3.104444" fuel_normed="3.191656" electricity_normed="0"
            traveltime="1.56" CO_perVeh="59.802187" CO2_perVeh="2424.400934" HC_perVeh="0.328427" PMx_perVeh="0.043290" NOx_perVeh="1.013686" fuel_perVeh="1.042163" electricity_perVeh="0"/>
        <edge id=":1110338277_0" sampledSeconds="161.25" CO_abs="2749.842221" CO2_abs="324104.188931" HC_abs="19.937894" PMx_abs="4.476519" NOx_abs="121.678724" fuel_abs="139.318798" electricity_abs="0"
            CO_normed="4129.305568" CO2_normed="486691.644205" HC_normed="29.939774" PMx_normed="6.722172" NOx_normed="182.719077" fuel_normed="209.208326" electricity_normed="0"
            traveltime="0.02" CO_perVeh="0.372442" CO2_perVeh="43.897020" HC_perVeh="0.002700" PMx_perVeh="0.000606" NOx_perVeh="0.016480" fuel_perVeh="0.018869" electricity_perVeh="0"/>
        <edge id=":1110338293_0" sampledSeconds="6414.94" CO_abs="605949.864728" CO2_abs="10631908.508881" HC_abs="3007.813653" PMx_abs="253.392032" NOx_abs="4804.568479" fuel_abs="4570.477571" electricity_abs="0"
            CO_normed="849264.001020" CO2_normed="14901063.081823" HC_normed="4215.576248" PMx_normed="355.139498" NOx_normed="6733.803054" fuel_normed="6405.714886" electricity_normed="0"
            traveltime="0.43" CO_perVeh="40.491588" CO2_perVeh="710.459533" HC_perVeh="0.200992" PMx_perVeh="0.016932" NOx_perVeh="0.321057" fuel_perVeh="0.305415" electricity_perVeh="0"/>
        <edge id=":1110338295_0" sampledSeconds="0.00" CO_abs="0" CO2_abs="0" HC_abs="0" PMx_abs="0" NOx_abs="0" fuel_abs="0" electricity_abs="0"
            CO_normed="0" CO2_normed="0" HC_normed="0" PMx_normed="0" NOx_normed="0" fuel_normed="0" electricity_normed="0"/>
        <edge id=":1110673403_0" sampledSeconds="201.24" CO_abs="3180.937051" CO2_abs="382922.836037" HC_abs="23.172912" PMx_abs="5.257264" NOx_abs="143.354473" fuel_abs="164.602465" electricity_abs="0"
            CO_normed="4458.215908" CO2_normed="536682.321005" HC_normed="32.477803" PMx_normed="7.368275" NOx_normed="200.917271" fuel_normed="230.697218" electricity_normed="0"
            traveltime="0.02" CO_perVeh="0.367639" CO2_perVeh="44.256598" HC_perVeh="0.002678" PMx_perVeh="0.000608" NOx_perVeh="0.016568" fuel_perVeh="0.019024" electricity_perVeh="0"/>
        <edge id=":1110673412_0" sampledSeconds="951.17" CO_abs="170685.711845" CO2_abs="11625952.053227" HC_abs="1061.770491" PMx_abs="255.739990" NOx_abs="4998.365738" fuel_abs="4997.423994" electricity_abs="0"
            CO_normed="247472.215903" CO2_normed="16856127.472479" HC_normed="1539.429946" PMx_normed="370.789923" NOx_normed="7246.984130" fuel_normed="7245.618724" electricity_normed="0"
            traveltime="0.02" CO_perVeh="2.783933" CO2_perVeh="189.622602" HC_perVeh="0.017318" PMx_perVeh="0.004171" NOx_perVeh="0.081525" fuel_perVeh="0.081509" electricity_perVeh="0"/>
        <edge id=":1110673414_0" sampledSeconds="0.00" CO_abs="0" CO2_abs="0" HC_abs="0" PMx_abs="0" NOx_abs="0" fuel_abs="0" electricity_abs="0"
            CO_normed="0" CO2_normed="0" HC_normed="0" PMx_normed="0" NOx_normed="0" fuel_normed="0" electricity_normed="0"/>
        <edge id=":1110673414_1" sampledSeconds="6.86" CO_abs="492.466352" CO2_abs="19550.512893" HC_abs="2.693922" PMx_abs="0.345246" NOx_abs="8.150006" fuel_abs="8.404077" electricity_abs="0"
            CO_normed="22.930635" CO2_normed="910.327541" HC_normed="0.125437" PMx_normed="0.016076" NOx_normed="0.379488" fuel_normed="0.391318" electricity_normed="0"
            traveltime="1.50" CO_perVeh="107.570662" CO2_perVeh="4270.467620" HC_perVeh="0.588440" PMx_perVeh="0.075413" NOx_perVeh="1.780226" fuel_perVeh="1.835724" electricity_perVeh="0"/>
        <edge id=":1110673417_0" sampledSeconds="28.84" CO_abs="428.625289" CO2_abs="56141.357786" HC_abs="3.227280" PMx_abs="0.715980" NOx_abs="20.634319" fuel_abs="24.132871" electricity_abs="0"
            CO_normed="643.645945" CO2_normed="84304.771928" HC_normed="4.846252" PMx_normed="1.075152" NOx_normed="30.985563" fuel_normed="36.239170" electricity_normed="0"
            traveltime="0.02" CO_perVeh="0.326847" CO2_perVeh="42.810480" HC_perVeh="0.002461" PMx_perVeh="0.000546" NOx_perVeh="0.015735" fuel_perVeh="0.018402" electricity_perVeh="0"/>
        <edge id=":1110673446_0" sampledSeconds="1329.43" CO_abs="14198.969210" CO2_abs="1152262.968649" HC_abs="91.947978" PMx_abs="21.086124" NOx_abs="471.096839" fuel_abs="495.304904" electricity_abs="0"
            CO_normed="19900.447386" CO2_normed="1614944.595164" HC_normed="128.868925" PMx_normed="29.553082" NOx_normed="660.261862" fuel_normed="694.190475" electricity_normed="0"
            traveltime="0.02" CO_perVeh="0.243447" CO2_perVeh="19.756044" HC_perVeh="0.001576" PMx_perVeh="0.000362" NOx_perVeh="0.008077" fuel_perVeh="0.008492" electricity_perVeh="0"/>
        <edge id=":1110673451_0" sampledSeconds="36.21" CO_abs="265.978848" CO2_abs="20861.096634" HC_abs="1.685245" PMx_abs="0.272838" NOx_abs="7.889238" fuel_abs="8.967395" electricity_abs="0"
            CO_normed="414.200495" CO2_normed="32486.329727" HC_normed="2.624380" PMx_normed="0.424882" NOx_normed="12.285662" fuel_normed="13.964642" electricity_normed="0"
            traveltime="0.03" CO_perVeh="0.195968" CO2_perVeh="15.370016" HC_perVeh="0.001242" PMx_perVeh="0.000201" NOx_perVeh="0.005813" fuel_perVeh="0.006607" electricity_perVeh="0"/>
        <edge id=":1110673464_0" sampledSeconds="1032.17" CO_abs="3353.456467" CO2_abs="239809.245091" HC_abs="20.769783" PMx_abs="3.472326" NOx_abs="93.264559" fuel_abs="103.084602" electricity_abs="0"
            CO_normed="99.858550" CO2_normed="7140.991276" HC_normed="0.618478" PMx_normed="0.103398" NOx_normed="2.777213" fuel_normed="3.069632" electricity_normed="0"
            traveltime="1.22" CO_perVeh="3.976730" CO2_perVeh="284.380203" HC_perVeh="0.024630" PMx_perVeh="0.004118" NOx_perVeh="0.110599" fuel_perVeh="0.122244" electricity_perVeh="0"/>
        <edge id=":1110673464_1" sampledSeconds="2606.85" CO_abs="63938.454453" CO2_abs="7752011.717917" HC_abs="475.958291" PMx_abs="138.671067" NOx_abs="2942.215838" fuel_abs="3332.232573" electricity_abs="0"
            CO_normed="1865.629630" CO2_normed="226192.248081" HC_normed="13.887760" PMx_normed="4.046217" NOx_normed="85.849511" fuel_normed="97.229623" electricity_normed="0"
            traveltime="0.72" CO_perVeh="17.623055" CO2_perVeh="2136.650435" HC_perVeh="0.131186" PMx_perVeh="0.038221" NOx_perVeh="0.810949" fuel_perVeh="0.918448" electricity_perVeh="0"/>
        <edge id=":1110673479_0" sampledSeconds="135.47" CO_abs="5987.989774" CO2_abs="411346.460827" HC_abs="36.932866" PMx_abs="7.217834" NOx_abs="168.364515" fuel_abs="176.819982" electricity_abs="0"
            CO_normed="8392.417343" CO2_normed="576519.216296" HC_normed="51.762952" PMx_normed="10.116095" NOx_normed="235.969888" fuel_normed="247.820578" electricity_normed="0"
            traveltime="0.03" CO_perVeh="1.265915" CO2_perVeh="86.962361" HC_perVeh="0.007808" PMx_perVeh="0.001526" NOx_perVeh="0.035594" fuel_perVeh="0.037381" electricity_perVeh="0"/>
        <edge id=":1110673511_0" sampledSeconds="63.74" CO_abs="1052.253875" CO2_abs="111662.918448" HC_abs="7.366126" PMx_abs="1.580906" NOx_abs="42.396933" fuel_abs="47.999216" electricity_abs="0"
            CO_normed="1474.777680" CO2_normed="156500.236087" HC_normed="10.323933" PMx_normed="2.215705" NOx_normed="59.421069" fuel_normed="67.272903" electricity_normed="0"
            traveltime="0.02" CO_perVeh="0.403291" CO2_perVeh="42.796392" HC_perVeh="0.002823" PMx_perVeh="0.000606" NOx_perVeh="0.016249" fuel_perVeh="0.018396" electricity_perVeh="0"/>
        <edge id=":1110673517_0" sampledSeconds="182.41" CO_abs="8219.093051" CO2_abs="576473.083313" HC_abs="50.988171" PMx_abs="10.150784" NOx_abs="235.955009" fuel_abs="247.800569" electricity_abs="0"
            CO_normed="11519.401613" CO2_normed="807951.062807" HC_normed="71.462048" PMx_normed="14.226746" NOx_normed="330.700784" fuel_normed="347.302829" electricity_normed="0"
            traveltime="0.03" CO_perVeh="1.258410" CO2_perVeh="88.262695" HC_perVeh="0.007807" PMx_perVeh="0.001554" NOx_perVeh="0.036127" fuel_perVeh="0.037940" electricity_perVeh="0"/>
        <edge id=":1110673534_0" sampledSeconds="738.96" CO_abs="5048.944087" CO2_abs="415368.418850" HC_abs="32.472313" PMx_abs="5.602688" NOx_abs="158.086311" fuel_abs="178.550677" electricity_abs="0"
            CO_normed="137.137707" CO2_normed="11282.096088" HC_normed="0.882002" PMx_normed="0.152178" NOx_normed="4.293887" fuel_normed="4.849733" electricity_normed="0"
            traveltime="1.46" CO_perVeh="9.957353" CO2_perVeh="819.175248" HC_perVeh="0.064041" PMx_perVeh="0.011049" NOx_perVeh="0.311772" fuel_perVeh="0.352131" electricity_perVeh="0"/>
        <edge id=":1110673534_1" sampledSeconds="199.98" CO_abs="3179.641133" CO2_abs="400883.784411" HC_abs="23.632706" PMx_abs="5.490486" NOx_abs="149.558139" fuel_abs="172.323070" electricity_abs="0"
            CO_normed="83.977380" CO2_normed="10587.726238" HC_normed="0.624163" PMx_normed="0.145009" NOx_normed="3.949974" fuel_normed="4.551218" electricity_normed="0"
            traveltime="1.22" CO_perVeh="19.436146" CO2_perVeh="2450.476439" HC_perVeh="0.144459" PMx_perVeh="0.033562" NOx_perVeh="0.914202" fuel_perVeh="1.053357" electricity_perVeh="0"/>
        <edge id=":1110673549_0" sampledSeconds="645.26" CO_abs="996.768536" CO2_abs="108668.604505" HC_abs="7.020844" PMx_abs="1.498596" NOx_abs="40.680137" fuel_abs="46.712153" electricity_abs="0"
            CO_normed="26.226771" CO2_normed="2859.266212" HC_normed="0.184731" PMx_normed="0.039431" NOx_normed="1.070367" fuel_normed="1.229081" electricity_normed="0"
            traveltime="1.28" CO_perVeh="1.980341" CO2_perVeh="215.898606" HC_perVeh="0.013949" PMx_perVeh="0.002977" NOx_perVeh="0.080822" fuel_perVeh="0.092806" electricity_perVeh="0"/>
        <edge id=":1110673549_1" sampledSeconds="3197.85" CO_abs="69282.437336" CO2_abs="9062497.273081" HC_abs="531.789096" PMx_abs="159.505974" NOx_abs="3390.361300" fuel_abs="3895.552620" electricity_abs="0"
            CO_normed="1763.357592" CO2_normed="230656.194859" HC_normed="13.534950" PMx_normed="4.059702" NOx_normed="86.290546" fuel_normed="99.148537" electricity_normed="0"
            traveltime="0.81" CO_perVeh="17.476020" CO2_perVeh="2285.952800" HC_perVeh="0.134140" PMx_perVeh="0.040234" NOx_perVeh="0.855195" fuel_perVeh="0.982626" electricity_perVeh="0"/>
        <edge id=":1110673556_0" sampledSeconds="466.57" CO_abs="56979.114264" CO2_abs="2733857.199224" HC_abs="324.365993" PMx_abs="55.167988" NOx_abs="1178.479233" fuel_abs="1175.168852" electricity_abs="0"
            CO_normed="1111.720711" CO2_normed="53340.346013" HC_normed="6.328712" PMx_normed="1.076384" NOx_normed="22.993333" fuel_normed="22.928744" electricity_normed="0"
            traveltime="2.75" CO_perVeh="335.886830" CO2_perVeh="16115.845937" HC_perVeh="1.912109" PMx_perVeh="0.325210" NOx_perVeh="6.947031" fuel_perVeh="6.927516" electricity_perVeh="0"/>
        <edge id=":1110673556_2" sampledSeconds="172.55" CO_abs="16633.386504" CO2_abs="722318.618734" HC_abs="92.712876" PMx_abs="13.965402" NOx_abs="308.188698" fuel_abs="310.496235" electricity_abs="0"
            CO_normed="339.336022" CO2_normed="14735.948499" HC_normed="1.891426" PMx_normed="0.284907" NOx_normed="6.287326" fuel_normed="6.334402" electricity_normed="0"
            traveltime="2.98" CO_perVeh="287.616512" CO2_perVeh="12489.985826" HC_perVeh="1.603146" PMx_perVeh="0.241483" NOx_perVeh="5.329051" fuel_perVeh="5.368951" electricity_perVeh="0"/>
        <edge id=":1110673556_3" sampledSeconds="349.44" CO_abs="34952.628499" CO2_abs="1219427.561625" HC_abs="187.672931" PMx_abs="24.088765" NOx_abs="525.322376" fuel_abs="524.188647" electricity_abs="0"
            CO_normed="1622.104842" CO2_normed="56592.005719" HC_normed="8.709650" PMx_normed="1.117927" NOx_normed="24.379510" fuel_normed="24.326896" electricity_normed="0"
            traveltime="1.82" CO_perVeh="181.988445" CO2_perVeh="6349.214227" HC_perVeh="0.977160" PMx_perVeh="0.125423" NOx_perVeh="2.735205" fuel_perVeh="2.729302" electricity_perVeh="0"/>
        <edge id=":1110673556_4" sampledSeconds="77.31" CO_abs="8616.377472" CO2_abs="332729.283878" HC_abs="47.062156" PMx_abs="6.651965" NOx_abs="143.636940" fuel_abs="143.027628" electricity_abs="0"
            CO_normed="244.292899" CO2_normed="9433.593354" HC_normed="1.334314" PMx_normed="0.188598" NOx_normed="4.072417" fuel_normed="4.055142" electricity_normed="0"
            traveltime="2.55" CO_perVeh="283.743123" CO2_perVeh="10956.999778" HC_perVeh="1.549789" PMx_perVeh="0.219054" NOx_perVeh="4.730061" fuel_perVeh="4.709996" electricity_perVeh="0"/>
        <edge id=":1110673556_5" sampledSeconds="21.48" CO_abs="1269.449897" CO2_abs="59735.091727" HC_abs="7.175946" PMx_abs="1.096021" NOx_abs="25.106734" fuel_abs="25.677755" electricity_abs="0"
            CO_normed="50.165046" CO2_normed="2360.560764" HC_normed="0.283573" PMx_normed="0.043312" NOx_normed="0.992147" fuel_normed="1.014712" electricity_normed="0"
            traveltime="1.49" CO_perVeh="87.764437" CO2_perVeh="4129.833502" HC_perVeh="0.496115" PMx_perVeh="0.075774" NOx_perVeh="1.735774" fuel_perVeh="1.775252" electricity_perVeh="0"/>
        <edge id=":1110673556_6" sampledSeconds="537.79" CO_abs="61589.844312" CO2_abs="3010439.148389" HC_abs="351.897178" PMx_abs="60.378058" NOx_abs="1294.942196" fuel_abs="1294.059278" electricity_abs="0"
            CO_normed="1231.980041" CO2_normed="60217.735338" HC_normed="7.038990" PMx_normed="1.207741" NOx_normed="25.902695" fuel_normed="25.885034" electricity_normed="0"
            traveltime="2.61" CO_perVeh="299.032646" CO2_perVeh="14616.364009" HC_perVeh="1.708541" PMx_perVeh="0.293149" NOx_perVeh="6.287238" fuel_perVeh="6.282951" electricity_perVeh="0"/>
        <edge id=":1110673561_0" sampledSeconds="104.45" CO_abs="9676.395061" CO2_abs="690141.827025" HC_abs="60.630357" PMx_abs="13.887767" NOx_abs="291.682223" fuel_abs="296.659202" electricity_abs="0"
            CO_normed="243.189560" CO2_normed="17344.815540" HC_normed="1.523777" PMx_normed="0.349031" NOx_normed="7.330630" fuel_normed="7.455713" electricity_normed="0"
            traveltime="1.23" CO_perVeh="114.190854" CO2_perVeh="8144.343410" HC_perVeh="0.715497" PMx_perVeh="0.163889" NOx_perVeh="3.442133" fuel_perVeh="3.500867" electricity_perVeh="0"/>
        <edge id=":1110673561_1" sampledSeconds="5251.86" CO_abs="489291.660506" CO2_abs="33902820.804777" HC_abs="3048.130011" PMx_abs="708.404995" NOx_abs="14493.458606" fuel_abs="14573.185558" electricity_abs="0"
            CO_normed="11988.857756" CO2_normed="830703.093800" HC_normed="74.686736" PMx_normed="17.357677" NOx_normed="355.125639" fuel_normed="357.079147" electricity_normed="0"
            traveltime="1.19" CO_perVeh="111.098858" CO2_perVeh="7697.994803" HC_perVeh="0.692110" PMx_perVeh="0.160851" NOx_perVeh="3.290893" fuel_perVeh="3.308996" electricity_perVeh="0"/>
        <edge id=":1110673562_0" sampledSeconds="301.08" CO_abs="7014.708713" CO2_abs="535694.884119" HC_abs="44.169783" PMx_abs="7.380534" NOx_abs="205.549746" fuel_abs="230.274453" electricity_abs="0"
            CO_normed="10923.785272" CO2_normed="834220.795949" HC_normed="68.784215" PMx_normed="11.493473" NOx_normed="320.096154" fuel_normed="358.599164" electricity_normed="0"
            traveltime="0.03" CO_perVeh="0.628809" CO2_perVeh="48.020458" HC_perVeh="0.003959" PMx_perVeh="0.000662" NOx_perVeh="0.018426" fuel_perVeh="0.020642" electricity_perVeh="0"/>
        <edge id=":1110673564_0" sampledSeconds="27.61" CO_abs="438.412820" CO2_abs="58707.074823" HC_abs="3.310884" PMx_abs="0.773190" NOx_abs="21.672389" fuel_abs="25.235724" electricity_abs="0"
            CO_normed="1843.361541" CO2_normed="246841.239619" HC_normed="13.921027" PMx_normed="3.250973" NOx_normed="91.124272" fuel_normed="106.106758" electricity_normed="0"
            traveltime="7.798902e-03" CO_perVeh="0.123829" CO2_perVeh="16.581734" HC_perVeh="0.000935" PMx_perVeh="0.000218" NOx_perVeh="0.006121" fuel_perVeh="0.007128" electricity_perVeh="0"/>
        <edge id=":1110673588_0" sampledSeconds="63.04" CO_abs="1059.066771" CO2_abs="112036.999217" HC_abs="7.383933" PMx_abs="1.607696" NOx_abs="42.619712" fuel_abs="48.159989" electricity_abs="0"
            CO_normed="1781.191486" CO2_normed="188429.431059" HC_normed="12.418667" PMx_normed="2.703903" NOx_normed="71.679965" fuel_normed="80.997879" electricity_normed="0"
            traveltime="0.02" CO_perVeh="0.341634" CO2_perVeh="36.140967" HC_perVeh="0.002382" PMx_perVeh="0.000519" NOx_perVeh="0.013748" fuel_perVeh="0.015535" electricity_perVeh="0"/>
        <edge id=":1110673601_0" sampledSeconds="28.90" CO_abs="579.248065" CO2_abs="62425.324104" HC_abs="4.073462" PMx_abs="0.902053" NOx_abs="23.769808" fuel_abs="26.834003" electricity_abs="0"
            CO_normed="869.828909" CO2_normed="93741.101367" HC_normed="6.116921" PMx_normed="1.354569" NOx_normed="35.693975" fuel_normed="40.295329" electricity_normed="0"
            traveltime="0.02" CO_perVeh="0.441704" CO2_perVeh="47.602306" HC_perVeh="0.003106" PMx_perVeh="0.000688" NOx_perVeh="0.018126" fuel_perVeh="0.020462" electricity_perVeh="0"/>
        <edge id=":1110673617_0" sampledSeconds="853.68" CO_abs="32141.460908" CO2_abs="3248651.201397" HC_abs="224.375821" PMx_abs="61.378587" NOx_abs="1274.540426" fuel_abs="1396.442966" electricity_abs="0"
            CO_normed="45047.597629" CO2_normed="4553120.114082" HC_normed="314.472068" PMx_normed="86.024649" NOx_normed="1786.321550" fuel_normed="1957.173042" electricity_normed="0"
            traveltime="0.02" CO_perVeh="0.569383" CO2_perVeh="57.549547" HC_perVeh="0.003975" PMx_perVeh="0.001087" NOx_perVeh="0.022578" fuel_perVeh="0.024738" electricity_perVeh="0"/>
        <edge id=":1110673621_0" sampledSeconds="26.57" CO_abs="505.591835" CO2_abs="53421.837323" HC_abs="3.533326" PMx_abs="0.736690" NOx_abs="20.164463" fuel_abs="22.963844" electricity_abs="0"
            CO_normed="850.329646" CO2_normed="89847.518974" HC_normed="5.942524" PMx_normed="1.239002" NOx_normed="33.913603" fuel_normed="38.621742" electricity_normed="0"
            traveltime="0.02" CO_perVeh="0.383024" CO2_perVeh="40.471089" HC_perVeh="0.002677" PMx_perVeh="0.000558" NOx_perVeh="0.015276" fuel_perVeh="0.017397" electricity_perVeh="0"/>
        <edge id=":1110673630_0" sampledSeconds="287.28" CO_abs="1354.126564" CO2_abs="120917.593233" HC_abs="8.932343" PMx_abs="1.630371" NOx_abs="45.842454" fuel_abs="51.977676" electricity_abs="0"
            CO_normed="40.610517" CO2_normed="3626.341983" HC_normed="0.267883" PMx_normed="0.048895" NOx_normed="1.374824" fuel_normed="1.558821" electricity_normed="0"
            traveltime="1.29" CO_perVeh="6.093052" CO2_perVeh="544.082988" HC_perVeh="0.040192" PMx_perVeh="0.007336" NOx_perVeh="0.206274" fuel_perVeh="0.233880" electricity_perVeh="0"/>
        <edge id=":1110673630_1" sampledSeconds="336.81" CO_abs="1156.010340" CO2_abs="94657.547886" HC_abs="7.426504" PMx_abs="1.288433" NOx_abs="36.120711" fuel_abs="40.689571" electricity_abs="0"
            CO_normed="42.266001" CO2_normed="3460.865222" HC_normed="0.271528" PMx_normed="0.047108" NOx_normed="1.320644" fuel_normed="1.487690" electricity_normed="0"
            traveltime="1.07" CO_perVeh="3.685133" CO2_perVeh="301.749633" HC_perVeh="0.023674" PMx_perVeh="0.004107" NOx_perVeh="0.115146" fuel_perVeh="0.129710" electricity_perVeh="0"/>
        <edge id=":1110673650_0" sampledSeconds="200.51" CO_abs="2971.950413" CO2_abs="391165.806247" HC_abs="22.376690" PMx_abs="5.138888" NOx_abs="144.482927" fuel_abs="168.145936" electricity_abs="0"
            CO_normed="4165.312421" CO2_normed="548235.187453" HC_normed="31.361864" PMx_normed="7.202365" NOx_normed="202.498847" fuel_normed="235.663540" electricity_normed="0"
            traveltime="0.02" CO_perVeh="0.343486" CO2_perVeh="45.209303" HC_perVeh="0.002586" PMx_perVeh="0.000594" NOx_perVeh="0.016699" fuel_perVeh="0.019434" electricity_perVeh="0"/>
        <edge id=":1110673655_0" sampledSeconds="20.85" CO_abs="286.374182" CO2_abs="33510.590297" HC_abs="2.069768" PMx_abs="0.445772" NOx_abs="12.496624" fuel_abs="14.404823" electricity_abs="0"
            CO_normed="401.365357" CO2_normed="46966.489554" HC_normed="2.900866" PMx_normed="0.624769" NOx_normed="17.514540" fuel_normed="20.188960" electricity_normed="0"
            traveltime="0.02" CO_perVeh="0.327160" CO2_perVeh="38.283233" HC_perVeh="0.002365" PMx_perVeh="0.000509" NOx_perVeh="0.014276" fuel_perVeh="0.016456" electricity_perVeh="0"/>
        <edge id=":1110673663_0" sampledSeconds="111.23" CO_abs="2138.702467" CO2_abs="231440.985523" HC_abs="15.020405" PMx_abs="3.268327" NOx_abs="87.622410" fuel_abs="99.486782" electricity_abs="0"
            CO_normed="54.898914" CO2_normed="5940.919255" HC_normed="0.385563" PMx_normed="0.083896" NOx_normed="2.249203" fuel_normed="2.553752" electricity_normed="0"
            traveltime="1.31" CO_perVeh="25.120069" CO2_perVeh="2718.383558" HC_perVeh="0.176422" PMx_perVeh="0.038388" NOx_perVeh="1.029167" fuel_perVeh="1.168519" electricity_perVeh="0"/>
        <edge id=":1110673663_1" sampledSeconds="171.23" CO_abs="2756.308796" CO2_abs="334830.489840" HC_abs="20.212609" PMx_abs="4.550692" NOx_abs="125.049127" fuel_abs="143.929646" electricity_abs="0"
            CO_normed="70.838907" CO2_normed="8605.358665" HC_normed="0.519477" PMx_normed="0.116956" NOx_normed="3.213843" fuel_normed="3.699084" electricity_normed="0"
            traveltime="1.28" CO_perVeh="20.598004" CO2_perVeh="2502.201410" HC_perVeh="0.151050" PMx_perVeh="0.034008" NOx_perVeh="0.934497" fuel_perVeh="1.075592" electricity_perVeh="0"/>