<?xml version="1.0" encoding="UTF-8"?>

<!-- generated on Tue Nov 10 02:18:48 2020 by Eclipse SUMO sumo Version 1.7.0
<configuration xmlns:xsi="http://www.w3.org/2001/XMLSchema-instance" xsi:noNamespaceSchemaLocation="http://sumo.dlr.de/xsd/sumoConfiguration.xsd">

    <input>
        <net-file value="../dataSets/Porto/6AM7AM_Routing_SaoBento/Porto.net.xml"/>
        <route-files value="../results/Porto/6AM7AM_Routing_SaoBento/cost_PMx-cost_hc/solution7/Porto.rou.xml"/>
        <additional-files value="moreOutputInfo.xml"/>
    </input>

    <output>
        <emission-output.precision value="6"/>
        <tripinfo-output value="../results/Porto/6AM7AM_Routing_SaoBento/cost_PMx-cost_hc/solution7/Porto-tripinfo"/>
    </output>

    <processing>
        <collision.action value="warn"/>
        <time-to-teleport value="-1"/>
    </processing>

    <emissions>
        <device.emissions.probability value="1"/>
    </emissions>

    <gui_only>
        <quit-on-end value="true"/>
        <start value="true"/>
    </gui_only>

</configuration>
-->

<meandata xmlns:xsi="http://www.w3.org/2001/XMLSchema-instance" xsi:noNamespaceSchemaLocation="http://sumo.dlr.de/xsd/meandata_file.xsd">
    <interval begin="0.00" end="4700.00" id="emissions-detector">
        <edge id=":1092997347_0" sampledSeconds="300.29" CO_abs="38509.124763" CO2_abs="1532741.429383" HC_abs="211.571412" PMx_abs="31.269250" NOx_abs="665.378228" fuel_abs="658.865145" electricity_abs="0"
            CO_normed="67037.161097" CO2_normed="2668215.254245" HC_normed="368.306133" PMx_normed="54.433897" NOx_normed="1158.298656" fuel_normed="1146.960601" electricity_normed="0"
            traveltime="0.07" CO_perVeh="9.570605" CO2_perVeh="380.929519" HC_perVeh="0.052581" PMx_perVeh="0.007771" NOx_perVeh="0.165365" fuel_perVeh="0.163747" electricity_perVeh="0"/>
        <edge id=":1103427051_0" sampledSeconds="10.94" CO_abs="883.208870" CO2_abs="50328.018256" HC_abs="5.215987" PMx_abs="0.982197" NOx_abs="21.432622" fuel_abs="21.633787" electricity_abs="0"
            CO_normed="2332.760039" CO2_normed="132928.001263" HC_normed="13.776634" PMx_normed="2.594211" NOx_normed="56.608538" fuel_normed="57.139863" electricity_normed="0"
            traveltime="0.03" CO_perVeh="2.419979" CO2_perVeh="137.898009" HC_perVeh="0.014292" PMx_perVeh="0.002691" NOx_perVeh="0.058725" fuel_perVeh="0.059276" electricity_perVeh="0"/>
        <edge id=":1105984386_0" sampledSeconds="22.87" CO_abs="627.620860" CO2_abs="49433.767189" HC_abs="3.976171" PMx_abs="0.622433" NOx_abs="18.579759" fuel_abs="21.249733" electricity_abs="0"
            CO_normed="49.508844" CO2_normed="3899.501761" HC_normed="0.313654" PMx_normed="0.049100" NOx_normed="1.465634" fuel_normed="1.676250" electricity_normed="0"
            traveltime="0.96" CO_perVeh="26.340761" CO2_perVeh="2074.696920" HC_perVeh="0.166877" PMx_perVeh="0.026123" NOx_perVeh="0.779778" fuel_perVeh="0.891835" electricity_perVeh="0"/>
        <edge id=":1105984390_0" sampledSeconds="23.85" CO_abs="51.633655" CO2_abs="3785.085747" HC_abs="0.320747" PMx_abs="0.048620" NOx_abs="1.433446" fuel_abs="1.627068" electricity_abs="0"
            CO_normed="3.148820" CO2_normed="230.829189" HC_normed="0.019560" PMx_normed="0.002965" NOx_normed="0.087417" fuel_normed="0.099225" electricity_normed="0"
            traveltime="1.08" CO_perVeh="2.341561" CO2_perVeh="171.651780" HC_perVeh="0.014546" PMx_perVeh="0.002205" NOx_perVeh="0.065006" fuel_perVeh="0.073787" electricity_perVeh="0"/>
        <edge id=":1105984390_1" sampledSeconds="669.82" CO_abs="14295.574036" CO2_abs="1882518.419832" HC_abs="110.323637" PMx_abs="33.253260" NOx_abs="702.625459" fuel_abs="809.208502" electricity_abs="0"
            CO_normed="833.952886" CO2_normed="109819.421358" HC_normed="6.435888" PMx_normed="1.939877" NOx_normed="40.988667" fuel_normed="47.206343" electricity_normed="0"
            traveltime="0.64" CO_perVeh="13.573887" CO2_perVeh="1787.482798" HC_perVeh="0.104754" PMx_perVeh="0.031575" NOx_perVeh="0.667155" fuel_perVeh="0.768357" electricity_perVeh="0"/>
        <edge id=":1105984395_0" sampledSeconds="9.10" CO_abs="116.111042" CO2_abs="8668.312963" HC_abs="0.724229" PMx_abs="0.107710" NOx_abs="3.256416" fuel_abs="3.726191" electricity_abs="0"
            CO_normed="96.669692" CO2_normed="7216.911810" HC_normed="0.602966" PMx_normed="0.089675" NOx_normed="2.711169" fuel_normed="3.102287" electricity_normed="0"
            traveltime="0.09" CO_perVeh="1.177493" CO2_perVeh="87.906172" HC_perVeh="0.007344" PMx_perVeh="0.001092" NOx_perVeh="0.033024" fuel_perVeh="0.037788" electricity_perVeh="0"/>
        <edge id=":1105984398_0" sampledSeconds="24.00" CO_abs="1589.306016" CO2_abs="108825.414054" HC_abs="9.808392" PMx_abs="1.985605" NOx_abs="45.060645" fuel_abs="46.779206" electricity_abs="0"
            CO_normed="100.689891" CO2_normed="6894.593573" HC_normed="0.621407" PMx_normed="0.125797" NOx_normed="2.854800" fuel_normed="2.963679" electricity_normed="0"
            traveltime="1.10" CO_perVeh="72.653440" CO2_perVeh="4974.838448" HC_perVeh="0.448380" PMx_perVeh="0.090770" NOx_perVeh="2.059900" fuel_perVeh="2.138462" electricity_perVeh="0"/>
        <edge id=":1105984398_1" sampledSeconds="452.17" CO_abs="8173.906625" CO2_abs="932599.715902" HC_abs="58.705589" PMx_abs="13.613370" NOx_abs="354.514668" fuel_abs="400.884647" electricity_abs="0"
            CO_normed="501.270188" CO2_normed="57192.289615" HC_normed="3.600159" PMx_normed="0.834849" NOx_normed="21.740845" fuel_normed="24.584514" electricity_normed="0"
            traveltime="0.95" CO_perVeh="17.252081" CO2_perVeh="1968.371625" HC_perVeh="0.123906" PMx_perVeh="0.028733" NOx_perVeh="0.748249" fuel_perVeh="0.846119" electricity_perVeh="0"/>
        <edge id=":1106006327_0" sampledSeconds="70.82" CO_abs="9596.001091" CO2_abs="311655.116555" HC_abs="51.032790" PMx_abs="6.512124" NOx_abs="136.487255" fuel_abs="133.969509" electricity_abs="0"
            CO_normed="829.585609" CO2_normed="26942.952298" HC_normed="4.411845" PMx_normed="0.562981" NOx_normed="11.799484" fuel_normed="11.581822" electricity_normed="0"
            traveltime="2.10" CO_perVeh="283.950871" CO2_perVeh="9222.043727" HC_perVeh="1.510088" PMx_perVeh="0.192697" NOx_perVeh="4.038732" fuel_perVeh="3.964230" electricity_perVeh="0"/>
        <edge id=":1106006327_1" sampledSeconds="161.44" CO_abs="21699.708043" CO2_abs="723482.464435" HC_abs="115.848622" PMx_abs="15.053660" NOx_abs="316.401646" fuel_abs="310.999124" electricity_abs="0"
            CO_normed="1635.930410" CO2_normed="54542.990282" HC_normed="8.733771" PMx_normed="1.134888" NOx_normed="23.853366" fuel_normed="23.446072" electricity_normed="0"
            traveltime="2.29" CO_perVeh="308.055323" CO2_perVeh="10270.766039" HC_perVeh="1.644621" PMx_perVeh="0.213706" NOx_perVeh="4.491729" fuel_perVeh="4.415033" electricity_perVeh="0"/>
        <edge id=":1106006327_2" sampledSeconds="0.00" CO_abs="0" CO2_abs="0" HC_abs="0" PMx_abs="0" NOx_abs="0" fuel_abs="0" electricity_abs="0"
            CO_normed="0" CO2_normed="0" HC_normed="0" PMx_normed="0" NOx_normed="0" fuel_normed="0" electricity_normed="0"/>
        <edge id=":1106006327_3" sampledSeconds="0.00" CO_abs="0" CO2_abs="0" HC_abs="0" PMx_abs="0" NOx_abs="0" fuel_abs="0" electricity_abs="0"
            CO_normed="0" CO2_normed="0" HC_normed="0" PMx_normed="0" NOx_normed="0" fuel_normed="0" electricity_normed="0"/>
        <edge id=":1107381198_0" sampledSeconds="0.00" CO_abs="0" CO2_abs="0" HC_abs="0" PMx_abs="0" NOx_abs="0" fuel_abs="0" electricity_abs="0"
            CO_normed="0" CO2_normed="0" HC_normed="0" PMx_normed="0" NOx_normed="0" fuel_normed="0" electricity_normed="0"/>
        <edge id=":1107381198_1" sampledSeconds="36.01" CO_abs="1206.298348" CO2_abs="51229.411454" HC_abs="6.676281" PMx_abs="0.891948" NOx_abs="21.257112" fuel_abs="22.021669" electricity_abs="0"
            CO_normed="100.760436" CO2_normed="4279.122050" HC_normed="0.557661" PMx_normed="0.074503" NOx_normed="1.775577" fuel_normed="1.839440" electricity_normed="0"
            traveltime="1.48" CO_perVeh="49.666648" CO2_perVeh="2109.256928" HC_perVeh="0.274881" PMx_perVeh="0.036724" NOx_perVeh="0.875214" fuel_perVeh="0.906693" electricity_perVeh="0"/>
        <edge id=":1110338277_0" sampledSeconds="96.96" CO_abs="1394.646852" CO2_abs="173229.366288" HC_abs="10.302643" PMx_abs="2.340645" NOx_abs="64.530977" fuel_abs="74.464071" electricity_abs="0"
            CO_normed="3815.143365" CO2_normed="473879.725408" HC_normed="28.183522" PMx_normed="6.402979" NOx_normed="176.528509" fuel_normed="203.701106" electricity_normed="0"
            traveltime="0.02" CO_perVeh="0.314309" CO2_perVeh="39.040432" HC_perVeh="0.002322" PMx_perVeh="0.000528" NOx_perVeh="0.014543" fuel_perVeh="0.016782" electricity_perVeh="0"/>
        <edge id=":1110338293_0" sampledSeconds="123.70" CO_abs="6245.049374" CO2_abs="430166.307019" HC_abs="38.548231" PMx_abs="7.560920" NOx_abs="176.178128" fuel_abs="184.909780" electricity_abs="0"
            CO_normed="15944.806911" CO2_normed="1098296.954090" HC_normed="98.421015" PMx_normed="19.304476" NOx_normed="449.816498" fuel_normed="472.110076" electricity_normed="0"
            traveltime="0.03" CO_perVeh="1.432406" CO2_perVeh="98.665769" HC_perVeh="0.008842" PMx_perVeh="0.001734" NOx_perVeh="0.040409" fuel_perVeh="0.042412" electricity_perVeh="0"/>
        <edge id=":1110338295_0" sampledSeconds="0.00" CO_abs="0" CO2_abs="0" HC_abs="0" PMx_abs="0" NOx_abs="0" fuel_abs="0" electricity_abs="0"
            CO_normed="0" CO2_normed="0" HC_normed="0" PMx_normed="0" NOx_normed="0" fuel_normed="0" electricity_normed="0"/>
        <edge id=":1110673403_0" sampledSeconds="143.65" CO_abs="2054.940800" CO2_abs="275118.371278" HC_abs="15.653558" PMx_abs="3.642519" NOx_abs="101.720587" fuel_abs="118.261911" electricity_abs="0"
            CO_normed="5246.657362" CO2_normed="702429.884115" HC_normed="39.966531" PMx_normed="9.300047" NOx_normed="259.712137" fuel_normed="301.945305" electricity_normed="0"
            traveltime="0.02" CO_perVeh="0.329934" CO2_perVeh="44.172069" HC_perVeh="0.002513" PMx_perVeh="0.000585" NOx_perVeh="0.016332" fuel_perVeh="0.018988" electricity_perVeh="0"/>
        <edge id=":1110673412_0" sampledSeconds="252.76" CO_abs="44770.269337" CO2_abs="3056719.207201" HC_abs="278.660938" PMx_abs="67.146609" NOx_abs="1313.342924" fuel_abs="1313.933062" electricity_abs="0"
            CO_normed="118248.693773" CO2_normed="8073506.343303" HC_normed="736.008346" PMx_normed="177.349810" NOx_normed="3468.844112" fuel_normed="3470.402804" electricity_normed="0"
            traveltime="0.02" CO_perVeh="2.751858" CO2_perVeh="187.884903" HC_perVeh="0.017128" PMx_perVeh="0.004127" NOx_perVeh="0.080726" fuel_perVeh="0.080762" electricity_perVeh="0"/>
        <edge id=":1110673414_0" sampledSeconds="0.00" CO_abs="0" CO2_abs="0" HC_abs="0" PMx_abs="0" NOx_abs="0" fuel_abs="0" electricity_abs="0"
            CO_normed="0" CO2_normed="0" HC_normed="0" PMx_normed="0" NOx_normed="0" fuel_normed="0" electricity_normed="0"/>
        <edge id=":1110673414_1" sampledSeconds="299.87" CO_abs="20402.802449" CO2_abs="772684.212224" HC_abs="110.805799" PMx_abs="14.106861" NOx_abs="325.237174" fuel_abs="332.149821" electricity_abs="0"
            CO_normed="1730.639919" CO2_normed="65541.885535" HC_normed="9.398951" PMx_normed="1.196595" NOx_normed="27.587800" fuel_normed="28.174156" electricity_normed="0"
            traveltime="1.60" CO_perVeh="108.698515" CO2_perVeh="4116.573031" HC_perVeh="0.590332" PMx_perVeh="0.075156" NOx_perVeh="1.732742" fuel_perVeh="1.769570" electricity_perVeh="0"/>
        <edge id=":1110673417_0" sampledSeconds="29.96" CO_abs="484.947513" CO2_abs="59881.034486" HC_abs="3.554724" PMx_abs="0.792009" NOx_abs="22.213067" fuel_abs="25.740380" electricity_abs="0"
            CO_normed="1326.604140" CO2_normed="163808.301025" HC_normed="9.724168" PMx_normed="2.166590" NOx_normed="60.765228" fuel_normed="70.414413" electricity_normed="0"
            traveltime="0.02" CO_perVeh="0.359935" CO2_perVeh="44.444505" HC_perVeh="0.002638" PMx_perVeh="0.000588" NOx_perVeh="0.016487" fuel_perVeh="0.019105" electricity_perVeh="0"/>
        <edge id=":1110673446_0" sampledSeconds="333.33" CO_abs="3183.828173" CO2_abs="255040.779954" HC_abs="20.533293" PMx_abs="4.730077" NOx_abs="104.671799" fuel_abs="109.630249" electricity_abs="0"
            CO_normed="8128.922994" CO2_normed="651167.948818" HC_normed="52.425428" PMx_normed="12.076793" NOx_normed="267.247147" fuel_normed="279.907019" electricity_normed="0"
            traveltime="0.02" CO_perVeh="0.217510" CO2_perVeh="17.423682" HC_perVeh="0.001403" PMx_perVeh="0.000323" NOx_perVeh="0.007151" fuel_perVeh="0.007490" electricity_perVeh="0"/>
        <edge id=":1110673451_0" sampledSeconds="37.78" CO_abs="381.936171" CO2_abs="28137.956809" HC_abs="2.381187" PMx_abs="0.388804" NOx_abs="10.825499" fuel_abs="12.095424" electricity_abs="0"
            CO_normed="1083.506869" CO2_normed="79823.990947" HC_normed="6.755140" PMx_normed="1.102990" NOx_normed="30.710635" fuel_normed="34.313259" electricity_normed="0"
            traveltime="0.03" CO_perVeh="0.273898" CO2_perVeh="20.178614" HC_perVeh="0.001708" PMx_perVeh="0.000279" NOx_perVeh="0.007763" fuel_perVeh="0.008674" electricity_perVeh="0"/>
        <edge id=":1110673464_0" sampledSeconds="324.66" CO_abs="689.067927" CO2_abs="52490.074596" HC_abs="4.337990" PMx_abs="0.732445" NOx_abs="20.205818" fuel_abs="22.563434" electricity_abs="0"
            CO_normed="37.379370" CO2_normed="2847.391184" HC_normed="0.235320" PMx_normed="0.039732" NOx_normed="1.096090" fuel_normed="1.223982" electricity_normed="0"
            traveltime="1.17" CO_perVeh="2.490890" CO2_perVeh="189.744694" HC_perVeh="0.015681" PMx_perVeh="0.002648" NOx_perVeh="0.073041" fuel_perVeh="0.081564" electricity_perVeh="0"/>
        <edge id=":1110673464_1" sampledSeconds="735.97" CO_abs="17157.482556" CO2_abs="2178105.963720" HC_abs="130.332495" PMx_abs="38.738768" NOx_abs="818.786195" fuel_abs="936.267733" electricity_abs="0"
            CO_normed="911.998718" CO2_normed="115776.299990" HC_normed="6.927769" PMx_normed="2.059143" NOx_normed="43.522233" fuel_normed="49.766915" electricity_normed="0"
            traveltime="0.70" CO_perVeh="16.325983" CO2_perVeh="2072.548923" HC_perVeh="0.124016" PMx_perVeh="0.036861" NOx_perVeh="0.779106" fuel_perVeh="0.890894" electricity_perVeh="0"/>
        <edge id=":1110673479_0" sampledSeconds="133.41" CO_abs="6780.384074" CO2_abs="474114.075793" HC_abs="42.005744" PMx_abs="8.239856" NOx_abs="193.457708" fuel_abs="203.801081" electricity_abs="0"
            CO_normed="17311.618911" CO2_normed="1210504.023301" HC_normed="107.248708" PMx_normed="21.037930" NOx_normed="493.934573" fuel_normed="520.343185" electricity_normed="0"
            traveltime="0.03" CO_perVeh="1.428358" CO2_perVeh="99.877037" HC_perVeh="0.008849" PMx_perVeh="0.001736" NOx_perVeh="0.040754" fuel_perVeh="0.042933" electricity_perVeh="0"/>
        <edge id=":1110673511_0" sampledSeconds="11.75" CO_abs="238.117646" CO2_abs="29633.011502" HC_abs="1.768119" PMx_abs="0.409425" NOx_abs="11.087412" fuel_abs="12.737982" electricity_abs="0"
            CO_normed="607.959946" CO2_normed="75658.752772" HC_normed="4.514346" PMx_normed="1.045340" NOx_normed="28.308287" fuel_normed="32.522508" electricity_normed="0"
            traveltime="0.02" CO_perVeh="0.471520" CO2_perVeh="58.679231" HC_perVeh="0.003501" PMx_perVeh="0.000811" NOx_perVeh="0.021955" fuel_perVeh="0.025224" electricity_perVeh="0"/>
        <edge id=":1110673517_0" sampledSeconds="17.50" CO_abs="597.224142" CO2_abs="43513.360327" HC_abs="3.741031" PMx_abs="0.748629" NOx_abs="17.662056" fuel_abs="18.704501" electricity_abs="0"
            CO_normed="1524.827597" CO2_normed="111097.941259" HC_normed="9.551569" PMx_normed="1.911394" NOx_normed="45.094610" fuel_normed="47.756174" electricity_normed="0"
            traveltime="0.03" CO_perVeh="0.958883" CO2_perVeh="69.863570" HC_perVeh="0.006006" PMx_perVeh="0.001202" NOx_perVeh="0.028358" fuel_perVeh="0.030031" electricity_perVeh="0"/>
        <edge id=":1110673534_0" sampledSeconds="474.15" CO_abs="2845.357079" CO2_abs="267962.407223" HC_abs="19.080013" PMx_abs="3.537073" NOx_abs="100.888608" fuel_abs="115.186412" electricity_abs="0"
            CO_normed="140.789564" CO2_normed="13258.901891" HC_normed="0.944088" PMx_normed="0.175016" NOx_normed="4.992014" fuel_normed="5.699476" electricity_normed="0"
            traveltime="1.43" CO_perVeh="8.571920" CO2_perVeh="807.263335" HC_perVeh="0.057480" PMx_perVeh="0.010656" NOx_perVeh="0.303937" fuel_perVeh="0.347010" electricity_perVeh="0"/>
        <edge id=":1110673534_1" sampledSeconds="184.10" CO_abs="2984.378851" CO2_abs="364856.411276" HC_abs="21.995432" PMx_abs="5.010337" NOx_abs="136.467702" fuel_abs="156.836462" electricity_abs="0"
            CO_normed="143.587136" CO2_normed="17554.301836" HC_normed="1.058264" PMx_normed="0.241062" NOx_normed="6.565858" fuel_normed="7.545858" electricity_normed="0"
            traveltime="1.22" CO_perVeh="19.815204" CO2_perVeh="2422.515585" HC_perVeh="0.146042" PMx_perVeh="0.033267" NOx_perVeh="0.906097" fuel_perVeh="1.041338" electricity_perVeh="0"/>
        <edge id=":1110673549_0" sampledSeconds="59.44" CO_abs="37.258140" CO2_abs="8688.641262" HC_abs="0.369637" PMx_abs="0.102584" NOx_abs="3.055684" fuel_abs="3.734888" electricity_abs="0"
            CO_normed="1.785867" CO2_normed="416.466175" HC_normed="0.017718" PMx_normed="0.004917" NOx_normed="0.146466" fuel_normed="0.179022" electricity_normed="0"
            traveltime="1.24" CO_perVeh="0.776242" CO2_perVeh="181.020440" HC_perVeh="0.007701" PMx_perVeh="0.002137" NOx_perVeh="0.063663" fuel_perVeh="0.077813" electricity_perVeh="0"/>
        <edge id=":1110673549_1" sampledSeconds="638.90" CO_abs="13983.630863" CO2_abs="1867749.368863" HC_abs="108.253978" PMx_abs="32.690394" NOx_abs="696.274452" fuel_abs="802.860094" electricity_abs="0"
            CO_normed="648.357518" CO2_normed="86599.064035" HC_normed="5.019246" PMx_normed="1.515705" NOx_normed="32.283087" fuel_normed="37.224980" electricity_normed="0"
            traveltime="0.80" CO_perVeh="17.606666" CO2_perVeh="2351.666765" HC_perVeh="0.136302" PMx_perVeh="0.041160" NOx_perVeh="0.876673" fuel_perVeh="1.010874" electricity_perVeh="0"/>
        <edge id=":1110673556_0" sampledSeconds="419.35" CO_abs="52280.988530" CO2_abs="2616684.116688" HC_abs="300.310945" PMx_abs="53.015450" NOx_abs="1128.673159" fuel_abs="1124.798946" electricity_abs="0"
            CO_normed="1858.237239" CO2_normed="93005.507430" HC_normed="10.674033" PMx_normed="1.884342" NOx_normed="40.116734" fuel_normed="39.979032" electricity_normed="0"
            traveltime="2.60" CO_perVeh="324.534884" CO2_perVeh="16243.099065" HC_perVeh="1.864184" PMx_perVeh="0.329094" NOx_perVeh="7.006253" fuel_perVeh="6.982203" electricity_perVeh="0"/>
        <edge id=":1110673556_2" sampledSeconds="249.18" CO_abs="24160.861697" CO2_abs="1037452.637092" HC_abs="134.359771" PMx_abs="19.932361" NOx_abs="441.950507" fuel_abs="445.960310" electricity_abs="0"
            CO_normed="897.922947" CO2_normed="38556.262644" HC_normed="4.993395" PMx_normed="0.740773" NOx_normed="16.424807" fuel_normed="16.573829" electricity_normed="0"
            traveltime="3.02" CO_perVeh="293.066622" CO2_perVeh="12584.101682" HC_perVeh="1.629758" PMx_perVeh="0.241776" NOx_perVeh="5.360775" fuel_perVeh="5.409413" electricity_perVeh="0"/>
        <edge id=":1110673556_3" sampledSeconds="369.47" CO_abs="31715.665466" CO2_abs="1117569.881048" HC_abs="170.461784" PMx_abs="21.564026" NOx_abs="478.164441" fuel_abs="480.404152" electricity_abs="0"
            CO_normed="2681.330038" CO2_normed="94482.447320" HC_normed="14.411310" PMx_normed="1.823082" NOx_normed="40.425344" fuel_normed="40.614695" electricity_normed="0"
            traveltime="1.77" CO_perVeh="151.875521" CO2_perVeh="5351.661560" HC_perVeh="0.816283" PMx_perVeh="0.103263" NOx_perVeh="2.289767" fuel_perVeh="2.300492" electricity_perVeh="0"/>
        <edge id=":1110673556_4" sampledSeconds="180.90" CO_abs="18671.029207" CO2_abs="745907.589983" HC_abs="102.502576" PMx_abs="14.477164" NOx_abs="319.143559" fuel_abs="320.637340" electricity_abs="0"
            CO_normed="964.343484" CO2_normed="38525.520781" HC_normed="5.294175" PMx_normed="0.747734" NOx_normed="16.483505" fuel_normed="16.560658" electricity_normed="0"
            traveltime="2.40" CO_perVeh="248.097202" CO2_perVeh="9911.482859" HC_perVeh="1.362035" PMx_perVeh="0.192370" NOx_perVeh="4.240721" fuel_perVeh="4.260570" electricity_perVeh="0"/>
        <edge id=":1110673556_5" sampledSeconds="24.03" CO_abs="1828.645122" CO2_abs="77411.818624" HC_abs="10.139168" PMx_abs="1.473922" NOx_abs="32.932023" fuel_abs="33.276351" electricity_abs="0"
            CO_normed="131.641386" CO2_normed="5572.759299" HC_normed="0.729903" PMx_normed="0.106105" NOx_normed="2.370726" fuel_normed="2.395514" electricity_normed="0"
            traveltime="1.66" CO_perVeh="126.424848" CO2_perVeh="5351.928201" HC_perVeh="0.700980" PMx_perVeh="0.101901" NOx_perVeh="2.276782" fuel_perVeh="2.300587" electricity_perVeh="0"/>
        <edge id=":1110673556_6" sampledSeconds="309.93" CO_abs="36575.059329" CO2_abs="1864357.257668" HC_abs="210.870622" PMx_abs="37.457375" NOx_abs="801.181127" fuel_abs="801.406282" electricity_abs="0"
            CO_normed="1332.775407" CO2_normed="67936.171504" HC_normed="7.684012" PMx_normed="1.364927" NOx_normed="29.194608" fuel_normed="29.202812" electricity_normed="0"
            traveltime="2.45" CO_perVeh="289.645048" CO2_perVeh="14764.209740" HC_perVeh="1.669926" PMx_perVeh="0.296632" NOx_perVeh="6.344710" fuel_perVeh="6.346493" electricity_perVeh="0"/>
        <edge id=":1110673561_0" sampledSeconds="101.32" CO_abs="10072.264516" CO2_abs="708748.118619" HC_abs="62.948417" PMx_abs="14.549434" NOx_abs="301.268645" fuel_abs="304.656857" electricity_abs="0"
            CO_normed="461.143216" CO2_normed="32448.947960" HC_normed="2.881997" PMx_normed="0.666124" NOx_normed="13.793124" fuel_normed="13.948248" electricity_normed="0"
            traveltime="1.20" CO_perVeh="118.862497" CO2_perVeh="8363.915711" HC_perVeh="0.742852" PMx_perVeh="0.171697" NOx_perVeh="3.555262" fuel_perVeh="3.595247" electricity_perVeh="0"/>
        <edge id=":1110673561_1" sampledSeconds="1310.07" CO_abs="122957.828650" CO2_abs="8477701.693115" HC_abs="765.054394" PMx_abs="177.844730" NOx_abs="3629.443162" fuel_abs="3644.153955" electricity_abs="0"
            CO_normed="5488.372057" CO2_normed="378412.514199" HC_normed="34.149132" PMx_normed="7.938316" NOx_normed="162.004605" fuel_normed="162.661239" electricity_normed="0"
            traveltime="1.19" CO_perVeh="111.782674" CO2_perVeh="7707.196652" HC_perVeh="0.695522" PMx_perVeh="0.161681" NOx_perVeh="3.299577" fuel_perVeh="3.312951" electricity_perVeh="0"/>
        <edge id=":1110673562_0" sampledSeconds="103.73" CO_abs="2359.025961" CO2_abs="189173.742920" HC_abs="15.056630" PMx_abs="2.547777" NOx_abs="72.042070" fuel_abs="81.318461" electricity_abs="0"
            CO_normed="6692.272228" CO2_normed="536663.100483" HC_normed="42.713843" PMx_normed="7.227735" NOx_normed="204.374666" fuel_normed="230.690669" electricity_normed="0"
            traveltime="0.03" CO_perVeh="0.601326" CO2_perVeh="48.221248" HC_perVeh="0.003838" PMx_perVeh="0.000649" NOx_perVeh="0.018364" fuel_perVeh="0.020728" electricity_perVeh="0"/>
        <edge id=":1110673564_0" sampledSeconds="28.96" CO_abs="549.515516" CO2_abs="60214.902493" HC_abs="3.892766" PMx_abs="0.869765" NOx_abs="22.906076" fuel_abs="25.883832" electricity_abs="0"
            CO_normed="4209.055013" CO2_normed="461220.529734" HC_normed="29.816931" PMx_normed="6.662031" NOx_normed="175.450795" fuel_normed="198.259138" electricity_normed="0"
            traveltime="7.962609e-03" CO_perVeh="0.151070" CO2_perVeh="16.553925" HC_perVeh="0.001070" PMx_perVeh="0.000239" NOx_perVeh="0.006297" fuel_perVeh="0.007116" electricity_perVeh="0"/>
        <edge id=":1110673588_0" sampledSeconds="11.75" CO_abs="141.957827" CO2_abs="17179.500481" HC_abs="1.040420" PMx_abs="0.234939" NOx_abs="6.429008" fuel_abs="7.384748" electricity_abs="0"
            CO_normed="434.934619" CO2_normed="52635.065303" HC_normed="3.187670" PMx_normed="0.719814" NOx_normed="19.697386" fuel_normed="22.625611" electricity_normed="0"
            traveltime="0.02" CO_perVeh="0.236596" CO2_perVeh="28.632501" HC_perVeh="0.001734" PMx_perVeh="0.000392" NOx_perVeh="0.010715" fuel_perVeh="0.012308" electricity_perVeh="0"/>
        <edge id=":1110673601_0" sampledSeconds="29.99" CO_abs="485.221148" CO2_abs="52644.307900" HC_abs="3.415868" PMx_abs="0.759045" NOx_abs="20.029865" fuel_abs="22.629558" electricity_abs="0"
            CO_normed="1327.352685" CO2_normed="144011.784529" HC_normed="9.344320" PMx_normed="2.076414" NOx_normed="54.792944" fuel_normed="61.904565" electricity_normed="0"
            traveltime="0.02" CO_perVeh="0.360138" CO2_perVeh="39.073310" HC_perVeh="0.002535" PMx_perVeh="0.000563" NOx_perVeh="0.014866" fuel_perVeh="0.016796" electricity_perVeh="0"/>
        <edge id=":1110673617_0" sampledSeconds="246.04" CO_abs="5394.345971" CO2_abs="690749.267900" HC_abs="41.072659" PMx_abs="12.239494" NOx_abs="259.200617" fuel_abs="296.921430" electricity_abs="0"
            CO_normed="13772.798223" CO2_normed="1763615.152085" HC_normed="104.866364" PMx_normed="31.249771" NOx_normed="661.788809" fuel_normed="758.097268" electricity_normed="0"
            traveltime="0.01" CO_perVeh="0.321207" CO2_perVeh="41.130705" HC_perVeh="0.002446" PMx_perVeh="0.000729" NOx_perVeh="0.015434" fuel_perVeh="0.017680" electricity_perVeh="0"/>
        <edge id=":1110673621_0" sampledSeconds="25.72" CO_abs="527.506862" CO2_abs="59261.353906" HC_abs="3.778558" PMx_abs="0.858862" NOx_abs="22.512044" fuel_abs="25.473932" electricity_abs="0"
            CO_normed="1616.191238" CO2_normed="181566.701330" HC_normed="11.576859" PMx_normed="2.631406" NOx_normed="68.973070" fuel_normed="78.047793" electricity_normed="0"
            traveltime="0.02" CO_perVeh="0.399626" CO2_perVeh="44.894965" HC_perVeh="0.002863" PMx_perVeh="0.000651" NOx_perVeh="0.017055" fuel_perVeh="0.019298" electricity_perVeh="0"/>
        <edge id=":1110673630_0" sampledSeconds="54.25" CO_abs="234.117238" CO2_abs="25530.347573" HC_abs="1.636026" PMx_abs="0.259005" NOx_abs="9.078465" fuel_abs="10.974575" electricity_abs="0"
            CO_normed="12.790574" CO2_normed="1394.804554" HC_normed="0.089381" PMx_normed="0.014150" NOx_normed="0.495986" fuel_normed="0.599576" electricity_normed="0"
            traveltime="1.27" CO_perVeh="5.464710" CO2_perVeh="595.923470" HC_perVeh="0.038188" PMx_perVeh="0.006046" NOx_perVeh="0.211907" fuel_perVeh="0.256166" electricity_perVeh="0"/>
        <edge id=":1110673630_1" sampledSeconds="7.53" CO_abs="8.235615" CO2_abs="768.133256" HC_abs="0.055475" PMx_abs="0.012272" NOx_abs="0.302236" fuel_abs="0.330187" electricity_abs="0"
            CO_normed="0.548533" CO2_normed="51.161512" HC_normed="0.003695" PMx_normed="0.000817" NOx_normed="0.020130" fuel_normed="0.021992" electricity_normed="0"
            traveltime="1.07" CO_perVeh="1.165656" CO2_perVeh="108.720399" HC_perVeh="0.007852" PMx_perVeh="0.001737" NOx_perVeh="0.042778" fuel_perVeh="0.046734" electricity_perVeh="0"/>
        <edge id=":1110673650_0" sampledSeconds="142.91" CO_abs="2444.703676" CO2_abs="299917.168368" HC_abs="18.003014" PMx_abs="4.154944" NOx_abs="112.379848" fuel_abs="128.921738" electricity_abs="0"
            CO_normed="6241.796621" CO2_normed="765745.961792" HC_normed="45.965143" PMx_normed="10.608369" NOx_normed="286.927272" fuel_normed="329.161885" electricity_normed="0"
            traveltime="0.02" CO_perVeh="0.393207" CO2_perVeh="48.238784" HC_perVeh="0.002896" PMx_perVeh="0.000668" NOx_perVeh="0.018075" fuel_perVeh="0.020736" electricity_perVeh="0"/>
        <edge id=":1110673655_0" sampledSeconds="44.70" CO_abs="799.674038" CO2_abs="85833.629071" HC_abs="5.615879" PMx_abs="1.221976" NOx_abs="32.589701" fuel_abs="36.896271" electricity_abs="0"
            CO_normed="2041.720949" CO2_normed="219149.691246" HC_normed="14.338413" PMx_normed="3.119940" NOx_normed="83.207746" fuel_normed="94.203244" electricity_normed="0"
            traveltime="0.02" CO_perVeh="0.427976" CO2_perVeh="45.937184" HC_perVeh="0.003006" PMx_perVeh="0.000654" NOx_perVeh="0.017442" fuel_perVeh="0.019746" electricity_perVeh="0"/>
        <edge id=":1110673663_0" sampledSeconds="108.31" CO_abs="1440.604849" CO2_abs="184907.553445" HC_abs="10.789275" PMx_abs="2.437939" NOx_abs="68.442665" fuel_abs="79.484096" electricity_abs="0"
            CO_normed="67.365202" CO2_normed="8646.600582" HC_normed="0.504525" PMx_normed="0.114002" NOx_normed="3.200499" fuel_normed="3.716815" electricity_normed="0"
            traveltime="1.27" CO_perVeh="16.920584" CO2_perVeh="2171.826446" HC_perVeh="0.126725" PMx_perVeh="0.028635" NOx_perVeh="0.803891" fuel_perVeh="0.933578" electricity_perVeh="0"/>
        <edge id=":1110673663_1" sampledSeconds="154.82" CO_abs="2551.377254" CO2_abs="322143.275178" HC_abs="19.017280" PMx_abs="4.411073" NOx_abs="120.215536" fuel_abs="138.475841" electricity_abs="0"
            CO_normed="119.452714" CO2_normed="15082.398567" HC_normed="0.890368" PMx_normed="0.206522" NOx_normed="5.628361" fuel_normed="6.483289" electricity_normed="0"
            traveltime="1.25" CO_perVeh="20.596741" CO2_perVeh="2600.596075" HC_perVeh="0.153523" PMx_perVeh="0.035610" NOx_perVeh="0.970475" fuel_perVeh="1.117887" electricity_perVeh="0"/>
        <edge id=":1110673666_0" sampledSeconds="190.68" CO_abs="4116.610985" CO2_abs="331369.765291" HC_abs="26.304534" PMx_abs="4.468852" NOx_abs="126.245650" fuel_abs="142.442996" electricity_abs="0"