<?xml version="1.0" encoding="UTF-8"?>

<!-- generated on ter 01 set 2020 18:59:37 by Eclipse SUMO GUI Version 1.6.0
<configuration xmlns:xsi="http://www.w3.org/2001/XMLSchema-instance" xsi:noNamespaceSchemaLocation="http://sumo.dlr.de/xsd/sumoConfiguration.xsd">

    <input>
        <net-file value="../dataSets/Angeja_Estarreja/angeja_estarreja.net.xml"/>
        <route-files value="../results/angeja_estarreja/length-ttime/solution9/angeja_estarreja.rou.xml"/>
        <additional-files value="moreOutputInfo.xml"/>
    </input>

    <output>
        <emission-output.precision value="6"/>
        <tripinfo-output value="../results/angeja_estarreja/length-ttime/solution9/angeja_estarreja-tripinfo"/>
    </output>

    <processing>
        <collision.action value="warn"/>
        <time-to-teleport value="-1"/>
    </processing>

    <emissions>
        <device.emissions.probability value="1"/>
    </emissions>

    <gui_only>
        <gui-settings-file value="gui-settings.xml"/>
        <quit-on-end value="true"/>
        <start value="true"/>
    </gui_only>

</configuration>
-->

<meandata xmlns:xsi="http://www.w3.org/2001/XMLSchema-instance" xsi:noNamespaceSchemaLocation="http://sumo.dlr.de/xsd/meandata_file.xsd">
    <interval begin="0.00" end="19079.00" id="emissions-detector">
        <edge id=":10_0" sampledSeconds="403.99" CO_abs="41367.102954" CO2_abs="2276121.234653" HC_abs="242.385876" PMx_abs="44.722913" NOx_abs="971.714916" fuel_abs="978.404465" electricity_abs="0"
            CO_normed="446.284898" CO2_normed="24555.708755" HC_normed="2.614956" PMx_normed="0.482489" NOx_normed="10.483250" fuel_normed="10.555420" electricity_normed="0"
            traveltime="1.90" CO_perVeh="194.994188" CO2_perVeh="10729.066851" HC_perVeh="1.142546" PMx_perVeh="0.210813" NOx_perVeh="4.580421" fuel_perVeh="4.611954" electricity_perVeh="0"/>
        <edge id=":10_1" sampledSeconds="0.00" CO_abs="0" CO2_abs="0" HC_abs="0" PMx_abs="0" NOx_abs="0" fuel_abs="0" electricity_abs="0"
            CO_normed="0" CO2_normed="0" HC_normed="0" PMx_normed="0" NOx_normed="0" fuel_normed="0" electricity_normed="0"/>
        <edge id=":100_0" sampledSeconds="0.00" CO_abs="0" CO2_abs="0" HC_abs="0" PMx_abs="0" NOx_abs="0" fuel_abs="0" electricity_abs="0"
            CO_normed="0" CO2_normed="0" HC_normed="0" PMx_normed="0" NOx_normed="0" fuel_normed="0" electricity_normed="0"/>
        <edge id=":100_1" sampledSeconds="912.02" CO_abs="21657.262143" CO2_abs="2744998.096923" HC_abs="165.260688" PMx_abs="49.566522" NOx_abs="1024.436128" fuel_abs="1179.948897" electricity_abs="0"
            CO_normed="138.243912" CO2_normed="17522.033678" HC_normed="1.054902" PMx_normed="0.316396" NOx_normed="6.539241" fuel_normed="7.531919" electricity_normed="0"
            traveltime="1.37" CO_perVeh="32.563654" CO2_perVeh="4127.353059" HC_perVeh="0.248484" PMx_perVeh="0.074528" NOx_perVeh="1.540332" fuel_perVeh="1.774160" electricity_perVeh="0"/>
        <edge id=":101_0" sampledSeconds="438.32" CO_abs="11053.039202" CO2_abs="1291058.153860" HC_abs="81.766672" PMx_abs="23.882751" NOx_abs="488.286027" fuel_abs="554.966331" electricity_abs="0"
            CO_normed="255.273978" CO2_normed="29817.459711" HC_normed="1.888431" PMx_normed="0.551581" NOx_normed="11.277144" fuel_normed="12.817150" electricity_normed="0"
            traveltime="0.38" CO_perVeh="9.548391" CO2_perVeh="1115.306586" HC_perVeh="0.070636" PMx_perVeh="0.020632" NOx_perVeh="0.421816" fuel_perVeh="0.479419" electricity_perVeh="0"/>
        <edge id=":102_0" sampledSeconds="341.36" CO_abs="8400.222853" CO2_abs="1048774.531278" HC_abs="63.683838" PMx_abs="19.015758" NOx_abs="392.232055" fuel_abs="450.820061" electricity_abs="0"
            CO_normed="195.682812" CO2_normed="24431.155401" HC_normed="1.483512" PMx_normed="0.442971" NOx_normed="9.137028" fuel_normed="10.501833" electricity_normed="0"
            traveltime="0.38" CO_perVeh="9.240983" CO2_perVeh="1153.744094" HC_perVeh="0.070058" PMx_perVeh="0.020919" NOx_perVeh="0.431490" fuel_perVeh="0.495942" electricity_perVeh="0"/>
        <edge id=":103_0" sampledSeconds="433.93" CO_abs="10740.329616" CO2_abs="1326554.596496" HC_abs="81.192892" PMx_abs="24.146641" NOx_abs="497.054179" fuel_abs="570.224909" electricity_abs="0"
            CO_normed="251.749503" CO2_normed="31093.967563" HC_normed="1.903132" PMx_normed="0.565989" NOx_normed="11.650773" fuel_normed="13.365869" electricity_normed="0"
            traveltime="0.37" CO_perVeh="9.227678" CO2_perVeh="1139.724695" HC_perVeh="0.069758" PMx_perVeh="0.020746" NOx_perVeh="0.427050" fuel_perVeh="0.489915" electricity_perVeh="0"/>
        <edge id=":104_0" sampledSeconds="341.45" CO_abs="7783.217998" CO2_abs="989155.818259" HC_abs="59.442662" PMx_abs="17.845959" NOx_abs="368.981498" fuel_abs="425.192771" electricity_abs="0"
            CO_normed="181.533828" CO2_normed="23070.822668" HC_normed="1.386426" PMx_normed="0.416235" NOx_normed="8.606032" fuel_normed="9.917090" electricity_normed="0"
            traveltime="0.38" CO_perVeh="8.558311" CO2_perVeh="1087.661074" HC_perVeh="0.065362" PMx_perVeh="0.019623" NOx_perVeh="0.405727" fuel_perVeh="0.467536" electricity_perVeh="0"/>
        <edge id=":105_0" sampledSeconds="168.79" CO_abs="3986.924009" CO2_abs="503023.730136" HC_abs="30.370880" PMx_abs="9.096287" NOx_abs="187.843218" fuel_abs="216.226844" electricity_abs="0"
            CO_normed="3419.496551" CO2_normed="431432.328855" HC_normed="26.048432" PMx_normed="7.801685" NOx_normed="161.108974" fuel_normed="185.452982" electricity_normed="0"
            traveltime="0.01" CO_perVeh="0.241098" CO2_perVeh="30.418975" HC_perVeh="0.001837" PMx_perVeh="0.000550" NOx_perVeh="0.011359" fuel_perVeh="0.013076" electricity_perVeh="0"/>
        <edge id=":106_0" sampledSeconds="134.66" CO_abs="2942.170515" CO2_abs="368754.648164" HC_abs="22.362634" PMx_abs="6.682093" NOx_abs="137.865006" fuel_abs="158.510710" electricity_abs="0"
            CO_normed="1790.824543" CO2_normed="224451.598260" HC_normed="13.611568" PMx_normed="4.067221" NOx_normed="83.914931" fuel_normed="96.481448" electricity_normed="0"
            traveltime="0.01" CO_perVeh="0.314577" CO2_perVeh="39.427219" HC_perVeh="0.002391" PMx_perVeh="0.000714" NOx_perVeh="0.014741" fuel_perVeh="0.016948" electricity_perVeh="0"/>
        <edge id=":107_0" sampledSeconds="439.03" CO_abs="10861.816848" CO2_abs="1351686.973949" HC_abs="82.283193" PMx_abs="24.526980" NOx_abs="506.106023" fuel_abs="581.028186" electricity_abs="0"
            CO_normed="250.857628" CO2_normed="31217.704459" HC_normed="1.900360" PMx_normed="0.566460" NOx_normed="11.688703" fuel_normed="13.419058" electricity_normed="0"
            traveltime="0.38" CO_perVeh="9.383217" CO2_perVeh="1167.684202" HC_perVeh="0.071082" PMx_perVeh="0.021188" NOx_perVeh="0.437211" fuel_perVeh="0.501934" electricity_perVeh="0"/>
        <edge id=":108_0" sampledSeconds="92.39" CO_abs="8241.093052" CO2_abs="608705.050048" HC_abs="52.128369" PMx_abs="12.118673" NOx_abs="255.834063" fuel_abs="261.653407" electricity_abs="0"
            CO_normed="129.260575" CO2_normed="9547.467095" HC_normed="0.817627" PMx_normed="0.190080" NOx_normed="4.012727" fuel_normed="4.104003" electricity_normed="0"
            traveltime="0.85" CO_perVeh="75.581939" CO2_perVeh="5582.646327" HC_perVeh="0.478087" PMx_perVeh="0.111145" NOx_perVeh="2.346343" fuel_perVeh="2.399715" electricity_perVeh="0"/>
        <edge id=":108_1" sampledSeconds="403.75" CO_abs="8988.634642" CO2_abs="1144263.207663" HC_abs="68.710447" PMx_abs="20.635927" NOx_abs="426.763868" fuel_abs="491.866337" electricity_abs="0"
            CO_normed="131.477340" CO2_normed="16737.211974" HC_normed="1.005032" PMx_normed="0.301843" NOx_normed="6.242303" fuel_normed="7.194561" electricity_normed="0"
            traveltime="0.60" CO_perVeh="13.352839" CO2_perVeh="1699.831339" HC_perVeh="0.102071" PMx_perVeh="0.030655" NOx_perVeh="0.633968" fuel_perVeh="0.730680" electricity_perVeh="0"/>
        <edge id=":109_0" sampledSeconds="308.10" CO_abs="175.957083" CO2_abs="22763.535871" HC_abs="1.308065" PMx_abs="0.291844" NOx_abs="8.351198" fuel_abs="9.785112" electricity_abs="0"
            CO_normed="2.645513" CO2_normed="342.249553" HC_normed="0.019667" PMx_normed="0.004388" NOx_normed="0.125560" fuel_normed="0.147119" electricity_normed="0"
            traveltime="0.86" CO_perVeh="0.489062" CO2_perVeh="63.269855" HC_perVeh="0.003636" PMx_perVeh="0.000811" NOx_perVeh="0.023212" fuel_perVeh="0.027197" electricity_perVeh="0"/>
        <edge id=":109_1" sampledSeconds="524.52" CO_abs="12219.941415" CO2_abs="1513162.358520" HC_abs="92.409902" PMx_abs="27.507843" NOx_abs="566.827523" fuel_abs="650.439026" electricity_abs="0"
            CO_normed="119.842524" CO2_normed="14839.776300" HC_normed="0.906276" PMx_normed="0.269773" NOx_normed="5.558950" fuel_normed="6.378939" electricity_normed="0"
            traveltime="0.89" CO_perVeh="20.807653" CO2_perVeh="2576.555480" HC_perVeh="0.157352" PMx_perVeh="0.046839" NOx_perVeh="0.965172" fuel_perVeh="1.107543" electricity_perVeh="0"/>
        <edge id=":11_0" sampledSeconds="287.17" CO_abs="17610.913932" CO2_abs="1279413.423942" HC_abs="110.394471" PMx_abs="22.874647" NOx_abs="524.807492" fuel_abs="549.962927" electricity_abs="0"
            CO_normed="182.081540" CO2_normed="13228.022566" HC_normed="1.141383" PMx_normed="0.236504" NOx_normed="5.426053" fuel_normed="5.686139" electricity_normed="0"
            traveltime="1.59" CO_perVeh="97.719422" CO2_perVeh="7099.207962" HC_perVeh="0.612557" PMx_perVeh="0.126927" NOx_perVeh="2.912051" fuel_perVeh="3.051634" electricity_perVeh="0"/>
        <edge id=":11_1" sampledSeconds="51.02" CO_abs="1037.909074" CO2_abs="94712.713818" HC_abs="6.865119" PMx_abs="1.130455" NOx_abs="34.975840" fuel_abs="40.713441" electricity_abs="0"
            CO_normed="11.002369" CO2_normed="1004.003371" HC_normed="0.072774" PMx_normed="0.011983" NOx_normed="0.370762" fuel_normed="0.431583" electricity_normed="0"
            traveltime="1.68" CO_perVeh="34.136699" CO2_perVeh="3115.089257" HC_perVeh="0.225793" PMx_perVeh="0.037181" NOx_perVeh="1.150351" fuel_perVeh="1.339060" electricity_perVeh="0"/>
        <edge id=":110_0" sampledSeconds="95.32" CO_abs="3.214034" CO2_abs="2019.782199" HC_abs="0.063242" PMx_abs="0.028111" NOx_abs="0.663164" fuel_abs="0.868218" electricity_abs="0"
            CO_normed="0.041681" CO2_normed="26.193193" HC_normed="0.000820" PMx_normed="0.000365" NOx_normed="0.008600" fuel_normed="0.011259" electricity_normed="0"
            traveltime="0.93" CO_perVeh="0.031468" CO2_perVeh="19.775137" HC_perVeh="0.000619" PMx_perVeh="0.000275" NOx_perVeh="0.006493" fuel_perVeh="0.008500" electricity_perVeh="0"/>
        <edge id=":110_1" sampledSeconds="443.92" CO_abs="9929.902999" CO2_abs="1276165.318578" HC_abs="76.273818" PMx_abs="22.970178" NOx_abs="475.247758" fuel_abs="548.565057" electricity_abs="0"
            CO_normed="127.460191" CO2_normed="16380.852356" HC_normed="0.979050" PMx_normed="0.294845" NOx_normed="6.100278" fuel_normed="7.041379" electricity_normed="0"
            traveltime="0.68" CO_perVeh="15.253788" CO2_perVeh="1960.377216" HC_perVeh="0.117168" PMx_perVeh="0.035286" NOx_perVeh="0.730050" fuel_perVeh="0.842676" electricity_perVeh="0"/>
        <edge id=":111_0" sampledSeconds="341.12" CO_abs="7671.771296" CO2_abs="980280.722538" HC_abs="58.731669" PMx_abs="17.663822" NOx_abs="365.307552" fuel_abs="421.377797" electricity_abs="0"
            CO_normed="177.182361" CO2_normed="22639.941402" HC_normed="1.356429" PMx_normed="0.407952" NOx_normed="8.436911" fuel_normed="9.731874" electricity_normed="0"
            traveltime="0.38" CO_perVeh="8.525989" CO2_perVeh="1089.430591" HC_perVeh="0.065271" PMx_perVeh="0.019631" NOx_perVeh="0.405983" fuel_perVeh="0.468296" electricity_perVeh="0"/>
        <edge id=":114_0" sampledSeconds="106.12" CO_abs="11151.281264" CO2_abs="793616.750050" HC_abs="69.904794" PMx_abs="16.262807" NOx_abs="336.925339" fuel_abs="341.137773" electricity_abs="0"
            CO_normed="148.177860" CO2_normed="10545.553367" HC_normed="0.928893" PMx_normed="0.216100" NOx_normed="4.477053" fuel_normed="4.533028" electricity_normed="0"
            traveltime="0.98" CO_perVeh="103.161793" CO2_perVeh="7341.840354" HC_perVeh="0.646697" PMx_perVeh="0.150449" NOx_perVeh="3.116935" fuel_perVeh="3.155905" electricity_perVeh="0"/>
        <edge id=":114_1" sampledSeconds="416.29" CO_abs="9408.944304" CO2_abs="1194378.945373" HC_abs="71.790213" PMx_abs="21.545502" NOx_abs="445.661084" fuel_abs="513.408784" electricity_abs="0"
            CO_normed="124.238318" CO2_normed="15770.911802" HC_normed="0.947938" PMx_normed="0.284493" NOx_normed="5.884633" fuel_normed="6.779192" electricity_normed="0"
            traveltime="0.66" CO_perVeh="14.992887" CO2_perVeh="1903.209148" HC_perVeh="0.114396" PMx_perVeh="0.034332" NOx_perVeh="0.710148" fuel_perVeh="0.818102" electricity_perVeh="0"/>
        <edge id=":115_0" sampledSeconds="80.41" CO_abs="61.842581" CO2_abs="10629.232415" HC_abs="0.524049" PMx_abs="0.124854" NOx_abs="3.799116" fuel_abs="4.569076" electricity_abs="0"
            CO_normed="1.397488" CO2_normed="240.194092" HC_normed="0.011842" PMx_normed="0.002821" NOx_normed="0.085851" fuel_normed="0.103250" electricity_normed="0"
            traveltime="0.63" CO_perVeh="0.486651" CO2_perVeh="83.643474" HC_perVeh="0.004124" PMx_perVeh="0.000983" NOx_perVeh="0.029896" fuel_perVeh="0.035955" electricity_perVeh="0"/>
        <edge id=":115_1" sampledSeconds="72.53" CO_abs="811.789472" CO2_abs="146337.019022" HC_abs="6.921899" PMx_abs="2.043096" NOx_abs="53.239313" fuel_abs="62.903906" electricity_abs="0"
            CO_normed="16.382444" CO2_normed="2953.177057" HC_normed="0.139688" PMx_normed="0.041231" NOx_normed="1.074404" fuel_normed="1.269442" electricity_normed="0"
            traveltime="0.59" CO_perVeh="6.645855" CO2_perVeh="1198.013421" HC_perVeh="0.056667" PMx_perVeh="0.016726" NOx_perVeh="0.435853" fuel_perVeh="0.514974" electricity_perVeh="0"/>
        <edge id=":116_0" sampledSeconds="75.02" CO_abs="104.183254" CO2_abs="16674.875002" HC_abs="0.845179" PMx_abs="0.196061" NOx_abs="5.983854" fuel_abs="7.167854" electricity_abs="0"
            CO_normed="2.628108" CO2_normed="420.637398" HC_normed="0.021320" PMx_normed="0.004946" NOx_normed="0.150948" fuel_normed="0.180815" electricity_normed="0"
            traveltime="0.57" CO_perVeh="0.786662" CO2_perVeh="125.907821" HC_perVeh="0.006382" PMx_perVeh="0.001480" NOx_perVeh="0.045183" fuel_perVeh="0.054123" electricity_perVeh="0"/>
        <edge id=":117_0" sampledSeconds="239.04" CO_abs="13868.674864" CO2_abs="1161640.237067" HC_abs="90.767490" PMx_abs="21.246113" NOx_abs="473.576304" fuel_abs="499.335544" electricity_abs="0"
            CO_normed="313.397396" CO2_normed="26250.166600" HC_normed="2.051118" PMx_normed="0.480109" NOx_normed="10.701641" fuel_normed="11.283736" electricity_normed="0"
            traveltime="0.60" CO_perVeh="34.909058" CO2_perVeh="2923.982762" HC_perVeh="0.228472" PMx_perVeh="0.053479" NOx_perVeh="1.192046" fuel_perVeh="1.256885" electricity_perVeh="0"/>
        <edge id=":117_1" sampledSeconds="75.83" CO_abs="4614.763832" CO2_abs="384950.817965" HC_abs="30.124925" PMx_abs="7.029514" NOx_abs="156.917686" fuel_abs="165.472617" electricity_abs="0"
            CO_normed="98.279435" CO2_normed="8198.198276" HC_normed="0.641563" PMx_normed="0.149706" NOx_normed="3.341835" fuel_normed="3.524028" electricity_normed="0"
            traveltime="0.64" CO_perVeh="39.015246" CO2_perVeh="3254.543782" HC_perVeh="0.254689" PMx_perVeh="0.059431" NOx_perVeh="1.326651" fuel_perVeh="1.398978" electricity_perVeh="0"/>
        <edge id=":118_0" sampledSeconds="896.85" CO_abs="13119.763372" CO2_abs="2030207.080823" HC_abs="105.352501" PMx_abs="30.164911" NOx_abs="752.811847" fuel_abs="872.696201" electricity_abs="0"
            CO_normed="39.806348" CO2_normed="6159.800888" HC_normed="0.319647" PMx_normed="0.091523" NOx_normed="2.284088" fuel_normed="2.647826" electricity_normed="0"
            traveltime="3.91" CO_perVeh="57.238311" CO2_perVeh="8857.295795" HC_perVeh="0.459627" PMx_perVeh="0.131602" NOx_perVeh="3.284334" fuel_perVeh="3.807360" electricity_perVeh="0"/>
        <edge id=":118_4" sampledSeconds="283.14" CO_abs="3846.205929" CO2_abs="644307.460870" HC_abs="31.877069" PMx_abs="9.196818" NOx_abs="235.792771" fuel_abs="276.959635" electricity_abs="0"
            CO_normed="11.692239" CO2_normed="1958.656633" HC_normed="0.096904" PMx_normed="0.027958" NOx_normed="0.716796" fuel_normed="0.841941" electricity_normed="0"
            traveltime="3.93" CO_perVeh="53.325263" CO2_perVeh="8932.923849" HC_perVeh="0.441956" PMx_perVeh="0.127508" NOx_perVeh="3.269121" fuel_perVeh="3.839874" electricity_perVeh="0"/>
        <edge id=":118_5" sampledSeconds="238.38" CO_abs="3782.975426" CO2_abs="576611.227690" HC_abs="30.046390" PMx_abs="8.679601" NOx_abs="214.413666" fuel_abs="247.859516" electricity_abs="0"
            CO_normed="11.614161" CO2_normed="1770.261529" HC_normed="0.092246" PMx_normed="0.026647" NOx_normed="0.658274" fuel_normed="0.760957" electricity_normed="0"
            traveltime="3.82" CO_perVeh="60.544472" CO2_perVeh="9228.350248" HC_perVeh="0.480876" PMx_perVeh="0.138912" NOx_perVeh="3.431575" fuel_perVeh="3.966857" electricity_perVeh="0"/>
        <edge id=":119_0" sampledSeconds="139.16" CO_abs="1972.545132" CO2_abs="309583.979111" HC_abs="15.992526" PMx_abs="4.562031" NOx_abs="114.760027" fuel_abs="133.076480" electricity_abs="0"
            CO_normed="42.295208" CO2_normed="6638.083309" HC_normed="0.342911" PMx_normed="0.097819" NOx_normed="2.460678" fuel_normed="2.853419" electricity_normed="0"
            traveltime="0.56" CO_perVeh="7.907793" CO2_perVeh="1241.100185" HC_perVeh="0.064113" PMx_perVeh="0.018289" NOx_perVeh="0.460065" fuel_perVeh="0.533494" electricity_perVeh="0"/>
        <edge id=":12_0" sampledSeconds="586.26" CO_abs="54649.559283" CO2_abs="3115291.513765" HC_abs="322.879753" PMx_abs="61.259646" NOx_abs="1328.555359" fuel_abs="1339.125301" electricity_abs="0"
            CO_normed="512.004868" CO2_normed="29186.775567" HC_normed="3.025020" PMx_normed="0.573934" NOx_normed="12.447069" fuel_normed="12.546097" electricity_normed="0"
            traveltime="2.11" CO_perVeh="196.261888" CO2_perVeh="11187.885185" HC_perVeh="1.159552" PMx_perVeh="0.220001" NOx_perVeh="4.771215" fuel_perVeh="4.809174" electricity_perVeh="0"/>
        <edge id=":12_1" sampledSeconds="56.11" CO_abs="1212.518059" CO2_abs="104633.664527" HC_abs="7.916956" PMx_abs="1.433857" NOx_abs="39.899414" fuel_abs="44.977852" electricity_abs="0"
            CO_normed="11.348660" CO2_normed="979.327163" HC_normed="0.074099" PMx_normed="0.013420" NOx_normed="0.373442" fuel_normed="0.420974" electricity_normed="0"
            traveltime="1.89" CO_perVeh="40.887803" CO2_perVeh="3528.393344" HC_perVeh="0.266971" PMx_perVeh="0.048352" NOx_perVeh="1.345464" fuel_perVeh="1.516716" electricity_perVeh="0"/>
        <edge id=":120_0" sampledSeconds="39.03" CO_abs="582.544265" CO2_abs="90997.680513" HC_abs="4.699172" PMx_abs="1.352056" NOx_abs="33.677275" fuel_abs="39.115879" electricity_abs="0"
            CO_normed="457.999055" CO2_normed="71542.806630" HC_normed="3.694511" PMx_normed="1.062992" NOx_normed="26.477233" fuel_normed="30.753089" electricity_normed="0"
            traveltime="0.02" CO_perVeh="0.224145" CO2_perVeh="35.013136" HC_perVeh="0.001808" PMx_perVeh="0.000520" NOx_perVeh="0.012958" fuel_perVeh="0.015051" electricity_perVeh="0"/>
        <edge id=":121_0" sampledSeconds="371.69" CO_abs="53019.467157" CO2_abs="1429961.249106" HC_abs="275.010445" PMx_abs="30.876991" NOx_abs="632.499237" fuel_abs="614.695942" electricity_abs="0"
            CO_normed="30315.749629" CO2_normed="817630.759629" HC_normed="157.246918" PMx_normed="17.655008" NOx_normed="361.653738" fuel_normed="351.474077" electricity_normed="0"
            traveltime="0.11" CO_perVeh="16.222297" CO2_perVeh="437.523382" HC_perVeh="0.084145" PMx_perVeh="0.009447" NOx_perVeh="0.193525" fuel_perVeh="0.188078" electricity_perVeh="0"/>
        <edge id=":122_0" sampledSeconds="134.60" CO_abs="1035.489070" CO2_abs="96310.081045" HC_abs="7.019171" PMx_abs="1.798284" NOx_abs="38.822772" fuel_abs="41.399176" electricity_abs="0"
            CO_normed="22.798779" CO2_normed="2120.497766" HC_normed="0.154544" PMx_normed="0.039594" NOx_normed="0.854777" fuel_normed="0.911502" electricity_normed="0"
            traveltime="0.54" CO_perVeh="4.126117" CO2_perVeh="383.767107" HC_perVeh="0.027969" PMx_perVeh="0.007166" NOx_perVeh="0.154697" fuel_perVeh="0.164963" electricity_perVeh="0"/>
        <edge id=":123_0" sampledSeconds="312.43" CO_abs="41255.641394" CO2_abs="2509253.031088" HC_abs="248.164131" PMx_abs="51.840660" NOx_abs="1079.017776" fuel_abs="1078.610877" electricity_abs="0"
            CO_normed="157.326016" CO2_normed="9568.892139" HC_normed="0.946360" PMx_normed="0.197691" NOx_normed="4.114772" fuel_normed="4.113221" electricity_normed="0"
            traveltime="4.25" CO_perVeh="561.821852" CO2_perVeh="34171.161520" HC_perVeh="3.379514" PMx_perVeh="0.705969" NOx_perVeh="14.694130" fuel_perVeh="14.688589" electricity_perVeh="0"/>
        <edge id=":123_1" sampledSeconds="0.00" CO_abs="0" CO2_abs="0" HC_abs="0" PMx_abs="0" NOx_abs="0" fuel_abs="0" electricity_abs="0"
            CO_normed="0" CO2_normed="0" HC_normed="0" PMx_normed="0" NOx_normed="0" fuel_normed="0" electricity_normed="0"/>
        <edge id=":123_2" sampledSeconds="269.05" CO_abs="35655.769972" CO2_abs="2171760.588618" HC_abs="214.520860" PMx_abs="44.791524" NOx_abs="933.469024" fuel_abs="933.538675" electricity_abs="0"
            CO_normed="137.275176" CO2_normed="8361.306389" HC_normed="0.825908" PMx_normed="0.172448" NOx_normed="3.593868" fuel_normed="3.594136" electricity_normed="0"
            traveltime="4.23" CO_perVeh="560.437605" CO2_perVeh="34135.745859" HC_perVeh="3.371840" PMx_perVeh="0.704033" NOx_perVeh="14.672272" fuel_perVeh="14.673366" electricity_perVeh="0"/>
        <edge id=":123_3" sampledSeconds="468.78" CO_abs="22763.204793" CO2_abs="2153591.276473" HC_abs="154.417172" PMx_abs="40.011460" NOx_abs="862.747274" fuel_abs="925.727885" electricity_abs="0"
            CO_normed="89.669508" CO2_normed="8483.492158" HC_normed="0.608285" PMx_normed="0.157614" NOx_normed="3.398560" fuel_normed="3.646655" electricity_normed="0"
            traveltime="2.81" CO_perVeh="136.247002" CO2_perVeh="12890.116227" HC_perVeh="0.924249" PMx_perVeh="0.239485" NOx_perVeh="5.163892" fuel_perVeh="5.540856" electricity_perVeh="0"/>
        <edge id=":123_5" sampledSeconds="0.00" CO_abs="0" CO2_abs="0" HC_abs="0" PMx_abs="0" NOx_abs="0" fuel_abs="0" electricity_abs="0"
            CO_normed="0" CO2_normed="0" HC_normed="0" PMx_normed="0" NOx_normed="0" fuel_normed="0" electricity_normed="0"/>
        <edge id=":123_6" sampledSeconds="195.09" CO_abs="9416.284932" CO2_abs="886302.482316" HC_abs="63.825860" PMx_abs="16.535850" NOx_abs="355.696986" fuel_abs="380.979794" electricity_abs="0"
            CO_normed="35.828809" CO2_normed="3372.366373" HC_normed="0.242856" PMx_normed="0.062919" NOx_normed="1.353421" fuel_normed="1.449622" electricity_normed="0"
            traveltime="2.92" CO_perVeh="140.871854" CO2_perVeh="13259.483428" HC_perVeh="0.954864" PMx_perVeh="0.247384" NOx_perVeh="5.321387" fuel_perVeh="5.699629" electricity_perVeh="0"/>
        <edge id=":124_0" sampledSeconds="119.08" CO_abs="4267.198245" CO2_abs="367224.493698" HC_abs="28.087916" PMx_abs="7.115408" NOx_abs="149.725482" fuel_abs="157.852388" electricity_abs="0"
            CO_normed="99.897512" CO2_normed="8596.932002" HC_normed="0.657554" PMx_normed="0.166576" NOx_normed="3.505158" fuel_normed="3.695413" electricity_normed="0"
            traveltime="0.46" CO_perVeh="16.586021" CO2_perVeh="1427.351822" HC_perVeh="0.109174" PMx_perVeh="0.027657" NOx_perVeh="0.581963" fuel_perVeh="0.613551" electricity_perVeh="0"/>
        <edge id=":125_0" sampledSeconds="141.10" CO_abs="5559.248925" CO2_abs="578932.124422" HC_abs="38.900140" PMx_abs="10.643285" NOx_abs="227.118664" fuel_abs="248.855864" electricity_abs="0"
            CO_normed="349.656623" CO2_normed="36412.733860" HC_normed="2.446678" PMx_normed="0.669424" NOx_normed="14.284941" fuel_normed="15.652133" electricity_normed="0"
            traveltime="0.16" CO_perVeh="6.366767" CO2_perVeh="663.025911" HC_perVeh="0.044551" PMx_perVeh="0.012189" NOx_perVeh="0.260109" fuel_perVeh="0.285004" electricity_perVeh="0"/>
        <edge id=":125_3" sampledSeconds="0.00" CO_abs="0" CO2_abs="0" HC_abs="0" PMx_abs="0" NOx_abs="0" fuel_abs="0" electricity_abs="0"
            CO_normed="0" CO2_normed="0" HC_normed="0" PMx_normed="0" NOx_normed="0" fuel_normed="0" electricity_normed="0"/>
        <edge id=":126_0" sampledSeconds="27.41" CO_abs="283.471101" CO2_abs="19817.264159" HC_abs="1.753873" PMx_abs="0.333331" NOx_abs="8.017488" fuel_abs="8.518599" electricity_abs="0"
            CO_normed="9.334715" CO2_normed="652.583320" HC_normed="0.057755" PMx_normed="0.010977" NOx_normed="0.264016" fuel_normed="0.280518" electricity_normed="0"
            traveltime="0.56" CO_perVeh="5.753854" CO2_perVeh="402.247847" HC_perVeh="0.035600" PMx_perVeh="0.006766" NOx_perVeh="0.162738" fuel_perVeh="0.172909" electricity_perVeh="0"/>
        <edge id=":126_1" sampledSeconds="80.81" CO_abs="1179.706285" CO2_abs="192077.632773" HC_abs="9.724570" PMx_abs="3.028203" NOx_abs="70.596973" fuel_abs="82.565535" electricity_abs="0"
            CO_normed="34.564869" CO2_normed="5627.789179" HC_normed="0.284926" PMx_normed="0.088725" NOx_normed="2.068460" fuel_normed="2.419133" electricity_normed="0"
            traveltime="0.35" CO_perVeh="5.104792" CO2_perVeh="831.152919" HC_perVeh="0.042080" PMx_perVeh="0.013104" NOx_perVeh="0.305485" fuel_perVeh="0.357275" electricity_perVeh="0"/>
        <edge id=":127_0" sampledSeconds="234.62" CO_abs="4602.491166" CO2_abs="634072.087624" HC_abs="35.406725" PMx_abs="10.559688" NOx_abs="237.656733" fuel_abs="272.558718" electricity_abs="0"
            CO_normed="106.426480" CO2_normed="14662.072735" HC_normed="0.818733" PMx_normed="0.244179" NOx_normed="5.495496" fuel_normed="6.302557" electricity_normed="0"
            traveltime="0.44" CO_perVeh="8.606770" CO2_perVeh="1185.730120" HC_perVeh="0.066211" PMx_perVeh="0.019747" NOx_perVeh="0.444424" fuel_perVeh="0.509691" electricity_perVeh="0"/>
        <edge id=":128_0" sampledSeconds="229.98" CO_abs="263.008188" CO2_abs="36212.446437" HC_abs="2.034190" PMx_abs="0.567254" NOx_abs="13.652953" fuel_abs="15.566109" electricity_abs="0"
            CO_normed="4.064438" CO2_normed="559.614675" HC_normed="0.031436" PMx_normed="0.008766" NOx_normed="0.210988" fuel_normed="0.240553" electricity_normed="0"
            traveltime="0.76" CO_perVeh="0.864604" CO2_perVeh="119.043493" HC_perVeh="0.006687" PMx_perVeh="0.001865" NOx_perVeh="0.044882" fuel_perVeh="0.051171" electricity_perVeh="0"/>
        <edge id=":128_1" sampledSeconds="142.32" CO_abs="107.338233" CO2_abs="18075.414831" HC_abs="0.899236" PMx_abs="0.208620" NOx_abs="6.458579" fuel_abs="7.769893" electricity_abs="0"
            CO_normed="1.713499" CO2_normed="288.547748" HC_normed="0.014355" PMx_normed="0.003330" NOx_normed="0.103102" fuel_normed="0.124035" electricity_normed="0"
            traveltime="0.85" CO_perVeh="0.643432" CO2_perVeh="108.351837" HC_perVeh="0.005390" PMx_perVeh="0.001251" NOx_perVeh="0.038716" fuel_perVeh="0.046576" electricity_perVeh="0"/>
        <edge id=":129_0" sampledSeconds="104.80" CO_abs="5700.279344" CO2_abs="516802.142350" HC_abs="38.145584" PMx_abs="9.707968" NOx_abs="208.986978" fuel_abs="222.148914" electricity_abs="0"
            CO_normed="132.787750" CO2_normed="12038.882596" HC_normed="0.888600" PMx_normed="0.226147" NOx_normed="4.868342" fuel_normed="5.174949" electricity_normed="0"
            traveltime="0.50" CO_perVeh="27.016332" CO2_perVeh="2449.370910" HC_perVeh="0.180790" PMx_perVeh="0.046011" NOx_perVeh="0.990489" fuel_perVeh="1.052869" electricity_perVeh="0"/>
        <edge id=":13_0" sampledSeconds="60.13" CO_abs="5199.104023" CO2_abs="362831.220511" HC_abs="32.366431" PMx_abs="7.170039" NOx_abs="153.149480" fuel_abs="155.964146" electricity_abs="0"
            CO_normed="36.755880" CO2_normed="2565.092133" HC_normed="0.228820" PMx_normed="0.050690" NOx_normed="1.082714" fuel_normed="1.102613" electricity_normed="0"
            traveltime="2.13" CO_perVeh="183.900786" CO2_perVeh="12833.931809" HC_perVeh="1.144853" PMx_perVeh="0.253616" NOx_perVeh="5.417147" fuel_perVeh="5.516706" electricity_perVeh="0"/>
        <edge id=":13_1" sampledSeconds="531.04" CO_abs="13892.166146" CO2_abs="1065852.496542" HC_abs="87.726565" PMx_abs="15.334421" NOx_abs="413.075575" fuel_abs="458.167612" electricity_abs="0"
            CO_normed="138.400254" CO2_normed="10618.520868" HC_normed="0.873973" PMx_normed="0.152769" NOx_normed="4.115252" fuel_normed="4.564480" electricity_normed="0"
            traveltime="1.85" CO_perVeh="48.500856" CO2_perVeh="3721.144530" HC_perVeh="0.306274" PMx_perVeh="0.053536" NOx_perVeh="1.442145" fuel_perVeh="1.599572" electricity_perVeh="0"/>
        <edge id=":132_0" sampledSeconds="41.09" CO_abs="489.790592" CO2_abs="89295.634829" HC_abs="4.189124" PMx_abs="1.240289" NOx_abs="32.431365" fuel_abs="38.384306" electricity_abs="0"
            CO_normed="924.181629" CO2_normed="168491.160640" HC_normed="7.904422" PMx_normed="2.340290" NOx_normed="61.194462" fuel_normed="72.427015" electricity_normed="0"
            traveltime="6.369802e-03" CO_perVeh="0.075932" CO2_perVeh="13.843420" HC_perVeh="0.000649" PMx_perVeh="0.000192" NOx_perVeh="0.005028" fuel_perVeh="0.005951" electricity_perVeh="0"/>