<?xml version="1.0" encoding="UTF-8"?>

<!-- generated on Wed Sep 30 01:52:06 2020 by Eclipse SUMO Version 1.1.0
<configuration xmlns:xsi="http://www.w3.org/2001/XMLSchema-instance" xsi:noNamespaceSchemaLocation="http://sumo.dlr.de/xsd/sumoConfiguration.xsd">

    <input>
        <net-file value="../dataSets/Angeja_Estarreja/angeja_estarreja.net.xml"/>
        <route-files value="../results/angeja_estarreja/cost_PMx-ttime/solution15/angeja_estarreja.rou.xml"/>
        <additional-files value="moreOutputInfo.xml"/>
    </input>

    <output>
        <emission-output.precision value="6"/>
        <tripinfo-output value="../results/angeja_estarreja/cost_PMx-ttime/solution15/angeja_estarreja-tripinfo"/>
    </output>

    <processing>
        <collision.action value="warn"/>
        <time-to-teleport value="-1"/>
    </processing>

    <emissions>
        <device.emissions.probability value="1"/>
    </emissions>

    <gui_only>
        <quit-on-end value="true"/>
        <start value="true"/>
    </gui_only>

</configuration>
-->

<meandata xmlns:xsi="http://www.w3.org/2001/XMLSchema-instance" xsi:noNamespaceSchemaLocation="http://sumo.dlr.de/xsd/meandata_file.xsd">
    <interval begin="0.00" end="835.00" id="emissions-detector">
        <edge id=":10_0" sampledSeconds="15.82" CO_abs="1336.824980" CO2_abs="78758.465360" HC_abs="7.950060" PMx_abs="1.492747" NOx_abs="33.185512" fuel_abs="33.854814" electricity_abs="0"
            CO_normed="329.534408" CO2_normed="19414.377098" HC_normed="1.959732" PMx_normed="0.367970" NOx_normed="8.180404" fuel_normed="8.345390" electricity_normed="0"
            traveltime="1.78" CO_perVeh="150.186722" CO2_perVeh="8848.185760" HC_perVeh="0.893156" PMx_perVeh="0.167704" NOx_perVeh="3.728254" fuel_perVeh="3.803447" electricity_perVeh="0"/>
        <edge id=":10_1" sampledSeconds="0.00" CO_abs="0" CO2_abs="0" HC_abs="0" PMx_abs="0" NOx_abs="0" fuel_abs="0" electricity_abs="0"
            CO_normed="0" CO2_normed="0" HC_normed="0" PMx_normed="0" NOx_normed="0" fuel_normed="0" electricity_normed="0"/>
        <edge id=":100_0" sampledSeconds="0.00" CO_abs="0" CO2_abs="0" HC_abs="0" PMx_abs="0" NOx_abs="0" fuel_abs="0" electricity_abs="0"
            CO_normed="0" CO2_normed="0" HC_normed="0" PMx_normed="0" NOx_normed="0" fuel_normed="0" electricity_normed="0"/>
        <edge id=":100_1" sampledSeconds="15.93" CO_abs="397.156094" CO2_abs="50717.289111" HC_abs="3.045718" PMx_abs="0.914639" NOx_abs="18.918128" fuel_abs="21.801039" electricity_abs="0"
            CO_normed="57.925905" CO2_normed="7397.204541" HC_normed="0.444223" PMx_normed="0.133402" NOx_normed="2.759242" fuel_normed="3.179719" electricity_normed="0"
            traveltime="1.37" CO_perVeh="34.217237" CO2_perVeh="4369.580490" HC_perVeh="0.262406" PMx_perVeh="0.078801" NOx_perVeh="1.629903" fuel_perVeh="1.878282" electricity_perVeh="0"/>
        <edge id=":101_0" sampledSeconds="16.16" CO_abs="291.987272" CO2_abs="38189.891999" HC_abs="2.256254" PMx_abs="0.683939" NOx_abs="14.173897" fuel_abs="16.416090" electricity_abs="0"
            CO_normed="154.084123" CO2_normed="20153.125015" HC_normed="1.190644" PMx_normed="0.360920" NOx_normed="7.479684" fuel_normed="8.662908" electricity_normed="0"
            traveltime="0.38" CO_perVeh="6.838482" CO2_perVeh="894.425575" HC_perVeh="0.052843" PMx_perVeh="0.016018" NOx_perVeh="0.331959" fuel_perVeh="0.384473" electricity_perVeh="0"/>
        <edge id=":102_0" sampledSeconds="5.93" CO_abs="159.123515" CO2_abs="19596.586157" HC_abs="1.202988" PMx_abs="0.357194" NOx_abs="7.347799" fuel_abs="8.423672" electricity_abs="0"
            CO_normed="84.696482" CO2_normed="10430.651314" HC_normed="0.640313" PMx_normed="0.190123" NOx_normed="3.911004" fuel_normed="4.483658" electricity_normed="0"
            traveltime="0.37" CO_perVeh="10.030354" CO2_perVeh="1235.271190" HC_perVeh="0.075830" PMx_perVeh="0.022516" NOx_perVeh="0.463169" fuel_perVeh="0.530986" electricity_perVeh="0"/>
        <edge id=":103_0" sampledSeconds="16.03" CO_abs="319.324077" CO2_abs="45189.413176" HC_abs="2.550848" PMx_abs="0.792334" NOx_abs="16.586465" fuel_abs="19.424876" electricity_abs="0"
            CO_normed="171.021933" CO2_normed="24202.311516" HC_normed="1.366170" PMx_normed="0.424354" NOx_normed="8.883293" fuel_normed="10.403474" electricity_normed="0"
            traveltime="0.37" CO_perVeh="7.437960" CO2_perVeh="1052.589051" HC_perVeh="0.059416" PMx_perVeh="0.018456" NOx_perVeh="0.386346" fuel_perVeh="0.452460" electricity_perVeh="0"/>
        <edge id=":104_0" sampledSeconds="5.94" CO_abs="71.471824" CO2_abs="11317.368459" HC_abs="0.601082" PMx_abs="0.193508" NOx_abs="4.082815" fuel_abs="4.864827" electricity_abs="0"
            CO_normed="38.089245" CO2_normed="6031.328165" HC_normed="0.320332" PMx_normed="0.103126" NOx_normed="2.175841" fuel_normed="2.592596" electricity_normed="0"
            traveltime="0.37" CO_perVeh="4.503170" CO2_perVeh="713.064726" HC_perVeh="0.037872" PMx_perVeh="0.012192" NOx_perVeh="0.257243" fuel_perVeh="0.306514" electricity_perVeh="0"/>
        <edge id=":105_0" sampledSeconds="5.74" CO_abs="125.471290" CO2_abs="16358.196129" HC_abs="0.970424" PMx_abs="0.293541" NOx_abs="6.077210" fuel_abs="7.031641" electricity_abs="0"
            CO_normed="2458.882118" CO2_normed="320574.338940" HC_normed="19.017571" PMx_normed="5.752569" NOx_normed="119.096112" fuel_normed="137.800253" electricity_normed="0"
            traveltime="0.01" CO_perVeh="0.222162" CO2_perVeh="28.964210" HC_perVeh="0.001718" PMx_perVeh="0.000520" NOx_perVeh="0.010760" fuel_perVeh="0.012450" electricity_perVeh="0"/>
        <edge id=":106_0" sampledSeconds="3.28" CO_abs="38.905763" CO2_abs="7878.309936" HC_abs="0.368255" PMx_abs="0.127724" NOx_abs="2.758907" fuel_abs="3.386536" electricity_abs="0"
            CO_normed="541.088461" CO2_normed="109568.923202" HC_normed="5.121563" PMx_normed="1.776338" NOx_normed="38.369960" fuel_normed="47.098820" electricity_normed="0"
            traveltime="0.01" CO_perVeh="0.170254" CO2_perVeh="34.475947" HC_perVeh="0.001612" PMx_perVeh="0.000559" NOx_perVeh="0.012073" fuel_perVeh="0.014820" electricity_perVeh="0"/>
        <edge id=":107_0" sampledSeconds="5.36" CO_abs="101.521983" CO2_abs="15032.174964" HC_abs="0.828724" PMx_abs="0.261342" NOx_abs="5.470458" fuel_abs="6.461652" electricity_abs="0"
            CO_normed="53.573999" CO2_normed="7932.604295" HC_normed="0.437325" PMx_normed="0.137912" NOx_normed="2.886806" fuel_normed="3.409868" electricity_normed="0"
            traveltime="0.38" CO_perVeh="7.133081" CO2_perVeh="1056.182228" HC_perVeh="0.058227" PMx_perVeh="0.018362" NOx_perVeh="0.384362" fuel_perVeh="0.454005" electricity_perVeh="0"/>
        <edge id=":108_0" sampledSeconds="4.39" CO_abs="411.276346" CO2_abs="32596.340859" HC_abs="2.655855" PMx_abs="0.634020" NOx_abs="13.531281" fuel_abs="14.011625" electricity_abs="0"
            CO_normed="147.395468" CO2_normed="11682.055051" HC_normed="0.951820" PMx_normed="0.227224" NOx_normed="4.849414" fuel_normed="5.021563" electricity_normed="0"
            traveltime="0.80" CO_perVeh="74.880975" CO2_perVeh="5934.807125" HC_perVeh="0.483551" PMx_perVeh="0.115436" NOx_perVeh="2.463637" fuel_perVeh="2.551093" electricity_perVeh="0"/>
        <edge id=":108_1" sampledSeconds="15.58" CO_abs="280.291957" CO2_abs="37250.717813" HC_abs="2.179893" PMx_abs="0.663284" NOx_abs="13.814655" fuel_abs="16.012382" electricity_abs="0"
            CO_normed="93.677858" CO2_normed="12449.759470" HC_normed="0.728553" PMx_normed="0.221680" NOx_normed="4.617069" fuel_normed="5.351583" electricity_normed="0"
            traveltime="0.60" CO_perVeh="10.782067" CO2_perVeh="1432.933531" HC_perVeh="0.083855" PMx_perVeh="0.025515" NOx_perVeh="0.531412" fuel_perVeh="0.615953" electricity_perVeh="0"/>
        <edge id=":109_0" sampledSeconds="1.20" CO_abs="0" CO2_abs="0" HC_abs="0" PMx_abs="0" NOx_abs="0" fuel_abs="0" electricity_abs="0"
            CO_normed="0" CO2_normed="0" HC_normed="0" PMx_normed="0" NOx_normed="0" fuel_normed="0" electricity_normed="0"
            traveltime="0.87" CO_perVeh="0" CO2_perVeh="0" HC_perVeh="0" PMx_perVeh="0" NOx_perVeh="0" fuel_perVeh="0" electricity_perVeh="0"/>
        <edge id=":109_1" sampledSeconds="8.90" CO_abs="108.212065" CO2_abs="20888.593401" HC_abs="0.999079" PMx_abs="0.341402" NOx_abs="7.362189" fuel_abs="8.979077" electricity_abs="0"
            CO_normed="24.248599" CO2_normed="4680.800742" HC_normed="0.223878" PMx_normed="0.076503" NOx_normed="1.649749" fuel_normed="2.012068" electricity_normed="0"
            traveltime="0.89" CO_perVeh="10.848271" CO2_perVeh="2094.083665" HC_perVeh="0.100158" PMx_perVeh="0.034226" NOx_perVeh="0.738060" fuel_perVeh="0.900153" electricity_perVeh="0"/>
        <edge id=":11_0" sampledSeconds="9.72" CO_abs="535.505248" CO2_abs="43860.966189" HC_abs="3.463798" PMx_abs="0.715530" NOx_abs="17.474591" fuel_abs="18.853933" electricity_abs="0"
            CO_normed="126.507679" CO2_normed="10361.708032" HC_normed="0.818287" PMx_normed="0.169037" NOx_normed="4.128195" fuel_normed="4.454050" electricity_normed="0"
            traveltime="1.54" CO_perVeh="84.982355" CO2_perVeh="6960.544634" HC_perVeh="0.549690" PMx_perVeh="0.113552" NOx_perVeh="2.773142" fuel_perVeh="2.992037" electricity_perVeh="0"/>
        <edge id=":11_1" sampledSeconds="4.11" CO_abs="90.994436" CO2_abs="8605.710812" HC_abs="0.610838" PMx_abs="0.113039" NOx_abs="3.241382" fuel_abs="3.699254" electricity_abs="0"
            CO_normed="22.039963" CO2_normed="2084.408190" HC_normed="0.147952" PMx_normed="0.027379" NOx_normed="0.785102" fuel_normed="0.896004" electricity_normed="0"
            traveltime="1.62" CO_perVeh="35.913547" CO2_perVeh="3396.488968" HC_perVeh="0.241085" PMx_perVeh="0.044614" NOx_perVeh="1.279304" fuel_perVeh="1.460016" electricity_perVeh="0"/>
        <edge id=":110_0" sampledSeconds="7.25" CO_abs="0" CO2_abs="0" HC_abs="0" PMx_abs="0" NOx_abs="0" fuel_abs="0" electricity_abs="0"
            CO_normed="0" CO2_normed="0" HC_normed="0" PMx_normed="0" NOx_normed="0" fuel_normed="0" electricity_normed="0"
            traveltime="0.91" CO_perVeh="0" CO2_perVeh="0" HC_perVeh="0" PMx_perVeh="0" NOx_perVeh="0" fuel_perVeh="0" electricity_perVeh="0"/>
        <edge id=":110_1" sampledSeconds="17.11" CO_abs="474.792294" CO2_abs="49971.599785" HC_abs="3.384902" PMx_abs="0.955300" NOx_abs="19.256127" fuel_abs="21.480462" electricity_abs="0"
            CO_normed="139.252292" CO2_normed="14656.218928" HC_normed="0.992761" PMx_normed="0.280181" NOx_normed="5.647648" fuel_normed="6.300026" electricity_normed="0"
            traveltime="0.68" CO_perVeh="18.886339" CO2_perVeh="1987.775719" HC_perVeh="0.134645" PMx_perVeh="0.038000" NOx_perVeh="0.765972" fuel_perVeh="0.854452" electricity_perVeh="0"/>
        <edge id=":111_0" sampledSeconds="14.91" CO_abs="616.082246" CO2_abs="66952.925663" HC_abs="4.440611" PMx_abs="1.266461" NOx_abs="25.654905" fuel_abs="28.779952" electricity_abs="0"
            CO_normed="325.111747" CO2_normed="35331.618142" HC_normed="2.343348" PMx_normed="0.668322" NOx_normed="13.538307" fuel_normed="15.187421" electricity_normed="0"
            traveltime="0.38" CO_perVeh="15.583257" CO2_perVeh="1693.515179" HC_perVeh="0.112321" PMx_perVeh="0.032034" NOx_perVeh="0.648918" fuel_perVeh="0.727963" electricity_perVeh="0"/>
        <edge id=":114_0" sampledSeconds="3.90" CO_abs="395.456324" CO2_abs="28579.372372" HC_abs="2.490682" PMx_abs="0.584275" NOx_abs="12.116183" fuel_abs="12.284899" electricity_abs="0"
            CO_normed="120.067704" CO2_normed="8677.215193" HC_normed="0.756216" PMx_normed="0.177396" NOx_normed="3.678693" fuel_normed="3.729918" electricity_normed="0"
            traveltime="0.97" CO_perVeh="98.777129" CO2_perVeh="7138.559150" HC_perVeh="0.622123" PMx_perVeh="0.145940" NOx_perVeh="3.026382" fuel_perVeh="3.068524" electricity_perVeh="0"/>
        <edge id=":114_1" sampledSeconds="5.27" CO_abs="147.129763" CO2_abs="20389.970966" HC_abs="1.167316" PMx_abs="0.360389" NOx_abs="7.494241" fuel_abs="8.764722" electricity_abs="0"
            CO_normed="44.389917" CO2_normed="6151.774448" HC_normed="0.352186" PMx_normed="0.108731" NOx_normed="2.261057" fuel_normed="2.644368" electricity_normed="0"
            traveltime="0.66" CO_perVeh="18.404099" CO2_perVeh="2550.531207" HC_perVeh="0.146017" PMx_perVeh="0.045080" NOx_perVeh="0.937436" fuel_perVeh="1.096357" electricity_perVeh="0"/>
        <edge id=":115_0" sampledSeconds="3.71" CO_abs="7.891245" CO2_abs="938.650091" HC_abs="0.058009" PMx_abs="0.014733" NOx_abs="0.361279" fuel_abs="0.403484" electricity_abs="0"
            CO_normed="4.074507" CO2_normed="484.655646" HC_normed="0.029952" PMx_normed="0.007607" NOx_normed="0.186540" fuel_normed="0.208332" electricity_normed="0"
            traveltime="0.59" CO_perVeh="1.257479" CO2_perVeh="149.574967" HC_perVeh="0.009244" PMx_perVeh="0.002348" NOx_perVeh="0.057570" fuel_perVeh="0.064296" electricity_perVeh="0"/>
        <edge id=":115_1" sampledSeconds="3.34" CO_abs="80.969584" CO2_abs="8107.739040" HC_abs="0.564172" PMx_abs="0.150640" NOx_abs="3.227159" fuel_abs="3.485136" electricity_abs="0"
            CO_normed="37.335874" CO2_normed="3738.558461" HC_normed="0.260145" PMx_normed="0.069462" NOx_normed="1.488075" fuel_normed="1.607030" electricity_normed="0"
            traveltime="0.55" CO_perVeh="13.423149" CO2_perVeh="1344.102128" HC_perVeh="0.093529" PMx_perVeh="0.024973" NOx_perVeh="0.534999" fuel_perVeh="0.577766" electricity_perVeh="0"/>
        <edge id=":116_0" sampledSeconds="3.48" CO_abs="0" CO2_abs="0" HC_abs="0" PMx_abs="0" NOx_abs="0" fuel_abs="0" electricity_abs="0"
            CO_normed="0" CO2_normed="0" HC_normed="0" PMx_normed="0" NOx_normed="0" fuel_normed="0" electricity_normed="0"
            traveltime="0.53" CO_perVeh="0" CO2_perVeh="0" HC_perVeh="0" PMx_perVeh="0" NOx_perVeh="0" fuel_perVeh="0" electricity_perVeh="0"/>
        <edge id=":117_0" sampledSeconds="0.96" CO_abs="54.864167" CO2_abs="4006.922451" HC_abs="0.346262" PMx_abs="0.080444" NOx_abs="1.691334" fuel_abs="1.722385" electricity_abs="0"
            CO_normed="28.328158" CO2_normed="2068.904704" HC_normed="0.178786" PMx_normed="0.041536" NOx_normed="0.873291" fuel_normed="0.889324" electricity_normed="0"
            traveltime="0.61" CO_perVeh="34.970671" CO2_perVeh="2554.030722" HC_perVeh="0.220709" PMx_perVeh="0.051275" NOx_perVeh="1.078064" fuel_perVeh="1.097856" electricity_perVeh="0"/>
        <edge id=":117_1" sampledSeconds="4.92" CO_abs="294.243388" CO2_abs="24733.612635" HC_abs="1.929381" PMx_abs="0.453510" NOx_abs="10.082051" fuel_abs="10.631837" electricity_abs="0"
            CO_normed="143.182195" CO2_normed="12035.658546" HC_normed="0.938859" PMx_normed="0.220683" NOx_normed="4.906041" fuel_normed="5.173574" electricity_normed="0"
            traveltime="0.64" CO_perVeh="38.310014" CO2_perVeh="3220.276384" HC_perVeh="0.251202" PMx_perVeh="0.059046" NOx_perVeh="1.312667" fuel_perVeh="1.384248" electricity_perVeh="0"/>
        <edge id=":118_0" sampledSeconds="21.19" CO_abs="231.391783" CO2_abs="46315.555030" HC_abs="2.100419" PMx_abs="0.645512" NOx_abs="16.735164" fuel_abs="19.909034" electricity_abs="0"
            CO_normed="16.041442" CO2_normed="3210.867182" HC_normed="0.145613" PMx_normed="0.044751" NOx_normed="1.160180" fuel_normed="1.380212" electricity_normed="0"
            traveltime="3.94" CO_perVeh="42.994488" CO2_perVeh="8605.809284" HC_perVeh="0.390275" PMx_perVeh="0.119941" NOx_perVeh="3.109530" fuel_perVeh="3.699261" electricity_perVeh="0"/>
        <edge id=":118_4" sampledSeconds="0.00" CO_abs="0" CO2_abs="0" HC_abs="0" PMx_abs="0" NOx_abs="0" fuel_abs="0" electricity_abs="0"
            CO_normed="0" CO2_normed="0" HC_normed="0" PMx_normed="0" NOx_normed="0" fuel_normed="0" electricity_normed="0"/>
        <edge id=":118_5" sampledSeconds="4.07" CO_abs="113.056850" CO2_abs="14865.857777" HC_abs="0.807366" PMx_abs="0.230647" NOx_abs="5.591423" fuel_abs="6.390164" electricity_abs="0"
            CO_normed="7.930861" CO2_normed="1042.829824" HC_normed="0.056636" PMx_normed="0.016180" NOx_normed="0.392235" fuel_normed="0.448266" electricity_normed="0"
            traveltime="3.78" CO_perVeh="104.945990" CO2_perVeh="13799.359900" HC_perVeh="0.749444" PMx_perVeh="0.214100" NOx_perVeh="5.190286" fuel_perVeh="5.931725" electricity_perVeh="0"/>
        <edge id=":119_0" sampledSeconds="6.44" CO_abs="173.513764" CO2_abs="23419.718283" HC_abs="1.333425" PMx_abs="0.381238" NOx_abs="8.884424" fuel_abs="10.067073" electricity_abs="0"
            CO_normed="85.009465" CO2_normed="11474.004602" HC_normed="0.653284" PMx_normed="0.186779" NOx_normed="4.352739" fuel_normed="4.932153" electricity_normed="0"
            traveltime="0.52" CO_perVeh="14.085988" CO2_perVeh="1901.231743" HC_perVeh="0.108249" PMx_perVeh="0.030949" NOx_perVeh="0.721245" fuel_perVeh="0.817253" electricity_perVeh="0"/>
        <edge id=":12_0" sampledSeconds="11.12" CO_abs="1205.597340" CO2_abs="64732.381927" HC_abs="7.027016" PMx_abs="1.283296" NOx_abs="27.729848" fuel_abs="27.825611" electricity_abs="0"
            CO_normed="258.082668" CO2_normed="13857.284930" HC_normed="1.504276" PMx_normed="0.274716" NOx_normed="5.936139" fuel_normed="5.956639" electricity_normed="0"
            traveltime="2.25" CO_perVeh="243.880378" CO2_perVeh="13094.718481" HC_perVeh="1.421496" PMx_perVeh="0.259598" NOx_perVeh="5.609473" fuel_perVeh="5.628845" electricity_perVeh="0"/>
        <edge id=":12_1" sampledSeconds="4.44" CO_abs="71.436716" CO2_abs="7333.983519" HC_abs="0.491284" PMx_abs="0.087254" NOx_abs="2.696808" fuel_abs="3.152598" electricity_abs="0"
            CO_normed="15.277313" CO2_normed="1568.431035" HC_normed="0.105065" PMx_normed="0.018660" NOx_normed="0.576734" fuel_normed="0.674208" electricity_normed="0"
            traveltime="1.80" CO_perVeh="28.907350" CO2_perVeh="2967.746041" HC_perVeh="0.198801" PMx_perVeh="0.035308" NOx_perVeh="1.091282" fuel_perVeh="1.275720" electricity_perVeh="0"/>
        <edge id=":120_0" sampledSeconds="0.32" CO_abs="2.381138" CO2_abs="1080.561153" HC_abs="0.033970" PMx_abs="0.011916" NOx_abs="0.368469" fuel_abs="0.464488" electricity_abs="0"
            CO_normed="42.774927" CO2_normed="19411.278197" HC_normed="0.610233" PMx_normed="0.214056" NOx_normed="6.619198" fuel_normed="8.344101" electricity_normed="0"
            traveltime="0.02" CO_perVeh="0.114524" CO2_perVeh="51.970877" HC_perVeh="0.001634" PMx_perVeh="0.000573" NOx_perVeh="0.017722" fuel_perVeh="0.022340" electricity_perVeh="0"/>
        <edge id=":121_0" sampledSeconds="9.10" CO_abs="1260.436716" CO2_abs="32542.834766" HC_abs="6.500735" PMx_abs="0.695599" NOx_abs="14.348449" fuel_abs="13.989211" electricity_abs="0"
            CO_normed="16467.327812" CO2_normed="425164.961565" HC_normed="84.930671" PMx_normed="9.087846" NOx_normed="187.459319" fuel_normed="182.765959" electricity_normed="0"
            traveltime="0.12" CO_perVeh="16.375753" CO2_perVeh="422.800609" HC_perVeh="0.084458" PMx_perVeh="0.009037" NOx_perVeh="0.186417" fuel_perVeh="0.181750" electricity_perVeh="0"/>
        <edge id=":122_0" sampledSeconds="5.99" CO_abs="113.722700" CO2_abs="9452.808930" HC_abs="0.745799" PMx_abs="0.185088" NOx_abs="3.901595" fuel_abs="4.063312" electricity_abs="0"
            CO_normed="57.211372" CO2_normed="4755.498871" HC_normed="0.375195" PMx_normed="0.093114" NOx_normed="1.962806" fuel_normed="2.044162" electricity_normed="0"
            traveltime="0.50" CO_perVeh="9.516114" CO2_perVeh="790.994332" HC_perVeh="0.062407" PMx_perVeh="0.015488" NOx_perVeh="0.326479" fuel_perVeh="0.340011" electricity_perVeh="0"/>
        <edge id=":123_0" sampledSeconds="0.00" CO_abs="0" CO2_abs="0" HC_abs="0" PMx_abs="0" NOx_abs="0" fuel_abs="0" electricity_abs="0"
            CO_normed="0" CO2_normed="0" HC_normed="0" PMx_normed="0" NOx_normed="0" fuel_normed="0" electricity_normed="0"/>
        <edge id=":123_1" sampledSeconds="0.00" CO_abs="0" CO2_abs="0" HC_abs="0" PMx_abs="0" NOx_abs="0" fuel_abs="0" electricity_abs="0"
            CO_normed="0" CO2_normed="0" HC_normed="0" PMx_normed="0" NOx_normed="0" fuel_normed="0" electricity_normed="0"/>
        <edge id=":123_2" sampledSeconds="4.05" CO_abs="593.511872" CO2_abs="38177.603140" HC_abs="3.624836" PMx_abs="0.803696" NOx_abs="16.460567" fuel_abs="16.410725" electricity_abs="0"
            CO_normed="52.210846" CO2_normed="3358.458467" HC_normed="0.318874" PMx_normed="0.070701" NOx_normed="1.448025" fuel_normed="1.443641" electricity_normed="0"
            traveltime="3.69" CO_perVeh="541.071742" CO2_perVeh="34804.396017" HC_perVeh="3.304562" PMx_perVeh="0.732685" NOx_perVeh="15.006183" fuel_perVeh="14.960745" electricity_perVeh="0"/>
        <edge id=":123_3" sampledSeconds="15.56" CO_abs="724.110391" CO2_abs="60697.867200" HC_abs="4.751769" PMx_abs="1.193674" NOx_abs="24.922315" fuel_abs="26.091121" electricity_abs="0"
            CO_normed="65.175638" CO2_normed="5463.286086" HC_normed="0.427697" PMx_normed="0.107440" NOx_normed="2.243205" fuel_normed="2.348406" electricity_normed="0"
            traveltime="2.83" CO_perVeh="131.756459" CO2_perVeh="11044.360262" HC_perVeh="0.864614" PMx_perVeh="0.217197" NOx_perVeh="4.534773" fuel_perVeh="4.747444" electricity_perVeh="0"/>
        <edge id=":123_5" sampledSeconds="0.00" CO_abs="0" CO2_abs="0" HC_abs="0" PMx_abs="0" NOx_abs="0" fuel_abs="0" electricity_abs="0"
            CO_normed="0" CO2_normed="0" HC_normed="0" PMx_normed="0" NOx_normed="0" fuel_normed="0" electricity_normed="0"/>
        <edge id=":123_6" sampledSeconds="0.00" CO_abs="0" CO2_abs="0" HC_abs="0" PMx_abs="0" NOx_abs="0" fuel_abs="0" electricity_abs="0"
            CO_normed="0" CO2_normed="0" HC_normed="0" PMx_normed="0" NOx_normed="0" fuel_normed="0" electricity_normed="0"/>
        <edge id=":124_0" sampledSeconds="5.63" CO_abs="214.772295" CO2_abs="19882.260149" HC_abs="1.457068" PMx_abs="0.374459" NOx_abs="7.995212" fuel_abs="8.546449" electricity_abs="0"
            CO_normed="114.883919" CO2_normed="10635.226302" HC_normed="0.779401" PMx_normed="0.200302" NOx_normed="4.276721" fuel_normed="4.571584" electricity_normed="0"
            traveltime="0.44" CO_perVeh="16.891732" CO2_perVeh="1563.729672" HC_perVeh="0.114598" PMx_perVeh="0.029451" NOx_perVeh="0.628819" fuel_perVeh="0.672174" electricity_perVeh="0"/>
        <edge id=":125_0" sampledSeconds="2.52" CO_abs="29.858847" CO2_abs="4984.049056" HC_abs="0.252403" PMx_abs="0.080447" NOx_abs="1.815687" fuel_abs="2.142418" electricity_abs="0"
            CO_normed="42.910918" CO2_normed="7162.705230" HC_normed="0.362735" PMx_normed="0.115612" NOx_normed="2.609371" fuel_normed="3.078925" electricity_normed="0"
            traveltime="0.16" CO_perVeh="1.926377" CO2_perVeh="321.551552" HC_perVeh="0.016284" PMx_perVeh="0.005190" NOx_perVeh="0.117141" fuel_perVeh="0.138221" electricity_perVeh="0"/>
        <edge id=":125_3" sampledSeconds="0.00" CO_abs="0" CO2_abs="0" HC_abs="0" PMx_abs="0" NOx_abs="0" fuel_abs="0" electricity_abs="0"
            CO_normed="0" CO2_normed="0" HC_normed="0" PMx_normed="0" NOx_normed="0" fuel_normed="0" electricity_normed="0"/>
        <edge id=":126_0" sampledSeconds="1.88" CO_abs="0" CO2_abs="0" HC_abs="0" PMx_abs="0" NOx_abs="0" fuel_abs="0" electricity_abs="0"
            CO_normed="0" CO2_normed="0" HC_normed="0" PMx_normed="0" NOx_normed="0" fuel_normed="0" electricity_normed="0"
            traveltime="0.57" CO_perVeh="0" CO2_perVeh="0" HC_perVeh="0" PMx_perVeh="0" NOx_perVeh="0" fuel_perVeh="0" electricity_perVeh="0"/>
        <edge id=":126_1" sampledSeconds="3.36" CO_abs="104.819270" CO2_abs="13476.444789" HC_abs="0.803511" PMx_abs="0.237507" NOx_abs="5.090562" fuel_abs="5.792904" electricity_abs="0"
            CO_normed="70.173201" CO2_normed="9022.055499" HC_normed="0.537925" PMx_normed="0.159004" NOx_normed="3.407971" fuel_normed="3.878167" electricity_normed="0"
            traveltime="0.32" CO_perVeh="10.054157" CO2_perVeh="1292.646775" HC_perVeh="0.077072" PMx_perVeh="0.022781" NOx_perVeh="0.488281" fuel_perVeh="0.555649" electricity_perVeh="0"/>
        <edge id=":127_0" sampledSeconds="4.20" CO_abs="52.613634" CO2_abs="11126.393245" HC_abs="0.475101" PMx_abs="0.160434" NOx_abs="3.941591" fuel_abs="4.782748" electricity_abs="0"
            CO_normed="27.798680" CO2_normed="5878.686110" HC_normed="0.251022" PMx_normed="0.084766" NOx_normed="2.082560" fuel_normed="2.526989" electricity_normed="0"
            traveltime="0.44" CO_perVeh="5.542567" CO2_perVeh="1172.106492" HC_perVeh="0.050049" PMx_perVeh="0.016901" NOx_perVeh="0.415226" fuel_perVeh="0.503837" electricity_perVeh="0"/>
        <edge id=":128_0" sampledSeconds="5.23" CO_abs="15.246828" CO2_abs="1357.491028" HC_abs="0.101921" PMx_abs="0.025187" NOx_abs="0.551776" fuel_abs="0.583522" electricity_abs="0"
            CO_normed="5.383688" CO2_normed="479.333000" HC_normed="0.035988" PMx_normed="0.008894" NOx_normed="0.194833" fuel_normed="0.206043" electricity_normed="0"
            traveltime="0.75" CO_perVeh="2.195327" CO2_perVeh="195.459498" HC_perVeh="0.014675" PMx_perVeh="0.003627" NOx_perVeh="0.079448" fuel_perVeh="0.084019" electricity_perVeh="0"/>
        <edge id=":128_1" sampledSeconds="1.20" CO_abs="0" CO2_abs="0" HC_abs="0" PMx_abs="0" NOx_abs="0" fuel_abs="0" electricity_abs="0"
            CO_normed="0" CO2_normed="0" HC_normed="0" PMx_normed="0" NOx_normed="0" fuel_normed="0" electricity_normed="0"
            traveltime="0.86" CO_perVeh="0" CO2_perVeh="0" HC_perVeh="0" PMx_perVeh="0" NOx_perVeh="0" fuel_perVeh="0" electricity_perVeh="0"/>
        <edge id=":129_0" sampledSeconds="4.32" CO_abs="352.931043" CO2_abs="31659.430489" HC_abs="2.371115" PMx_abs="0.611779" NOx_abs="12.845314" fuel_abs="13.608886" electricity_abs="0"
            CO_normed="187.854181" CO2_normed="16851.326940" HC_normed="1.262071" PMx_normed="0.325631" NOx_normed="6.837160" fuel_normed="7.243585" electricity_normed="0"
            traveltime="0.45" CO_perVeh="37.078359" CO2_perVeh="3326.088028" HC_perVeh="0.249105" PMx_perVeh="0.064273" NOx_perVeh="1.349508" fuel_perVeh="1.429727" electricity_perVeh="0"/>
        <edge id=":13_0" sampledSeconds="4.82" CO_abs="381.418318" CO2_abs="28809.064003" HC_abs="2.424718" PMx_abs="0.548691" NOx_abs="11.975976" fuel_abs="12.383677" electricity_abs="0"
            CO_normed="61.612524" CO2_normed="4653.680892" HC_normed="0.391678" PMx_normed="0.088633" NOx_normed="1.934543" fuel_normed="2.000401" electricity_normed="0"
            traveltime="2.04" CO_perVeh="161.896548" CO2_perVeh="12228.274781" HC_perVeh="1.029194" PMx_perVeh="0.232897" NOx_perVeh="5.083314" fuel_perVeh="5.256367" electricity_perVeh="0"/>
        <edge id=":13_1" sampledSeconds="8.82" CO_abs="286.301237" CO2_abs="21883.509624" HC_abs="1.810606" PMx_abs="0.338519" NOx_abs="8.632649" fuel_abs="9.406816" electricity_abs="0"
            CO_normed="65.171734" CO2_normed="4981.418450" HC_normed="0.412154" PMx_normed="0.077058" NOx_normed="1.965080" fuel_normed="2.141306" electricity_normed="0"
            traveltime="1.76" CO_perVeh="57.223991" CO2_perVeh="4373.930691" HC_perVeh="0.361892" PMx_perVeh="0.067661" NOx_perVeh="1.725437" fuel_perVeh="1.880172" electricity_perVeh="0"/>
        <edge id=":132_0" sampledSeconds="1.76" CO_abs="0" CO2_abs="1135.945832" HC_abs="0.016413" PMx_abs="0.010415" NOx_abs="0.359433" fuel_abs="0.488297" electricity_abs="0"
            CO_normed="0" CO2_normed="48974.910119" HC_normed="0.707630" PMx_normed="0.449029" NOx_normed="15.496519" fuel_normed="21.052324" electricity_normed="0"
            traveltime="6.045928e-03" CO_perVeh="0" CO2_perVeh="3.903594" HC_perVeh="0.000056" PMx_perVeh="0.000036" NOx_perVeh="0.001235" fuel_perVeh="0.001678" electricity_perVeh="0"/>
        <edge id=":133_0" sampledSeconds="0.36" CO_abs="5.737114" CO2_abs="1211.664750" HC_abs="0.053800" PMx_abs="0.013750" NOx_abs="0.428404" fuel_abs="0.520845" electricity_abs="0"
            CO_normed="112.431192" CO2_normed="23745.199242" HC_normed="1.054323" PMx_normed="0.269455" NOx_normed="8.395511" fuel_normed="10.207094" electricity_normed="0"
            traveltime="0.02" CO_perVeh="0.253957" CO2_perVeh="53.635059" HC_perVeh="0.002381" PMx_perVeh="0.000609" NOx_perVeh="0.018964" fuel_perVeh="0.023056" electricity_perVeh="0"/>
        <edge id=":134_0" sampledSeconds="2.04" CO_abs="112.940963" CO2_abs="9091.551094" HC_abs="0.732634" PMx_abs="0.175639" NOx_abs="3.758693" fuel_abs="3.908029" electricity_abs="0"
            CO_normed="2028.879571" CO2_normed="163321.277141" HC_normed="13.161093" PMx_normed="3.155185" NOx_normed="67.521439" fuel_normed="70.204110" electricity_normed="0"
            traveltime="0.02" CO_perVeh="0.905338" CO2_perVeh="72.878165" HC_perVeh="0.005873" PMx_perVeh="0.001408" NOx_perVeh="0.030130" fuel_perVeh="0.031327" electricity_perVeh="0"/>
        <edge id=":135_0" sampledSeconds="0.40" CO_abs="2.696467" CO2_abs="251.545692" HC_abs="0.018196" PMx_abs="0.004167" NOx_abs="0.099740" fuel_abs="0.108128" electricity_abs="0"
            CO_normed="40.087886" CO2_normed="3739.684046" HC_normed="0.270517" PMx_normed="0.061947" NOx_normed="1.482811" fuel_normed="1.607524" electricity_normed="0"
            traveltime="0.02" CO_perVeh="0.155154" CO2_perVeh="14.473859" HC_perVeh="0.001047" PMx_perVeh="0.000240" NOx_perVeh="0.005739" fuel_perVeh="0.006222" electricity_perVeh="0"/>
        <edge id=":137_0" sampledSeconds="5.95" CO_abs="0" CO2_abs="0" HC_abs="0" PMx_abs="0" NOx_abs="0" fuel_abs="0" electricity_abs="0"
            CO_normed="0" CO2_normed="0" HC_normed="0" PMx_normed="0" NOx_normed="0" fuel_normed="0" electricity_normed="0"
            traveltime="0.53" CO_perVeh="0" CO2_perVeh="0" HC_perVeh="0" PMx_perVeh="0" NOx_perVeh="0" fuel_perVeh="0" electricity_perVeh="0"/>