<?xml version="1.0" encoding="UTF-8"?>

<!-- generated on Mon Nov  9 21:34:20 2020 by Eclipse SUMO sumo Version 1.7.0
<configuration xmlns:xsi="http://www.w3.org/2001/XMLSchema-instance" xsi:noNamespaceSchemaLocation="http://sumo.dlr.de/xsd/sumoConfiguration.xsd">

    <input>
        <net-file value="../dataSets/Porto/6AM7AM_Routing_SaoBento/Porto.net.xml"/>
        <route-files value="../results/Porto/6AM7AM_Routing_SaoBento/cost_co-ttime/solution6/Porto.rou.xml"/>
        <additional-files value="moreOutputInfo.xml"/>
    </input>

    <output>
        <emission-output.precision value="6"/>
        <tripinfo-output value="../results/Porto/6AM7AM_Routing_SaoBento/cost_co-ttime/solution6/Porto-tripinfo"/>
    </output>

    <processing>
        <collision.action value="warn"/>
        <time-to-teleport value="-1"/>
    </processing>

    <emissions>
        <device.emissions.probability value="1"/>
    </emissions>

    <gui_only>
        <quit-on-end value="true"/>
        <start value="true"/>
    </gui_only>

</configuration>
-->

<meandata xmlns:xsi="http://www.w3.org/2001/XMLSchema-instance" xsi:noNamespaceSchemaLocation="http://sumo.dlr.de/xsd/meandata_file.xsd">
    <interval begin="0.00" end="4698.00" id="emissions-detector">
        <edge id=":1092997347_0" sampledSeconds="270.86" CO_abs="34831.930001" CO2_abs="1370254.319582" HC_abs="190.981717" PMx_abs="27.994916" NOx_abs="595.188493" fuel_abs="589.018615" electricity_abs="0"
            CO_normed="60661.668410" CO2_normed="2386371.159147" HC_normed="332.604871" PMx_normed="48.754643" NOx_normed="1036.552583" fuel_normed="1025.807411" electricity_normed="0"
            traveltime="0.08" CO_perVeh="9.778132" CO2_perVeh="384.662239" HC_perVeh="0.053613" PMx_perVeh="0.007859" NOx_perVeh="0.167083" fuel_perVeh="0.165351" electricity_perVeh="0"/>
        <edge id=":1103427051_0" sampledSeconds="10.89" CO_abs="933.974487" CO2_abs="53988.345391" HC_abs="5.532272" PMx_abs="1.041215" NOx_abs="22.894798" fuel_abs="23.207209" electricity_abs="0"
            CO_normed="2467.894006" CO2_normed="142656.481415" HC_normed="14.618238" PMx_normed="2.751263" NOx_normed="60.496229" fuel_normed="61.321730" electricity_normed="0"
            traveltime="0.03" CO_perVeh="2.559076" CO2_perVeh="147.927250" HC_perVeh="0.015158" PMx_perVeh="0.002853" NOx_perVeh="0.062731" fuel_perVeh="0.063587" electricity_perVeh="0"/>
        <edge id=":1105984386_0" sampledSeconds="23.04" CO_abs="542.054246" CO2_abs="40161.817695" HC_abs="3.386987" PMx_abs="0.566347" NOx_abs="15.521566" fuel_abs="17.263999" electricity_abs="0"
            CO_normed="42.777265" CO2_normed="3169.447912" HC_normed="0.267291" PMx_normed="0.044694" NOx_normed="1.224915" fuel_normed="1.362422" electricity_normed="0"
            traveltime="0.97" CO_perVeh="22.750471" CO2_perVeh="1685.625149" HC_perVeh="0.142155" PMx_perVeh="0.023770" NOx_perVeh="0.651453" fuel_perVeh="0.724585" electricity_perVeh="0"/>
        <edge id=":1105984390_0" sampledSeconds="22.69" CO_abs="12.304500" CO2_abs="910.272478" HC_abs="0.076644" PMx_abs="0.011760" NOx_abs="0.344812" fuel_abs="0.391292" electricity_abs="0"
            CO_normed="0.750696" CO2_normed="55.535574" HC_normed="0.004676" PMx_normed="0.000717" NOx_normed="0.021037" fuel_normed="0.023873" electricity_normed="0"
            traveltime="1.03" CO_perVeh="0.558003" CO2_perVeh="41.280410" HC_perVeh="0.003476" PMx_perVeh="0.000533" NOx_perVeh="0.015637" fuel_perVeh="0.017745" electricity_perVeh="0"/>
        <edge id=":1105984390_1" sampledSeconds="646.67" CO_abs="15191.562786" CO2_abs="1883033.173292" HC_abs="114.258247" PMx_abs="33.763748" NOx_abs="709.838185" fuel_abs="809.429342" electricity_abs="0"
            CO_normed="886.598955" CO2_normed="109896.214588" HC_normed="6.668257" PMx_normed="1.970495" NOx_normed="41.427061" fuel_normed="47.239327" electricity_normed="0"
            traveltime="0.64" CO_perVeh="14.948395" CO2_perVeh="1852.891847" HC_perVeh="0.112429" PMx_perVeh="0.033223" NOx_perVeh="0.698476" fuel_perVeh="0.796473" electricity_perVeh="0"/>
        <edge id=":1105984395_0" sampledSeconds="8.94" CO_abs="264.693500" CO2_abs="20140.915565" HC_abs="1.666590" PMx_abs="0.284998" NOx_abs="7.779949" fuel_abs="8.657787" electricity_abs="0"
            CO_normed="220.467683" CO2_normed="16775.708450" HC_normed="1.388131" PMx_normed="0.237380" NOx_normed="6.480051" fuel_normed="7.211217" electricity_normed="0"
            traveltime="0.09" CO_perVeh="2.684282" CO2_perVeh="204.250907" HC_perVeh="0.016901" PMx_perVeh="0.002890" NOx_perVeh="0.078897" fuel_perVeh="0.087799" electricity_perVeh="0"/>
        <edge id=":1105984398_0" sampledSeconds="24.35" CO_abs="1429.005995" CO2_abs="100677.030170" HC_abs="8.874629" PMx_abs="1.768251" NOx_abs="41.197109" fuel_abs="43.276652" electricity_abs="0"
            CO_normed="90.572684" CO2_normed="6381.071096" HC_normed="0.562488" PMx_normed="0.112075" NOx_normed="2.611139" fuel_normed="2.742943" electricity_normed="0"
            traveltime="1.11" CO_perVeh="65.407236" CO2_perVeh="4608.102634" HC_perVeh="0.406202" PMx_perVeh="0.080935" NOx_perVeh="1.885639" fuel_perVeh="1.980822" electricity_perVeh="0"/>
        <edge id=":1105984398_1" sampledSeconds="453.04" CO_abs="7451.155454" CO2_abs="879579.028508" HC_abs="54.064876" PMx_abs="12.590891" NOx_abs="332.287304" fuel_abs="378.093515" electricity_abs="0"
            CO_normed="457.141526" CO2_normed="53963.724451" HC_normed="3.316975" PMx_normed="0.772473" NOx_normed="20.386412" fuel_normed="23.196704" electricity_normed="0"
            traveltime="0.96" CO_perVeh="15.732060" CO2_perVeh="1857.106617" HC_perVeh="0.114150" PMx_perVeh="0.026584" NOx_perVeh="0.701578" fuel_perVeh="0.798291" electricity_perVeh="0"/>
        <edge id=":1106006327_0" sampledSeconds="367.76" CO_abs="49889.861000" CO2_abs="1627983.571764" HC_abs="265.510454" PMx_abs="34.025195" NOx_abs="713.013591" fuel_abs="699.812330" electricity_abs="0"
            CO_normed="4314.873425" CO2_normed="140801.014657" HC_normed="22.963463" PMx_normed="2.942770" NOx_normed="61.667107" fuel_normed="60.525357" electricity_normed="0"
            traveltime="2.08" CO_perVeh="282.416489" CO2_perVeh="9215.688238" HC_perVeh="1.503001" PMx_perVeh="0.192610" NOx_perVeh="4.036227" fuel_perVeh="3.961497" electricity_perVeh="0"/>
        <edge id=":1106006327_1" sampledSeconds="160.71" CO_abs="21800.985875" CO2_abs="731679.203256" HC_abs="116.517163" PMx_abs="15.274467" NOx_abs="320.297251" fuel_abs="314.522409" electricity_abs="0"
            CO_normed="1644.265384" CO2_normed="55184.421158" HC_normed="8.787912" PMx_normed="1.152025" NOx_normed="24.157333" fuel_normed="23.721785" electricity_normed="0"
            traveltime="2.28" CO_perVeh="309.493093" CO2_perVeh="10387.129311" HC_perVeh="1.654111" PMx_perVeh="0.216841" NOx_perVeh="4.547032" fuel_perVeh="4.465051" electricity_perVeh="0"/>
        <edge id=":1106006327_2" sampledSeconds="0.00" CO_abs="0" CO2_abs="0" HC_abs="0" PMx_abs="0" NOx_abs="0" fuel_abs="0" electricity_abs="0"
            CO_normed="0" CO2_normed="0" HC_normed="0" PMx_normed="0" NOx_normed="0" fuel_normed="0" electricity_normed="0"/>
        <edge id=":1106006327_3" sampledSeconds="0.00" CO_abs="0" CO2_abs="0" HC_abs="0" PMx_abs="0" NOx_abs="0" fuel_abs="0" electricity_abs="0"
            CO_normed="0" CO2_normed="0" HC_normed="0" PMx_normed="0" NOx_normed="0" fuel_normed="0" electricity_normed="0"/>
        <edge id=":1107381198_0" sampledSeconds="0.00" CO_abs="0" CO2_abs="0" HC_abs="0" PMx_abs="0" NOx_abs="0" fuel_abs="0" electricity_abs="0"
            CO_normed="0" CO2_normed="0" HC_normed="0" PMx_normed="0" NOx_normed="0" fuel_normed="0" electricity_normed="0"/>
        <edge id=":1107381198_1" sampledSeconds="35.40" CO_abs="1305.599656" CO2_abs="54827.168488" HC_abs="7.210650" PMx_abs="0.952552" NOx_abs="22.741390" fuel_abs="23.568230" electricity_abs="0"
            CO_normed="109.101364" CO2_normed="4581.587342" HC_normed="0.602552" PMx_normed="0.079599" NOx_normed="1.900366" fuel_normed="1.969460" electricity_normed="0"
            traveltime="1.46" CO_perVeh="53.755158" CO2_perVeh="2257.386562" HC_perVeh="0.296882" PMx_perVeh="0.039219" NOx_perVeh="0.936326" fuel_perVeh="0.970369" electricity_perVeh="0"/>
        <edge id=":1110338277_0" sampledSeconds="96.65" CO_abs="1443.977660" CO2_abs="176139.958517" HC_abs="10.599777" PMx_abs="2.401076" NOx_abs="65.830821" fuel_abs="75.715195" electricity_abs="0"
            CO_normed="3951.772470" CO2_normed="482046.958174" HC_normed="29.008694" PMx_normed="6.571090" NOx_normed="180.160978" fuel_normed="207.211810" electricity_normed="0"
            traveltime="0.02" CO_perVeh="0.325427" CO2_perVeh="39.696387" HC_perVeh="0.002389" PMx_perVeh="0.000541" NOx_perVeh="0.014836" fuel_perVeh="0.017064" electricity_perVeh="0"/>
        <edge id=":1110338293_0" sampledSeconds="123.97" CO_abs="6266.795653" CO2_abs="427442.271497" HC_abs="38.591535" PMx_abs="7.571530" NOx_abs="175.513003" fuel_abs="183.738791" electricity_abs="0"
            CO_normed="16007.140876" CO2_normed="1091806.568319" HC_normed="98.573524" PMx_normed="19.339795" NOx_normed="448.309076" fuel_normed="469.320028" electricity_normed="0"
            traveltime="0.03" CO_perVeh="1.437393" CO2_perVeh="98.040966" HC_perVeh="0.008852" PMx_perVeh="0.001737" NOx_perVeh="0.040257" fuel_perVeh="0.042144" electricity_perVeh="0"/>
        <edge id=":1110338295_0" sampledSeconds="0.00" CO_abs="0" CO2_abs="0" HC_abs="0" PMx_abs="0" NOx_abs="0" fuel_abs="0" electricity_abs="0"
            CO_normed="0" CO2_normed="0" HC_normed="0" PMx_normed="0" NOx_normed="0" fuel_normed="0" electricity_normed="0"/>
        <edge id=":1110673403_0" sampledSeconds="143.60" CO_abs="2089.592850" CO2_abs="258792.587319" HC_abs="15.415544" PMx_abs="3.572219" NOx_abs="96.848985" fuel_abs="111.244018" electricity_abs="0"
            CO_normed="5337.401916" CO2_normed="661028.320100" HC_normed="39.375591" PMx_normed="9.124443" NOx_normed="247.379273" fuel_normed="284.148193" electricity_normed="0"
            traveltime="0.02" CO_perVeh="0.335498" CO2_perVeh="41.550857" HC_perVeh="0.002475" PMx_perVeh="0.000574" NOx_perVeh="0.015550" fuel_perVeh="0.017861" electricity_perVeh="0"/>
        <edge id=":1110673412_0" sampledSeconds="252.62" CO_abs="44252.899727" CO2_abs="3025994.320137" HC_abs="275.524691" PMx_abs="66.401981" NOx_abs="1299.810931" fuel_abs="1300.725979" electricity_abs="0"
            CO_normed="116931.958586" CO2_normed="7995757.220602" HC_normed="728.034592" PMx_normed="175.457739" NOx_normed="3434.564490" fuel_normed="3436.982374" electricity_normed="0"
            traveltime="0.02" CO_perVeh="2.730731" CO2_perVeh="186.726245" HC_perVeh="0.017002" PMx_perVeh="0.004097" NOx_perVeh="0.080208" fuel_perVeh="0.080264" electricity_perVeh="0"/>
        <edge id=":1110673414_0" sampledSeconds="0.00" CO_abs="0" CO2_abs="0" HC_abs="0" PMx_abs="0" NOx_abs="0" fuel_abs="0" electricity_abs="0"
            CO_normed="0" CO2_normed="0" HC_normed="0" PMx_normed="0" NOx_normed="0" fuel_normed="0" electricity_normed="0"/>
        <edge id=":1110673414_1" sampledSeconds="133.92" CO_abs="9856.024856" CO2_abs="370973.792109" HC_abs="53.497283" PMx_abs="6.901352" NOx_abs="156.969067" fuel_abs="159.468468" electricity_abs="0"
            CO_normed="836.379786" CO2_normed="31480.742532" HC_normed="4.539766" PMx_normed="0.585647" NOx_normed="13.320356" fuel_normed="13.532454" electricity_normed="0"
            traveltime="1.60" CO_perVeh="117.429614" CO2_perVeh="4419.967466" HC_perVeh="0.637393" PMx_perVeh="0.082226" NOx_perVeh="1.870208" fuel_perVeh="1.899987" electricity_perVeh="0"/>
        <edge id=":1110673417_0" sampledSeconds="29.44" CO_abs="499.162272" CO2_abs="59012.336201" HC_abs="3.577060" PMx_abs="0.807731" NOx_abs="22.068106" fuel_abs="25.366934" electricity_abs="0"
            CO_normed="1366.070805" CO2_normed="161500.646417" HC_normed="9.789436" PMx_normed="2.210538" NOx_normed="60.394380" fuel_normed="69.422369" electricity_normed="0"
            traveltime="0.02" CO_perVeh="0.370485" CO2_perVeh="43.799746" HC_perVeh="0.002655" PMx_perVeh="0.000600" NOx_perVeh="0.016379" fuel_perVeh="0.018828" electricity_perVeh="0"/>
        <edge id=":1110673446_0" sampledSeconds="334.67" CO_abs="3169.803608" CO2_abs="254429.618572" HC_abs="20.468077" PMx_abs="4.627551" NOx_abs="103.883347" fuel_abs="109.367673" electricity_abs="0"
            CO_normed="8096.560939" CO2_normed="649884.083198" HC_normed="52.281168" PMx_normed="11.820053" NOx_normed="265.346991" fuel_normed="279.355487" electricity_normed="0"
            traveltime="0.02" CO_perVeh="0.216387" CO2_perVeh="17.368644" HC_perVeh="0.001397" PMx_perVeh="0.000316" NOx_perVeh="0.007092" fuel_perVeh="0.007466" electricity_perVeh="0"/>
        <edge id=":1110673451_0" sampledSeconds="37.23" CO_abs="345.544370" CO2_abs="24949.951967" HC_abs="2.145771" PMx_abs="0.361613" NOx_abs="9.708295" fuel_abs="10.725003" electricity_abs="0"
            CO_normed="980.685029" CO2_normed="70810.137554" HC_normed="6.089885" PMx_normed="1.026290" NOx_normed="27.552988" fuel_normed="30.438494" electricity_normed="0"
            traveltime="0.03" CO_perVeh="0.247801" CO2_perVeh="17.892396" HC_perVeh="0.001539" PMx_perVeh="0.000259" NOx_perVeh="0.006962" fuel_perVeh="0.007691" electricity_perVeh="0"/>
        <edge id=":1110673464_0" sampledSeconds="323.66" CO_abs="955.880873" CO2_abs="68046.268632" HC_abs="5.925934" PMx_abs="1.052631" NOx_abs="26.906710" fuel_abs="29.250326" electricity_abs="0"
            CO_normed="51.875054" CO2_normed="3692.828228" HC_normed="0.321597" PMx_normed="0.057126" NOx_normed="1.460210" fuel_normed="1.587397" electricity_normed="0"
            traveltime="1.17" CO_perVeh="3.455383" CO2_perVeh="245.978283" HC_perVeh="0.021421" PMx_perVeh="0.003805" NOx_perVeh="0.097264" fuel_perVeh="0.105736" electricity_perVeh="0"/>
        <edge id=":1110673464_1" sampledSeconds="708.24" CO_abs="17000.023284" CO2_abs="2146608.072150" HC_abs="128.633939" PMx_abs="38.249744" NOx_abs="806.599768" fuel_abs="922.728242" electricity_abs="0"
            CO_normed="904.013724" CO2_normed="114150.617635" HC_normed="6.840393" PMx_normed="2.034014" NOx_normed="42.892721" fuel_normed="49.068109" electricity_normed="0"
            traveltime="0.70" CO_perVeh="16.795872" CO2_perVeh="2120.829735" HC_perVeh="0.127089" PMx_perVeh="0.037790" NOx_perVeh="0.796913" fuel_perVeh="0.911647" electricity_perVeh="0"/>
        <edge id=":1110673479_0" sampledSeconds="133.90" CO_abs="6924.708924" CO2_abs="473223.829448" HC_abs="42.679018" PMx_abs="8.456266" NOx_abs="194.787464" fuel_abs="203.418162" electricity_abs="0"
            CO_normed="17687.634543" CO2_normed="1208745.413661" HC_normed="109.014095" PMx_normed="21.599659" NOx_normed="497.541416" fuel_normed="519.586621" electricity_normed="0"
            traveltime="0.03" CO_perVeh="1.458755" CO2_perVeh="99.689031" HC_perVeh="0.008991" PMx_perVeh="0.001781" NOx_perVeh="0.041034" fuel_perVeh="0.042852" electricity_perVeh="0"/>
        <edge id=":1110673511_0" sampledSeconds="11.63" CO_abs="209.047048" CO2_abs="27169.444581" HC_abs="1.575025" PMx_abs="0.370273" NOx_abs="10.109900" fuel_abs="11.679000" electricity_abs="0"
            CO_normed="533.964363" CO2_normed="69398.325877" HC_normed="4.023051" PMx_normed="0.945779" NOx_normed="25.823499" fuel_normed="29.831418" electricity_normed="0"
            traveltime="0.02" CO_perVeh="0.413955" CO2_perVeh="53.800880" HC_perVeh="0.003119" PMx_perVeh="0.000733" NOx_perVeh="0.020020" fuel_perVeh="0.023127" electricity_perVeh="0"/>
        <edge id=":1110673517_0" sampledSeconds="17.38" CO_abs="620.174988" CO2_abs="45624.397436" HC_abs="3.890602" PMx_abs="0.765755" NOx_abs="18.393514" fuel_abs="19.611969" electricity_abs="0"
            CO_normed="1584.099587" CO2_normed="116537.413629" HC_normed="9.937680" PMx_normed="1.955952" NOx_normed="46.982157" fuel_normed="50.094428" electricity_normed="0"
            traveltime="0.03" CO_perVeh="0.995777" CO2_perVeh="73.256287" HC_perVeh="0.006247" PMx_perVeh="0.001230" NOx_perVeh="0.029533" fuel_perVeh="0.031490" electricity_perVeh="0"/>
        <edge id=":1110673534_0" sampledSeconds="474.69" CO_abs="2509.494668" CO2_abs="233342.997755" HC_abs="16.736138" PMx_abs="2.970286" NOx_abs="87.225386" fuel_abs="100.305087" electricity_abs="0"
            CO_normed="124.223800" CO2_normed="11550.832999" HC_normed="0.828464" PMx_normed="0.147034" NOx_normed="4.317789" fuel_normed="4.965254" electricity_normed="0"
            traveltime="1.43" CO_perVeh="7.560102" CO2_perVeh="702.968929" HC_perVeh="0.050419" PMx_perVeh="0.008948" NOx_perVeh="0.262775" fuel_perVeh="0.302179" electricity_perVeh="0"/>
        <edge id=":1110673534_1" sampledSeconds="184.23" CO_abs="2808.157322" CO2_abs="365164.428026" HC_abs="21.054776" PMx_abs="4.847531" NOx_abs="135.229611" fuel_abs="156.968973" electricity_abs="0"
            CO_normed="135.166124" CO2_normed="17576.600821" HC_normed="1.013438" PMx_normed="0.233328" NOx_normed="6.509059" fuel_normed="7.555448" electricity_normed="0"
            traveltime="1.22" CO_perVeh="18.645156" CO2_perVeh="2424.560705" HC_perVeh="0.139796" PMx_perVeh="0.032186" NOx_perVeh="0.897876" fuel_perVeh="1.042218" electricity_perVeh="0"/>
        <edge id=":1110673549_0" sampledSeconds="60.69" CO_abs="85.403931" CO2_abs="8848.633302" HC_abs="0.560173" PMx_abs="0.099638" NOx_abs="3.151873" fuel_abs="3.803697" electricity_abs="0"
            CO_normed="4.095346" CO2_normed="424.315514" HC_normed="0.026862" PMx_normed="0.004778" NOx_normed="0.151141" fuel_normed="0.182397" electricity_normed="0"
            traveltime="1.26" CO_perVeh="1.779318" CO2_perVeh="184.353737" HC_perVeh="0.011671" PMx_perVeh="0.002076" NOx_perVeh="0.065667" fuel_perVeh="0.079247" electricity_perVeh="0"/>
        <edge id=":1110673549_1" sampledSeconds="639.76" CO_abs="12557.519970" CO2_abs="1712788.104144" HC_abs="98.101615" PMx_abs="29.810219" NOx_abs="636.770270" fuel_abs="736.249436" electricity_abs="0"
            CO_normed="582.483091" CO2_normed="79448.020936" HC_normed="4.550463" PMx_normed="1.382753" NOx_normed="29.536717" fuel_normed="34.151078" electricity_normed="0"
            traveltime="0.81" CO_perVeh="15.807430" CO2_perVeh="2156.060916" HC_perVeh="0.123490" PMx_perVeh="0.037525" NOx_perVeh="0.801568" fuel_perVeh="0.926792" electricity_perVeh="0"/>
        <edge id=":1110673556_0" sampledSeconds="410.54" CO_abs="49661.409780" CO2_abs="2519332.238178" HC_abs="286.040259" PMx_abs="50.759208" NOx_abs="1084.341961" fuel_abs="1082.951508" electricity_abs="0"
            CO_normed="1765.880285" CO2_normed="89583.424031" HC_normed="10.171134" PMx_normed="1.804916" NOx_normed="38.557465" fuel_normed="38.508023" electricity_normed="0"
            traveltime="2.55" CO_perVeh="308.273816" CO2_perVeh="15638.786073" HC_perVeh="1.775598" PMx_perVeh="0.315088" NOx_perVeh="6.731066" fuel_perVeh="6.722435" electricity_perVeh="0"/>
        <edge id=":1110673556_2" sampledSeconds="246.75" CO_abs="23974.785265" CO2_abs="1037262.467324" HC_abs="133.546574" PMx_abs="20.096405" NOx_abs="442.909896" fuel_abs="445.878157" electricity_abs="0"
            CO_normed="891.386849" CO2_normed="38565.606003" HC_normed="4.965286" PMx_normed="0.747188" NOx_normed="16.467470" fuel_normed="16.577830" electricity_normed="0"
            traveltime="2.99" CO_perVeh="290.809551" CO2_perVeh="12581.794959" HC_perVeh="1.619894" PMx_perVeh="0.243766" NOx_perVeh="5.372412" fuel_perVeh="5.408417" electricity_perVeh="0"/>
        <edge id=":1110673556_3" sampledSeconds="370.48" CO_abs="32763.089951" CO2_abs="1156857.670154" HC_abs="176.081808" PMx_abs="21.976733" NOx_abs="492.771713" fuel_abs="497.293063" electricity_abs="0"
            CO_normed="2771.061375" CO2_normed="97845.582042" HC_normed="14.892780" PMx_normed="1.858765" NOx_normed="41.678018" fuel_normed="42.060428" electricity_normed="0"
            traveltime="1.75" CO_perVeh="154.633851" CO2_perVeh="5460.088087" HC_perVeh="0.831063" PMx_perVeh="0.103725" NOx_perVeh="2.325763" fuel_perVeh="2.347103" electricity_perVeh="0"/>
        <edge id=":1110673556_4" sampledSeconds="172.22" CO_abs="17877.892340" CO2_abs="723751.089100" HC_abs="98.395786" PMx_abs="14.133191" NOx_abs="310.206182" fuel_abs="311.112768" electricity_abs="0"
            CO_normed="923.771703" CO2_normed="37397.069164" HC_normed="5.084226" PMx_normed="0.730279" NOx_normed="16.028718" fuel_normed="16.075562" electricity_normed="0"
            traveltime="2.37" CO_perVeh="246.198096" CO2_perVeh="9966.842661" HC_perVeh="1.355017" PMx_perVeh="0.194629" NOx_perVeh="4.271878" fuel_perVeh="4.284362" electricity_perVeh="0"/>
        <edge id=":1110673556_5" sampledSeconds="25.12" CO_abs="2263.050696" CO2_abs="90031.051042" HC_abs="12.407384" PMx_abs="1.709027" NOx_abs="38.276042" fuel_abs="38.700995" electricity_abs="0"
            CO_normed="162.982938" CO2_normed="6483.957814" HC_normed="0.893569" PMx_normed="0.123083" NOx_normed="2.756607" fuel_normed="2.787212" electricity_normed="0"
            traveltime="1.74" CO_perVeh="156.457826" CO2_perVeh="6224.368961" HC_perVeh="0.857794" PMx_perVeh="0.118155" NOx_perVeh="2.646245" fuel_perVeh="2.675624" electricity_perVeh="0"/>
        <edge id=":1110673556_6" sampledSeconds="312.12" CO_abs="37199.156383" CO2_abs="1893375.287289" HC_abs="214.406855" PMx_abs="38.100027" NOx_abs="814.390198" fuel_abs="813.879792" electricity_abs="0"
            CO_normed="1356.094228" CO2_normed="69022.944296" HC_normed="7.816196" PMx_normed="1.388935" NOx_normed="29.688572" fuel_normed="29.669966" electricity_normed="0"
            traveltime="2.47" CO_perVeh="294.587689" CO2_perVeh="14994.024193" HC_perVeh="1.697932" PMx_perVeh="0.301722" NOx_perVeh="6.449322" fuel_perVeh="6.445280" electricity_perVeh="0"/>
        <edge id=":1110673561_0" sampledSeconds="99.99" CO_abs="10474.850466" CO2_abs="746261.340570" HC_abs="65.670624" PMx_abs="15.145622" NOx_abs="315.995501" fuel_abs="320.782160" electricity_abs="0"
            CO_normed="479.779159" CO2_normed="34180.978515" HC_normed="3.007909" PMx_normed="0.693714" NOx_normed="14.473529" fuel_normed="14.692773" electricity_normed="0"
            traveltime="1.18" CO_perVeh="123.613402" CO2_perVeh="8806.608140" HC_perVeh="0.774977" PMx_perVeh="0.178733" NOx_perVeh="3.729054" fuel_perVeh="3.785541" electricity_perVeh="0"/>
        <edge id=":1110673561_1" sampledSeconds="1321.54" CO_abs="120426.200376" CO2_abs="8319720.054048" HC_abs="749.688931" PMx_abs="174.055787" NOx_abs="3558.820499" fuel_abs="3576.245813" electricity_abs="0"
            CO_normed="5377.658119" CO2_normed="371518.904967" HC_normed="33.477522" PMx_normed="7.772499" NOx_normed="158.919902" fuel_normed="159.698033" electricity_normed="0"
            traveltime="1.20" CO_perVeh="109.068022" CO2_perVeh="7535.033111" HC_perVeh="0.678981" PMx_perVeh="0.157639" NOx_perVeh="3.223165" fuel_perVeh="3.238947" electricity_perVeh="0"/>
        <edge id=":1110673562_0" sampledSeconds="104.28" CO_abs="2001.056055" CO2_abs="160260.842485" HC_abs="12.760953" PMx_abs="2.148618" NOx_abs="60.969767" fuel_abs="68.889942" electricity_abs="0"
            CO_normed="5679.171435" CO2_normed="454834.234383" HC_normed="36.216695" PMx_normed="6.097964" NOx_normed="173.037511" fuel_normed="195.515657" electricity_normed="0"
            traveltime="0.03" CO_perVeh="0.510078" CO2_perVeh="40.851218" HC_perVeh="0.003253" PMx_perVeh="0.000548" NOx_perVeh="0.015541" fuel_perVeh="0.017560" electricity_perVeh="0"/>
        <edge id=":1110673564_0" sampledSeconds="28.21" CO_abs="366.900774" CO2_abs="51179.529001" HC_abs="2.821859" PMx_abs="0.650162" NOx_abs="18.727298" fuel_abs="21.999972" electricity_abs="0"
            CO_normed="2811.500187" CO2_normed="392180.298857" HC_normed="21.623439" PMx_normed="4.982083" NOx_normed="143.504198" fuel_normed="168.582163" electricity_normed="0"
            traveltime="7.754476e-03" CO_perVeh="0.100866" CO2_perVeh="14.069974" HC_perVeh="0.000776" PMx_perVeh="0.000179" NOx_perVeh="0.005148" fuel_perVeh="0.006048" electricity_perVeh="0"/>
        <edge id=":1110673588_0" sampledSeconds="11.66" CO_abs="217.891363" CO2_abs="20943.173045" HC_abs="1.484370" PMx_abs="0.341352" NOx_abs="8.242810" fuel_abs="9.002543" electricity_abs="0"
            CO_normed="667.866248" CO2_normed="64193.633855" HC_normed="4.549794" PMx_normed="1.046289" NOx_normed="25.265319" fuel_normed="27.594001" electricity_normed="0"
            traveltime="0.02" CO_perVeh="0.363152" CO2_perVeh="34.905288" HC_perVeh="0.002474" PMx_perVeh="0.000569" NOx_perVeh="0.013738" fuel_perVeh="0.015004" electricity_perVeh="0"/>
        <edge id=":1110673601_0" sampledSeconds="29.12" CO_abs="482.041436" CO2_abs="62579.046512" HC_abs="3.600286" PMx_abs="0.827411" NOx_abs="23.149719" fuel_abs="26.900129" electricity_abs="0"
            CO_normed="1319.215753" CO2_normed="171261.758379" HC_normed="9.852998" PMx_normed="2.264398" NOx_normed="63.354457" fuel_normed="73.618306" electricity_normed="0"
            traveltime="0.02" CO_perVeh="0.357778" CO2_perVeh="46.447006" HC_perVeh="0.002672" PMx_perVeh="0.000614" NOx_perVeh="0.017182" fuel_perVeh="0.019966" electricity_perVeh="0"/>
        <edge id=":1110673617_0" sampledSeconds="238.49" CO_abs="5819.765360" CO2_abs="723077.755179" HC_abs="43.802442" PMx_abs="12.929591" NOx_abs="272.808329" fuel_abs="310.817860" electricity_abs="0"
            CO_normed="14865.301046" CO2_normed="1846941.903395" HC_normed="111.883633" PMx_normed="33.025775" NOx_normed="696.828426" fuel_normed="793.915352" electricity_normed="0"
            traveltime="0.01" CO_perVeh="0.356422" CO2_perVeh="44.283767" HC_perVeh="0.002683" PMx_perVeh="0.000792" NOx_perVeh="0.016708" fuel_perVeh="0.019036" electricity_perVeh="0"/>
        <edge id=":1110673621_0" sampledSeconds="25.94" CO_abs="651.003758" CO2_abs="67134.294251" HC_abs="4.511598" PMx_abs="0.989540" NOx_abs="25.712956" fuel_abs="28.858182" electricity_abs="0"
            CO_normed="1995.413819" CO2_normed="205775.614562" HC_normed="13.828652" PMx_normed="3.033072" NOx_normed="78.813658" fuel_normed="88.454196" electricity_normed="0"
            traveltime="0.02" CO_perVeh="0.493185" CO2_perVeh="50.859314" HC_perVeh="0.003418" PMx_perVeh="0.000750" NOx_perVeh="0.019480" fuel_perVeh="0.021862" electricity_perVeh="0"/>
        <edge id=":1110673630_0" sampledSeconds="54.41" CO_abs="318.981446" CO2_abs="26309.553840" HC_abs="2.058204" PMx_abs="0.380860" NOx_abs="10.174877" fuel_abs="11.309411" electricity_abs="0"
            CO_normed="17.434396" CO2_normed="1437.986994" HC_normed="0.112494" PMx_normed="0.020816" NOx_normed="0.556123" fuel_normed="0.618132" electricity_normed="0"
            traveltime="1.27" CO_perVeh="7.445591" CO2_perVeh="614.111522" HC_perVeh="0.048042" PMx_perVeh="0.008890" NOx_perVeh="0.237500" fuel_perVeh="0.263982" electricity_perVeh="0"/>
        <edge id=":1110673630_1" sampledSeconds="7.39" CO_abs="42.418410" CO2_abs="2646.171170" HC_abs="0.255108" PMx_abs="0.046365" NOx_abs="1.089063" fuel_abs="1.137477" electricity_abs="0"
            CO_normed="2.826481" CO2_normed="176.323250" HC_normed="0.016999" PMx_normed="0.003089" NOx_normed="0.072568" fuel_normed="0.075794" electricity_normed="0"
            traveltime="1.05" CO_perVeh="6.003836" CO2_perVeh="374.534996" HC_perVeh="0.036108" PMx_perVeh="0.006562" NOx_perVeh="0.154144" fuel_perVeh="0.160997" electricity_perVeh="0"/>
        <edge id=":1110673650_0" sampledSeconds="143.01" CO_abs="1827.559160" CO2_abs="251241.544739" HC_abs="13.976249" PMx_abs="3.264587" NOx_abs="92.376354" fuel_abs="107.998308" electricity_abs="0"
            CO_normed="4668.094918" CO2_normed="641740.855017" HC_normed="35.699231" PMx_normed="8.338665" NOx_normed="235.954928" fuel_normed="275.857746" electricity_normed="0"
            traveltime="0.02" CO_perVeh="0.293992" CO2_perVeh="40.416147" HC_perVeh="0.002248" PMx_perVeh="0.000525" NOx_perVeh="0.014860" fuel_perVeh="0.017373" electricity_perVeh="0"/>
        <edge id=":1110673655_0" sampledSeconds="44.94" CO_abs="740.474506" CO2_abs="88096.341076" HC_abs="5.342907" PMx_abs="1.197752" NOx_abs="32.915520" fuel_abs="37.868941" electricity_abs="0"
            CO_normed="1891.378048" CO2_normed="225022.582570" HC_normed="13.647273" PMx_normed="3.059393" NOx_normed="84.075402" fuel_normed="96.727819" electricity_normed="0"
            traveltime="0.02" CO_perVeh="0.396294" CO2_perVeh="47.148162" HC_perVeh="0.002859" PMx_perVeh="0.000641" NOx_perVeh="0.017616" fuel_perVeh="0.020267" electricity_perVeh="0"/>
        <edge id=":1110673663_0" sampledSeconds="109.10" CO_abs="2162.601818" CO2_abs="246669.566088" HC_abs="15.487589" PMx_abs="3.478755" NOx_abs="93.123064" fuel_abs="106.032843" electricity_abs="0"
            CO_normed="101.170094" CO2_normed="11539.610781" HC_normed="0.724535" PMx_normed="0.162742" NOx_normed="4.356451" fuel_normed="4.960392" electricity_normed="0"
            traveltime="1.28" CO_perVeh="25.400779" CO2_perVeh="2897.250421" HC_perVeh="0.181909" PMx_perVeh="0.040860" NOx_perVeh="1.093774" fuel_perVeh="1.245406" electricity_perVeh="0"/>
        <edge id=":1110673663_1" sampledSeconds="154.35" CO_abs="2040.825988" CO2_abs="264420.102322" HC_abs="15.328726" PMx_abs="3.567614" NOx_abs="98.259761" fuel_abs="113.663114" electricity_abs="0"
            CO_normed="95.589935" CO2_normed="12385.132522" HC_normed="0.717980" PMx_normed="0.167103" NOx_normed="4.602374" fuel_normed="5.323849" electricity_normed="0"
            traveltime="1.25" CO_perVeh="16.528890" CO2_perVeh="2141.569516" HC_perVeh="0.124149" PMx_perVeh="0.028895" NOx_perVeh="0.795817" fuel_perVeh="0.920571" electricity_perVeh="0"/>
        <edge id=":1110673666_0" sampledSeconds="191.71" CO_abs="4061.034537" CO2_abs="329782.752996" HC_abs="25.996455" PMx_abs="4.339618" NOx_abs="124.884641" fuel_abs="141.760942" electricity_abs="0"