<?xml version="1.0" encoding="UTF-8"?>

<!-- generated on Tue Nov 10 02:15:38 2020 by Eclipse SUMO sumo Version 1.7.0
<configuration xmlns:xsi="http://www.w3.org/2001/XMLSchema-instance" xsi:noNamespaceSchemaLocation="http://sumo.dlr.de/xsd/sumoConfiguration.xsd">

    <input>
        <net-file value="../dataSets/Porto/6AM7AM_Routing_SaoBento/Porto.net.xml"/>
        <route-files value="../results/Porto/6AM7AM_Routing_SaoBento/cost_PMx-cost_hc/solution4/Porto.rou.xml"/>
        <additional-files value="moreOutputInfo.xml"/>
    </input>

    <output>
        <emission-output.precision value="6"/>
        <tripinfo-output value="../results/Porto/6AM7AM_Routing_SaoBento/cost_PMx-cost_hc/solution4/Porto-tripinfo"/>
    </output>

    <processing>
        <collision.action value="warn"/>
        <time-to-teleport value="-1"/>
    </processing>

    <emissions>
        <device.emissions.probability value="1"/>
    </emissions>

    <gui_only>
        <quit-on-end value="true"/>
        <start value="true"/>
    </gui_only>

</configuration>
-->

<meandata xmlns:xsi="http://www.w3.org/2001/XMLSchema-instance" xsi:noNamespaceSchemaLocation="http://sumo.dlr.de/xsd/meandata_file.xsd">
    <interval begin="0.00" end="4790.00" id="emissions-detector">
        <edge id=":1092997347_0" sampledSeconds="322.82" CO_abs="41631.896925" CO2_abs="1696016.676531" HC_abs="229.702827" PMx_abs="34.701958" NOx_abs="736.655026" fuel_abs="729.049774" electricity_abs="0"
            CO_normed="71111.609854" CO2_normed="2896972.876974" HC_normed="392.356319" PMx_normed="59.274553" NOx_normed="1258.283400" fuel_normed="1245.292838" electricity_normed="0"
            traveltime="0.07" CO_perVeh="9.310198" CO2_perVeh="379.282537" HC_perVeh="0.051369" PMx_perVeh="0.007760" NOx_perVeh="0.164739" fuel_perVeh="0.163038" electricity_perVeh="0"/>
        <edge id=":1103427051_0" sampledSeconds="10.99" CO_abs="897.168148" CO2_abs="50186.572700" HC_abs="5.277031" PMx_abs="0.987757" NOx_abs="21.443710" fuel_abs="21.572985" electricity_abs="0"
            CO_normed="2325.106423" CO2_normed="130063.826735" HC_normed="13.675985" PMx_normed="2.559877" NOx_normed="55.573649" fuel_normed="55.908680" electricity_normed="0"
            traveltime="0.03" CO_perVeh="2.458227" CO2_perVeh="137.510451" HC_perVeh="0.014459" PMx_perVeh="0.002706" NOx_perVeh="0.058755" fuel_perVeh="0.059110" electricity_perVeh="0"/>
        <edge id=":1105984386_0" sampledSeconds="76.24" CO_abs="1761.800425" CO2_abs="138761.998602" HC_abs="11.180717" PMx_abs="1.844908" NOx_abs="52.758414" fuel_abs="59.648462" electricity_abs="0"
            CO_normed="136.365487" CO2_normed="10740.346778" HC_normed="0.865401" PMx_normed="0.142798" NOx_normed="4.083565" fuel_normed="4.616863" electricity_normed="0"
            traveltime="0.95" CO_perVeh="21.908563" CO2_perVeh="1725.550697" HC_perVeh="0.139036" PMx_perVeh="0.022942" NOx_perVeh="0.656068" fuel_perVeh="0.741748" electricity_perVeh="0"/>
        <edge id=":1105984390_0" sampledSeconds="78.92" CO_abs="100.304238" CO2_abs="8519.833192" HC_abs="0.657353" PMx_abs="0.142889" NOx_abs="3.381444" fuel_abs="3.662303" electricity_abs="0"
            CO_normed="6.002009" CO2_normed="509.810105" HC_normed="0.039335" PMx_normed="0.008550" NOx_normed="0.202339" fuel_normed="0.219145" electricity_normed="0"
            traveltime="1.06" CO_perVeh="1.347777" CO2_perVeh="114.480075" HC_perVeh="0.008833" PMx_perVeh="0.001920" NOx_perVeh="0.045436" fuel_perVeh="0.049210" electricity_perVeh="0"/>
        <edge id=":1105984390_1" sampledSeconds="645.64" CO_abs="13585.607999" CO2_abs="1818567.064688" HC_abs="105.287137" PMx_abs="31.910535" NOx_abs="676.986497" fuel_abs="781.718871" electricity_abs="0"
            CO_normed="777.644922" CO2_normed="104095.410642" HC_normed="6.026672" PMx_normed="1.826570" NOx_normed="38.750942" fuel_normed="44.745860" electricity_normed="0"
            traveltime="0.64" CO_perVeh="13.386746" CO2_perVeh="1791.947425" HC_perVeh="0.103746" PMx_perVeh="0.031443" NOx_perVeh="0.667077" fuel_perVeh="0.770276" electricity_perVeh="0"/>
        <edge id=":1105984395_0" sampledSeconds="30.17" CO_abs="486.485954" CO2_abs="40665.125492" HC_abs="3.131034" PMx_abs="0.482831" NOx_abs="15.055253" fuel_abs="17.480444" electricity_abs="0"
            CO_normed="397.419768" CO2_normed="33220.126116" HC_normed="2.557802" PMx_normed="0.394434" NOx_normed="12.298927" fuel_normed="14.280112" electricity_normed="0"
            traveltime="0.09" CO_perVeh="1.461778" CO2_perVeh="122.189286" HC_perVeh="0.009408" PMx_perVeh="0.001451" NOx_perVeh="0.045238" fuel_perVeh="0.052525" electricity_perVeh="0"/>
        <edge id=":1105984398_0" sampledSeconds="77.16" CO_abs="5183.376174" CO2_abs="361219.838713" HC_abs="32.130564" PMx_abs="6.521575" NOx_abs="148.912065" fuel_abs="155.272392" electricity_abs="0"
            CO_normed="322.220684" CO2_normed="22454.959746" HC_normed="1.997372" PMx_normed="0.405409" NOx_normed="9.257007" fuel_normed="9.652392" electricity_normed="0"
            traveltime="1.08" CO_perVeh="72.853203" CO2_perVeh="5077.004134" HC_perVeh="0.451600" PMx_perVeh="0.091662" NOx_perVeh="2.092984" fuel_perVeh="2.182379" electricity_perVeh="0"/>
        <edge id=":1105984398_1" sampledSeconds="452.79" CO_abs="7700.146177" CO2_abs="911131.223057" HC_abs="55.881515" PMx_abs="12.907954" NOx_abs="343.551347" fuel_abs="391.656624" electricity_abs="0"
            CO_normed="463.343973" CO2_normed="54825.863246" HC_normed="3.362581" PMx_normed="0.776715" NOx_normed="20.672653" fuel_normed="23.567311" electricity_normed="0"
            traveltime="0.96" CO_perVeh="16.300097" CO2_perVeh="1928.733165" HC_perVeh="0.118293" PMx_perVeh="0.027324" NOx_perVeh="0.727249" fuel_perVeh="0.829080" electricity_perVeh="0"/>
        <edge id=":1106006327_0" sampledSeconds="38.24" CO_abs="5182.979344" CO2_abs="169425.485638" HC_abs="27.590416" PMx_abs="3.539388" NOx_abs="74.193304" fuel_abs="72.829995" electricity_abs="0"
            CO_normed="439.655736" CO2_normed="14371.827790" HC_normed="2.340408" PMx_normed="0.300235" NOx_normed="6.293583" fuel_normed="6.177938" electricity_normed="0"
            traveltime="2.07" CO_perVeh="281.173139" CO2_perVeh="9191.218484" HC_perVeh="1.496761" PMx_perVeh="0.192009" NOx_perVeh="4.024937" fuel_perVeh="3.950978" electricity_perVeh="0"/>
        <edge id=":1106006327_1" sampledSeconds="162.09" CO_abs="22061.481251" CO2_abs="736801.592409" HC_abs="117.825815" PMx_abs="15.405430" NOx_abs="322.667714" fuel_abs="316.724397" electricity_abs="0"
            CO_normed="1631.954131" CO2_normed="54503.430142" HC_normed="8.715930" PMx_normed="1.139586" NOx_normed="23.868701" fuel_normed="23.429056" electricity_normed="0"
            traveltime="2.30" CO_perVeh="313.191160" CO2_perVeh="10459.848227" HC_perVeh="1.672689" PMx_perVeh="0.218700" NOx_perVeh="4.580684" fuel_perVeh="4.496311" electricity_perVeh="0"/>
        <edge id=":1106006327_2" sampledSeconds="0.00" CO_abs="0" CO2_abs="0" HC_abs="0" PMx_abs="0" NOx_abs="0" fuel_abs="0" electricity_abs="0"
            CO_normed="0" CO2_normed="0" HC_normed="0" PMx_normed="0" NOx_normed="0" fuel_normed="0" electricity_normed="0"/>
        <edge id=":1106006327_3" sampledSeconds="0.00" CO_abs="0" CO2_abs="0" HC_abs="0" PMx_abs="0" NOx_abs="0" fuel_abs="0" electricity_abs="0"
            CO_normed="0" CO2_normed="0" HC_normed="0" PMx_normed="0" NOx_normed="0" fuel_normed="0" electricity_normed="0"/>
        <edge id=":1107381198_0" sampledSeconds="0.00" CO_abs="0" CO2_abs="0" HC_abs="0" PMx_abs="0" NOx_abs="0" fuel_abs="0" electricity_abs="0"
            CO_normed="0" CO2_normed="0" HC_normed="0" PMx_normed="0" NOx_normed="0" fuel_normed="0" electricity_normed="0"/>
        <edge id=":1107381198_1" sampledSeconds="36.13" CO_abs="1330.623708" CO2_abs="55301.993751" HC_abs="7.331128" PMx_abs="0.939899" NOx_abs="22.801797" fuel_abs="23.772384" electricity_abs="0"
            CO_normed="109.056840" CO2_normed="4532.506551" HC_normed="0.600853" PMx_normed="0.077033" NOx_normed="1.868817" fuel_normed="1.948365" electricity_normed="0"
            traveltime="1.49" CO_perVeh="54.785468" CO2_perVeh="2276.936435" HC_perVeh="0.301843" PMx_perVeh="0.038698" NOx_perVeh="0.938813" fuel_perVeh="0.978775" electricity_perVeh="0"/>
        <edge id=":1110338277_0" sampledSeconds="97.00" CO_abs="1528.656834" CO2_abs="187203.286574" HC_abs="11.236465" PMx_abs="2.546807" NOx_abs="69.881536" fuel_abs="80.470865" electricity_abs="0"
            CO_normed="4103.164781" CO2_normed="502484.216869" HC_normed="30.160509" PMx_normed="6.836045" NOx_normed="187.573463" fuel_normed="215.996952" electricity_normed="0"
            traveltime="0.02" CO_perVeh="0.344511" CO2_perVeh="42.189712" HC_perVeh="0.002532" PMx_perVeh="0.000574" NOx_perVeh="0.015749" fuel_perVeh="0.018136" electricity_perVeh="0"/>
        <edge id=":1110338293_0" sampledSeconds="123.78" CO_abs="6260.142184" CO2_abs="430139.156512" HC_abs="38.623186" PMx_abs="7.601146" NOx_abs="176.463872" fuel_abs="184.898057" electricity_abs="0"
            CO_normed="15683.028435" CO2_normed="1077592.876440" HC_normed="96.759547" PMx_normed="19.042538" NOx_normed="442.080682" fuel_normed="463.210163" electricity_normed="0"
            traveltime="0.03" CO_perVeh="1.435877" CO2_perVeh="98.660188" HC_perVeh="0.008859" PMx_perVeh="0.001743" NOx_perVeh="0.040475" fuel_perVeh="0.042410" electricity_perVeh="0"/>
        <edge id=":1110338295_0" sampledSeconds="0.00" CO_abs="0" CO2_abs="0" HC_abs="0" PMx_abs="0" NOx_abs="0" fuel_abs="0" electricity_abs="0"
            CO_normed="0" CO2_normed="0" HC_normed="0" PMx_normed="0" NOx_normed="0" fuel_normed="0" electricity_normed="0"/>
        <edge id=":1110673403_0" sampledSeconds="159.19" CO_abs="2026.738472" CO2_abs="278463.845082" HC_abs="15.493017" PMx_abs="3.567683" NOx_abs="102.119823" fuel_abs="119.700117" electricity_abs="0"
            CO_normed="5077.424148" CO2_normed="697612.973066" HC_normed="38.813403" PMx_normed="8.937829" NOx_normed="255.832543" fuel_normed="299.875033" electricity_normed="0"
            traveltime="0.02" CO_perVeh="0.295099" CO2_perVeh="40.545114" HC_perVeh="0.002256" PMx_perVeh="0.000519" NOx_perVeh="0.014869" fuel_perVeh="0.017429" electricity_perVeh="0"/>
        <edge id=":1110673412_0" sampledSeconds="252.59" CO_abs="45002.290218" CO2_abs="3071288.156409" HC_abs="280.086563" PMx_abs="67.488356" NOx_abs="1319.808979" fuel_abs="1320.195513" electricity_abs="0"
            CO_normed="116628.208757" CO2_normed="7959569.046917" HC_normed="725.874038" PMx_normed="174.903232" NOx_normed="3420.424968" fuel_normed="3421.426714" electricity_normed="0"
            traveltime="0.02" CO_perVeh="2.766907" CO2_perVeh="188.834132" HC_perVeh="0.017221" PMx_perVeh="0.004149" NOx_perVeh="0.081147" fuel_perVeh="0.081170" electricity_perVeh="0"/>
        <edge id=":1110673414_0" sampledSeconds="0.00" CO_abs="0" CO2_abs="0" HC_abs="0" PMx_abs="0" NOx_abs="0" fuel_abs="0" electricity_abs="0"
            CO_normed="0" CO2_normed="0" HC_normed="0" PMx_normed="0" NOx_normed="0" fuel_normed="0" electricity_normed="0"/>
        <edge id=":1110673414_1" sampledSeconds="325.16" CO_abs="22399.927018" CO2_abs="848242.622883" HC_abs="121.683549" PMx_abs="15.660310" NOx_abs="358.179111" fuel_abs="364.629464" electricity_abs="0"
            CO_normed="1864.343103" CO2_normed="70599.126604" HC_normed="10.127706" PMx_normed="1.303406" NOx_normed="29.811202" fuel_normed="30.348064" electricity_normed="0"
            traveltime="1.60" CO_perVeh="110.365541" CO2_perVeh="4179.333067" HC_perVeh="0.599541" PMx_perVeh="0.077159" NOx_perVeh="1.764766" fuel_perVeh="1.796547" electricity_perVeh="0"/>
        <edge id=":1110673417_0" sampledSeconds="29.71" CO_abs="497.328477" CO2_abs="60722.620302" HC_abs="3.644633" PMx_abs="0.803757" NOx_abs="22.552918" fuel_abs="26.102147" electricity_abs="0"
            CO_normed="1334.910915" CO2_normed="162989.437137" HC_normed="9.782790" PMx_normed="2.157415" NOx_normed="60.535719" fuel_normed="70.062429" electricity_normed="0"
            traveltime="0.02" CO_perVeh="0.369124" CO2_perVeh="45.069142" HC_perVeh="0.002705" PMx_perVeh="0.000597" NOx_perVeh="0.016739" fuel_perVeh="0.019373" electricity_perVeh="0"/>
        <edge id=":1110673446_0" sampledSeconds="333.73" CO_abs="3507.763668" CO2_abs="280747.349816" HC_abs="22.629477" PMx_abs="5.174089" NOx_abs="115.072847" fuel_abs="120.680366" electricity_abs="0"
            CO_normed="8787.716914" CO2_normed="703333.652985" HC_normed="56.691801" PMx_normed="12.962227" NOx_normed="288.282707" fuel_normed="302.330770" electricity_normed="0"
            traveltime="0.02" CO_perVeh="0.239586" CO2_perVeh="19.175474" HC_perVeh="0.001546" PMx_perVeh="0.000353" NOx_perVeh="0.007860" fuel_perVeh="0.008243" electricity_perVeh="0"/>
        <edge id=":1110673451_0" sampledSeconds="37.05" CO_abs="364.182454" CO2_abs="29532.796465" HC_abs="2.334365" PMx_abs="0.409381" NOx_abs="11.316304" fuel_abs="12.694984" electricity_abs="0"
            CO_normed="1013.729865" CO2_normed="82206.809924" HC_normed="6.497886" PMx_normed="1.139542" NOx_normed="31.499801" fuel_normed="35.337464" electricity_normed="0"
            traveltime="0.03" CO_perVeh="0.261167" CO2_perVeh="21.178898" HC_perVeh="0.001674" PMx_perVeh="0.000294" NOx_perVeh="0.008115" fuel_perVeh="0.009104" electricity_perVeh="0"/>
        <edge id=":1110673464_0" sampledSeconds="322.86" CO_abs="635.698319" CO2_abs="57717.584745" HC_abs="4.205296" PMx_abs="0.722548" NOx_abs="21.481959" fuel_abs="24.810580" electricity_abs="0"
            CO_normed="33.836338" CO2_normed="3072.136017" HC_normed="0.223835" PMx_normed="0.038459" NOx_normed="1.143421" fuel_normed="1.320594" electricity_normed="0"
            traveltime="1.17" CO_perVeh="2.297969" CO2_perVeh="208.641760" HC_perVeh="0.015202" PMx_perVeh="0.002612" NOx_perVeh="0.077655" fuel_perVeh="0.089687" electricity_perVeh="0"/>
        <edge id=":1110673464_1" sampledSeconds="745.56" CO_abs="16329.145011" CO2_abs="2098878.532278" HC_abs="124.450982" PMx_abs="37.139465" NOx_abs="787.400698" fuel_abs="902.211618" electricity_abs="0"
            CO_normed="851.660396" CO2_normed="109468.788582" HC_normed="6.490846" PMx_normed="1.937040" NOx_normed="41.067551" fuel_normed="47.055612" electricity_normed="0"
            traveltime="0.70" CO_perVeh="15.365163" CO2_perVeh="1974.972431" HC_perVeh="0.117104" PMx_perVeh="0.034947" NOx_perVeh="0.740917" fuel_perVeh="0.848950" electricity_perVeh="0"/>
        <edge id=":1110673479_0" sampledSeconds="134.55" CO_abs="6761.979495" CO2_abs="467615.756615" HC_abs="41.766942" PMx_abs="8.135695" NOx_abs="190.984811" fuel_abs="201.007773" electricity_abs="0"
            CO_normed="16940.240906" CO2_normed="1171479.974818" HC_normed="104.635344" PMx_normed="20.381700" NOx_normed="478.458818" fuel_normed="503.568533" electricity_normed="0"
            traveltime="0.03" CO_perVeh="1.424474" CO2_perVeh="98.507638" HC_perVeh="0.008799" PMx_perVeh="0.001714" NOx_perVeh="0.040233" fuel_perVeh="0.042344" electricity_perVeh="0"/>
        <edge id=":1110673511_0" sampledSeconds="11.89" CO_abs="184.306858" CO2_abs="21968.631383" HC_abs="1.335372" PMx_abs="0.301229" NOx_abs="8.225303" fuel_abs="9.443395" electricity_abs="0"
            CO_normed="461.729080" CO2_normed="55036.237286" HC_normed="3.345400" PMx_normed="0.754645" NOx_normed="20.606188" fuel_normed="23.657773" electricity_normed="0"
            traveltime="0.02" CO_perVeh="0.364964" CO2_perVeh="43.502240" HC_perVeh="0.002644" PMx_perVeh="0.000596" NOx_perVeh="0.016288" fuel_perVeh="0.018700" electricity_perVeh="0"/>
        <edge id=":1110673517_0" sampledSeconds="17.21" CO_abs="685.586080" CO2_abs="51992.720983" HC_abs="4.331556" PMx_abs="0.831933" NOx_abs="20.678665" fuel_abs="22.349484" electricity_abs="0"
            CO_normed="1717.543416" CO2_normed="130253.163214" HC_normed="10.851498" PMx_normed="2.084175" NOx_normed="51.804588" fuel_normed="55.990356" electricity_normed="0"
            traveltime="0.03" CO_perVeh="1.100754" CO2_perVeh="83.477743" HC_perVeh="0.006955" PMx_perVeh="0.001336" NOx_perVeh="0.033201" fuel_perVeh="0.035884" electricity_perVeh="0"/>
        <edge id=":1110673534_0" sampledSeconds="475.96" CO_abs="3092.260740" CO2_abs="286697.484222" HC_abs="20.627053" PMx_abs="3.773634" NOx_abs="107.955840" fuel_abs="123.239927" electricity_abs="0"
            CO_normed="150.131608" CO2_normed="13919.380697" HC_normed="1.001459" PMx_normed="0.183213" NOx_normed="5.241338" fuel_normed="5.983392" electricity_normed="0"
            traveltime="1.43" CO_perVeh="9.315742" CO2_perVeh="863.704613" HC_perVeh="0.062141" PMx_perVeh="0.011368" NOx_perVeh="0.325228" fuel_perVeh="0.371273" electricity_perVeh="0"/>
        <edge id=":1110673534_1" sampledSeconds="244.74" CO_abs="3685.811374" CO2_abs="458441.326548" HC_abs="27.343249" PMx_abs="6.297399" NOx_abs="171.352988" fuel_abs="197.064645" electricity_abs="0"
            CO_normed="174.003118" CO2_normed="21642.512872" HC_normed="1.290845" PMx_normed="0.297293" NOx_normed="8.089387" fuel_normed="9.303206" electricity_normed="0"
            traveltime="1.22" CO_perVeh="18.433827" CO2_perVeh="2292.799887" HC_perVeh="0.136752" PMx_perVeh="0.031495" NOx_perVeh="0.856987" fuel_perVeh="0.985578" electricity_perVeh="0"/>
        <edge id=":1110673549_0" sampledSeconds="59.95" CO_abs="14.123904" CO2_abs="2061.449177" HC_abs="0.111315" PMx_abs="0.024459" NOx_abs="0.746122" fuel_abs="0.886134" electricity_abs="0"
            CO_normed="0.664271" CO2_normed="96.953356" HC_normed="0.005235" PMx_normed="0.001150" NOx_normed="0.035091" fuel_normed="0.041676" electricity_normed="0"
            traveltime="1.25" CO_perVeh="0.294260" CO2_perVeh="42.948538" HC_perVeh="0.002319" PMx_perVeh="0.000510" NOx_perVeh="0.015545" fuel_perVeh="0.018462" electricity_perVeh="0"/>
        <edge id=":1110673549_1" sampledSeconds="638.92" CO_abs="14890.702072" CO2_abs="1938917.732071" HC_abs="114.147725" PMx_abs="34.228539" NOx_abs="725.476941" fuel_abs="833.451919" electricity_abs="0"
            CO_normed="677.442001" CO2_normed="88209.696293" HC_normed="5.193070" PMx_normed="1.557203" NOx_normed="33.005062" fuel_normed="37.917308" electricity_normed="0"
            traveltime="0.80" CO_perVeh="18.744468" CO2_perVeh="2440.716445" HC_perVeh="0.143690" PMx_perVeh="0.043087" NOx_perVeh="0.913233" fuel_perVeh="1.049152" electricity_perVeh="0"/>
        <edge id=":1110673556_0" sampledSeconds="423.84" CO_abs="52516.788488" CO2_abs="2609254.040706" HC_abs="301.178143" PMx_abs="52.789478" NOx_abs="1125.209227" fuel_abs="1121.605499" electricity_abs="0"
            CO_normed="1831.546179" CO2_normed="90998.886374" HC_normed="10.503721" PMx_normed="1.841056" NOx_normed="39.242168" fuel_normed="39.116487" electricity_normed="0"
            traveltime="2.63" CO_perVeh="325.998615" CO2_perVeh="16196.976776" HC_perVeh="1.869567" PMx_perVeh="0.327691" NOx_perVeh="6.984750" fuel_perVeh="6.962380" electricity_perVeh="0"/>
        <edge id=":1110673556_2" sampledSeconds="249.69" CO_abs="24455.244021" CO2_abs="1052573.474331" HC_abs="136.088882" PMx_abs="20.389498" NOx_abs="449.473594" fuel_abs="452.459862" electricity_abs="0"
            CO_normed="891.786711" CO2_normed="38383.221024" HC_normed="4.962627" PMx_normed="0.743525" NOx_normed="16.390537" fuel_normed="16.499434" electricity_normed="0"
            traveltime="3.03" CO_perVeh="296.637424" CO2_perVeh="12767.514540" HC_perVeh="1.650732" PMx_perVeh="0.247321" NOx_perVeh="5.452029" fuel_perVeh="5.488251" electricity_perVeh="0"/>
        <edge id=":1110673556_3" sampledSeconds="371.99" CO_abs="32283.797187" CO2_abs="1138776.017480" HC_abs="173.532582" PMx_abs="21.914345" NOx_abs="486.861552" fuel_abs="489.519988" electricity_abs="0"
            CO_normed="2678.079099" CO2_normed="94466.342752" HC_normed="14.395270" PMx_normed="1.817889" NOx_normed="40.387249" fuel_normed="40.607777" electricity_normed="0"
            traveltime="1.77" CO_perVeh="153.475848" CO2_perVeh="5413.694507" HC_perVeh="0.824967" PMx_perVeh="0.104180" NOx_perVeh="2.314520" fuel_perVeh="2.327158" electricity_perVeh="0"/>
        <edge id=":1110673556_4" sampledSeconds="177.47" CO_abs="18574.648849" CO2_abs="745150.070502" HC_abs="102.098814" PMx_abs="14.724394" NOx_abs="320.514706" fuel_abs="320.311245" electricity_abs="0"
            CO_normed="941.339859" CO2_normed="37763.269086" HC_normed="5.174240" PMx_normed="0.746214" NOx_normed="16.243283" fuel_normed="16.232971" electricity_normed="0"
            traveltime="2.40" CO_perVeh="251.223955" CO2_perVeh="10078.228099" HC_perVeh="1.380897" PMx_perVeh="0.199149" NOx_perVeh="4.334993" fuel_perVeh="4.332241" electricity_perVeh="0"/>
        <edge id=":1110673556_5" sampledSeconds="24.28" CO_abs="1756.339431" CO2_abs="69198.730176" HC_abs="9.611101" PMx_abs="1.302514" NOx_abs="29.334844" fuel_abs="29.745989" electricity_abs="0"
            CO_normed="124.060581" CO2_normed="4887.913193" HC_normed="0.678889" PMx_normed="0.092004" NOx_normed="2.072092" fuel_normed="2.101134" electricity_normed="0"
            traveltime="1.68" CO_perVeh="121.425936" CO2_perVeh="4784.109741" HC_perVeh="0.664471" PMx_perVeh="0.090050" NOx_perVeh="2.028088" fuel_perVeh="2.056513" electricity_perVeh="0"/>
        <edge id=":1110673556_6" sampledSeconds="302.32" CO_abs="36048.756914" CO2_abs="1865381.698467" HC_abs="208.559087" PMx_abs="37.683775" NOx_abs="802.673297" fuel_abs="801.845891" electricity_abs="0"
            CO_normed="1288.915864" CO2_normed="66696.337661" HC_normed="7.456987" PMx_normed="1.347376" NOx_normed="28.699418" fuel_normed="28.669834" electricity_normed="0"
            traveltime="2.39" CO_perVeh="285.477156" CO2_perVeh="14772.322487" HC_perVeh="1.651620" PMx_perVeh="0.298425" NOx_perVeh="6.356527" fuel_perVeh="6.349974" electricity_perVeh="0"/>
        <edge id=":1110673561_0" sampledSeconds="100.44" CO_abs="9553.548521" CO2_abs="693505.903525" HC_abs="60.184658" PMx_abs="13.943290" NOx_abs="292.539445" fuel_abs="298.105187" electricity_abs="0"
            CO_normed="429.176328" CO2_normed="31154.530355" HC_normed="2.703690" PMx_normed="0.626378" NOx_normed="13.141819" fuel_normed="13.391850" electricity_normed="0"
            traveltime="1.19" CO_perVeh="112.741145" CO2_perVeh="8184.042778" HC_perVeh="0.710237" PMx_perVeh="0.164544" NOx_perVeh="3.452249" fuel_perVeh="3.517931" electricity_perVeh="0"/>
        <edge id=":1110673561_1" sampledSeconds="1313.21" CO_abs="123223.910146" CO2_abs="8510745.765426" HC_abs="767.057048" PMx_abs="178.314745" NOx_abs="3641.953434" fuel_abs="3658.358187" electricity_abs="0"
            CO_normed="5396.903958" CO2_normed="372749.715992" HC_normed="33.595211" PMx_normed="7.809747" NOx_normed="159.508596" fuel_normed="160.227084" electricity_normed="0"
            traveltime="1.19" CO_perVeh="111.828004" CO2_perVeh="7723.660999" HC_perVeh="0.696119" PMx_perVeh="0.161824" NOx_perVeh="3.305141" fuel_perVeh="3.320028" electricity_perVeh="0"/>
        <edge id=":1110673562_0" sampledSeconds="103.93" CO_abs="2458.346039" CO2_abs="194933.070465" HC_abs="15.625845" PMx_abs="2.559330" NOx_abs="73.832812" fuel_abs="83.794294" electricity_abs="0"
            CO_normed="6842.995237" CO2_normed="542611.191273" HC_normed="43.495740" PMx_normed="7.124091" NOx_normed="205.519310" fuel_normed="233.247862" electricity_normed="0"
            traveltime="0.03" CO_perVeh="0.626645" CO2_perVeh="49.689422" HC_perVeh="0.003983" PMx_perVeh="0.000652" NOx_perVeh="0.018820" fuel_perVeh="0.021360" electricity_perVeh="0"/>
        <edge id=":1110673564_0" sampledSeconds="28.55" CO_abs="482.180877" CO2_abs="53049.941908" HC_abs="3.396810" PMx_abs="0.741120" NOx_abs="20.037229" fuel_abs="22.803950" electricity_abs="0"
            CO_normed="3623.906384" CO2_normed="398705.200142" HC_normed="25.529265" PMx_normed="5.570002" NOx_normed="150.592953" fuel_normed="171.386684" electricity_normed="0"
            traveltime="7.848419e-03" CO_perVeh="0.132558" CO2_perVeh="14.584176" HC_perVeh="0.000934" PMx_perVeh="0.000204" NOx_perVeh="0.005509" fuel_perVeh="0.006269" electricity_perVeh="0"/>
        <edge id=":1110673588_0" sampledSeconds="11.66" CO_abs="202.883758" CO2_abs="24168.357225" HC_abs="1.482614" PMx_abs="0.339130" NOx_abs="9.108912" fuel_abs="10.388954" electricity_abs="0"
            CO_normed="609.921944" CO2_normed="72656.439257" HC_normed="4.457128" PMx_normed="1.019514" NOx_normed="27.383785" fuel_normed="31.231928" electricity_normed="0"
            traveltime="0.02" CO_perVeh="0.338140" CO2_perVeh="40.280595" HC_perVeh="0.002471" PMx_perVeh="0.000565" NOx_perVeh="0.015182" fuel_perVeh="0.017315" electricity_perVeh="0"/>
        <edge id=":1110673601_0" sampledSeconds="29.71" CO_abs="439.073543" CO2_abs="55822.237477" HC_abs="3.251547" PMx_abs="0.719868" NOx_abs="20.549580" fuel_abs="23.995692" electricity_abs="0"
            CO_normed="1178.545149" CO2_normed="149836.008737" HC_normed="8.727684" PMx_normed="1.932243" NOx_normed="55.158430" fuel_normed="64.408359" electricity_normed="0"
            traveltime="0.02" CO_perVeh="0.325886" CO2_perVeh="41.432012" HC_perVeh="0.002413" PMx_perVeh="0.000534" NOx_perVeh="0.015252" fuel_perVeh="0.017810" electricity_perVeh="0"/>
        <edge id=":1110673617_0" sampledSeconds="247.32" CO_abs="6524.221870" CO2_abs="788662.122815" HC_abs="48.568989" PMx_abs="14.203845" NOx_abs="298.891459" fuel_abs="339.009485" electricity_abs="0"
            CO_normed="16344.605938" CO2_normed="1975771.497656" HC_normed="121.675964" PMx_normed="35.583746" NOx_normed="748.788624" fuel_normed="849.293073" electricity_normed="0"
            traveltime="0.01" CO_perVeh="0.385479" CO2_perVeh="46.597484" HC_perVeh="0.002870" PMx_perVeh="0.000839" NOx_perVeh="0.017660" fuel_perVeh="0.020030" electricity_perVeh="0"/>
        <edge id=":1110673621_0" sampledSeconds="25.81" CO_abs="457.913967" CO2_abs="53168.277104" HC_abs="3.310646" PMx_abs="0.757392" NOx_abs="20.098845" fuel_abs="22.854785" electricity_abs="0"
            CO_normed="1376.609839" CO2_normed="159837.826785" HC_normed="9.952673" PMx_normed="2.276920" NOx_normed="60.422414" fuel_normed="68.707496" electricity_normed="0"
            traveltime="0.02" CO_perVeh="0.346905" CO2_perVeh="40.278998" HC_perVeh="0.002508" PMx_perVeh="0.000574" NOx_perVeh="0.015226" fuel_perVeh="0.017314" electricity_perVeh="0"/>
        <edge id=":1110673630_0" sampledSeconds="54.01" CO_abs="171.715424" CO2_abs="20476.248622" HC_abs="1.245005" PMx_abs="0.231704" NOx_abs="7.380336" fuel_abs="8.801955" electricity_abs="0"
            CO_normed="9.205095" CO2_normed="1097.663866" HC_normed="0.066741" PMx_normed="0.012421" NOx_normed="0.395635" fuel_normed="0.471844" electricity_normed="0"
            traveltime="1.26" CO_perVeh="4.008142" CO2_perVeh="477.951861" HC_perVeh="0.029061" PMx_perVeh="0.005408" NOx_perVeh="0.172270" fuel_perVeh="0.205453" electricity_perVeh="0"/>
        <edge id=":1110673630_1" sampledSeconds="7.28" CO_abs="38.001399" CO2_abs="3349.191942" HC_abs="0.249715" PMx_abs="0.045735" NOx_abs="1.276327" fuel_abs="1.439684" electricity_abs="0"
            CO_normed="2.483526" CO2_normed="218.881565" HC_normed="0.016320" PMx_normed="0.002989" NOx_normed="0.083413" fuel_normed="0.094088" electricity_normed="0"
            traveltime="1.03" CO_perVeh="5.378660" CO2_perVeh="474.039475" HC_perVeh="0.035344" PMx_perVeh="0.006473" NOx_perVeh="0.180649" fuel_perVeh="0.203771" electricity_perVeh="0"/>
        <edge id=":1110673650_0" sampledSeconds="158.02" CO_abs="2546.910844" CO2_abs="308425.735386" HC_abs="18.600266" PMx_abs="4.273093" NOx_abs="115.583814" fuel_abs="132.579227" electricity_abs="0"
            CO_normed="6380.569964" CO2_normed="772674.076122" HC_normed="46.597744" PMx_normed="10.705035" NOx_normed="289.562790" fuel_normed="332.140026" electricity_normed="0"
            traveltime="0.02" CO_perVeh="0.371517" CO2_perVeh="44.989957" HC_perVeh="0.002713" PMx_perVeh="0.000623" NOx_perVeh="0.016860" fuel_perVeh="0.019339" electricity_perVeh="0"/>
        <edge id=":1110673655_0" sampledSeconds="44.96" CO_abs="759.217727" CO2_abs="83472.337062" HC_abs="5.376808" PMx_abs="1.162970" NOx_abs="31.509646" fuel_abs="35.881276" electricity_abs="0"
            CO_normed="1902.006831" CO2_normed="209116.502034" HC_normed="13.470082" PMx_normed="2.913494" NOx_normed="78.938570" fuel_normed="89.890462" electricity_normed="0"
            traveltime="0.02" CO_perVeh="0.406325" CO2_perVeh="44.673448" HC_perVeh="0.002878" PMx_perVeh="0.000622" NOx_perVeh="0.016864" fuel_perVeh="0.019203" electricity_perVeh="0"/>
        <edge id=":1110673663_0" sampledSeconds="108.65" CO_abs="2018.811858" CO2_abs="222626.168182" HC_abs="14.330345" PMx_abs="3.245364" NOx_abs="84.791848" fuel_abs="95.697495" electricity_abs="0"
            CO_normed="92.629418" CO2_normed="10214.786675" HC_normed="0.657521" PMx_normed="0.148907" NOx_normed="3.890516" fuel_normed="4.390901" electricity_normed="0"
            traveltime="1.28" CO_perVeh="23.711898" CO2_perVeh="2614.849370" HC_perVeh="0.168317" PMx_perVeh="0.038118" NOx_perVeh="0.995920" fuel_perVeh="1.124012" electricity_perVeh="0"/>
        <edge id=":1110673663_1" sampledSeconds="153.73" CO_abs="2598.345567" CO2_abs="318959.088195" HC_abs="19.194114" PMx_abs="4.473383" NOx_abs="119.788708" fuel_abs="137.106988" electricity_abs="0"
            CO_normed="119.365988" CO2_normed="14652.734118" HC_normed="0.881763" PMx_normed="0.205504" NOx_normed="5.503001" fuel_normed="6.298589" electricity_normed="0"
            traveltime="1.25" CO_perVeh="21.062066" CO2_perVeh="2585.467196" HC_perVeh="0.155587" PMx_perVeh="0.036261" NOx_perVeh="0.971002" fuel_perVeh="1.111383" electricity_perVeh="0"/>
        <edge id=":1110673666_0" sampledSeconds="255.03" CO_abs="5437.878306" CO2_abs="437692.382561" HC_abs="34.712803" PMx_abs="5.731494" NOx_abs="165.614740" fuel_abs="188.147226" electricity_abs="0"