<?xml version="1.0" encoding="UTF-8"?>

<!-- generated on Tue Nov 10 04:26:33 2020 by Eclipse SUMO sumo Version 1.7.0
<configuration xmlns:xsi="http://www.w3.org/2001/XMLSchema-instance" xsi:noNamespaceSchemaLocation="http://sumo.dlr.de/xsd/sumoConfiguration.xsd">

    <input>
        <net-file value="../dataSets/Porto/8AM9AM_Routing_SaoBento/Porto.net.xml"/>
        <route-files value="../results/Porto/8AM9AM_Routing_SaoBento/cost_co2-ttime/solution3/Porto.rou.xml"/>
        <additional-files value="moreOutputInfo.xml"/>
    </input>

    <output>
        <emission-output.precision value="6"/>
        <tripinfo-output value="../results/Porto/8AM9AM_Routing_SaoBento/cost_co2-ttime/solution3/Porto-tripinfo"/>
    </output>

    <processing>
        <collision.action value="warn"/>
        <time-to-teleport value="-1"/>
    </processing>

    <emissions>
        <device.emissions.probability value="1"/>
    </emissions>

    <gui_only>
        <quit-on-end value="true"/>
        <start value="true"/>
    </gui_only>

</configuration>
-->

<meandata xmlns:xsi="http://www.w3.org/2001/XMLSchema-instance" xsi:noNamespaceSchemaLocation="http://sumo.dlr.de/xsd/meandata_file.xsd">
    <interval begin="0.00" end="8561.00" id="emissions-detector">
        <edge id=":1092997347_0" sampledSeconds="603.14" CO_abs="72806.442374" CO2_abs="3087403.495553" HC_abs="404.550278" PMx_abs="62.522250" NOx_abs="1336.508525" fuel_abs="1327.149821" electricity_abs="0"
            CO_normed="69581.716385" CO2_normed="2950656.938971" HC_normed="386.632032" PMx_normed="59.753029" NOx_normed="1277.312201" fuel_normed="1268.368011" electricity_normed="0"
            traveltime="0.07" CO_perVeh="8.332228" CO2_perVeh="353.333449" HC_perVeh="0.046298" PMx_perVeh="0.007155" NOx_perVeh="0.152955" fuel_perVeh="0.151884" electricity_perVeh="0"/>
        <edge id=":1103427051_0" sampledSeconds="19.28" CO_abs="1659.818341" CO2_abs="93858.860692" HC_abs="9.786830" PMx_abs="1.842344" NOx_abs="40.045862" fuel_abs="40.345763" electricity_abs="0"
            CO_normed="2406.803116" CO2_normed="136099.109632" HC_normed="14.191296" PMx_normed="2.671473" NOx_normed="58.068105" fuel_normed="58.502973" electricity_normed="0"
            traveltime="0.03" CO_perVeh="2.581228" CO2_perVeh="145.962407" HC_perVeh="0.015220" PMx_perVeh="0.002865" NOx_perVeh="0.062276" fuel_perVeh="0.062743" electricity_perVeh="0"/>
        <edge id=":1105984386_0" sampledSeconds="10.73" CO_abs="222.770179" CO2_abs="16068.974983" HC_abs="1.382612" PMx_abs="0.231288" NOx_abs="6.246600" fuel_abs="6.907423" electricity_abs="0"
            CO_normed="9.647523" CO2_normed="695.900179" HC_normed="0.059877" PMx_normed="0.010016" NOx_normed="0.270522" fuel_normed="0.299140" electricity_normed="0"
            traveltime="1.03" CO_perVeh="21.370267" CO2_perVeh="1541.491277" HC_perVeh="0.132633" PMx_perVeh="0.022187" NOx_perVeh="0.599234" fuel_perVeh="0.662627" electricity_perVeh="0"/>
        <edge id=":1105984390_0" sampledSeconds="10.36" CO_abs="24.648483" CO2_abs="3025.731861" HC_abs="0.183646" PMx_abs="0.048206" NOx_abs="1.163527" fuel_abs="1.300626" electricity_abs="0"
            CO_normed="0.825237" CO2_normed="101.302183" HC_normed="0.006149" PMx_normed="0.001614" NOx_normed="0.038955" fuel_normed="0.043545" electricity_normed="0"
            traveltime="1.07" CO_perVeh="2.554964" CO2_perVeh="313.635324" HC_perVeh="0.019036" PMx_perVeh="0.004997" NOx_perVeh="0.120607" fuel_perVeh="0.134818" electricity_perVeh="0"/>
        <edge id=":1105984390_1" sampledSeconds="2396.00" CO_abs="62055.981819" CO2_abs="7398599.281129" HC_abs="458.761770" PMx_abs="133.424944" NOx_abs="2812.051567" fuel_abs="3180.316325" electricity_abs="0"
            CO_normed="1987.453282" CO2_normed="236953.312090" HC_normed="14.692662" PMx_normed="4.273171" NOx_normed="90.060957" fuel_normed="101.855292" electricity_normed="0"
            traveltime="0.65" CO_perVeh="16.755592" CO2_perVeh="1997.678634" HC_perVeh="0.123869" PMx_perVeh="0.036026" NOx_perVeh="0.759276" fuel_perVeh="0.858710" electricity_perVeh="0"/>
        <edge id=":1105984395_0" sampledSeconds="4.19" CO_abs="36.019327" CO2_abs="2659.176631" HC_abs="0.225577" PMx_abs="0.041268" NOx_abs="1.051488" fuel_abs="1.143071" electricity_abs="0"
            CO_normed="16.463637" CO2_normed="1215.450739" HC_normed="0.103106" PMx_normed="0.018863" NOx_normed="0.480612" fuel_normed="0.522472" electricity_normed="0"
            traveltime="0.10" CO_perVeh="0.834915" CO2_perVeh="61.638763" HC_perVeh="0.005229" PMx_perVeh="0.000957" NOx_perVeh="0.024373" fuel_perVeh="0.026496" electricity_perVeh="0"/>
        <edge id=":1105984398_0" sampledSeconds="10.80" CO_abs="706.053735" CO2_abs="47896.619056" HC_abs="4.343447" PMx_abs="0.858976" NOx_abs="19.752857" fuel_abs="20.588653" electricity_abs="0"
            CO_normed="24.557800" CO2_normed="1665.929280" HC_normed="0.151073" PMx_normed="0.029877" NOx_normed="0.687039" fuel_normed="0.716110" electricity_normed="0"
            traveltime="1.15" CO_perVeh="74.948331" CO2_perVeh="5084.275424" HC_perVeh="0.461061" PMx_perVeh="0.091181" NOx_perVeh="2.096786" fuel_perVeh="2.185507" electricity_perVeh="0"/>
        <edge id=":1105984398_1" sampledSeconds="647.38" CO_abs="11703.448587" CO2_abs="1352208.786423" HC_abs="84.495571" PMx_abs="19.694572" NOx_abs="513.451211" fuel_abs="581.256581" electricity_abs="0"
            CO_normed="394.030116" CO2_normed="45525.981642" HC_normed="2.844785" PMx_normed="0.663074" NOx_normed="17.286806" fuel_normed="19.569668" electricity_normed="0"
            traveltime="0.95" CO_perVeh="17.226352" CO2_perVeh="1990.321488" HC_perVeh="0.124369" PMx_perVeh="0.028989" NOx_perVeh="0.755751" fuel_perVeh="0.855554" electricity_perVeh="0"/>
        <edge id=":1106006327_0" sampledSeconds="386.99" CO_abs="52104.500355" CO2_abs="1695075.317059" HC_abs="277.149264" PMx_abs="35.324599" NOx_abs="741.785575" fuel_abs="728.652976" electricity_abs="0"
            CO_normed="2472.973813" CO2_normed="80451.339931" HC_normed="13.154005" PMx_normed="1.676569" NOx_normed="35.206485" fuel_normed="34.583188" electricity_normed="0"
            traveltime="2.08" CO_perVeh="280.327344" CO2_perVeh="9119.672160" HC_perVeh="1.491090" PMx_perVeh="0.190050" NOx_perVeh="3.990879" fuel_perVeh="3.920225" electricity_perVeh="0"/>
        <edge id=":1106006327_1" sampledSeconds="683.16" CO_abs="92538.229660" CO2_abs="3092424.503328" HC_abs="494.248579" PMx_abs="64.535408" NOx_abs="1353.541239" fuel_abs="1329.321751" electricity_abs="0"
            CO_normed="3830.059163" CO2_normed="127992.169810" HC_normed="20.456424" PMx_normed="2.671052" NOx_normed="56.021636" fuel_normed="55.019217" electricity_normed="0"
            traveltime="2.29" CO_perVeh="310.628438" CO2_perVeh="10380.520547" HC_perVeh="1.659073" PMx_perVeh="0.216630" NOx_perVeh="4.543510" fuel_perVeh="4.462211" electricity_perVeh="0"/>
        <edge id=":1106006327_2" sampledSeconds="0.00" CO_abs="0" CO2_abs="0" HC_abs="0" PMx_abs="0" NOx_abs="0" fuel_abs="0" electricity_abs="0"
            CO_normed="0" CO2_normed="0" HC_normed="0" PMx_normed="0" NOx_normed="0" fuel_normed="0" electricity_normed="0"/>
        <edge id=":1106006327_3" sampledSeconds="0.00" CO_abs="0" CO2_abs="0" HC_abs="0" PMx_abs="0" NOx_abs="0" fuel_abs="0" electricity_abs="0"
            CO_normed="0" CO2_normed="0" HC_normed="0" PMx_normed="0" NOx_normed="0" fuel_normed="0" electricity_normed="0"/>
        <edge id=":1107381198_0" sampledSeconds="0.00" CO_abs="0" CO2_abs="0" HC_abs="0" PMx_abs="0" NOx_abs="0" fuel_abs="0" electricity_abs="0"
            CO_normed="0" CO2_normed="0" HC_normed="0" PMx_normed="0" NOx_normed="0" fuel_normed="0" electricity_normed="0"/>
        <edge id=":1107381198_1" sampledSeconds="104.91" CO_abs="4677.230901" CO2_abs="185700.190933" HC_abs="25.583913" PMx_abs="3.268381" NOx_abs="77.348634" fuel_abs="79.825990" electricity_abs="0"
            CO_normed="214.485273" CO2_normed="8515.713041" HC_normed="1.173210" PMx_normed="0.149879" NOx_normed="3.547001" fuel_normed="3.660606" electricity_normed="0"
            traveltime="1.57" CO_perVeh="70.027115" CO2_perVeh="2780.287929" HC_perVeh="0.383040" PMx_perVeh="0.048934" NOx_perVeh="1.158057" fuel_perVeh="1.195148" electricity_perVeh="0"/>
        <edge id=":1110338277_0" sampledSeconds="160.38" CO_abs="2469.505868" CO2_abs="311506.102188" HC_abs="18.355226" PMx_abs="4.127271" NOx_abs="115.560052" fuel_abs="133.903556" electricity_abs="0"
            CO_normed="3708.771140" CO2_normed="467828.344434" HC_normed="27.566379" PMx_normed="6.198448" NOx_normed="173.551231" fuel_normed="201.100006" electricity_normed="0"
            traveltime="0.02" CO_perVeh="0.334471" CO2_perVeh="42.190511" HC_perVeh="0.002486" PMx_perVeh="0.000559" NOx_perVeh="0.015651" fuel_perVeh="0.018136" electricity_perVeh="0"/>
        <edge id=":1110338293_0" sampledSeconds="6562.39" CO_abs="609815.808591" CO2_abs="10678272.792805" HC_abs="3026.526488" PMx_abs="254.787246" NOx_abs="4826.965586" fuel_abs="4590.409440" electricity_abs="0"
            CO_normed="854782.116937" CO2_normed="14967792.724408" HC_normed="4242.298546" PMx_normed="357.136661" NOx_normed="6765.983768" fuel_normed="6434.401739" electricity_normed="0"
            traveltime="0.44" CO_perVeh="40.782959" CO2_perVeh="714.136228" HC_perVeh="0.202407" PMx_perVeh="0.017040" NOx_perVeh="0.322815" fuel_perVeh="0.306995" electricity_perVeh="0"/>
        <edge id=":1110338295_0" sampledSeconds="0.00" CO_abs="0" CO2_abs="0" HC_abs="0" PMx_abs="0" NOx_abs="0" fuel_abs="0" electricity_abs="0"
            CO_normed="0" CO2_normed="0" HC_normed="0" PMx_normed="0" NOx_normed="0" fuel_normed="0" electricity_normed="0"/>
        <edge id=":1110673403_0" sampledSeconds="201.04" CO_abs="2860.936304" CO2_abs="380134.248072" HC_abs="21.676741" PMx_abs="5.015306" NOx_abs="140.482022" fuel_abs="163.403887" electricity_abs="0"
            CO_normed="4010.189890" CO2_normed="532836.231383" HC_normed="30.384405" PMx_normed="7.029982" NOx_normed="196.914410" fuel_normed="229.044113" electricity_normed="0"
            traveltime="0.02" CO_perVeh="0.330655" CO2_perVeh="43.934352" HC_perVeh="0.002505" PMx_perVeh="0.000580" NOx_perVeh="0.016236" fuel_perVeh="0.018886" electricity_perVeh="0"/>
        <edge id=":1110673412_0" sampledSeconds="939.04" CO_abs="166026.456567" CO2_abs="11343702.804017" HC_abs="1033.599692" PMx_abs="249.205555" NOx_abs="4873.483935" fuel_abs="4876.099150" electricity_abs="0"
            CO_normed="240745.015946" CO2_normed="16448823.693035" HC_normed="1498.760978" PMx_normed="361.358043" NOx_normed="7066.747022" fuel_normed="7070.539189" electricity_normed="0"
            traveltime="0.02" CO_perVeh="2.743107" CO2_perVeh="187.421906" HC_perVeh="0.017077" PMx_perVeh="0.004117" NOx_perVeh="0.080520" fuel_perVeh="0.080563" electricity_perVeh="0"/>
        <edge id=":1110673414_0" sampledSeconds="0.00" CO_abs="0" CO2_abs="0" HC_abs="0" PMx_abs="0" NOx_abs="0" fuel_abs="0" electricity_abs="0"
            CO_normed="0" CO2_normed="0" HC_normed="0" PMx_normed="0" NOx_normed="0" fuel_normed="0" electricity_normed="0"/>
        <edge id=":1110673414_1" sampledSeconds="6.79" CO_abs="456.545409" CO2_abs="18620.551186" HC_abs="2.511372" PMx_abs="0.339798" NOx_abs="7.833742" fuel_abs="8.004292" electricity_abs="0"
            CO_normed="21.260537" CO2_normed="867.127153" HC_normed="0.116950" PMx_normed="0.015824" NOx_normed="0.364804" fuel_normed="0.372746" electricity_normed="0"
            traveltime="1.48" CO_perVeh="99.724360" CO2_perVeh="4067.333750" HC_perVeh="0.548565" PMx_perVeh="0.074223" NOx_perVeh="1.711144" fuel_perVeh="1.748398" electricity_perVeh="0"/>
        <edge id=":1110673417_0" sampledSeconds="28.90" CO_abs="539.696940" CO2_abs="63045.436776" HC_abs="3.886240" PMx_abs="0.875896" NOx_abs="23.687659" fuel_abs="27.100584" electricity_abs="0"
            CO_normed="810.531557" CO2_normed="94683.353244" HC_normed="5.836462" PMx_normed="1.315444" NOx_normed="35.574772" fuel_normed="40.700395" electricity_normed="0"
            traveltime="0.02" CO_perVeh="0.411545" CO2_perVeh="48.075172" HC_perVeh="0.002963" PMx_perVeh="0.000668" NOx_perVeh="0.018063" fuel_perVeh="0.020665" electricity_perVeh="0"/>
        <edge id=":1110673446_0" sampledSeconds="1313.24" CO_abs="13309.450465" CO2_abs="1094888.975838" HC_abs="86.483203" PMx_abs="19.831549" NOx_abs="445.993667" fuel_abs="470.642646" electricity_abs="0"
            CO_normed="18655.928698" CO2_normed="1534711.798861" HC_normed="121.223973" PMx_normed="27.797990" NOx_normed="625.151736" fuel_normed="659.702343" electricity_normed="0"
            traveltime="0.02" CO_perVeh="0.230854" CO2_perVeh="18.990980" HC_perVeh="0.001500" PMx_perVeh="0.000344" NOx_perVeh="0.007736" fuel_perVeh="0.008163" electricity_perVeh="0"/>
        <edge id=":1110673451_0" sampledSeconds="36.47" CO_abs="467.233267" CO2_abs="33109.897675" HC_abs="2.885718" PMx_abs="0.474995" NOx_abs="12.861056" fuel_abs="14.232657" electricity_abs="0"
            CO_normed="727.692664" CO2_normed="51567.025153" HC_normed="4.494363" PMx_normed="0.739782" NOx_normed="20.030458" fuel_normed="22.166659" electricity_normed="0"
            traveltime="0.03" CO_perVeh="0.344248" CO2_perVeh="24.394674" HC_perVeh="0.002126" PMx_perVeh="0.000350" NOx_perVeh="0.009476" fuel_perVeh="0.010486" electricity_perVeh="0"/>
        <edge id=":1110673464_0" sampledSeconds="1028.32" CO_abs="3881.472818" CO2_abs="277270.068275" HC_abs="24.037886" PMx_abs="4.051080" NOx_abs="108.042864" fuel_abs="119.187493" electricity_abs="0"
            CO_normed="115.595215" CO2_normed="8257.456535" HC_normed="0.715879" PMx_normed="0.120646" NOx_normed="3.217654" fuel_normed="3.549556" electricity_normed="0"
            traveltime="1.22" CO_perVeh="4.602886" CO2_perVeh="328.803682" HC_perVeh="0.028506" PMx_perVeh="0.004804" NOx_perVeh="0.128124" fuel_perVeh="0.141340" electricity_perVeh="0"/>
        <edge id=":1110673464_1" sampledSeconds="2610.92" CO_abs="62992.479963" CO2_abs="7654647.926138" HC_abs="469.353896" PMx_abs="136.924404" NOx_abs="2904.092958" fuel_abs="3290.380371" electricity_abs="0"
            CO_normed="1838.242190" CO2_normed="223377.405891" HC_normed="13.696653" PMx_normed="3.995718" NOx_normed="84.747040" fuel_normed="96.019652" electricity_normed="0"
            traveltime="0.72" CO_perVeh="17.363622" CO2_perVeh="2109.972691" HC_perVeh="0.129376" PMx_perVeh="0.037743" NOx_perVeh="0.800501" fuel_perVeh="0.906980" electricity_perVeh="0"/>
        <edge id=":1110673479_0" sampledSeconds="134.88" CO_abs="6251.487087" CO2_abs="427063.669576" HC_abs="38.504195" PMx_abs="7.516670" NOx_abs="175.028758" fuel_abs="183.576114" electricity_abs="0"
            CO_normed="8762.743259" CO2_normed="598617.455311" HC_normed="53.971538" PMx_normed="10.536157" NOx_normed="245.338756" fuel_normed="257.319631" electricity_normed="0"
            traveltime="0.03" CO_perVeh="1.321631" CO2_perVeh="90.285836" HC_perVeh="0.008140" PMx_perVeh="0.001589" NOx_perVeh="0.037003" fuel_perVeh="0.038810" electricity_perVeh="0"/>
        <edge id=":1110673511_0" sampledSeconds="63.00" CO_abs="1226.572367" CO2_abs="128558.373794" HC_abs="8.547969" PMx_abs="1.833389" NOx_abs="48.902167" fuel_abs="55.261857" electricity_abs="0"
            CO_normed="1719.293121" CO2_normed="180200.967823" HC_normed="11.981734" PMx_normed="2.569871" NOx_normed="68.546432" fuel_normed="77.460844" electricity_normed="0"
            traveltime="0.02" CO_perVeh="0.470102" CO2_perVeh="49.271891" HC_perVeh="0.003276" PMx_perVeh="0.000703" NOx_perVeh="0.018742" fuel_perVeh="0.021180" electricity_perVeh="0"/>
        <edge id=":1110673517_0" sampledSeconds="182.37" CO_abs="8100.185406" CO2_abs="576185.958623" HC_abs="50.399304" PMx_abs="9.907052" NOx_abs="234.171482" fuel_abs="247.677426" electricity_abs="0"
            CO_normed="11354.073691" CO2_normed="807642.974357" HC_normed="70.644977" PMx_normed="13.886769" NOx_normed="328.239433" fuel_normed="347.170787" electricity_normed="0"
            traveltime="0.03" CO_perVeh="1.240206" CO2_perVeh="88.218855" HC_perVeh="0.007717" PMx_perVeh="0.001517" NOx_perVeh="0.035854" fuel_perVeh="0.037921" electricity_perVeh="0"/>
        <edge id=":1110673534_0" sampledSeconds="658.38" CO_abs="4340.145214" CO2_abs="361227.588413" HC_abs="28.013007" PMx_abs="4.874311" NOx_abs="137.346847" fuel_abs="155.277615" electricity_abs="0"
            CO_normed="117.899322" CO2_normed="9812.687292" HC_normed="0.760969" PMx_normed="0.132410" NOx_normed="3.731004" fuel_normed="4.218091" electricity_normed="0"
            traveltime="1.45" CO_perVeh="9.543354" CO2_perVeh="794.287429" HC_perVeh="0.061597" PMx_perVeh="0.010718" NOx_perVeh="0.302006" fuel_perVeh="0.341433" electricity_perVeh="0"/>
        <edge id=":1110673534_1" sampledSeconds="263.24" CO_abs="4031.675576" CO2_abs="523734.595301" HC_abs="30.344054" PMx_abs="7.034528" NOx_abs="194.435547" fuel_abs="225.131586" electricity_abs="0"
            CO_normed="106.492867" CO2_normed="13833.950026" HC_normed="0.801509" PMx_normed="0.185810" NOx_normed="5.135830" fuel_normed="5.946636" electricity_normed="0"
            traveltime="1.22" CO_perVeh="18.705963" CO2_perVeh="2429.997131" HC_perVeh="0.140789" PMx_perVeh="0.032638" NOx_perVeh="0.902132" fuel_perVeh="1.044554" electricity_perVeh="0"/>
        <edge id=":1110673549_0" sampledSeconds="652.35" CO_abs="1373.071554" CO2_abs="130467.663388" HC_abs="9.221329" PMx_abs="1.819323" NOx_abs="49.285797" fuel_abs="56.082756" electricity_abs="0"
            CO_normed="36.132199" CO2_normed="3433.239600" HC_normed="0.242658" PMx_normed="0.047875" NOx_normed="1.296949" fuel_normed="1.475810" electricity_normed="0"
            traveltime="1.30" CO_perVeh="2.727966" CO2_perVeh="259.208138" HC_perVeh="0.018321" PMx_perVeh="0.003615" NOx_perVeh="0.097919" fuel_perVeh="0.111423" electricity_perVeh="0"/>
        <edge id=":1110673549_1" sampledSeconds="3198.78" CO_abs="71267.638082" CO2_abs="9278341.633374" HC_abs="545.709225" PMx_abs="163.422643" NOx_abs="3473.654003" fuel_abs="3988.334100" electricity_abs="0"
            CO_normed="1814.096254" CO2_normed="236177.390685" HC_normed="13.890864" PMx_normed="4.159874" NOx_normed="88.420816" fuel_normed="101.521843" electricity_normed="0"
            traveltime="0.81" CO_perVeh="17.978295" CO2_perVeh="2340.596149" HC_perVeh="0.137663" PMx_perVeh="0.041226" NOx_perVeh="0.876280" fuel_perVeh="1.006115" electricity_perVeh="0"/>
        <edge id=":1110673556_0" sampledSeconds="470.44" CO_abs="57837.148400" CO2_abs="2756394.658748" HC_abs="328.811777" PMx_abs="55.709503" NOx_abs="1188.837218" fuel_abs="1184.856938" electricity_abs="0"
            CO_normed="1128.593648" CO2_normed="53786.356851" HC_normed="6.416203" PMx_normed="1.087076" NOx_normed="23.198138" fuel_normed="23.120469" electricity_normed="0"
            traveltime="2.77" CO_perVeh="340.944429" CO2_perVeh="16248.681483" HC_perVeh="1.938314" PMx_perVeh="0.328402" NOx_perVeh="7.008081" fuel_perVeh="6.984618" electricity_perVeh="0"/>
        <edge id=":1110673556_2" sampledSeconds="175.24" CO_abs="17550.885019" CO2_abs="752428.459106" HC_abs="97.605569" PMx_abs="14.630208" NOx_abs="321.684533" fuel_abs="323.439320" electricity_abs="0"
            CO_normed="358.095640" CO2_normed="15352.009322" HC_normed="1.991474" PMx_normed="0.298504" NOx_normed="6.563420" fuel_normed="6.599223" electricity_normed="0"
            traveltime="3.03" CO_perVeh="303.479881" CO2_perVeh="13010.563244" HC_perVeh="1.687740" PMx_perVeh="0.252977" NOx_perVeh="5.562385" fuel_perVeh="5.592728" electricity_perVeh="0"/>
        <edge id=":1110673556_3" sampledSeconds="347.79" CO_abs="34595.282093" CO2_abs="1213328.611552" HC_abs="185.919168" PMx_abs="24.019067" NOx_abs="522.979775" fuel_abs="521.566695" electricity_abs="0"
            CO_normed="1605.708411" CO2_normed="56315.538967" HC_normed="8.629268" PMx_normed="1.114823" NOx_normed="24.273628" fuel_normed="24.208042" electricity_normed="0"
            traveltime="1.81" CO_perVeh="180.128470" CO2_perVeh="6317.480689" HC_perVeh="0.968032" PMx_perVeh="0.125061" NOx_perVeh="2.723017" fuel_perVeh="2.715660" electricity_perVeh="0"/>
        <edge id=":1110673556_4" sampledSeconds="77.18" CO_abs="8820.062964" CO2_abs="341080.026405" HC_abs="48.181918" PMx_abs="6.796666" NOx_abs="147.115577" fuel_abs="146.617315" electricity_abs="0"
            CO_normed="250.097032" CO2_normed="9671.484511" HC_normed="1.366221" PMx_normed="0.192723" NOx_normed="4.171531" fuel_normed="4.157403" electricity_normed="0"
            traveltime="2.54" CO_perVeh="290.450623" CO2_perVeh="11231.995363" HC_perVeh="1.586663" PMx_perVeh="0.223819" NOx_perVeh="4.844615" fuel_perVeh="4.828207" electricity_perVeh="0"/>
        <edge id=":1110673556_5" sampledSeconds="22.40" CO_abs="1271.096636" CO2_abs="56396.734889" HC_abs="7.088408" PMx_abs="0.958379" NOx_abs="23.215825" fuel_abs="24.242906" electricity_abs="0"
            CO_normed="50.235988" CO2_normed="2228.898730" HC_normed="0.280146" PMx_normed="0.037877" NOx_normed="0.917530" fuel_normed="0.958123" electricity_normed="0"
            traveltime="1.55" CO_perVeh="87.878286" CO2_perVeh="3899.033523" HC_perVeh="0.490063" PMx_perVeh="0.066258" NOx_perVeh="1.605045" fuel_perVeh="1.676053" electricity_perVeh="0"/>
        <edge id=":1110673556_6" sampledSeconds="544.26" CO_abs="63898.817409" CO2_abs="3109838.009079" HC_abs="364.800232" PMx_abs="62.611295" NOx_abs="1339.759593" fuel_abs="1336.786422" electricity_abs="0"
            CO_normed="1278.315670" CO2_normed="62213.274350" HC_normed="7.297942" PMx_normed="1.252558" NOx_normed="26.802306" fuel_normed="26.742827" electricity_normed="0"
            traveltime="2.64" CO_perVeh="310.242886" CO2_perVeh="15098.951104" HC_perVeh="1.771186" PMx_perVeh="0.303992" NOx_perVeh="6.504829" fuel_perVeh="6.490394" electricity_perVeh="0"/>
        <edge id=":1110673561_0" sampledSeconds="102.54" CO_abs="9150.860305" CO2_abs="664574.624023" HC_abs="57.630252" PMx_abs="13.287302" NOx_abs="280.112222" fuel_abs="285.669088" electricity_abs="0"
            CO_normed="230.008554" CO2_normed="16704.205224" HC_normed="1.448547" PMx_normed="0.333979" NOx_normed="7.040672" fuel_normed="7.180345" electricity_normed="0"
            traveltime="1.21" CO_perVeh="107.989033" CO2_perVeh="7842.625599" HC_perVeh="0.680093" PMx_perVeh="0.156803" NOx_perVeh="3.305596" fuel_perVeh="3.371173" electricity_perVeh="0"/>
        <edge id=":1110673561_1" sampledSeconds="5185.29" CO_abs="484055.850074" CO2_abs="33609348.080033" HC_abs="3017.114015" PMx_abs="701.615318" NOx_abs="14361.162789" fuel_abs="14447.036219" electricity_abs="0"
            CO_normed="11861.952849" CO2_normed="823608.478521" HC_normed="73.935403" PMx_normed="17.193321" NOx_normed="351.925167" fuel_normed="354.029525" electricity_normed="0"
            traveltime="1.19" CO_perVeh="111.176954" CO2_perVeh="7719.326047" HC_perVeh="0.692965" PMx_perVeh="0.161146" NOx_perVeh="3.298442" fuel_perVeh="3.318166" electricity_perVeh="0"/>
        <edge id=":1110673562_0" sampledSeconds="300.33" CO_abs="6923.233851" CO2_abs="531030.117095" HC_abs="43.637631" PMx_abs="7.238282" NOx_abs="203.242634" fuel_abs="228.269346" electricity_abs="0"
            CO_normed="10782.593701" CO2_normed="827053.096749" HC_normed="67.963449" PMx_normed="11.273265" NOx_normed="316.540333" fuel_normed="355.518197" electricity_normed="0"
            traveltime="0.03" CO_perVeh="0.620609" CO2_perVeh="47.602301" HC_perVeh="0.003912" PMx_perVeh="0.000649" NOx_perVeh="0.018219" fuel_perVeh="0.020462" electricity_perVeh="0"/>
        <edge id=":1110673564_0" sampledSeconds="27.85" CO_abs="354.064665" CO2_abs="46515.167054" HC_abs="2.675359" PMx_abs="0.596045" NOx_abs="17.110864" fuel_abs="19.994962" electricity_abs="0"
            CO_normed="1488.883069" CO2_normed="195601.683674" HC_normed="11.250195" PMx_normed="2.506437" NOx_normed="71.953171" fuel_normed="84.081140" electricity_normed="0"
            traveltime="7.867243e-03" CO_perVeh="0.100004" CO2_perVeh="13.138022" HC_perVeh="0.000756" PMx_perVeh="0.000168" NOx_perVeh="0.004833" fuel_perVeh="0.005647" electricity_perVeh="0"/>
        <edge id=":1110673588_0" sampledSeconds="62.57" CO_abs="1369.365159" CO2_abs="144796.610962" HC_abs="9.575964" PMx_abs="2.075333" NOx_abs="55.092446" fuel_abs="62.241974" electricity_abs="0"
            CO_normed="2303.335858" CO2_normed="243554.631217" HC_normed="16.107217" PMx_normed="3.490807" NOx_normed="92.668056" fuel_normed="104.693894" electricity_normed="0"
            traveltime="0.02" CO_perVeh="0.441731" CO2_perVeh="46.708584" HC_perVeh="0.003089" PMx_perVeh="0.000669" NOx_perVeh="0.017772" fuel_perVeh="0.020078" electricity_perVeh="0"/>
        <edge id=":1110673601_0" sampledSeconds="28.89" CO_abs="343.628651" CO2_abs="43381.996650" HC_abs="2.531718" PMx_abs="0.568382" NOx_abs="16.037022" fuel_abs="18.648128" electricity_abs="0"
            CO_normed="516.070863" CO2_normed="65152.263562" HC_normed="3.802203" PMx_normed="0.853612" NOx_normed="24.084837" fuel_normed="28.006267" electricity_normed="0"
            traveltime="0.02" CO_perVeh="0.262033" CO2_perVeh="33.080855" HC_perVeh="0.001931" PMx_perVeh="0.000433" NOx_perVeh="0.012229" fuel_perVeh="0.014220" electricity_perVeh="0"/>
        <edge id=":1110673617_0" sampledSeconds="855.68" CO_abs="33404.868012" CO2_abs="3366926.494768" HC_abs="232.735862" PMx_abs="63.553269" NOx_abs="1321.251962" fuel_abs="1447.284033" electricity_abs="0"
            CO_normed="46823.784155" CO2_normed="4719439.076886" HC_normed="326.227117" PMx_normed="89.082960" NOx_normed="1852.006021" fuel_normed="2028.665856" electricity_normed="0"
            traveltime="0.02" CO_perVeh="0.592366" CO2_perVeh="59.705408" HC_perVeh="0.004127" PMx_perVeh="0.001127" NOx_perVeh="0.023430" fuel_perVeh="0.025665" electricity_perVeh="0"/>
        <edge id=":1110673621_0" sampledSeconds="25.98" CO_abs="838.936596" CO2_abs="75659.522217" HC_abs="5.586001" PMx_abs="1.242681" NOx_abs="29.967822" fuel_abs="32.522694" electricity_abs="0"
            CO_normed="1411.130357" CO2_normed="127262.833772" HC_normed="9.395913" PMx_normed="2.090248" NOx_normed="50.407269" fuel_normed="54.704682" electricity_normed="0"
            traveltime="0.02" CO_perVeh="0.635558" CO2_perVeh="57.317820" HC_perVeh="0.004232" PMx_perVeh="0.000941" NOx_perVeh="0.022703" fuel_perVeh="0.024638" electricity_perVeh="0"/>
        <edge id=":1110673630_0" sampledSeconds="287.20" CO_abs="1426.817417" CO2_abs="122110.128754" HC_abs="9.286021" PMx_abs="1.637931" NOx_abs="46.315227" fuel_abs="52.490355" electricity_abs="0"
            CO_normed="42.795528" CO2_normed="3662.534120" HC_normed="0.278522" PMx_normed="0.049128" NOx_normed="1.389165" fuel_normed="1.574380" electricity_normed="0"
            traveltime="1.29" CO_perVeh="6.420133" CO2_perVeh="549.448943" HC_perVeh="0.041784" PMx_perVeh="0.007370" NOx_perVeh="0.208401" fuel_perVeh="0.236187" electricity_perVeh="0"/>
        <edge id=":1110673630_1" sampledSeconds="336.99" CO_abs="1422.890247" CO2_abs="115747.012161" HC_abs="9.114784" PMx_abs="1.533040" NOx_abs="43.914222" fuel_abs="49.755177" electricity_abs="0"
            CO_normed="52.029729" CO2_normed="4232.431642" HC_normed="0.333293" PMx_normed="0.056057" NOx_normed="1.605777" fuel_normed="1.819359" electricity_normed="0"
            traveltime="1.07" CO_perVeh="4.535894" CO2_perVeh="368.978694" HC_perVeh="0.029056" PMx_perVeh="0.004887" NOx_perVeh="0.139990" fuel_perVeh="0.158610" electricity_perVeh="0"/>
        <edge id=":1110673650_0" sampledSeconds="200.14" CO_abs="3368.670077" CO2_abs="402622.583870" HC_abs="24.554628" PMx_abs="5.614750" NOx_abs="151.232034" fuel_abs="173.070466" electricity_abs="0"
            CO_normed="4721.883065" CO2_normed="564358.253293" HC_normed="34.418355" PMx_normed="7.870226" NOx_normed="211.982760" fuel_normed="242.593808" electricity_normed="0"
            traveltime="0.02" CO_perVeh="0.389337" CO2_perVeh="46.533512" HC_perVeh="0.002838" PMx_perVeh="0.000649" NOx_perVeh="0.017479" fuel_perVeh="0.020003" electricity_perVeh="0"/>
        <edge id=":1110673655_0" sampledSeconds="20.70" CO_abs="302.738375" CO2_abs="35530.989853" HC_abs="2.198645" PMx_abs="0.488097" NOx_abs="13.336474" fuel_abs="15.273288" electricity_abs="0"
            CO_normed="424.350018" CO2_normed="49803.980637" HC_normed="3.081852" PMx_normed="0.684169" NOx_normed="18.693807" fuel_normed="21.408650" electricity_normed="0"
            traveltime="0.02" CO_perVeh="0.345855" CO2_perVeh="40.591382" HC_perVeh="0.002512" PMx_perVeh="0.000558" NOx_perVeh="0.015236" fuel_perVeh="0.017449" electricity_perVeh="0"/>
        <edge id=":1110673663_0" sampledSeconds="110.76" CO_abs="2210.325995" CO2_abs="232611.918662" HC_abs="15.434011" PMx_abs="3.408417" NOx_abs="88.915973" fuel_abs="99.989982" electricity_abs="0"
            CO_normed="56.744064" CO2_normed="5971.673707" HC_normed="0.396226" PMx_normed="0.087502" NOx_normed="2.282674" fuel_normed="2.566969" electricity_normed="0"
            traveltime="1.30" CO_perVeh="25.961322" CO2_perVeh="2732.136721" HC_perVeh="0.181280" PMx_perVeh="0.040033" NOx_perVeh="1.044360" fuel_perVeh="1.174430" electricity_perVeh="0"/>
        <edge id=":1110673663_1" sampledSeconds="169.98" CO_abs="2693.755449" CO2_abs="340643.585386" HC_abs="20.009731" PMx_abs="4.554208" NOx_abs="126.488477" fuel_abs="146.428491" electricity_abs="0"
            CO_normed="69.239332" CO2_normed="8755.781588" HC_normed="0.514323" PMx_normed="0.117060" NOx_normed="3.251215" fuel_normed="3.763746" electricity_normed="0"
            traveltime="1.27" CO_perVeh="20.142479" CO2_perVeh="2547.152622" HC_perVeh="0.149622" PMx_perVeh="0.034054" NOx_perVeh="0.945814" fuel_perVeh="1.094915" electricity_perVeh="0"/>