<?xml version="1.0" encoding="UTF-8"?>

<!-- generated on Tue Nov 10 11:53:08 2020 by Eclipse SUMO sumo Version 1.7.0
<configuration xmlns:xsi="http://www.w3.org/2001/XMLSchema-instance" xsi:noNamespaceSchemaLocation="http://sumo.dlr.de/xsd/sumoConfiguration.xsd">

    <input>
        <net-file value="../dataSets/Porto/8AM9AM_Routing_SaoBento/Porto.net.xml"/>
        <route-files value="../results/Porto/8AM9AM_Routing_SaoBento/inputdata/cost_PMx-length/solution7/Porto.rou.xml"/>
        <additional-files value="moreOutputInfo.xml"/>
    </input>

    <output>
        <emission-output.precision value="6"/>
        <tripinfo-output value="../results/Porto/8AM9AM_Routing_SaoBento/inputdata/cost_PMx-length/solution7/Porto-tripinfo"/>
    </output>

    <processing>
        <collision.action value="warn"/>
        <time-to-teleport value="-1"/>
    </processing>

    <emissions>
        <device.emissions.probability value="1"/>
    </emissions>

    <gui_only>
        <quit-on-end value="true"/>
        <start value="true"/>
    </gui_only>

</configuration>
-->

<meandata xmlns:xsi="http://www.w3.org/2001/XMLSchema-instance" xsi:noNamespaceSchemaLocation="http://sumo.dlr.de/xsd/meandata_file.xsd">
    <interval begin="0.00" end="8562.00" id="emissions-detector">
        <edge id=":1092997347_0" sampledSeconds="597.63" CO_abs="72144.557964" CO2_abs="3072197.679040" HC_abs="401.167527" PMx_abs="62.099065" NOx_abs="1328.932491" fuel_abs="1320.613399" electricity_abs="0"
            CO_normed="68941.095080" CO2_normed="2935781.689852" HC_normed="383.354329" PMx_normed="59.341656" NOx_normed="1269.923384" fuel_normed="1261.973688" electricity_normed="0"
            traveltime="0.07" CO_perVeh="8.266061" CO2_perVeh="352.001229" HC_perVeh="0.045964" PMx_perVeh="0.007115" NOx_perVeh="0.152264" fuel_perVeh="0.151311" electricity_perVeh="0"/>
        <edge id=":1103427051_0" sampledSeconds="19.22" CO_abs="1660.566300" CO2_abs="94252.704658" HC_abs="9.798836" PMx_abs="1.844914" NOx_abs="40.177069" fuel_abs="40.515062" electricity_abs="0"
            CO_normed="2407.606457" CO2_normed="136654.236751" HC_normed="14.207045" PMx_normed="2.674887" NOx_normed="58.251557" fuel_normed="58.741602" electricity_normed="0"
            traveltime="0.03" CO_perVeh="2.582391" CO2_perVeh="146.574884" HC_perVeh="0.015238" PMx_perVeh="0.002869" NOx_perVeh="0.062480" fuel_perVeh="0.063006" electricity_perVeh="0"/>
        <edge id=":1105984386_0" sampledSeconds="10.34" CO_abs="373.512695" CO2_abs="25318.225800" HC_abs="2.281849" PMx_abs="0.374295" NOx_abs="9.928251" fuel_abs="10.883315" electricity_abs="0"
            CO_normed="16.173850" CO2_normed="1096.330045" HC_normed="0.098809" PMx_normed="0.016208" NOx_normed="0.429913" fuel_normed="0.471269" electricity_normed="0"
            traveltime="0.99" CO_perVeh="35.830945" CO2_perVeh="2428.768746" HC_perVeh="0.218897" PMx_perVeh="0.035906" NOx_perVeh="0.952414" fuel_perVeh="1.044033" electricity_perVeh="0"/>
        <edge id=":1105984390_0" sampledSeconds="11.07" CO_abs="2.593640" CO2_abs="230.513109" HC_abs="0.017077" PMx_abs="0.003091" NOx_abs="0.087460" fuel_abs="0.099088" electricity_abs="0"
            CO_normed="0.086826" CO2_normed="7.716729" HC_normed="0.000572" PMx_normed="0.000103" NOx_normed="0.002928" fuel_normed="0.003317" electricity_normed="0"
            traveltime="1.15" CO_perVeh="0.268846" CO2_perVeh="23.894072" HC_perVeh="0.001770" PMx_perVeh="0.000320" NOx_perVeh="0.009066" fuel_perVeh="0.010271" electricity_perVeh="0"/>
        <edge id=":1105984390_1" sampledSeconds="2396.06" CO_abs="62453.426095" CO2_abs="7464081.079426" HC_abs="463.106670" PMx_abs="134.664475" NOx_abs="2837.262088" fuel_abs="3208.463896" electricity_abs="0"
            CO_normed="1999.948531" CO2_normed="239022.563309" HC_normed="14.830083" PMx_normed="4.312366" NOx_normed="90.857756" fuel_normed="102.744766" electricity_normed="0"
            traveltime="0.65" CO_perVeh="16.871316" CO2_perVeh="2016.364476" HC_perVeh="0.125105" PMx_perVeh="0.036379" NOx_perVeh="0.766465" fuel_perVeh="0.866742" electricity_perVeh="0"/>
        <edge id=":1105984395_0" sampledSeconds="4.15" CO_abs="124.555221" CO2_abs="8076.425704" HC_abs="0.752055" PMx_abs="0.118450" NOx_abs="3.168545" fuel_abs="3.471745" electricity_abs="0"
            CO_normed="56.924783" CO2_normed="3691.124145" HC_normed="0.343707" PMx_normed="0.054135" NOx_normed="1.448103" fuel_normed="1.586672" electricity_normed="0"
            traveltime="0.10" CO_perVeh="2.887145" CO2_perVeh="187.208658" HC_perVeh="0.017432" PMx_perVeh="0.002746" NOx_perVeh="0.073446" fuel_perVeh="0.080474" electricity_perVeh="0"/>
        <edge id=":1105984398_0" sampledSeconds="10.41" CO_abs="757.792508" CO2_abs="47875.996037" HC_abs="4.589352" PMx_abs="0.926422" NOx_abs="20.228454" fuel_abs="20.579724" electricity_abs="0"
            CO_normed="26.354288" CO2_normed="1665.017486" HC_normed="0.159607" PMx_normed="0.032219" NOx_normed="0.703499" fuel_normed="0.715716" electricity_normed="0"
            traveltime="1.16" CO_perVeh="84.121088" CO2_perVeh="5314.622214" HC_perVeh="0.509455" PMx_perVeh="0.102840" NOx_perVeh="2.245522" fuel_perVeh="2.284516" electricity_perVeh="0"/>
        <edge id=":1105984398_1" sampledSeconds="647.29" CO_abs="12686.164698" CO2_abs="1440503.111598" HC_abs="91.058671" PMx_abs="21.091979" NOx_abs="548.199356" fuel_abs="619.210499" electricity_abs="0"
            CO_normed="427.066184" CO2_normed="48492.998573" HC_normed="3.065393" PMx_normed="0.710039" NOx_normed="18.454546" fuel_normed="20.845060" electricity_normed="0"
            traveltime="0.95" CO_perVeh="18.654698" CO2_perVeh="2118.224946" HC_perVeh="0.133900" PMx_perVeh="0.031015" NOx_perVeh="0.806114" fuel_perVeh="0.910534" electricity_perVeh="0"/>
        <edge id=":1106006327_0" sampledSeconds="281.58" CO_abs="37988.090468" CO2_abs="1226829.127790" HC_abs="201.848434" PMx_abs="25.596513" NOx_abs="537.035254" fuel_abs="527.370682" electricity_abs="0"
            CO_normed="1802.772892" CO2_normed="58220.728317" HC_normed="9.578973" PMx_normed="1.214715" NOx_normed="25.485687" fuel_normed="25.027043" electricity_normed="0"
            traveltime="2.11" CO_perVeh="284.252182" CO2_perVeh="9179.952260" HC_perVeh="1.510364" PMx_perVeh="0.191530" NOx_perVeh="4.018455" fuel_perVeh="3.946139" electricity_perVeh="0"/>
        <edge id=":1106006327_1" sampledSeconds="682.15" CO_abs="92200.113470" CO2_abs="3082116.798313" HC_abs="492.455184" PMx_abs="64.263020" NOx_abs="1348.707791" fuel_abs="1324.890897" electricity_abs="0"
            CO_normed="3815.619195" CO2_normed="127550.645798" HC_normed="20.379817" PMx_normed="2.659468" NOx_normed="55.815065" fuel_normed="54.829424" electricity_normed="0"
            traveltime="2.29" CO_perVeh="309.493464" CO2_perVeh="10345.920076" HC_perVeh="1.653053" PMx_perVeh="0.215715" NOx_perVeh="4.527286" fuel_perVeh="4.447338" electricity_perVeh="0"/>
        <edge id=":1106006327_2" sampledSeconds="0.00" CO_abs="0" CO2_abs="0" HC_abs="0" PMx_abs="0" NOx_abs="0" fuel_abs="0" electricity_abs="0"
            CO_normed="0" CO2_normed="0" HC_normed="0" PMx_normed="0" NOx_normed="0" fuel_normed="0" electricity_normed="0"/>
        <edge id=":1106006327_3" sampledSeconds="0.00" CO_abs="0" CO2_abs="0" HC_abs="0" PMx_abs="0" NOx_abs="0" fuel_abs="0" electricity_abs="0"
            CO_normed="0" CO2_normed="0" HC_normed="0" PMx_normed="0" NOx_normed="0" fuel_normed="0" electricity_normed="0"/>
        <edge id=":1107381198_0" sampledSeconds="0.00" CO_abs="0" CO2_abs="0" HC_abs="0" PMx_abs="0" NOx_abs="0" fuel_abs="0" electricity_abs="0"
            CO_normed="0" CO2_normed="0" HC_normed="0" PMx_normed="0" NOx_normed="0" fuel_normed="0" electricity_normed="0"/>
        <edge id=":1107381198_1" sampledSeconds="103.17" CO_abs="4382.815949" CO2_abs="172957.258928" HC_abs="23.941071" PMx_abs="3.005601" NOx_abs="71.783144" fuel_abs="74.348333" electricity_abs="0"
            CO_normed="200.960719" CO2_normed="7930.429989" HC_normed="1.097745" PMx_normed="0.137813" NOx_normed="3.291398" fuel_normed="3.409017" electricity_normed="0"
            traveltime="1.54" CO_perVeh="65.619159" CO2_perVeh="2589.501803" HC_perVeh="0.358444" PMx_perVeh="0.045000" NOx_perVeh="1.074731" fuel_perVeh="1.113137" electricity_perVeh="0"/>
        <edge id=":1110338277_0" sampledSeconds="159.85" CO_abs="2459.989329" CO2_abs="310783.403628" HC_abs="18.253058" PMx_abs="4.173237" NOx_abs="115.534159" fuel_abs="133.592812" electricity_abs="0"
            CO_normed="3694.047446" CO2_normed="466688.462752" HC_normed="27.409738" PMx_normed="6.266749" NOx_normed="173.492080" fuel_normed="200.609888" electricity_normed="0"
            traveltime="0.02" CO_perVeh="0.333530" CO2_perVeh="42.136581" HC_perVeh="0.002475" PMx_perVeh="0.000566" NOx_perVeh="0.015664" fuel_perVeh="0.018113" electricity_perVeh="0"/>
        <edge id=":1110338293_0" sampledSeconds="6447.57" CO_abs="600991.326460" CO2_abs="10545282.163849" HC_abs="2983.214852" PMx_abs="251.344111" NOx_abs="4765.414384" fuel_abs="4533.238339" electricity_abs="0"
            CO_normed="842314.402887" CO2_normed="14779652.647301" HC_normed="4181.100003" PMx_normed="352.269252" NOx_normed="6678.926958" fuel_normed="6353.522550" electricity_normed="0"
            traveltime="0.43" CO_perVeh="40.167228" CO2_perVeh="704.793449" HC_perVeh="0.199383" PMx_perVeh="0.016799" NOx_perVeh="0.318496" fuel_perVeh="0.302979" electricity_perVeh="0"/>
        <edge id=":1110338295_0" sampledSeconds="0.00" CO_abs="0" CO2_abs="0" HC_abs="0" PMx_abs="0" NOx_abs="0" fuel_abs="0" electricity_abs="0"
            CO_normed="0" CO2_normed="0" HC_normed="0" PMx_normed="0" NOx_normed="0" fuel_normed="0" electricity_normed="0"/>
        <edge id=":1110673403_0" sampledSeconds="200.50" CO_abs="3147.252483" CO2_abs="389584.704838" HC_abs="23.239444" PMx_abs="5.343668" NOx_abs="145.636574" fuel_abs="167.466085" electricity_abs="0"
            CO_normed="4411.005582" CO2_normed="546019.207901" HC_normed="32.571049" PMx_normed="7.489374" NOx_normed="204.115731" fuel_normed="234.710701" electricity_normed="0"
            traveltime="0.02" CO_perVeh="0.363746" CO2_perVeh="45.026548" HC_perVeh="0.002686" PMx_perVeh="0.000618" NOx_perVeh="0.016832" fuel_perVeh="0.019355" electricity_perVeh="0"/>
        <edge id=":1110673412_0" sampledSeconds="939.77" CO_abs="166518.943240" CO2_abs="11368744.852503" HC_abs="1036.449299" PMx_abs="249.803925" NOx_abs="4885.182027" fuel_abs="4886.863461" electricity_abs="0"
            CO_normed="241430.940106" CO2_normed="16483210.283213" HC_normed="1502.717492" PMx_normed="362.183396" NOx_normed="7082.882383" fuel_normed="7085.320244" electricity_normed="0"
            traveltime="0.02" CO_perVeh="2.751485" CO2_perVeh="187.852054" HC_perVeh="0.017126" PMx_perVeh="0.004128" NOx_perVeh="0.080721" fuel_perVeh="0.080748" electricity_perVeh="0"/>
        <edge id=":1110673414_0" sampledSeconds="0.00" CO_abs="0" CO2_abs="0" HC_abs="0" PMx_abs="0" NOx_abs="0" fuel_abs="0" electricity_abs="0"
            CO_normed="0" CO2_normed="0" HC_normed="0" PMx_normed="0" NOx_normed="0" fuel_normed="0" electricity_normed="0"/>
        <edge id=":1110673414_1" sampledSeconds="237.22" CO_abs="15813.620097" CO2_abs="622299.170783" HC_abs="86.462154" PMx_abs="11.447106" NOx_abs="262.368502" fuel_abs="267.503923" electricity_abs="0"
            CO_normed="736.327174" CO2_normed="28976.021101" HC_normed="4.025924" PMx_normed="0.533010" NOx_normed="12.216624" fuel_normed="12.455744" electricity_normed="0"
            traveltime="1.54" CO_perVeh="102.600260" CO2_perVeh="4037.535754" HC_perVeh="0.560975" PMx_perVeh="0.074270" NOx_perVeh="1.702272" fuel_perVeh="1.735591" electricity_perVeh="0"/>
        <edge id=":1110673417_0" sampledSeconds="29.14" CO_abs="472.031591" CO2_abs="54846.608395" HC_abs="3.405397" PMx_abs="0.759121" NOx_abs="20.597547" fuel_abs="23.576261" electricity_abs="0"
            CO_normed="708.827096" CO2_normed="82360.509152" HC_normed="5.113720" PMx_normed="1.139935" NOx_normed="30.930344" fuel_normed="35.403334" electricity_normed="0"
            traveltime="0.02" CO_perVeh="0.359947" CO2_perVeh="41.823172" HC_perVeh="0.002597" PMx_perVeh="0.000579" NOx_perVeh="0.015707" fuel_perVeh="0.017978" electricity_perVeh="0"/>
        <edge id=":1110673446_0" sampledSeconds="1314.01" CO_abs="14109.914857" CO2_abs="1160204.956785" HC_abs="91.709387" PMx_abs="21.001786" NOx_abs="472.636401" fuel_abs="498.719017" electricity_abs="0"
            CO_normed="19775.633997" CO2_normed="1626075.622684" HC_normed="128.534529" PMx_normed="29.434879" NOx_normed="662.419623" fuel_normed="698.975497" electricity_normed="0"
            traveltime="0.02" CO_perVeh="0.244832" CO2_perVeh="20.131594" HC_perVeh="0.001591" PMx_perVeh="0.000364" NOx_perVeh="0.008201" fuel_perVeh="0.008654" electricity_perVeh="0"/>
        <edge id=":1110673451_0" sampledSeconds="36.65" CO_abs="347.540589" CO2_abs="23684.348417" HC_abs="2.128264" PMx_abs="0.360652" NOx_abs="9.349385" fuel_abs="10.180958" electricity_abs="0"
            CO_normed="541.214030" CO2_normed="36882.890940" HC_normed="3.314279" PMx_normed="0.561633" NOx_normed="14.559504" fuel_normed="15.854486" electricity_normed="0"
            traveltime="0.03" CO_perVeh="0.256061" CO2_perVeh="17.450128" HC_perVeh="0.001568" PMx_perVeh="0.000266" NOx_perVeh="0.006888" fuel_perVeh="0.007501" electricity_perVeh="0"/>
        <edge id=":1110673464_0" sampledSeconds="1026.30" CO_abs="3723.513141" CO2_abs="268696.791059" HC_abs="23.110423" PMx_abs="3.977210" NOx_abs="104.875666" fuel_abs="115.502079" electricity_abs="0"
            CO_normed="110.878022" CO2_normed="8001.198786" HC_normed="0.688178" PMx_normed="0.118433" NOx_normed="3.122966" fuel_normed="3.439398" electricity_normed="0"
            traveltime="1.22" CO_perVeh="4.415565" CO2_perVeh="318.636789" HC_perVeh="0.027406" PMx_perVeh="0.004716" NOx_perVeh="0.124368" fuel_perVeh="0.136969" electricity_perVeh="0"/>
        <edge id=":1110673464_1" sampledSeconds="2603.58" CO_abs="64458.921079" CO2_abs="7877344.218173" HC_abs="481.316698" PMx_abs="140.703589" NOx_abs="2985.846150" fuel_abs="3386.107387" electricity_abs="0"
            CO_normed="1880.816077" CO2_normed="229849.265256" HC_normed="14.044110" PMx_normed="4.105523" NOx_normed="87.122579" fuel_normed="98.801610" electricity_normed="0"
            traveltime="0.72" CO_perVeh="17.768395" CO2_perVeh="2171.425792" HC_perVeh="0.132677" PMx_perVeh="0.038786" NOx_perVeh="0.823062" fuel_perVeh="0.933396" electricity_perVeh="0"/>
        <edge id=":1110673479_0" sampledSeconds="135.06" CO_abs="6174.893236" CO2_abs="419926.784187" HC_abs="37.987222" PMx_abs="7.393817" NOx_abs="172.130321" fuel_abs="180.508296" electricity_abs="0"
            CO_normed="8654.370338" CO2_normed="588544.897248" HC_normed="53.240676" PMx_normed="10.362743" NOx_normed="241.247822" fuel_normed="252.989903" electricity_normed="0"
            traveltime="0.03" CO_perVeh="1.305428" CO2_perVeh="88.776319" HC_perVeh="0.008031" PMx_perVeh="0.001563" NOx_perVeh="0.036390" fuel_perVeh="0.038161" electricity_perVeh="0"/>
        <edge id=":1110673511_0" sampledSeconds="63.58" CO_abs="1249.163205" CO2_abs="128353.174716" HC_abs="8.641765" PMx_abs="1.850494" NOx_abs="48.972537" fuel_abs="55.173638" electricity_abs="0"
            CO_normed="1750.754316" CO2_normed="179892.326161" HC_normed="12.111794" PMx_normed="2.593544" NOx_normed="68.637052" fuel_normed="77.328154" electricity_normed="0"
            traveltime="0.02" CO_perVeh="0.478759" CO2_perVeh="49.193168" HC_perVeh="0.003312" PMx_perVeh="0.000709" NOx_perVeh="0.018769" fuel_perVeh="0.021146" electricity_perVeh="0"/>
        <edge id=":1110673517_0" sampledSeconds="182.54" CO_abs="8221.296513" CO2_abs="577786.945150" HC_abs="51.007953" PMx_abs="10.081326" NOx_abs="235.899891" fuel_abs="248.365467" electricity_abs="0"
            CO_normed="11522.489857" CO2_normed="809792.494954" HC_normed="71.489773" PMx_normed="14.129399" NOx_normed="330.623534" fuel_normed="348.094557" electricity_normed="0"
            traveltime="0.03" CO_perVeh="1.258748" CO2_perVeh="88.463953" HC_perVeh="0.007810" PMx_perVeh="0.001544" NOx_perVeh="0.036118" fuel_perVeh="0.038027" electricity_perVeh="0"/>
        <edge id=":1110673534_0" sampledSeconds="660.59" CO_abs="4774.555476" CO2_abs="407926.852776" HC_abs="31.044022" PMx_abs="5.401239" NOx_abs="154.277606" fuel_abs="175.351869" electricity_abs="0"
            CO_normed="129.684856" CO2_normed="11079.970795" HC_normed="0.843207" PMx_normed="0.146707" NOx_normed="4.190436" fuel_normed="4.762848" electricity_normed="0"
            traveltime="1.45" CO_perVeh="10.498537" CO2_perVeh="896.970426" HC_perVeh="0.068261" PMx_perVeh="0.011877" NOx_perVeh="0.339233" fuel_perVeh="0.385573" electricity_perVeh="0"/>
        <edge id=":1110673534_1" sampledSeconds="264.01" CO_abs="4093.572798" CO2_abs="500190.276704" HC_abs="30.093610" PMx_abs="6.990617" NOx_abs="187.758596" fuel_abs="215.010622" electricity_abs="0"
            CO_normed="108.115194" CO2_normed="13210.506193" HC_normed="0.794801" PMx_normed="0.184629" NOx_normed="4.958885" fuel_normed="5.678637" electricity_normed="0"
            traveltime="1.22" CO_perVeh="18.993151" CO2_perVeh="2320.757400" HC_perVeh="0.139627" PMx_perVeh="0.032435" NOx_perVeh="0.871153" fuel_perVeh="0.997595" electricity_perVeh="0"/>
        <edge id=":1110673549_0" sampledSeconds="654.85" CO_abs="1651.921507" CO2_abs="145725.180095" HC_abs="10.865063" PMx_abs="2.133263" NOx_abs="55.888578" fuel_abs="62.641274" electricity_abs="0"
            CO_normed="43.465023" CO2_normed="3834.291290" HC_normed="0.285879" PMx_normed="0.056130" NOx_normed="1.470529" fuel_normed="1.648204" electricity_normed="0"
            traveltime="1.30" CO_perVeh="3.281974" CO2_perVeh="289.521185" HC_perVeh="0.021586" PMx_perVeh="0.004238" NOx_perVeh="0.111037" fuel_perVeh="0.124453" electricity_perVeh="0"/>
        <edge id=":1110673549_1" sampledSeconds="3199.79" CO_abs="70243.858036" CO2_abs="9197481.740960" HC_abs="539.404525" PMx_abs="161.894107" NOx_abs="3440.316716" fuel_abs="3953.576248" electricity_abs="0"
            CO_normed="1787.827408" CO2_normed="234091.782511" HC_normed="13.728776" PMx_normed="4.120484" NOx_normed="87.561997" fuel_normed="100.625338" electricity_normed="0"
            traveltime="0.81" CO_perVeh="17.717314" CO2_perVeh="2319.842312" HC_perVeh="0.136052" PMx_perVeh="0.040834" NOx_perVeh="0.867737" fuel_perVeh="0.997194" electricity_perVeh="0"/>
        <edge id=":1110673556_0" sampledSeconds="466.69" CO_abs="57567.232637" CO2_abs="2765093.077701" HC_abs="327.799707" PMx_abs="55.858882" NOx_abs="1192.305300" fuel_abs="1188.595684" electricity_abs="0"
            CO_normed="1123.195501" CO2_normed="53949.789903" HC_normed="6.395707" PMx_normed="1.089864" NOx_normed="23.263094" fuel_normed="23.190716" electricity_normed="0"
            traveltime="2.75" CO_perVeh="339.353589" CO2_perVeh="16299.971657" HC_perVeh="1.932349" PMx_perVeh="0.329283" NOx_perVeh="7.028531" fuel_perVeh="7.006663" electricity_perVeh="0"/>
        <edge id=":1110673556_2" sampledSeconds="173.92" CO_abs="16974.745806" CO2_abs="735197.673418" HC_abs="94.556611" PMx_abs="14.154833" NOx_abs="313.325729" fuel_abs="316.032559" electricity_abs="0"
            CO_normed="346.300059" CO2_normed="14998.692780" HC_normed="1.929040" PMx_normed="0.288771" NOx_normed="6.392126" fuel_normed="6.447348" electricity_normed="0"
            traveltime="3.01" CO_perVeh="293.517611" CO2_perVeh="12712.618338" HC_perVeh="1.635019" PMx_perVeh="0.244757" NOx_perVeh="5.417850" fuel_perVeh="5.464655" electricity_perVeh="0"/>
        <edge id=":1110673556_3" sampledSeconds="334.10" CO_abs="33579.910562" CO2_abs="1154425.998934" HC_abs="179.866039" PMx_abs="22.696482" NOx_abs="496.639420" fuel_abs="496.247364" electricity_abs="0"
            CO_normed="1558.398834" CO2_normed="53575.369944" HC_normed="8.347343" PMx_normed="1.053313" NOx_normed="23.048373" fuel_normed="23.030178" electricity_normed="0"
            traveltime="1.84" CO_perVeh="185.125862" CO2_perVeh="6364.344161" HC_perVeh="0.991600" PMx_perVeh="0.125126" NOx_perVeh="2.737970" fuel_perVeh="2.735809" electricity_perVeh="0"/>
        <edge id=":1110673556_4" sampledSeconds="102.19" CO_abs="11879.198123" CO2_abs="456270.709747" HC_abs="64.820139" PMx_abs="9.106676" NOx_abs="196.919072" fuel_abs="196.133448" electricity_abs="0"
            CO_normed="336.800907" CO2_normed="12936.259426" HC_normed="1.837791" PMx_normed="0.258194" NOx_normed="5.583081" fuel_normed="5.560807" electricity_normed="0"
            traveltime="2.58" CO_perVeh="299.912339" CO2_perVeh="11519.398409" HC_perVeh="1.636504" PMx_perVeh="0.229915" NOx_perVeh="4.971586" fuel_perVeh="4.951752" electricity_perVeh="0"/>
        <edge id=":1110673556_5" sampledSeconds="21.96" CO_abs="1144.557820" CO2_abs="53387.639447" HC_abs="6.458916" PMx_abs="0.981067" NOx_abs="22.450844" fuel_abs="22.949242" electricity_abs="0"
            CO_normed="45.229667" CO2_normed="2109.727521" HC_normed="0.255238" PMx_normed="0.038769" NOx_normed="0.887193" fuel_normed="0.906889" electricity_normed="0"
            traveltime="1.52" CO_perVeh="79.129923" CO2_perVeh="3690.997295" HC_perVeh="0.446542" PMx_perVeh="0.067827" NOx_perVeh="1.552157" fuel_perVeh="1.586614" electricity_perVeh="0"/>
        <edge id=":1110673556_6" sampledSeconds="219.09" CO_abs="26348.037465" CO2_abs="1305028.635697" HC_abs="150.987642" PMx_abs="26.287218" NOx_abs="561.657354" fuel_abs="560.975672" electricity_abs="0"
            CO_normed="527.039102" CO2_normed="26104.453576" HC_normed="3.020202" PMx_normed="0.525823" NOx_normed="11.234817" fuel_normed="11.221182" electricity_normed="0"
            traveltime="2.55" CO_perVeh="307.021314" CO2_perVeh="15206.886148" HC_perVeh="1.759388" PMx_perVeh="0.306313" NOx_perVeh="6.544730" fuel_perVeh="6.536786" electricity_perVeh="0"/>
        <edge id=":1110673561_0" sampledSeconds="104.51" CO_abs="9441.504358" CO2_abs="675708.000429" HC_abs="59.257157" PMx_abs="13.635106" NOx_abs="285.712259" fuel_abs="290.454718" electricity_abs="0"
            CO_normed="237.286229" CO2_normed="16982.061031" HC_normed="1.489266" PMx_normed="0.342681" NOx_normed="7.180591" fuel_normed="7.299780" electricity_normed="0"
            traveltime="1.23" CO_perVeh="111.418915" CO2_perVeh="7974.010247" HC_perVeh="0.699292" PMx_perVeh="0.160907" NOx_perVeh="3.371682" fuel_perVeh="3.427648" electricity_perVeh="0"/>
        <edge id=":1110673561_1" sampledSeconds="5192.12" CO_abs="485582.062746" CO2_abs="33649556.085842" HC_abs="3025.151140" PMx_abs="703.099906" NOx_abs="14385.184010" fuel_abs="14464.319258" electricity_abs="0"
            CO_normed="11897.963421" CO2_normed="824497.480798" HC_normed="74.123697" PMx_normed="17.227689" NOx_normed="352.472643" fuel_normed="354.411653" electricity_normed="0"
            traveltime="1.19" CO_perVeh="111.535363" CO2_perVeh="7729.106440" HC_perVeh="0.694860" PMx_perVeh="0.161498" NOx_perVeh="3.304193" fuel_perVeh="3.322370" electricity_perVeh="0"/>
        <edge id=":1110673562_0" sampledSeconds="302.78" CO_abs="6222.169983" CO2_abs="476692.173788" HC_abs="39.207374" PMx_abs="6.510637" NOx_abs="182.512111" fuel_abs="204.911550" electricity_abs="0"
            CO_normed="9689.589634" CO2_normed="742337.730730" HC_normed="61.056410" PMx_normed="10.138810" NOx_normed="284.220371" fuel_normed="319.102313" electricity_normed="0"
            traveltime="0.03" CO_perVeh="0.557764" CO2_perVeh="42.731370" HC_perVeh="0.003515" PMx_perVeh="0.000584" NOx_perVeh="0.016361" fuel_perVeh="0.018369" electricity_perVeh="0"/>
        <edge id=":1110673564_0" sampledSeconds="27.94" CO_abs="384.076325" CO2_abs="46693.523829" HC_abs="2.810859" PMx_abs="0.635530" NOx_abs="17.448301" fuel_abs="20.071593" electricity_abs="0"
            CO_normed="1614.896950" CO2_normed="196328.761718" HC_normed="11.818610" PMx_normed="2.672167" NOx_normed="73.363564" fuel_normed="84.393523" electricity_normed="0"
            traveltime="7.891340e-03" CO_perVeh="0.108481" CO2_perVeh="13.188398" HC_perVeh="0.000794" PMx_perVeh="0.000180" NOx_perVeh="0.004928" fuel_perVeh="0.005669" electricity_perVeh="0"/>
        <edge id=":1110673588_0" sampledSeconds="62.87" CO_abs="961.219469" CO2_abs="111985.330126" HC_abs="6.944632" PMx_abs="1.521117" NOx_abs="41.924682" fuel_abs="48.137843" electricity_abs="0"
            CO_normed="1616.626997" CO2_normed="188342.531397" HC_normed="11.679829" PMx_normed="2.558291" NOx_normed="70.511028" fuel_normed="80.960632" electricity_normed="0"
            traveltime="0.02" CO_perVeh="0.310071" CO2_perVeh="36.124300" HC_perVeh="0.002240" PMx_perVeh="0.000491" NOx_perVeh="0.013524" fuel_perVeh="0.015528" electricity_perVeh="0"/>
        <edge id=":1110673601_0" sampledSeconds="28.96" CO_abs="469.539943" CO2_abs="57451.428049" HC_abs="3.435734" PMx_abs="0.766023" NOx_abs="21.353283" fuel_abs="24.695988" electricity_abs="0"
            CO_normed="705.085509" CO2_normed="86272.041319" HC_normed="5.159276" PMx_normed="1.150299" NOx_normed="32.065196" fuel_normed="37.084775" electricity_normed="0"
            traveltime="0.02" CO_perVeh="0.358047" CO2_perVeh="43.809472" HC_perVeh="0.002620" PMx_perVeh="0.000584" NOx_perVeh="0.016283" fuel_perVeh="0.018832" electricity_perVeh="0"/>
        <edge id=":1110673617_0" sampledSeconds="854.51" CO_abs="34064.000261" CO2_abs="3361303.743791" HC_abs="235.841732" PMx_abs="63.918241" NOx_abs="1324.884677" fuel_abs="1444.866716" electricity_abs="0"
            CO_normed="47742.116694" CO2_normed="4711007.349391" HC_normed="330.542021" PMx_normed="89.584079" NOx_normed="1856.881117" fuel_normed="2025.040948" electricity_normed="0"
            traveltime="0.02" CO_perVeh="0.604640" CO2_perVeh="59.663499" HC_perVeh="0.004186" PMx_perVeh="0.001135" NOx_perVeh="0.023517" fuel_perVeh="0.025647" electricity_perVeh="0"/>
        <edge id=":1110673621_0" sampledSeconds="26.38" CO_abs="592.478849" CO2_abs="59123.849821" HC_abs="4.075491" PMx_abs="0.911439" NOx_abs="22.942679" fuel_abs="25.414785" electricity_abs="0"
            CO_normed="996.460572" CO2_normed="99437.448893" HC_normed="6.854365" PMx_normed="1.532903" NOx_normed="38.586145" fuel_normed="42.743856" electricity_normed="0"
            traveltime="0.02" CO_perVeh="0.448848" CO2_perVeh="44.790795" HC_perVeh="0.003087" PMx_perVeh="0.000690" NOx_perVeh="0.017381" fuel_perVeh="0.019254" electricity_perVeh="0"/>
        <edge id=":1110673630_0" sampledSeconds="286.62" CO_abs="1435.214523" CO2_abs="124005.811198" HC_abs="9.369639" PMx_abs="1.674240" NOx_abs="47.133404" fuel_abs="53.305203" electricity_abs="0"
            CO_normed="43.042361" CO2_normed="3718.958237" HC_normed="0.280997" PMx_normed="0.050211" NOx_normed="1.413540" fuel_normed="1.598633" electricity_normed="0"
            traveltime="1.29" CO_perVeh="6.457917" CO2_perVeh="557.978790" HC_perVeh="0.042160" PMx_perVeh="0.007533" NOx_perVeh="0.212082" fuel_perVeh="0.239853" electricity_perVeh="0"/>
        <edge id=":1110673630_1" sampledSeconds="337.55" CO_abs="1097.318214" CO2_abs="93819.035982" HC_abs="7.127934" PMx_abs="1.201189" NOx_abs="35.245219" fuel_abs="40.329209" electricity_abs="0"
            CO_normed="40.120102" CO2_normed="3430.207586" HC_normed="0.260611" PMx_normed="0.043918" NOx_normed="1.288634" fuel_normed="1.474515" electricity_normed="0"
            traveltime="1.08" CO_perVeh="3.498035" CO2_perVeh="299.076622" HC_perVeh="0.022722" PMx_perVeh="0.003829" NOx_perVeh="0.112355" fuel_perVeh="0.128562" electricity_perVeh="0"/>
        <edge id=":1110673650_0" sampledSeconds="199.71" CO_abs="3129.783833" CO2_abs="386309.157607" HC_abs="23.081906" PMx_abs="5.328130" NOx_abs="144.537394" fuel_abs="166.058033" electricity_abs="0"
            CO_normed="4386.522541" CO2_normed="541428.391881" HC_normed="32.350254" PMx_normed="7.467597" NOx_normed="202.575184" fuel_normed="232.737257" electricity_normed="0"
            traveltime="0.02" CO_perVeh="0.361727" CO2_perVeh="44.647974" HC_perVeh="0.002668" PMx_perVeh="0.000616" NOx_perVeh="0.016705" fuel_perVeh="0.019192" electricity_perVeh="0"/>
        <edge id=":1110673655_0" sampledSeconds="20.76" CO_abs="302.692795" CO2_abs="35855.880276" HC_abs="2.207286" PMx_abs="0.496512" NOx_abs="13.471095" fuel_abs="15.412937" electricity_abs="0"
            CO_normed="424.236574" CO2_normed="50253.511248" HC_normed="3.093603" PMx_normed="0.695883" NOx_normed="18.880302" fuel_normed="21.601874" electricity_normed="0"
            traveltime="0.02" CO_perVeh="0.345803" CO2_perVeh="40.962544" HC_perVeh="0.002522" PMx_perVeh="0.000567" NOx_perVeh="0.015390" fuel_perVeh="0.017608" electricity_perVeh="0"/>
        <edge id=":1110673663_0" sampledSeconds="110.91" CO_abs="1992.283895" CO2_abs="223471.871898" HC_abs="14.178896" PMx_abs="3.144348" NOx_abs="84.401582" fuel_abs="96.061163" electricity_abs="0"
            CO_normed="51.140457" CO2_normed="5736.357991" HC_normed="0.363962" PMx_normed="0.080713" NOx_normed="2.166526" fuel_normed="2.465819" electricity_normed="0"
            traveltime="1.30" CO_perVeh="23.400314" CO2_perVeh="2624.782559" HC_perVeh="0.166538" PMx_perVeh="0.036932" NOx_perVeh="0.991336" fuel_perVeh="1.128284" electricity_perVeh="0"/>
        <edge id=":1110673663_1" sampledSeconds="171.25" CO_abs="2623.078179" CO2_abs="316612.460936" HC_abs="19.214986" PMx_abs="4.311015" NOx_abs="118.346502" fuel_abs="136.098478" electricity_abs="0"
            CO_normed="67.414794" CO2_normed="8137.143620" HC_normed="0.493837" PMx_normed="0.110796" NOx_normed="3.041581" fuel_normed="3.497818" electricity_normed="0"
            traveltime="1.28" CO_perVeh="19.608133" CO2_perVeh="2366.753460" HC_perVeh="0.143637" PMx_perVeh="0.032226" NOx_perVeh="0.884668" fuel_perVeh="1.017368" electricity_perVeh="0"/>