<?xml version="1.0" encoding="UTF-8"?>

<!-- generated on Fri Oct  2 15:15:11 2020 by Eclipse SUMO Version 1.1.0
<configuration xmlns:xsi="http://www.w3.org/2001/XMLSchema-instance" xsi:noNamespaceSchemaLocation="http://sumo.dlr.de/xsd/sumoConfiguration.xsd">

    <input>
        <net-file value="../dataSets/Porto/8AM9AM_Routing_SaoBento/Porto.net.xml"/>
        <route-files value="../results/Porto/8AM9AM_Routing_SaoBento_fewerv/inputdata/Porto-base.rou.xml"/>
        <additional-files value="moreOutputInfo.xml"/>
    </input>

    <output>
        <emission-output.precision value="6"/>
        <tripinfo-output value="../results/Porto/8AM9AM_Routing_SaoBento_fewerv/inputdata/Porto-tripinfo"/>
    </output>

    <processing>
        <collision.action value="warn"/>
        <time-to-teleport value="-1"/>
    </processing>

    <emissions>
        <device.emissions.probability value="1"/>
    </emissions>

    <gui_only>
        <quit-on-end value="true"/>
        <start value="true"/>
    </gui_only>

</configuration>
-->

<meandata xmlns:xsi="http://www.w3.org/2001/XMLSchema-instance" xsi:noNamespaceSchemaLocation="http://sumo.dlr.de/xsd/meandata_file.xsd">
    <interval begin="0.00" end="8561.00" id="emissions-detector">
        <edge id=":1092997347_0" sampledSeconds="588.37" CO_abs="72326.635044" CO2_abs="3106752.122770" HC_abs="402.842451" PMx_abs="62.842098" NOx_abs="1344.116683" fuel_abs="1335.466354" electricity_abs="0"
            CO_normed="69123.160569" CO2_normed="2969148.581296" HC_normed="384.999847" PMx_normed="60.058710" NOx_normed="1284.583380" fuel_normed="1276.316189" electricity_normed="0"
            traveltime="0.07" CO_perVeh="8.274452" CO2_perVeh="355.424691" HC_perVeh="0.046087" PMx_perVeh="0.007189" NOx_perVeh="0.153772" fuel_perVeh="0.152783" electricity_perVeh="0"/>
        <edge id=":1103427051_0" sampledSeconds="19.61" CO_abs="1547.448055" CO2_abs="86494.698691" HC_abs="9.095991" PMx_abs="1.679533" NOx_abs="36.800229" fuel_abs="37.180278" electricity_abs="0"
            CO_normed="2243.861697" CO2_normed="125420.779593" HC_normed="13.189551" PMx_normed="2.435390" NOx_normed="53.361806" fuel_normed="53.912893" electricity_normed="0"
            traveltime="0.03" CO_perVeh="2.406478" CO2_perVeh="134.510203" HC_perVeh="0.014145" PMx_perVeh="0.002612" NOx_perVeh="0.057229" fuel_perVeh="0.057820" electricity_perVeh="0"/>
        <edge id=":1105984386_0" sampledSeconds="10.67" CO_abs="191.862615" CO2_abs="12612.701808" HC_abs="1.165251" PMx_abs="0.198943" NOx_abs="5.032580" fuel_abs="5.421693" electricity_abs="0"
            CO_normed="8.309007" CO2_normed="546.219125" HC_normed="0.050464" PMx_normed="0.008616" NOx_normed="0.217946" fuel_normed="0.234798" electricity_normed="0"
            traveltime="1.02" CO_perVeh="18.405315" CO2_perVeh="1209.932173" HC_perVeh="0.111782" PMx_perVeh="0.019085" NOx_perVeh="0.482774" fuel_perVeh="0.520101" electricity_perVeh="0"/>
        <edge id=":1105984390_0" sampledSeconds="10.77" CO_abs="7.043962" CO2_abs="970.972232" HC_abs="0.053170" PMx_abs="0.006413" NOx_abs="0.321455" fuel_abs="0.417390" electricity_abs="0"
            CO_normed="0.235833" CO2_normed="32.508369" HC_normed="0.001780" PMx_normed="0.000215" NOx_normed="0.010762" fuel_normed="0.013974" electricity_normed="0"
            traveltime="1.12" CO_perVeh="0.730149" CO2_perVeh="100.647118" HC_perVeh="0.005511" PMx_perVeh="0.000665" NOx_perVeh="0.033321" fuel_perVeh="0.043265" electricity_perVeh="0"/>
        <edge id=":1105984390_1" sampledSeconds="2396.05" CO_abs="62247.766897" CO2_abs="7397033.928827" HC_abs="460.401562" PMx_abs="133.712636" NOx_abs="2814.506454" fuel_abs="3179.643185" electricity_abs="0"
            CO_normed="1993.595541" CO2_normed="236903.178896" HC_normed="14.745180" PMx_normed="4.282385" NOx_normed="90.139579" fuel_normed="101.833733" electricity_normed="0"
            traveltime="0.65" CO_perVeh="16.815151" CO2_perVeh="1998.179948" HC_perVeh="0.124369" PMx_perVeh="0.036120" NOx_perVeh="0.760290" fuel_perVeh="0.858925" electricity_perVeh="0"/>
        <edge id=":1105984395_0" sampledSeconds="4.15" CO_abs="108.795448" CO2_abs="7631.638394" HC_abs="0.670291" PMx_abs="0.110579" NOx_abs="2.974201" fuel_abs="3.280544" electricity_abs="0"
            CO_normed="49.727990" CO2_normed="3488.252873" HC_normed="0.306375" PMx_normed="0.050543" NOx_normed="1.359442" fuel_normed="1.499464" electricity_normed="0"
            traveltime="0.10" CO_perVeh="2.521840" CO2_perVeh="176.898648" HC_perVeh="0.015537" PMx_perVeh="0.002563" NOx_perVeh="0.068941" fuel_perVeh="0.076042" electricity_perVeh="0"/>
        <edge id=":1105984398_0" sampledSeconds="11.48" CO_abs="816.613850" CO2_abs="52723.133301" HC_abs="4.963914" PMx_abs="0.971595" NOx_abs="21.944925" fuel_abs="22.663350" electricity_abs="0"
            CO_normed="28.403277" CO2_normed="1833.803997" HC_normed="0.172654" PMx_normed="0.033794" NOx_normed="0.763283" fuel_normed="0.788271" electricity_normed="0"
            traveltime="1.19" CO_perVeh="84.832503" CO2_perVeh="5477.050608" HC_perVeh="0.515668" PMx_perVeh="0.100932" NOx_perVeh="2.279710" fuel_perVeh="2.354343" electricity_perVeh="0"/>
        <edge id=":1105984398_1" sampledSeconds="647.78" CO_abs="12578.951769" CO2_abs="1389441.069029" HC_abs="89.358125" PMx_abs="20.623823" NOx_abs="530.975495" fuel_abs="597.260928" electricity_abs="0"
            CO_normed="423.506439" CO2_normed="46779.513072" HC_normed="3.008497" PMx_normed="0.694360" NOx_normed="17.876811" fuel_normed="20.108500" electricity_normed="0"
            traveltime="0.96" CO_perVeh="18.566321" CO2_perVeh="2050.791610" HC_perVeh="0.131891" PMx_perVeh="0.030440" NOx_perVeh="0.783711" fuel_perVeh="0.881547" electricity_perVeh="0"/>
        <edge id=":1106006327_0" sampledSeconds="66.35" CO_abs="8956.811802" CO2_abs="294186.633194" HC_abs="47.711410" PMx_abs="6.134373" NOx_abs="128.768399" fuel_abs="126.460358" electricity_abs="0"
            CO_normed="425.106486" CO2_normed="13962.629620" HC_normed="2.264470" PMx_normed="0.291148" NOx_normed="6.111581" fuel_normed="6.002037" electricity_normed="0"
            traveltime="2.06" CO_perVeh="277.657719" CO2_perVeh="9119.672405" HC_perVeh="1.479035" PMx_perVeh="0.190163" NOx_perVeh="3.991771" fuel_perVeh="3.920222" electricity_perVeh="0"/>
        <edge id=":1106006327_1" sampledSeconds="678.78" CO_abs="91711.478779" CO2_abs="3075808.331941" HC_abs="490.086748" PMx_abs="64.112749" NOx_abs="1345.849720" fuel_abs="1322.178884" electricity_abs="0"
            CO_normed="3795.840821" CO2_normed="127304.444103" HC_normed="20.284171" PMx_normed="2.653559" NOx_normed="55.703292" fuel_normed="54.723581" electricity_normed="0"
            traveltime="2.28" CO_perVeh="307.853236" CO2_perVeh="10324.744081" HC_perVeh="1.645103" PMx_perVeh="0.215211" NOx_perVeh="4.517692" fuel_perVeh="4.438234" electricity_perVeh="0"/>
        <edge id=":1106006327_2" sampledSeconds="0.00" CO_abs="0" CO2_abs="0" HC_abs="0" PMx_abs="0" NOx_abs="0" fuel_abs="0" electricity_abs="0"
            CO_normed="0" CO2_normed="0" HC_normed="0" PMx_normed="0" NOx_normed="0" fuel_normed="0" electricity_normed="0"/>
        <edge id=":1106006327_3" sampledSeconds="0.00" CO_abs="0" CO2_abs="0" HC_abs="0" PMx_abs="0" NOx_abs="0" fuel_abs="0" electricity_abs="0"
            CO_normed="0" CO2_normed="0" HC_normed="0" PMx_normed="0" NOx_normed="0" fuel_normed="0" electricity_normed="0"/>
        <edge id=":1107381198_0" sampledSeconds="0.00" CO_abs="0" CO2_abs="0" HC_abs="0" PMx_abs="0" NOx_abs="0" fuel_abs="0" electricity_abs="0"
            CO_normed="0" CO2_normed="0" HC_normed="0" PMx_normed="0" NOx_normed="0" fuel_normed="0" electricity_normed="0"/>
        <edge id=":1107381198_1" sampledSeconds="102.73" CO_abs="4669.631807" CO2_abs="186945.683630" HC_abs="25.582251" PMx_abs="3.305197" NOx_abs="77.955229" fuel_abs="80.361328" electricity_abs="0"
            CO_normed="214.136799" CO2_normed="8572.827998" HC_normed="1.173133" PMx_normed="0.151567" NOx_normed="3.574818" fuel_normed="3.685155" electricity_normed="0"
            traveltime="1.54" CO_perVeh="69.913342" CO2_perVeh="2798.935343" HC_perVeh="0.383015" PMx_perVeh="0.049485" NOx_perVeh="1.167139" fuel_perVeh="1.203163" electricity_perVeh="0"/>
        <edge id=":1110338277_0" sampledSeconds="160.14" CO_abs="2737.957638" CO2_abs="330605.102516" HC_abs="20.044805" PMx_abs="4.575465" NOx_abs="123.988513" fuel_abs="142.113218" electricity_abs="0"
            CO_normed="4111.939316" CO2_normed="496511.743061" HC_normed="30.103834" PMx_normed="6.871558" NOx_normed="186.209324" fuel_normed="213.429499" electricity_normed="0"
            traveltime="0.02" CO_perVeh="0.370830" CO2_perVeh="44.777287" HC_perVeh="0.002715" PMx_perVeh="0.000620" NOx_perVeh="0.016793" fuel_perVeh="0.019248" electricity_perVeh="0"/>
        <edge id=":1110338293_0" sampledSeconds="7259.53" CO_abs="722504.096766" CO2_abs="12524335.183143" HC_abs="3583.202524" PMx_abs="301.580365" NOx_abs="5674.395284" fuel_abs="5384.003057" electricity_abs="0"
            CO_normed="1012737.899918" CO2_normed="17555428.360907" HC_normed="5022.594357" PMx_normed="422.726828" NOx_normed="7953.830558" fuel_normed="7546.786204" electricity_normed="0"
            traveltime="0.49" CO_perVeh="48.280158" CO2_perVeh="836.918273" HC_perVeh="0.239442" PMx_perVeh="0.020153" NOx_perVeh="0.379182" fuel_perVeh="0.359777" electricity_perVeh="0"/>
        <edge id=":1110338295_0" sampledSeconds="0.00" CO_abs="0" CO2_abs="0" HC_abs="0" PMx_abs="0" NOx_abs="0" fuel_abs="0" electricity_abs="0"
            CO_normed="0" CO2_normed="0" HC_normed="0" PMx_normed="0" NOx_normed="0" fuel_normed="0" electricity_normed="0"/>
        <edge id=":1110673403_0" sampledSeconds="201.53" CO_abs="3003.995077" CO2_abs="366341.038573" HC_abs="22.052164" PMx_abs="5.037315" NOx_abs="137.086010" fuel_abs="157.474623" electricity_abs="0"
            CO_normed="4210.716145" CO2_normed="513502.215031" HC_normed="30.910637" PMx_normed="7.060832" NOx_normed="192.154201" fuel_normed="220.733030" electricity_normed="0"
            traveltime="0.02" CO_perVeh="0.347190" CO2_perVeh="42.340224" HC_perVeh="0.002549" PMx_perVeh="0.000582" NOx_perVeh="0.015844" fuel_perVeh="0.018200" electricity_perVeh="0"/>
        <edge id=":1110673412_0" sampledSeconds="952.02" CO_abs="167179.649940" CO2_abs="11425185.487708" HC_abs="1040.807195" PMx_abs="250.898872" NOx_abs="4908.159519" fuel_abs="4911.124623" electricity_abs="0"
            CO_normed="242417.192555" CO2_normed="16566976.850009" HC_normed="1509.212146" PMx_normed="363.813421" NOx_normed="7117.028009" fuel_normed="7121.327528" electricity_normed="0"
            traveltime="0.02" CO_perVeh="2.729549" CO2_perVeh="186.539500" HC_perVeh="0.016993" PMx_perVeh="0.004096" NOx_perVeh="0.080136" fuel_perVeh="0.080184" electricity_perVeh="0"/>
        <edge id=":1110673414_0" sampledSeconds="0.00" CO_abs="0" CO2_abs="0" HC_abs="0" PMx_abs="0" NOx_abs="0" fuel_abs="0" electricity_abs="0"
            CO_normed="0" CO2_normed="0" HC_normed="0" PMx_normed="0" NOx_normed="0" fuel_normed="0" electricity_normed="0"/>
        <edge id=":1110673414_1" sampledSeconds="7.30" CO_abs="326.319833" CO2_abs="12500.049239" HC_abs="1.774512" PMx_abs="0.222793" NOx_abs="5.230228" fuel_abs="5.373337" electricity_abs="0"
            CO_normed="15.196155" CO2_normed="582.105868" HC_normed="0.082636" PMx_normed="0.010375" NOx_normed="0.243563" fuel_normed="0.250227" electricity_normed="0"
            traveltime="1.59" CO_perVeh="71.278860" CO2_perVeh="2730.417141" HC_perVeh="0.387611" PMx_perVeh="0.048665" NOx_perVeh="1.142452" fuel_perVeh="1.173712" electricity_perVeh="0"/>
        <edge id=":1110673417_0" sampledSeconds="28.74" CO_abs="448.729355" CO2_abs="53073.142558" HC_abs="3.250314" PMx_abs="0.721664" NOx_abs="19.838678" fuel_abs="22.813934" electricity_abs="0"
            CO_normed="673.913960" CO2_normed="79706.690311" HC_normed="4.881410" PMx_normed="1.083815" NOx_normed="29.794266" fuel_normed="34.262588" electricity_normed="0"
            traveltime="0.02" CO_perVeh="0.342178" CO2_perVeh="40.470819" HC_perVeh="0.002479" PMx_perVeh="0.000550" NOx_perVeh="0.015128" fuel_perVeh="0.017397" electricity_perVeh="0"/>
        <edge id=":1110673446_0" sampledSeconds="1330.66" CO_abs="14120.328909" CO2_abs="1128152.447627" HC_abs="91.043229" PMx_abs="20.883407" NOx_abs="462.811451" fuel_abs="484.940716" electricity_abs="0"
            CO_normed="19792.541398" CO2_normed="1581337.387165" HC_normed="127.615787" PMx_normed="29.272384" NOx_normed="648.725314" fuel_normed="679.744024" electricity_normed="0"
            traveltime="0.02" CO_perVeh="0.242149" CO2_perVeh="19.346657" HC_perVeh="0.001561" PMx_perVeh="0.000358" NOx_perVeh="0.007937" fuel_perVeh="0.008316" electricity_perVeh="0"/>
        <edge id=":1110673451_0" sampledSeconds="36.33" CO_abs="302.673950" CO2_abs="19974.739797" HC_abs="1.835834" PMx_abs="0.292367" NOx_abs="7.814364" fuel_abs="8.586371" electricity_abs="0"
            CO_normed="471.399681" CO2_normed="31109.667557" HC_normed="2.859220" PMx_normed="0.455347" NOx_normed="12.170486" fuel_normed="13.372847" electricity_normed="0"
            traveltime="0.03" CO_perVeh="0.223004" CO2_perVeh="14.716967" HC_perVeh="0.001353" PMx_perVeh="0.000215" NOx_perVeh="0.005757" fuel_perVeh="0.006326" electricity_perVeh="0"/>
        <edge id=":1110673464_0" sampledSeconds="1032.40" CO_abs="3937.661726" CO2_abs="288203.754400" HC_abs="24.509180" PMx_abs="4.006193" NOx_abs="110.971185" fuel_abs="123.887685" electricity_abs="0"
            CO_normed="117.268592" CO2_normed="8583.075663" HC_normed="0.729915" PMx_normed="0.119310" NOx_normed="3.304864" fuel_normed="3.689533" electricity_normed="0"
            traveltime="1.22" CO_perVeh="4.669516" CO2_perVeh="341.769318" HC_perVeh="0.029064" PMx_perVeh="0.004751" NOx_perVeh="0.131596" fuel_perVeh="0.146913" electricity_perVeh="0"/>
        <edge id=":1110673464_1" sampledSeconds="2596.75" CO_abs="61638.490180" CO2_abs="7582390.349791" HC_abs="461.611770" PMx_abs="135.260080" NOx_abs="2870.951473" fuel_abs="3259.320461" electricity_abs="0"
            CO_normed="1798.730154" CO2_normed="221268.790300" HC_normed="13.470723" PMx_normed="3.947150" NOx_normed="83.779907" fuel_normed="95.113264" electricity_normed="0"
            traveltime="0.72" CO_perVeh="16.998336" CO2_perVeh="2091.031425" HC_perVeh="0.127301" PMx_perVeh="0.037301" NOx_perVeh="0.791736" fuel_perVeh="0.898838" electricity_perVeh="0"/>
        <edge id=":1110673479_0" sampledSeconds="134.64" CO_abs="6262.699595" CO2_abs="434691.789070" HC_abs="38.714985" PMx_abs="7.521446" NOx_abs="177.163140" fuel_abs="186.855239" electricity_abs="0"
            CO_normed="8778.459892" CO2_normed="609309.831659" HC_normed="54.267004" PMx_normed="10.542852" NOx_normed="248.330531" fuel_normed="261.915999" electricity_normed="0"
            traveltime="0.03" CO_perVeh="1.323991" CO2_perVeh="91.897774" HC_perVeh="0.008185" PMx_perVeh="0.001590" NOx_perVeh="0.037454" fuel_perVeh="0.039503" electricity_perVeh="0"/>
        <edge id=":1110673511_0" sampledSeconds="63.12" CO_abs="1338.983437" CO2_abs="140573.231028" HC_abs="9.348497" PMx_abs="2.033330" NOx_abs="53.616107" fuel_abs="60.426500" electricity_abs="0"
            CO_normed="1876.860326" CO2_normed="197042.258187" HC_normed="13.103838" PMx_normed="2.850130" NOx_normed="75.153988" fuel_normed="84.700152" electricity_normed="0"
            traveltime="0.02" CO_perVeh="0.513184" CO2_perVeh="53.876677" HC_perVeh="0.003583" PMx_perVeh="0.000779" NOx_perVeh="0.020549" fuel_perVeh="0.023159" electricity_perVeh="0"/>
        <edge id=":1110673517_0" sampledSeconds="182.79" CO_abs="7903.950330" CO2_abs="564160.448768" HC_abs="49.249573" PMx_abs="9.827444" NOx_abs="230.070567" fuel_abs="242.507965" electricity_abs="0"
            CO_normed="11079.009925" CO2_normed="790786.752157" HC_normed="69.033392" PMx_normed="13.775182" NOx_normed="322.491158" fuel_normed="339.924726" electricity_normed="0"
            traveltime="0.03" CO_perVeh="1.210159" CO2_perVeh="86.377531" HC_perVeh="0.007541" PMx_perVeh="0.001505" NOx_perVeh="0.035226" fuel_perVeh="0.037130" electricity_perVeh="0"/>
        <edge id=":1110673534_0" sampledSeconds="738.47" CO_abs="5355.577594" CO2_abs="454445.964178" HC_abs="34.799014" PMx_abs="6.277534" NOx_abs="173.600263" fuel_abs="195.348252" electricity_abs="0"
            CO_normed="145.483374" CO2_normed="12344.948949" HC_normed="0.945309" PMx_normed="0.170528" NOx_normed="4.715822" fuel_normed="5.306603" electricity_normed="0"
            traveltime="1.46" CO_perVeh="10.562085" CO2_perVeh="896.242633" HC_perVeh="0.068629" PMx_perVeh="0.012380" NOx_perVeh="0.342368" fuel_perVeh="0.385259" electricity_perVeh="0"/>
        <edge id=":1110673534_1" sampledSeconds="200.32" CO_abs="2951.674599" CO2_abs="375741.185454" HC_abs="22.041882" PMx_abs="5.040992" NOx_abs="139.522606" fuel_abs="161.515466" electricity_abs="0"
            CO_normed="77.965671" CO2_normed="9924.845196" HC_normed="0.582215" PMx_normed="0.133153" NOx_normed="3.685357" fuel_normed="4.266277" electricity_normed="0"
            traveltime="1.22" CO_perVeh="18.042722" CO2_perVeh="2296.795731" HC_perVeh="0.134736" PMx_perVeh="0.030814" NOx_perVeh="0.852861" fuel_perVeh="0.987297" electricity_perVeh="0"/>
        <edge id=":1110673549_0" sampledSeconds="648.48" CO_abs="1236.250744" CO2_abs="150813.791674" HC_abs="9.028943" PMx_abs="1.994885" NOx_abs="55.579316" fuel_abs="64.828663" electricity_abs="0"
            CO_normed="32.531778" CO2_normed="3968.645321" HC_normed="0.237595" PMx_normed="0.052495" NOx_normed="1.462562" fuel_normed="1.705958" electricity_normed="0"
            traveltime="1.29" CO_perVeh="2.456136" CO2_perVeh="299.631090" HC_perVeh="0.017938" PMx_perVeh="0.003963" NOx_perVeh="0.110423" fuel_perVeh="0.128799" electricity_perVeh="0"/>
        <edge id=":1110673549_1" sampledSeconds="3196.66" CO_abs="72197.090165" CO2_abs="9358150.994309" HC_abs="552.082059" PMx_abs="165.155479" NOx_abs="3505.106318" fuel_abs="4022.640349" electricity_abs="0"
            CO_normed="1837.755177" CO2_normed="238208.913921" HC_normed="14.053082" PMx_normed="4.203983" NOx_normed="89.221425" fuel_normed="102.395098" electricity_normed="0"
            traveltime="0.81" CO_perVeh="18.211475" CO2_perVeh="2360.562308" HC_perVeh="0.139261" PMx_perVeh="0.041660" NOx_perVeh="0.884151" fuel_perVeh="1.014698" electricity_perVeh="0"/>
        <edge id=":1110673556_0" sampledSeconds="466.01" CO_abs="57306.762595" CO2_abs="2757641.756837" HC_abs="326.435028" PMx_abs="55.689301" NOx_abs="1189.049659" fuel_abs="1185.392609" electricity_abs="0"
            CO_normed="1118.244070" CO2_normed="53810.691850" HC_normed="6.369825" PMx_normed="1.086682" NOx_normed="23.202283" fuel_normed="23.130922" electricity_normed="0"
            traveltime="2.75" CO_perVeh="337.817855" CO2_perVeh="16256.033006" HC_perVeh="1.924303" PMx_perVeh="0.328283" NOx_perVeh="7.009333" fuel_perVeh="6.987775" electricity_perVeh="0"/>
        <edge id=":1110673556_2" sampledSeconds="171.17" CO_abs="17024.284790" CO2_abs="744258.277488" HC_abs="95.045379" PMx_abs="14.560618" NOx_abs="318.620080" fuel_abs="319.926872" electricity_abs="0"
            CO_normed="347.351267" CO2_normed="15185.310811" HC_normed="1.939238" PMx_normed="0.297084" NOx_normed="6.500895" fuel_normed="6.527558" electricity_normed="0"
            traveltime="2.96" CO_perVeh="294.374211" CO2_perVeh="12869.289129" HC_perVeh="1.643470" PMx_perVeh="0.251774" NOx_perVeh="5.509396" fuel_perVeh="5.531993" electricity_perVeh="0"/>
        <edge id=":1110673556_3" sampledSeconds="351.73" CO_abs="35006.228445" CO2_abs="1220419.361341" HC_abs="187.920187" PMx_abs="24.007282" NOx_abs="525.078882" fuel_abs="524.615164" electricity_abs="0"
            CO_normed="1624.782110" CO2_normed="56644.649640" HC_normed="8.722144" PMx_normed="1.114276" NOx_normed="24.371057" fuel_normed="24.349534" electricity_normed="0"
            traveltime="1.82" CO_perVeh="180.832348" CO2_perVeh="6304.343773" HC_perVeh="0.970743" PMx_perVeh="0.124015" NOx_perVeh="2.712410" fuel_perVeh="2.710015" electricity_perVeh="0"/>
        <edge id=":1110673556_4" sampledSeconds="71.82" CO_abs="8042.681277" CO2_abs="317389.645145" HC_abs="44.081868" PMx_abs="6.279794" NOx_abs="136.582291" fuel_abs="136.433653" electricity_abs="0"
            CO_normed="228.054009" CO2_normed="8999.732612" HC_normed="1.249962" PMx_normed="0.178067" NOx_normed="3.872855" fuel_normed="3.868640" electricity_normed="0"
            traveltime="2.47" CO_perVeh="276.889598" CO2_perVeh="10926.939450" HC_perVeh="1.517630" PMx_perVeh="0.216198" NOx_perVeh="4.702190" fuel_perVeh="4.697073" electricity_perVeh="0"/>
        <edge id=":1110673556_5" sampledSeconds="22.74" CO_abs="1021.317464" CO2_abs="45908.787253" HC_abs="5.712666" PMx_abs="0.796080" NOx_abs="19.002115" fuel_abs="19.734482" electricity_abs="0"
            CO_normed="40.364273" CO2_normed="1814.396486" HC_normed="0.225775" PMx_normed="0.031462" NOx_normed="0.750997" fuel_normed="0.779942" electricity_normed="0"
            traveltime="1.57" CO_perVeh="70.609602" CO2_perVeh="3173.940847" HC_perVeh="0.394950" PMx_perVeh="0.055038" NOx_perVeh="1.313726" fuel_perVeh="1.364359" electricity_perVeh="0"/>
        <edge id=":1110673556_6" sampledSeconds="556.07" CO_abs="66583.793039" CO2_abs="3186698.639650" HC_abs="378.810376" PMx_abs="64.153342" NOx_abs="1373.229360" fuel_abs="1369.826435" electricity_abs="0"
            CO_normed="1332.029441" CO2_normed="63750.895114" HC_normed="7.578219" PMx_normed="1.283408" NOx_normed="27.471879" fuel_normed="27.403803" electricity_normed="0"
            traveltime="2.70" CO_perVeh="323.279037" CO2_perVeh="15472.126459" HC_perVeh="1.839208" PMx_perVeh="0.311479" NOx_perVeh="6.667332" fuel_perVeh="6.650810" electricity_perVeh="0"/>
        <edge id=":1110673561_0" sampledSeconds="101.51" CO_abs="10367.720043" CO2_abs="733153.040666" HC_abs="64.869819" PMx_abs="14.916218" NOx_abs="310.976697" fuel_abs="315.147506" electricity_abs="0"
            CO_normed="260.594547" CO2_normed="18427.936321" HC_normed="1.630515" PMx_normed="0.374922" NOx_normed="7.816456" fuel_normed="7.921290" electricity_normed="0"
            traveltime="1.20" CO_perVeh="122.349159" CO2_perVeh="8651.917478" HC_perVeh="0.765527" PMx_perVeh="0.176026" NOx_perVeh="3.669827" fuel_perVeh="3.719046" electricity_perVeh="0"/>
        <edge id=":1110673561_1" sampledSeconds="5255.11" CO_abs="488315.434492" CO2_abs="33773793.750054" HC_abs="3040.586533" PMx_abs="706.519811" NOx_abs="14444.285570" fuel_abs="14517.722481" electricity_abs="0"
            CO_normed="11966.335410" CO2_normed="827638.275463" HC_normed="74.510605" PMx_normed="17.313508" NOx_normed="353.962119" fuel_normed="355.761715" electricity_normed="0"
            traveltime="1.19" CO_perVeh="110.988660" CO2_perVeh="7676.407180" HC_perVeh="0.691091" PMx_perVeh="0.160584" NOx_perVeh="3.283025" fuel_perVeh="3.299717" electricity_perVeh="0"/>
        <edge id=":1110673562_0" sampledSeconds="300.96" CO_abs="6636.353245" CO2_abs="504533.697578" HC_abs="41.737967" PMx_abs="6.948866" NOx_abs="193.633137" fuel_abs="216.879492" electricity_abs="0"
            CO_normed="10335.791372" CO2_normed="785786.236153" HC_normed="65.004816" PMx_normed="10.822515" NOx_normed="301.574017" fuel_normed="337.779063" electricity_normed="0"
            traveltime="0.03" CO_perVeh="0.594892" CO2_perVeh="45.227124" HC_perVeh="0.003741" PMx_perVeh="0.000623" NOx_perVeh="0.017358" fuel_perVeh="0.019441" electricity_perVeh="0"/>
        <edge id=":1110673564_0" sampledSeconds="27.81" CO_abs="484.834993" CO2_abs="56307.451774" HC_abs="3.494966" PMx_abs="0.770327" NOx_abs="21.098370" fuel_abs="24.204229" electricity_abs="0"
            CO_normed="2038.787496" CO2_normed="236779.379030" HC_normed="14.696739" PMx_normed="3.239314" NOx_normed="88.721098" fuel_normed="101.781595" electricity_normed="0"
            traveltime="7.853818e-03" CO_perVeh="0.136940" CO2_perVeh="15.903814" HC_perVeh="0.000987" PMx_perVeh="0.000218" NOx_perVeh="0.005959" fuel_perVeh="0.006836" electricity_perVeh="0"/>
        <edge id=":1110673588_0" sampledSeconds="62.68" CO_abs="1030.800843" CO2_abs="111733.393671" HC_abs="7.273411" PMx_abs="1.567235" NOx_abs="42.264140" fuel_abs="48.029522" electricity_abs="0"
            CO_normed="1733.854939" CO2_normed="187940.762628" HC_normed="12.234215" PMx_normed="2.636163" NOx_normed="71.090248" fuel_normed="80.787888" electricity_normed="0"
            traveltime="0.02" CO_perVeh="0.332516" CO2_perVeh="36.043030" HC_perVeh="0.002346" PMx_perVeh="0.000506" NOx_perVeh="0.013634" fuel_perVeh="0.015493" electricity_perVeh="0"/>
        <edge id=":1110673601_0" sampledSeconds="28.87" CO_abs="468.192874" CO2_abs="54094.968761" HC_abs="3.376270" PMx_abs="0.769214" NOx_abs="20.427496" fuel_abs="23.253135" electricity_abs="0"
            CO_normed="703.144804" CO2_normed="81241.296719" HC_normed="5.070574" PMx_normed="1.155226" NOx_normed="30.678570" fuel_normed="34.922192" electricity_normed="0"
            traveltime="0.02" CO_perVeh="0.357020" CO2_perVeh="41.250010" HC_perVeh="0.002575" PMx_perVeh="0.000587" NOx_perVeh="0.015577" fuel_perVeh="0.017732" electricity_perVeh="0"/>
        <edge id=":1110673617_0" sampledSeconds="851.97" CO_abs="31595.829730" CO2_abs="3177782.642572" HC_abs="220.096589" PMx_abs="60.155676" NOx_abs="1247.318323" fuel_abs="1365.979844" electricity_abs="0"
            CO_normed="44288.045411" CO2_normed="4454315.116325" HC_normed="308.510579" PMx_normed="84.320536" NOx_normed="1748.372839" fuel_normed="1914.701335" electricity_normed="0"
            traveltime="0.02" CO_perVeh="0.560389" CO2_perVeh="56.361734" HC_perVeh="0.003904" PMx_perVeh="0.001067" NOx_perVeh="0.022123" fuel_perVeh="0.024227" electricity_perVeh="0"/>
        <edge id=":1110673621_0" sampledSeconds="26.29" CO_abs="690.065275" CO2_abs="69140.524489" HC_abs="4.743368" PMx_abs="1.045659" NOx_abs="26.704223" fuel_abs="29.720546" electricity_abs="0"
            CO_normed="1160.721873" CO2_normed="116297.576527" HC_normed="7.978565" PMx_normed="1.758847" NOx_normed="44.917745" fuel_normed="49.991341" electricity_normed="0"
            traveltime="0.02" CO_perVeh="0.522777" CO2_perVeh="52.379185" HC_perVeh="0.003593" PMx_perVeh="0.000792" NOx_perVeh="0.020230" fuel_perVeh="0.022516" electricity_perVeh="0"/>
        <edge id=":1110673630_0" sampledSeconds="286.50" CO_abs="968.584667" CO2_abs="92796.986255" HC_abs="6.507003" PMx_abs="1.097527" NOx_abs="34.118564" fuel_abs="39.889924" electricity_abs="0"
            CO_normed="29.051434" CO2_normed="2783.324626" HC_normed="0.195169" PMx_normed="0.032919" NOx_normed="1.023342" fuel_normed="1.196446" electricity_normed="0"
            traveltime="1.29" CO_perVeh="4.358261" CO2_perVeh="417.550997" HC_perVeh="0.029279" PMx_perVeh="0.004938" NOx_perVeh="0.153521" fuel_perVeh="0.179489" electricity_perVeh="0"/>
        <edge id=":1110673630_1" sampledSeconds="337.68" CO_abs="1179.626153" CO2_abs="101724.362621" HC_abs="7.680097" PMx_abs="1.288361" NOx_abs="38.111965" fuel_abs="43.727420" electricity_abs="0"
            CO_normed="43.134479" CO2_normed="3719.676241" HC_normed="0.280832" PMx_normed="0.047110" NOx_normed="1.393611" fuel_normed="1.598947" electricity_normed="0"
            traveltime="1.08" CO_perVeh="3.760416" CO2_perVeh="324.277247" HC_perVeh="0.024483" PMx_perVeh="0.004107" NOx_perVeh="0.121493" fuel_perVeh="0.139394" electricity_perVeh="0"/>
        <edge id=":1110673650_0" sampledSeconds="200.36" CO_abs="2873.094676" CO2_abs="363440.836022" HC_abs="21.328951" PMx_abs="4.926044" NOx_abs="135.360220" fuel_abs="156.227974" electricity_abs="0"
            CO_normed="4027.232345" CO2_normed="509436.985430" HC_normed="29.896906" PMx_normed="6.904862" NOx_normed="189.735152" fuel_normed="218.985595" electricity_normed="0"
            traveltime="0.02" CO_perVeh="0.332060" CO2_perVeh="42.004951" HC_perVeh="0.002465" PMx_perVeh="0.000569" NOx_perVeh="0.015644" fuel_perVeh="0.018056" electricity_perVeh="0"/>
        <edge id=":1110673655_0" sampledSeconds="20.63" CO_abs="361.505711" CO2_abs="38489.202241" HC_abs="2.524889" PMx_abs="0.542921" NOx_abs="14.589778" fuel_abs="16.544899" electricity_abs="0"
            CO_normed="506.724510" CO2_normed="53950.522941" HC_normed="3.539151" PMx_normed="0.761015" NOx_normed="20.450570" fuel_normed="23.191075" electricity_normed="0"
            traveltime="0.02" CO_perVeh="0.412992" CO2_perVeh="43.970909" HC_perVeh="0.002884" PMx_perVeh="0.000620" NOx_perVeh="0.016668" fuel_perVeh="0.018901" electricity_perVeh="0"/>
        <edge id=":1110673663_0" sampledSeconds="111.40" CO_abs="1612.204523" CO2_abs="181390.904896" HC_abs="11.487875" PMx_abs="2.481936" NOx_abs="68.102495" fuel_abs="77.972426" electricity_abs="0"
            CO_normed="41.388934" CO2_normed="4656.714513" HC_normed="0.294920" PMx_normed="0.063717" NOx_normed="1.748345" fuel_normed="2.001728" electricity_normed="0"
            traveltime="1.31" CO_perVeh="18.936103" CO2_perVeh="2130.521750" HC_perVeh="0.134931" PMx_perVeh="0.029152" NOx_perVeh="0.799896" fuel_perVeh="0.915823" electricity_perVeh="0"/>
        <edge id=":1110673663_1" sampledSeconds="170.60" CO_abs="2526.618079" CO2_abs="307805.944789" HC_abs="18.517074" PMx_abs="4.206373" NOx_abs="115.065229" fuel_abs="132.312878" electricity_abs="0"
            CO_normed="64.943293" CO2_normed="7911.734551" HC_normed="0.475956" PMx_normed="0.108119" NOx_normed="2.957596" fuel_normed="3.400923" electricity_normed="0"
            traveltime="1.28" CO_perVeh="18.892450" CO2_perVeh="2301.577878" HC_perVeh="0.138459" PMx_perVeh="0.031453" NOx_perVeh="0.860385" fuel_perVeh="0.989352" electricity_perVeh="0"/>