<?xml version="1.0" encoding="UTF-8"?>

<!-- generated on Mon Nov  9 20:15:12 2020 by Eclipse SUMO sumo Version 1.7.0
<configuration xmlns:xsi="http://www.w3.org/2001/XMLSchema-instance" xsi:noNamespaceSchemaLocation="http://sumo.dlr.de/xsd/sumoConfiguration.xsd">

    <input>
        <net-file value="../dataSets/Angeja_Estarreja/angeja_estarreja.net.xml"/>
        <route-files value="../results/angeja_estarreja/cost_nox-ttime/solution2/angeja_estarreja.rou.xml"/>
        <additional-files value="moreOutputInfo.xml"/>
    </input>

    <output>
        <emission-output.precision value="6"/>
        <tripinfo-output value="../results/angeja_estarreja/cost_nox-ttime/solution2/angeja_estarreja-tripinfo"/>
    </output>

    <processing>
        <collision.action value="warn"/>
        <time-to-teleport value="-1"/>
    </processing>

    <emissions>
        <device.emissions.probability value="1"/>
    </emissions>

    <gui_only>
        <quit-on-end value="true"/>
        <start value="true"/>
    </gui_only>

</configuration>
-->

<meandata xmlns:xsi="http://www.w3.org/2001/XMLSchema-instance" xsi:noNamespaceSchemaLocation="http://sumo.dlr.de/xsd/meandata_file.xsd">
    <interval begin="0.00" end="19080.00" id="emissions-detector">
        <edge id=":10_0" sampledSeconds="384.09" CO_abs="39385.189397" CO2_abs="2155669.833232" HC_abs="230.499382" PMx_abs="42.386244" NOx_abs="920.655191" fuel_abs="926.627816" electricity_abs="0"
            CO_normed="424.880950" CO2_normed="23255.011848" HC_normed="2.486589" PMx_normed="0.457256" NOx_normed="9.931877" fuel_normed="9.996309" electricity_normed="0"
            traveltime="1.92" CO_perVeh="196.511947" CO2_perVeh="10755.689727" HC_perVeh="1.150074" PMx_perVeh="0.211486" NOx_perVeh="4.593598" fuel_perVeh="4.623399" electricity_perVeh="0"/>
        <edge id=":10_1" sampledSeconds="0.00" CO_abs="0" CO2_abs="0" HC_abs="0" PMx_abs="0" NOx_abs="0" fuel_abs="0" electricity_abs="0"
            CO_normed="0" CO2_normed="0" HC_normed="0" PMx_normed="0" NOx_normed="0" fuel_normed="0" electricity_normed="0"/>
        <edge id=":100_0" sampledSeconds="0.00" CO_abs="0" CO2_abs="0" HC_abs="0" PMx_abs="0" NOx_abs="0" fuel_abs="0" electricity_abs="0"
            CO_normed="0" CO2_normed="0" HC_normed="0" PMx_normed="0" NOx_normed="0" fuel_normed="0" electricity_normed="0"/>
        <edge id=":100_1" sampledSeconds="912.14" CO_abs="21323.519527" CO2_abs="2661332.424430" HC_abs="161.700476" PMx_abs="48.260137" NOx_abs="995.694345" fuel_abs="1143.984701" electricity_abs="0"
            CO_normed="136.106413" CO2_normed="16987.083670" HC_normed="1.032122" PMx_normed="0.308041" NOx_normed="6.355442" fuel_normed="7.301968" electricity_normed="0"
            traveltime="1.37" CO_perVeh="32.061847" CO2_perVeh="4001.554809" HC_perVeh="0.243131" PMx_perVeh="0.072563" NOx_perVeh="1.497117" fuel_perVeh="1.720085" electricity_perVeh="0"/>
        <edge id=":101_0" sampledSeconds="438.63" CO_abs="9744.363834" CO2_abs="1237108.820798" HC_abs="74.402170" PMx_abs="22.331871" NOx_abs="461.449476" fuel_abs="531.776410" electricity_abs="0"
            CO_normed="225.037847" CO2_normed="28569.982698" HC_normed="1.718255" PMx_normed="0.515736" NOx_normed="10.656786" fuel_normed="12.280927" electricity_normed="0"
            traveltime="0.38" CO_perVeh="8.417865" CO2_perVeh="1068.701368" HC_perVeh="0.064274" PMx_perVeh="0.019292" NOx_perVeh="0.398632" fuel_perVeh="0.459386" electricity_perVeh="0"/>
        <edge id=":102_0" sampledSeconds="341.29" CO_abs="7970.651015" CO2_abs="1032350.856183" HC_abs="61.375211" PMx_abs="18.536956" NOx_abs="383.887641" fuel_abs="443.760416" electricity_abs="0"
            CO_normed="185.666224" CO2_normed="24047.306224" HC_normed="1.429658" PMx_normed="0.431795" NOx_normed="8.942177" fuel_normed="10.336837" electricity_normed="0"
            traveltime="0.38" CO_perVeh="8.768414" CO2_perVeh="1135.676375" HC_perVeh="0.067518" PMx_perVeh="0.020392" NOx_perVeh="0.422310" fuel_perVeh="0.488175" electricity_perVeh="0"/>
        <edge id=":103_0" sampledSeconds="434.27" CO_abs="10226.806514" CO2_abs="1305586.446994" HC_abs="78.275483" PMx_abs="23.535308" NOx_abs="486.543597" fuel_abs="561.211833" electricity_abs="0"
            CO_normed="239.700141" CO2_normed="30600.877698" HC_normed="1.834653" PMx_normed="0.551630" NOx_normed="11.403811" fuel_normed="13.153916" electricity_normed="0"
            traveltime="0.37" CO_perVeh="8.786490" CO2_perVeh="1121.711129" HC_perVeh="0.067251" PMx_perVeh="0.020221" NOx_perVeh="0.418020" fuel_perVeh="0.482172" electricity_perVeh="0"/>
        <edge id=":104_0" sampledSeconds="340.95" CO_abs="8905.995341" CO2_abs="1085071.419517" HC_abs="66.944035" PMx_abs="19.821004" NOx_abs="407.551976" fuel_abs="466.422317" electricity_abs="0"
            CO_normed="207.710319" CO2_normed="25306.607727" HC_normed="1.561304" PMx_normed="0.462276" NOx_normed="9.505142" fuel_normed="10.878147" electricity_normed="0"
            traveltime="0.37" CO_perVeh="9.792917" CO2_perVeh="1193.130513" HC_perVeh="0.073611" PMx_perVeh="0.021795" NOx_perVeh="0.448139" fuel_perVeh="0.512872" electricity_perVeh="0"/>
        <edge id=":105_0" sampledSeconds="168.71" CO_abs="3809.123839" CO2_abs="506065.376188" HC_abs="29.619197" PMx_abs="9.021362" NOx_abs="187.423880" fuel_abs="217.534407" electricity_abs="0"
            CO_normed="3266.830051" CO2_normed="434018.332923" HC_normed="25.402399" PMx_normed="7.737017" NOx_normed="160.740892" fuel_normed="186.564672" electricity_normed="0"
            traveltime="0.01" CO_perVeh="0.230346" CO2_perVeh="30.602847" HC_perVeh="0.001791" PMx_perVeh="0.000546" NOx_perVeh="0.011334" fuel_perVeh="0.013155" electricity_perVeh="0"/>
        <edge id=":106_0" sampledSeconds="134.56" CO_abs="2952.434123" CO2_abs="380875.593218" HC_abs="22.693003" PMx_abs="6.845745" NOx_abs="141.719472" fuel_abs="163.720992" electricity_abs="0"
            CO_normed="1796.977555" CO2_normed="231817.159597" HC_normed="13.811932" PMx_normed="4.166613" NOx_normed="86.256526" fuel_normed="99.647591" electricity_normed="0"
            traveltime="0.01" CO_perVeh="0.315673" CO2_perVeh="40.722994" HC_perVeh="0.002426" PMx_perVeh="0.000732" NOx_perVeh="0.015153" fuel_perVeh="0.017505" electricity_perVeh="0"/>
        <edge id=":107_0" sampledSeconds="438.24" CO_abs="10823.163649" CO2_abs="1332810.308319" HC_abs="81.651354" PMx_abs="24.264943" NOx_abs="499.673365" fuel_abs="572.913935" electricity_abs="0"
            CO_normed="249.951817" CO2_normed="30780.127672" HC_normed="1.885669" PMx_normed="0.560378" NOx_normed="11.539534" fuel_normed="13.230963" electricity_normed="0"
            traveltime="0.38" CO_perVeh="9.349808" CO2_perVeh="1151.375025" HC_perVeh="0.070536" PMx_perVeh="0.020962" NOx_perVeh="0.431653" fuel_perVeh="0.494923" electricity_perVeh="0"/>
        <edge id=":108_0" sampledSeconds="92.82" CO_abs="8281.762258" CO2_abs="598846.090769" HC_abs="52.126831" PMx_abs="12.084032" NOx_abs="253.032435" fuel_abs="257.415385" electricity_abs="0"
            CO_normed="129.891659" CO2_normed="9392.338192" HC_normed="0.817560" PMx_normed="0.189527" NOx_normed="3.968576" fuel_normed="4.037318" electricity_normed="0"
            traveltime="0.85" CO_perVeh="75.896315" CO2_perVeh="5487.987934" HC_perVeh="0.477704" PMx_perVeh="0.110741" NOx_perVeh="2.318858" fuel_perVeh="2.359024" electricity_perVeh="0"/>
        <edge id=":108_1" sampledSeconds="402.46" CO_abs="10218.411711" CO2_abs="1229468.935817" HC_abs="76.477635" PMx_abs="22.549674" NOx_abs="462.703423" fuel_abs="528.492113" electricity_abs="0"
            CO_normed="149.457536" CO2_normed="17982.579140" HC_normed="1.118585" PMx_normed="0.329818" NOx_normed="6.767638" fuel_normed="7.729883" electricity_normed="0"
            traveltime="0.60" CO_perVeh="15.179737" CO2_perVeh="1826.410577" HC_perVeh="0.113610" PMx_perVeh="0.033498" NOx_perVeh="0.687359" fuel_perVeh="0.785090" electricity_perVeh="0"/>
        <edge id=":109_0" sampledSeconds="306.74" CO_abs="83.566704" CO2_abs="15723.561705" HC_abs="0.733637" PMx_abs="0.201909" NOx_abs="5.635723" fuel_abs="6.758897" electricity_abs="0"
            CO_normed="1.256359" CO2_normed="236.391216" HC_normed="0.011030" PMx_normed="0.003036" NOx_normed="0.084729" fuel_normed="0.101615" electricity_normed="0"
            traveltime="0.85" CO_perVeh="0.232269" CO2_perVeh="43.702689" HC_perVeh="0.002039" PMx_perVeh="0.000561" NOx_perVeh="0.015664" fuel_perVeh="0.018786" electricity_perVeh="0"/>
        <edge id=":109_1" sampledSeconds="524.73" CO_abs="12088.269692" CO2_abs="1538778.786510" HC_abs="92.311364" PMx_abs="27.734181" NOx_abs="573.865528" fuel_abs="661.450515" electricity_abs="0"
            CO_normed="118.544990" CO2_normed="15090.208945" HC_normed="0.905262" PMx_normed="0.271978" NOx_normed="5.627677" fuel_normed="6.486590" electricity_normed="0"
            traveltime="0.89" CO_perVeh="20.583477" CO2_perVeh="2620.177925" HC_perVeh="0.157185" PMx_perVeh="0.047225" NOx_perVeh="0.977158" fuel_perVeh="1.126294" electricity_perVeh="0"/>
        <edge id=":11_0" sampledSeconds="268.29" CO_abs="15991.381589" CO2_abs="1172784.076678" HC_abs="100.474580" PMx_abs="20.782063" NOx_abs="479.659064" fuel_abs="504.127890" electricity_abs="0"
            CO_normed="165.328318" CO2_normed="12124.932300" HC_normed="1.038765" PMx_normed="0.214857" NOx_normed="4.958998" fuel_normed="5.211971" electricity_normed="0"
            traveltime="1.59" CO_perVeh="94.692639" CO2_perVeh="6944.616937" HC_perVeh="0.594958" PMx_perVeh="0.123061" NOx_perVeh="2.840291" fuel_perVeh="2.985183" electricity_perVeh="0"/>
        <edge id=":11_1" sampledSeconds="50.76" CO_abs="1005.999658" CO2_abs="93351.072219" HC_abs="6.692330" PMx_abs="1.126627" NOx_abs="34.530441" fuel_abs="40.128091" electricity_abs="0"
            CO_normed="10.663554" CO2_normed="989.517407" HC_normed="0.070938" PMx_normed="0.011942" NOx_normed="0.366021" fuel_normed="0.425356" electricity_normed="0"
            traveltime="1.67" CO_perVeh="33.087202" CO2_perVeh="3070.305036" HC_perVeh="0.220110" PMx_perVeh="0.037055" NOx_perVeh="1.135702" fuel_perVeh="1.319808" electricity_perVeh="0"/>
        <edge id=":110_0" sampledSeconds="94.90" CO_abs="0.846918" CO2_abs="1122.717758" HC_abs="0.029695" PMx_abs="0.011808" NOx_abs="0.375196" fuel_abs="0.482610" electricity_abs="0"
            CO_normed="0.010983" CO2_normed="14.559006" HC_normed="0.000385" PMx_normed="0.000153" NOx_normed="0.004865" fuel_normed="0.006258" electricity_normed="0"
            traveltime="0.93" CO_perVeh="0.008292" CO2_perVeh="10.992224" HC_perVeh="0.000291" PMx_perVeh="0.000116" NOx_perVeh="0.003673" fuel_perVeh="0.004725" electricity_perVeh="0"/>
        <edge id=":110_1" sampledSeconds="443.65" CO_abs="10633.339111" CO2_abs="1315041.835095" HC_abs="80.373105" PMx_abs="23.919298" NOx_abs="492.595860" fuel_abs="565.276111" electricity_abs="0"
            CO_normed="136.482340" CO2_normed="16878.986460" HC_normed="1.031615" PMx_normed="0.307012" NOx_normed="6.322627" fuel_normed="7.255501" electricity_normed="0"
            traveltime="0.68" CO_perVeh="16.334454" CO2_perVeh="2020.107681" HC_perVeh="0.123466" PMx_perVeh="0.036744" NOx_perVeh="0.756703" fuel_perVeh="0.868352" electricity_perVeh="0"/>
        <edge id=":111_0" sampledSeconds="341.30" CO_abs="7653.331549" CO2_abs="970689.169076" HC_abs="58.403951" PMx_abs="17.521126" NOx_abs="362.252652" fuel_abs="417.254794" electricity_abs="0"
            CO_normed="176.747224" CO2_normed="22417.246001" HC_normed="1.348790" PMx_normed="0.404636" NOx_normed="8.365919" fuel_normed="9.636147" electricity_normed="0"
            traveltime="0.38" CO_perVeh="8.505513" CO2_perVeh="1078.773213" HC_perVeh="0.064907" PMx_perVeh="0.019472" NOx_perVeh="0.402589" fuel_perVeh="0.463715" electricity_perVeh="0"/>
        <edge id=":114_0" sampledSeconds="107.90" CO_abs="9832.152210" CO2_abs="717232.633475" HC_abs="62.019289" PMx_abs="14.447997" NOx_abs="302.623048" fuel_abs="308.304104" electricity_abs="0"
            CO_normed="130.642469" CO2_normed="9530.064224" HC_normed="0.824067" PMx_normed="0.191974" NOx_normed="4.021034" fuel_normed="4.096520" electricity_normed="0"
            traveltime="1.00" CO_perVeh="90.958377" CO2_perVeh="6635.202056" HC_perVeh="0.573748" PMx_perVeh="0.133660" NOx_perVeh="2.799601" fuel_perVeh="2.852157" electricity_perVeh="0"/>
        <edge id=":114_1" sampledSeconds="416.04" CO_abs="11348.524522" CO2_abs="1347922.318547" HC_abs="84.474694" PMx_abs="24.795125" NOx_abs="508.694409" fuel_abs="579.409681" electricity_abs="0"
            CO_normed="149.841221" CO2_normed="17797.408381" HC_normed="1.115369" PMx_normed="0.327385" NOx_normed="6.716590" fuel_normed="7.650286" electricity_normed="0"
            traveltime="0.66" CO_perVeh="18.083554" CO2_perVeh="2147.876181" HC_perVeh="0.134608" PMx_perVeh="0.039510" NOx_perVeh="0.810590" fuel_perVeh="0.923273" electricity_perVeh="0"/>
        <edge id=":115_0" sampledSeconds="80.07" CO_abs="165.935924" CO2_abs="21068.946988" HC_abs="1.241002" PMx_abs="0.281670" NOx_abs="7.839043" fuel_abs="9.056662" electricity_abs="0"
            CO_normed="3.749541" CO2_normed="476.080601" HC_normed="0.028042" PMx_normed="0.006365" NOx_normed="0.177133" fuel_normed="0.204647" electricity_normed="0"
            traveltime="0.63" CO_perVeh="1.305782" CO2_perVeh="165.795596" HC_perVeh="0.009766" PMx_perVeh="0.002217" NOx_perVeh="0.061687" fuel_perVeh="0.071269" electricity_perVeh="0"/>
        <edge id=":115_1" sampledSeconds="72.18" CO_abs="1075.116429" CO2_abs="164929.177026" HC_abs="8.593603" PMx_abs="2.452614" NOx_abs="61.217373" fuel_abs="70.895755" electricity_abs="0"
            CO_normed="21.695418" CO2_normed="3328.204561" HC_normed="0.173415" PMx_normed="0.049493" NOx_normed="1.235342" fuel_normed="1.430648" electricity_normed="0"
            traveltime="0.59" CO_perVeh="8.801627" CO2_perVeh="1350.221351" HC_perVeh="0.070353" PMx_perVeh="0.020079" NOx_perVeh="0.501167" fuel_perVeh="0.580400" electricity_perVeh="0"/>
        <edge id=":116_0" sampledSeconds="74.85" CO_abs="124.609202" CO2_abs="18085.741953" HC_abs="0.965876" PMx_abs="0.236265" NOx_abs="6.634661" fuel_abs="7.774302" electricity_abs="0"
            CO_normed="3.143205" CO2_normed="456.203762" HC_normed="0.024364" PMx_normed="0.005960" NOx_normed="0.167356" fuel_normed="0.196103" electricity_normed="0"
            traveltime="0.57" CO_perVeh="0.940893" CO2_perVeh="136.560926" HC_perVeh="0.007293" PMx_perVeh="0.001784" NOx_perVeh="0.050097" fuel_perVeh="0.058702" electricity_perVeh="0"/>
        <edge id=":117_0" sampledSeconds="239.65" CO_abs="12791.687651" CO2_abs="1066012.418759" HC_abs="83.566500" PMx_abs="19.513870" NOx_abs="434.830151" fuel_abs="458.229569" electricity_abs="0"
            CO_normed="289.045027" CO2_normed="24087.954327" HC_normed="1.888295" PMx_normed="0.440942" NOx_normed="9.825560" fuel_normed="10.354300" electricity_normed="0"
            traveltime="0.61" CO_perVeh="32.305203" CO2_perVeh="2692.197381" HC_perVeh="0.211046" PMx_perVeh="0.049282" NOx_perVeh="1.098157" fuel_perVeh="1.157251" electricity_perVeh="0"/>
        <edge id=":117_1" sampledSeconds="76.38" CO_abs="4381.155316" CO2_abs="365189.092250" HC_abs="28.616757" PMx_abs="6.649332" NOx_abs="148.809461" fuel_abs="156.977992" electricity_abs="0"
            CO_normed="93.299445" CO2_normed="7776.930283" HC_normed="0.609412" PMx_normed="0.141602" NOx_normed="3.168991" fuel_normed="3.342945" electricity_normed="0"
            traveltime="0.65" CO_perVeh="37.040217" CO2_perVeh="3087.469448" HC_perVeh="0.241939" PMx_perVeh="0.056216" NOx_perVeh="1.258101" fuel_perVeh="1.327161" electricity_perVeh="0"/>
        <edge id=":118_0" sampledSeconds="898.58" CO_abs="13567.691065" CO2_abs="2039725.138123" HC_abs="107.847966" PMx_abs="30.541749" NOx_abs="759.321893" fuel_abs="876.787455" electricity_abs="0"
            CO_normed="41.163237" CO2_normed="6188.355035" HC_normed="0.327202" PMx_normed="0.092661" NOx_normed="2.303719" fuel_normed="2.660100" electricity_normed="0"
            traveltime="3.92" CO_perVeh="59.178124" CO2_perVeh="8896.657952" HC_perVeh="0.470400" PMx_perVeh="0.133214" NOx_perVeh="3.311930" fuel_perVeh="3.824279" electricity_perVeh="0"/>
        <edge id=":118_4" sampledSeconds="282.73" CO_abs="4029.814742" CO2_abs="651254.241081" HC_abs="32.910442" PMx_abs="9.424598" NOx_abs="239.728078" fuel_abs="279.945625" electricity_abs="0"
            CO_normed="12.249757" CO2_normed="1979.670673" HC_normed="0.100041" PMx_normed="0.028649" NOx_normed="0.728721" fuel_normed="0.850974" electricity_normed="0"
            traveltime="3.92" CO_perVeh="55.870885" CO2_perVeh="9029.236654" HC_perVeh="0.456283" PMx_perVeh="0.130666" NOx_perVeh="3.323681" fuel_perVeh="3.881273" electricity_perVeh="0"/>
        <edge id=":118_5" sampledSeconds="238.95" CO_abs="4132.806316" CO2_abs="580456.817572" HC_abs="31.870786" PMx_abs="8.983926" NOx_abs="218.242199" fuel_abs="249.512404" electricity_abs="0"
            CO_normed="12.687517" CO2_normed="1781.974524" HC_normed="0.097842" PMx_normed="0.027580" NOx_normed="0.669993" fuel_normed="0.765991" electricity_normed="0"
            traveltime="3.82" CO_perVeh="66.143326" CO2_perVeh="9289.896830" HC_perVeh="0.510075" PMx_perVeh="0.143783" NOx_perVeh="3.492848" fuel_perVeh="3.993311" electricity_perVeh="0"/>
        <edge id=":119_0" sampledSeconds="138.91" CO_abs="2248.026977" CO2_abs="337528.664825" HC_abs="17.793953" PMx_abs="5.002952" NOx_abs="125.554184" fuel_abs="145.088663" electricity_abs="0"
            CO_normed="48.199549" CO2_normed="7236.892471" HC_normed="0.381517" PMx_normed="0.107267" NOx_normed="2.691985" fuel_normed="3.110820" electricity_normed="0"
            traveltime="0.56" CO_perVeh="9.012180" CO2_perVeh="1353.128445" HC_perVeh="0.071335" PMx_perVeh="0.020056" NOx_perVeh="0.503338" fuel_perVeh="0.581650" electricity_perVeh="0"/>
        <edge id=":12_0" sampledSeconds="592.40" CO_abs="54566.687625" CO2_abs="3092206.053748" HC_abs="321.835722" PMx_abs="60.271585" NOx_abs="1315.600704" fuel_abs="1329.202944" electricity_abs="0"
            CO_normed="511.201660" CO2_normed="28968.972417" HC_normed="3.015080" PMx_normed="0.564647" NOx_normed="12.325052" fuel_normed="12.452483" electricity_normed="0"
            traveltime="2.13" CO_perVeh="196.217469" CO2_perVeh="11119.327045" HC_perVeh="1.157296" PMx_perVeh="0.216732" NOx_perVeh="4.730796" fuel_perVeh="4.779708" electricity_perVeh="0"/>
        <edge id=":12_1" sampledSeconds="55.91" CO_abs="1214.748809" CO2_abs="105127.089609" HC_abs="7.941868" PMx_abs="1.457988" NOx_abs="40.199851" fuel_abs="45.189926" electricity_abs="0"
            CO_normed="11.368943" CO2_normed="983.893846" HC_normed="0.074329" PMx_normed="0.013645" NOx_normed="0.376234" fuel_normed="0.422937" electricity_normed="0"
            traveltime="1.89" CO_perVeh="40.963027" CO2_perVeh="3545.032327" HC_perVeh="0.267811" PMx_perVeh="0.049165" NOx_perVeh="1.355595" fuel_perVeh="1.523867" electricity_perVeh="0"/>
        <edge id=":120_0" sampledSeconds="38.91" CO_abs="685.333626" CO2_abs="98655.498818" HC_abs="5.388608" PMx_abs="1.504729" NOx_abs="36.947786" fuel_abs="42.407613" electricity_abs="0"
            CO_normed="538.784297" CO2_normed="77559.354417" HC_normed="4.236327" PMx_normed="1.182963" NOx_normed="29.047001" fuel_normed="33.339318" electricity_normed="0"
            traveltime="0.01" CO_perVeh="0.263696" CO2_perVeh="37.959631" HC_perVeh="0.002073" PMx_perVeh="0.000579" NOx_perVeh="0.014216" fuel_perVeh="0.016317" electricity_perVeh="0"/>
        <edge id=":121_0" sampledSeconds="373.43" CO_abs="53221.712977" CO2_abs="1430864.391648" HC_abs="275.946794" PMx_abs="30.892334" NOx_abs="632.860275" fuel_abs="615.084327" electricity_abs="0"
            CO_normed="30429.795870" CO2_normed="818104.283389" HC_normed="157.774039" PMx_normed="17.662855" NOx_normed="361.841209" fuel_normed="351.677717" electricity_normed="0"
            traveltime="0.11" CO_perVeh="16.282236" CO2_perVeh="437.747496" HC_perVeh="0.084421" PMx_perVeh="0.009451" NOx_perVeh="0.193612" fuel_perVeh="0.188174" electricity_perVeh="0"/>
        <edge id=":122_0" sampledSeconds="135.06" CO_abs="956.363776" CO2_abs="94703.281755" HC_abs="6.622758" PMx_abs="1.716892" NOx_abs="37.782966" fuel_abs="40.708522" electricity_abs="0"
            CO_normed="21.055542" CO2_normed="2085.010937" HC_normed="0.145808" PMx_normed="0.037800" NOx_normed="0.831839" fuel_normed="0.896249" electricity_normed="0"
            traveltime="0.54" CO_perVeh="3.809389" CO2_perVeh="377.222170" HC_perVeh="0.026380" PMx_perVeh="0.006839" NOx_perVeh="0.150497" fuel_perVeh="0.162150" electricity_perVeh="0"/>
        <edge id=":123_0" sampledSeconds="312.43" CO_abs="40760.936883" CO2_abs="2495858.468117" HC_abs="245.554367" PMx_abs="51.340545" NOx_abs="1071.549404" fuel_abs="1072.853312" electricity_abs="0"
            CO_normed="155.431342" CO2_normed="9517.313907" HC_normed="0.936358" PMx_normed="0.195774" NOx_normed="4.086078" fuel_normed="4.091050" electricity_normed="0"
            traveltime="4.25" CO_perVeh="555.084936" CO2_perVeh="33988.753541" HC_perVeh="3.343974" PMx_perVeh="0.699159" NOx_perVeh="14.592425" fuel_perVeh="14.610182" electricity_perVeh="0"/>
        <edge id=":123_1" sampledSeconds="0.00" CO_abs="0" CO2_abs="0" HC_abs="0" PMx_abs="0" NOx_abs="0" fuel_abs="0" electricity_abs="0"
            CO_normed="0" CO2_normed="0" HC_normed="0" PMx_normed="0" NOx_normed="0" fuel_normed="0" electricity_normed="0"/>
        <edge id=":123_2" sampledSeconds="254.81" CO_abs="34076.081178" CO2_abs="2140582.235436" HC_abs="206.673511" PMx_abs="44.254475" NOx_abs="919.228798" fuel_abs="920.135640" electricity_abs="0"
            CO_normed="131.186478" CO2_normed="8240.837393" HC_normed="0.795654" PMx_normed="0.170371" NOx_normed="3.538857" fuel_normed="3.542348" electricity_normed="0"
            traveltime="4.01" CO_perVeh="535.608047" CO2_perVeh="33645.684318" HC_perVeh="3.248495" PMx_perVeh="0.695592" NOx_perVeh="14.448444" fuel_perVeh="14.462697" electricity_perVeh="0"/>
        <edge id=":123_3" sampledSeconds="468.40" CO_abs="24322.180417" CO2_abs="2177017.954859" HC_abs="162.615191" PMx_abs="41.604699" NOx_abs="882.027115" fuel_abs="935.797093" electricity_abs="0"
            CO_normed="95.805650" CO2_normed="8575.325776" HC_normed="0.640545" PMx_normed="0.163882" NOx_normed="3.474326" fuel_normed="3.686127" electricity_normed="0"
            traveltime="2.80" CO_perVeh="145.578103" CO2_perVeh="13030.334388" HC_perVeh="0.973318" PMx_perVeh="0.249021" NOx_perVeh="5.279290" fuel_perVeh="5.601125" electricity_perVeh="0"/>
        <edge id=":123_5" sampledSeconds="0.00" CO_abs="0" CO2_abs="0" HC_abs="0" PMx_abs="0" NOx_abs="0" fuel_abs="0" electricity_abs="0"
            CO_normed="0" CO2_normed="0" HC_normed="0" PMx_normed="0" NOx_normed="0" fuel_normed="0" electricity_normed="0"/>
        <edge id=":123_6" sampledSeconds="194.50" CO_abs="9302.830205" CO2_abs="874918.684187" HC_abs="63.009061" PMx_abs="16.327022" NOx_abs="351.150044" fuel_abs="376.086429" electricity_abs="0"
            CO_normed="35.395261" CO2_normed="3328.876730" HC_normed="0.239736" PMx_normed="0.062121" NOx_normed="1.336050" fuel_normed="1.430928" electricity_normed="0"
            traveltime="2.91" CO_perVeh="139.174520" CO2_perVeh="13089.176692" HC_perVeh="0.942644" PMx_perVeh="0.244260" NOx_perVeh="5.253362" fuel_perVeh="5.626422" electricity_perVeh="0"/>
        <edge id=":124_0" sampledSeconds="118.97" CO_abs="4501.042550" CO2_abs="394608.206244" HC_abs="29.835435" PMx_abs="7.603307" NOx_abs="160.388253" fuel_abs="169.623371" electricity_abs="0"
            CO_normed="105.366416" CO2_normed="9237.515947" HC_normed="0.698428" PMx_normed="0.177988" NOx_normed="3.754582" fuel_normed="3.970770" electricity_normed="0"
            traveltime="0.46" CO_perVeh="17.498170" CO2_perVeh="1534.071560" HC_perVeh="0.115988" PMx_perVeh="0.029558" NOx_perVeh="0.623522" fuel_perVeh="0.659425" electricity_perVeh="0"/>
        <edge id=":125_0" sampledSeconds="141.36" CO_abs="5378.847314" CO2_abs="542642.415269" HC_abs="37.280553" PMx_abs="10.080313" NOx_abs="214.137757" fuel_abs="233.256547" electricity_abs="0"
            CO_normed="338.292284" CO2_normed="34128.453791" HC_normed="2.344689" PMx_normed="0.633982" NOx_normed="13.467783" fuel_normed="14.670223" electricity_normed="0"
            traveltime="0.16" CO_perVeh="6.160161" CO2_perVeh="621.464877" HC_perVeh="0.042696" PMx_perVeh="0.011545" NOx_perVeh="0.245243" fuel_perVeh="0.267139" electricity_perVeh="0"/>
        <edge id=":125_3" sampledSeconds="0.00" CO_abs="0" CO2_abs="0" HC_abs="0" PMx_abs="0" NOx_abs="0" fuel_abs="0" electricity_abs="0"
            CO_normed="0" CO2_normed="0" HC_normed="0" PMx_normed="0" NOx_normed="0" fuel_normed="0" electricity_normed="0"/>
        <edge id=":126_0" sampledSeconds="26.72" CO_abs="111.945155" CO2_abs="8063.190799" HC_abs="0.695925" PMx_abs="0.123527" NOx_abs="3.184364" fuel_abs="3.466038" electricity_abs="0"
            CO_normed="3.686165" CO2_normed="265.507287" HC_normed="0.022916" PMx_normed="0.004068" NOx_normed="0.104856" fuel_normed="0.114131" electricity_normed="0"
            traveltime="0.57" CO_perVeh="2.380014" CO2_perVeh="171.427756" HC_perVeh="0.014796" PMx_perVeh="0.002626" NOx_perVeh="0.067701" fuel_perVeh="0.073690" electricity_perVeh="0"/>
        <edge id=":126_1" sampledSeconds="80.94" CO_abs="1243.382663" CO2_abs="202957.831975" HC_abs="10.254837" PMx_abs="3.208476" NOx_abs="74.559994" fuel_abs="87.242435" electricity_abs="0"
            CO_normed="36.428649" CO2_normed="5946.262510" HC_normed="0.300446" PMx_normed="0.094002" NOx_normed="2.184460" fuel_normed="2.556031" electricity_normed="0"
            traveltime="0.35" CO_perVeh="5.380330" CO2_perVeh="878.233411" HC_perVeh="0.044374" PMx_perVeh="0.013884" NOx_perVeh="0.322634" fuel_perVeh="0.377513" electricity_perVeh="0"/>
        <edge id=":127_0" sampledSeconds="234.85" CO_abs="4367.568993" CO2_abs="626789.274357" HC_abs="34.375105" PMx_abs="10.341141" NOx_abs="233.870999" fuel_abs="269.428245" electricity_abs="0"
            CO_normed="100.988924" CO2_normed="14492.907750" HC_normed="0.794837" PMx_normed="0.239113" NOx_normed="5.407672" fuel_normed="6.229843" electricity_normed="0"
            traveltime="0.44" CO_perVeh="8.167460" CO2_perVeh="1172.111083" HC_perVeh="0.064282" PMx_perVeh="0.019338" NOx_perVeh="0.437344" fuel_perVeh="0.503837" electricity_perVeh="0"/>
        <edge id=":128_0" sampledSeconds="229.50" CO_abs="265.169949" CO2_abs="37044.652186" HC_abs="2.037439" PMx_abs="0.576769" NOx_abs="13.816293" fuel_abs="15.923847" electricity_abs="0"
            CO_normed="4.097630" CO2_normed="572.445292" HC_normed="0.031484" PMx_normed="0.008913" NOx_normed="0.213501" fuel_normed="0.246069" electricity_normed="0"
            traveltime="0.75" CO_perVeh="0.871712" CO2_perVeh="121.779463" HC_perVeh="0.006698" PMx_perVeh="0.001896" NOx_perVeh="0.045419" fuel_perVeh="0.052348" electricity_perVeh="0"/>
        <edge id=":128_1" sampledSeconds="142.42" CO_abs="109.784733" CO2_abs="17572.803167" HC_abs="0.880700" PMx_abs="0.207794" NOx_abs="6.307325" fuel_abs="7.553834" electricity_abs="0"
            CO_normed="1.752462" CO2_normed="280.509580" HC_normed="0.014058" PMx_normed="0.003317" NOx_normed="0.100682" fuel_normed="0.120580" electricity_normed="0"
            traveltime="0.85" CO_perVeh="0.658097" CO2_perVeh="105.338966" HC_perVeh="0.005279" PMx_perVeh="0.001246" NOx_perVeh="0.037809" fuel_perVeh="0.045281" electricity_perVeh="0"/>
        <edge id=":129_0" sampledSeconds="104.44" CO_abs="6350.950537" CO2_abs="552620.465661" HC_abs="42.054840" PMx_abs="10.570912" NOx_abs="225.278741" fuel_abs="237.545409" electricity_abs="0"
            CO_normed="147.937352" CO2_normed="12872.594122" HC_normed="0.979614" PMx_normed="0.246236" NOx_normed="5.247583" fuel_normed="5.533320" electricity_normed="0"
            traveltime="0.50" CO_perVeh="30.100172" CO2_perVeh="2619.130963" HC_perVeh="0.199318" PMx_perVeh="0.050101" NOx_perVeh="1.067703" fuel_perVeh="1.125841" electricity_perVeh="0"/>
        <edge id=":13_0" sampledSeconds="59.73" CO_abs="5098.712117" CO2_abs="360152.347219" HC_abs="31.833656" PMx_abs="7.040343" NOx_abs="151.426794" fuel_abs="154.812698" electricity_abs="0"
            CO_normed="36.044255" CO2_normed="2546.019972" HC_normed="0.225041" PMx_normed="0.049770" NOx_normed="1.070479" fuel_normed="1.094415" electricity_normed="0"
            traveltime="2.11" CO_perVeh="180.349643" CO2_perVeh="12739.167392" HC_perVeh="1.126008" PMx_perVeh="0.249028" NOx_perVeh="5.356209" fuel_perVeh="5.475974" electricity_perVeh="0"/>
        <edge id=":13_1" sampledSeconds="532.51" CO_abs="15041.549019" CO2_abs="1113790.718947" HC_abs="94.157176" PMx_abs="16.645029" NOx_abs="436.153722" fuel_abs="478.773797" electricity_abs="0"
            CO_normed="149.843090" CO2_normed="11095.522294" HC_normed="0.937989" PMx_normed="0.165817" NOx_normed="4.344940" fuel_normed="4.769518" electricity_normed="0"
            traveltime="1.86" CO_perVeh="52.513626" CO2_perVeh="3888.508397" HC_perVeh="0.328725" PMx_perVeh="0.058112" NOx_perVeh="1.522716" fuel_perVeh="1.671513" electricity_perVeh="0"/>
        <edge id=":132_0" sampledSeconds="41.07" CO_abs="621.983429" CO2_abs="98391.533091" HC_abs="5.008553" PMx_abs="1.423570" NOx_abs="36.338645" fuel_abs="42.294198" electricity_abs="0"
            CO_normed="1173.553640" CO2_normed="185644.402058" HC_normed="9.450101" PMx_normed="2.685982" NOx_normed="68.563481" fuel_normed="79.800374" electricity_normed="0"
            traveltime="6.366230e-03" CO_perVeh="0.096424" CO2_perVeh="15.253319" HC_perVeh="0.000776" PMx_perVeh="0.000221" NOx_perVeh="0.005633" fuel_perVeh="0.006557" electricity_perVeh="0"/>