<?xml version="1.0" encoding="UTF-8"?>

<!-- generated on Tue Nov 10 05:07:33 2020 by Eclipse SUMO sumo Version 1.7.0
<configuration xmlns:xsi="http://www.w3.org/2001/XMLSchema-instance" xsi:noNamespaceSchemaLocation="http://sumo.dlr.de/xsd/sumoConfiguration.xsd">

    <input>
        <net-file value="../dataSets/Porto/8AM9AM_Routing_SaoBento/Porto.net.xml"/>
        <route-files value="../results/Porto/8AM9AM_Routing_SaoBento/cost_PMx-ttime/solution11/Porto.rou.xml"/>
        <additional-files value="moreOutputInfo.xml"/>
    </input>

    <output>
        <emission-output.precision value="6"/>
        <tripinfo-output value="../results/Porto/8AM9AM_Routing_SaoBento/cost_PMx-ttime/solution11/Porto-tripinfo"/>
    </output>

    <processing>
        <collision.action value="warn"/>
        <time-to-teleport value="-1"/>
    </processing>

    <emissions>
        <device.emissions.probability value="1"/>
    </emissions>

    <gui_only>
        <quit-on-end value="true"/>
        <start value="true"/>
    </gui_only>

</configuration>
-->

<meandata xmlns:xsi="http://www.w3.org/2001/XMLSchema-instance" xsi:noNamespaceSchemaLocation="http://sumo.dlr.de/xsd/meandata_file.xsd">
    <interval begin="0.00" end="8561.00" id="emissions-detector">
        <edge id=":1092997347_0" sampledSeconds="596.44" CO_abs="72070.674748" CO2_abs="3082124.435915" HC_abs="401.094912" PMx_abs="62.409299" NOx_abs="1334.033159" fuel_abs="1324.880069" electricity_abs="0"
            CO_normed="68878.537207" CO2_normed="2945611.698212" HC_normed="383.329710" PMx_normed="59.645081" NOx_normed="1274.946473" fuel_normed="1266.198790" electricity_normed="0"
            traveltime="0.07" CO_perVeh="8.262837" CO2_perVeh="353.362736" HC_perVeh="0.045985" PMx_perVeh="0.007155" NOx_perVeh="0.152946" fuel_perVeh="0.151896" electricity_perVeh="0"/>
        <edge id=":1103427051_0" sampledSeconds="19.30" CO_abs="1461.752644" CO2_abs="82985.258974" HC_abs="8.623038" PMx_abs="1.608478" NOx_abs="35.269370" fuel_abs="35.671711" electricity_abs="0"
            CO_normed="2119.599917" CO2_normed="120331.951354" HC_normed="12.503751" PMx_normed="2.332358" NOx_normed="51.142000" fuel_normed="51.725410" electricity_normed="0"
            traveltime="0.03" CO_perVeh="2.273210" CO2_perVeh="129.052580" HC_perVeh="0.013410" PMx_perVeh="0.002501" NOx_perVeh="0.054848" fuel_perVeh="0.055474" electricity_perVeh="0"/>
        <edge id=":1105984386_0" sampledSeconds="10.61" CO_abs="301.957332" CO2_abs="22357.806448" HC_abs="1.882796" PMx_abs="0.296453" NOx_abs="8.518152" fuel_abs="9.610778" electricity_abs="0"
            CO_normed="13.076886" CO2_normed="968.251026" HC_normed="0.081538" PMx_normed="0.012839" NOx_normed="0.368896" fuel_normed="0.416215" electricity_normed="0"
            traveltime="1.02" CO_perVeh="28.966664" CO2_perVeh="2144.776730" HC_perVeh="0.180616" PMx_perVeh="0.028439" NOx_perVeh="0.817143" fuel_perVeh="0.921959" electricity_perVeh="0"/>
        <edge id=":1105984390_0" sampledSeconds="10.37" CO_abs="0" CO2_abs="0" HC_abs="0" PMx_abs="0" NOx_abs="0" fuel_abs="0" electricity_abs="0"
            CO_normed="0" CO2_normed="0" HC_normed="0" PMx_normed="0" NOx_normed="0" fuel_normed="0" electricity_normed="0"
            traveltime="1.07" CO_perVeh="0" CO2_perVeh="0" HC_perVeh="0" PMx_perVeh="0" NOx_perVeh="0" fuel_perVeh="0" electricity_perVeh="0"/>
        <edge id=":1105984390_1" sampledSeconds="2401.01" CO_abs="63612.447932" CO2_abs="7487655.505393" HC_abs="468.662906" PMx_abs="135.642890" NOx_abs="2853.368239" fuel_abs="3218.597000" electricity_abs="0"
            CO_normed="2037.301880" CO2_normed="239805.496200" HC_normed="15.009764" PMx_normed="4.344205" NOx_normed="91.384197" fuel_normed="103.081298" electricity_normed="0"
            traveltime="0.65" CO_perVeh="17.176937" CO2_perVeh="2021.852518" HC_perVeh="0.126551" PMx_perVeh="0.036627" NOx_perVeh="0.770480" fuel_perVeh="0.869101" electricity_perVeh="0"/>
        <edge id=":1105984395_0" sampledSeconds="4.14" CO_abs="47.116805" CO2_abs="4370.172085" HC_abs="0.311319" PMx_abs="0.042182" NOx_abs="1.550799" fuel_abs="1.878587" electricity_abs="0"
            CO_normed="21.536048" CO2_normed="1997.508863" HC_normed="0.142297" PMx_normed="0.019280" NOx_normed="0.708836" fuel_normed="0.858661" electricity_normed="0"
            traveltime="0.10" CO_perVeh="1.092151" CO2_perVeh="101.299025" HC_perVeh="0.007216" PMx_perVeh="0.000978" NOx_perVeh="0.035947" fuel_perVeh="0.043545" electricity_perVeh="0"/>
        <edge id=":1105984398_0" sampledSeconds="9.54" CO_abs="693.882340" CO2_abs="46236.443753" HC_abs="4.255677" PMx_abs="0.866907" NOx_abs="19.320553" fuel_abs="19.874969" electricity_abs="0"
            CO_normed="24.134457" CO2_normed="1608.185441" HC_normed="0.148020" PMx_normed="0.030153" NOx_normed="0.672003" fuel_normed="0.691287" electricity_normed="0"
            traveltime="1.13" CO_perVeh="81.882726" CO2_perVeh="5456.207530" HC_perVeh="0.502198" PMx_perVeh="0.102301" NOx_perVeh="2.279954" fuel_perVeh="2.345378" electricity_perVeh="0"/>
        <edge id=":1105984398_1" sampledSeconds="649.32" CO_abs="11198.077064" CO2_abs="1337596.135157" HC_abs="81.591170" PMx_abs="18.958669" NOx_abs="504.089691" fuel_abs="574.975715" electricity_abs="0"
            CO_normed="377.015337" CO2_normed="45034.004885" HC_normed="2.747000" PMx_normed="0.638298" NOx_normed="16.971623" fuel_normed="19.358204" electricity_normed="0"
            traveltime="0.95" CO_perVeh="16.448607" CO2_perVeh="1964.765239" HC_perVeh="0.119847" PMx_perVeh="0.027848" NOx_perVeh="0.740446" fuel_perVeh="0.844569" electricity_perVeh="0"/>
        <edge id=":1106006327_0" sampledSeconds="68.72" CO_abs="9130.898033" CO2_abs="290731.166935" HC_abs="48.408326" PMx_abs="6.031523" NOx_abs="127.053020" fuel_abs="124.975262" electricity_abs="0"
            CO_normed="433.368933" CO2_normed="13798.626943" HC_normed="2.297547" PMx_normed="0.286267" NOx_normed="6.030166" fuel_normed="5.931552" electricity_normed="0"
            traveltime="2.13" CO_perVeh="283.054325" CO2_perVeh="9012.554281" HC_perVeh="1.500639" PMx_perVeh="0.186975" NOx_perVeh="3.938595" fuel_perVeh="3.874185" electricity_perVeh="0"/>
        <edge id=":1106006327_1" sampledSeconds="688.35" CO_abs="92973.443106" CO2_abs="3087659.541255" HC_abs="496.089774" PMx_abs="64.381334" NOx_abs="1351.105308" fuel_abs="1327.274043" electricity_abs="0"
            CO_normed="3848.072186" CO2_normed="127794.953085" HC_normed="20.532629" PMx_normed="2.664675" NOx_normed="55.920815" fuel_normed="54.934465" electricity_normed="0"
            traveltime="2.31" CO_perVeh="312.089345" CO2_perVeh="10364.525722" HC_perVeh="1.665253" PMx_perVeh="0.216113" NOx_perVeh="4.535333" fuel_perVeh="4.455338" electricity_perVeh="0"/>
        <edge id=":1106006327_2" sampledSeconds="0.00" CO_abs="0" CO2_abs="0" HC_abs="0" PMx_abs="0" NOx_abs="0" fuel_abs="0" electricity_abs="0"
            CO_normed="0" CO2_normed="0" HC_normed="0" PMx_normed="0" NOx_normed="0" fuel_normed="0" electricity_normed="0"/>
        <edge id=":1106006327_3" sampledSeconds="0.00" CO_abs="0" CO2_abs="0" HC_abs="0" PMx_abs="0" NOx_abs="0" fuel_abs="0" electricity_abs="0"
            CO_normed="0" CO2_normed="0" HC_normed="0" PMx_normed="0" NOx_normed="0" fuel_normed="0" electricity_normed="0"/>
        <edge id=":1107381198_0" sampledSeconds="0.00" CO_abs="0" CO2_abs="0" HC_abs="0" PMx_abs="0" NOx_abs="0" fuel_abs="0" electricity_abs="0"
            CO_normed="0" CO2_normed="0" HC_normed="0" PMx_normed="0" NOx_normed="0" fuel_normed="0" electricity_normed="0"/>
        <edge id=":1107381198_1" sampledSeconds="103.33" CO_abs="4745.368339" CO2_abs="186549.150838" HC_abs="25.897159" PMx_abs="3.205744" NOx_abs="77.215182" fuel_abs="80.191085" electricity_abs="0"
            CO_normed="217.609873" CO2_normed="8554.644067" HC_normed="1.187574" PMx_normed="0.147007" NOx_normed="3.540881" fuel_normed="3.677348" electricity_normed="0"
            traveltime="1.55" CO_perVeh="71.047263" CO2_perVeh="2792.998487" HC_perVeh="0.387730" PMx_perVeh="0.047996" NOx_perVeh="1.156059" fuel_perVeh="1.200614" electricity_perVeh="0"/>
        <edge id=":1110338277_0" sampledSeconds="160.14" CO_abs="2486.209543" CO2_abs="306036.713596" HC_abs="18.277358" PMx_abs="4.167505" NOx_abs="114.245262" fuel_abs="131.552364" electricity_abs="0"
            CO_normed="3733.857175" CO2_normed="459614.267753" HC_normed="27.449434" PMx_normed="6.258872" NOx_normed="171.576645" fuel_normed="197.568922" electricity_normed="0"
            traveltime="0.02" CO_perVeh="0.336733" CO2_perVeh="41.449735" HC_perVeh="0.002475" PMx_perVeh="0.000564" NOx_perVeh="0.015473" fuel_perVeh="0.017818" electricity_perVeh="0"/>
        <edge id=":1110338293_0" sampledSeconds="6765.38" CO_abs="664125.101544" CO2_abs="11551634.641701" HC_abs="3294.284729" PMx_abs="276.396109" NOx_abs="5225.223006" fuel_abs="4965.855749" electricity_abs="0"
            CO_normed="930907.746586" CO2_normed="16191988.751362" HC_normed="4617.616721" PMx_normed="387.425921" NOx_normed="7324.223347" fuel_normed="6960.666860" electricity_normed="0"
            traveltime="0.45" CO_perVeh="44.416785" CO2_perVeh="772.575025" HC_perVeh="0.220322" PMx_perVeh="0.018485" NOx_perVeh="0.349464" fuel_perVeh="0.332117" electricity_perVeh="0"/>
        <edge id=":1110338295_0" sampledSeconds="0.00" CO_abs="0" CO2_abs="0" HC_abs="0" PMx_abs="0" NOx_abs="0" fuel_abs="0" electricity_abs="0"
            CO_normed="0" CO2_normed="0" HC_normed="0" PMx_normed="0" NOx_normed="0" fuel_normed="0" electricity_normed="0"/>
        <edge id=":1110673403_0" sampledSeconds="200.81" CO_abs="2898.367395" CO2_abs="362870.437087" HC_abs="21.474886" PMx_abs="4.924244" NOx_abs="135.237717" fuel_abs="155.982802" electricity_abs="0"
            CO_normed="4062.657253" CO2_normed="508637.454158" HC_normed="30.101464" PMx_normed="6.902339" NOx_normed="189.563439" fuel_normed="218.641938" electricity_normed="0"
            traveltime="0.02" CO_perVeh="0.334981" CO2_perVeh="41.939027" HC_perVeh="0.002482" PMx_perVeh="0.000569" NOx_perVeh="0.015630" fuel_perVeh="0.018028" electricity_perVeh="0"/>
        <edge id=":1110673412_0" sampledSeconds="940.22" CO_abs="168158.715169" CO2_abs="11464715.714716" HC_abs="1046.308141" PMx_abs="252.093432" NOx_abs="4927.939897" fuel_abs="4928.116500" electricity_abs="0"
            CO_normed="243836.876375" CO2_normed="16624297.263443" HC_normed="1517.188737" PMx_normed="365.545580" NOx_normed="7145.710351" fuel_normed="7145.966431" electricity_normed="0"
            traveltime="0.02" CO_perVeh="2.774082" CO2_perVeh="189.131179" HC_perVeh="0.017261" PMx_perVeh="0.004159" NOx_perVeh="0.081295" fuel_perVeh="0.081298" electricity_perVeh="0"/>
        <edge id=":1110673414_0" sampledSeconds="0.00" CO_abs="0" CO2_abs="0" HC_abs="0" PMx_abs="0" NOx_abs="0" fuel_abs="0" electricity_abs="0"
            CO_normed="0" CO2_normed="0" HC_normed="0" PMx_normed="0" NOx_normed="0" fuel_normed="0" electricity_normed="0"/>
        <edge id=":1110673414_1" sampledSeconds="241.93" CO_abs="15902.364135" CO2_abs="610229.889711" HC_abs="86.583518" PMx_abs="11.280966" NOx_abs="257.711643" fuel_abs="262.316021" electricity_abs="0"
            CO_normed="740.545841" CO2_normed="28417.360023" HC_normed="4.032046" PMx_normed="0.525335" NOx_normed="12.001189" fuel_normed="12.215607" electricity_normed="0"
            traveltime="1.57" CO_perVeh="103.176039" CO2_perVeh="3959.229120" HC_perVeh="0.561762" PMx_perVeh="0.073192" NOx_perVeh="1.672057" fuel_perVeh="1.701931" electricity_perVeh="0"/>
        <edge id=":1110673417_0" sampledSeconds="29.06" CO_abs="444.467131" CO2_abs="52232.612988" HC_abs="3.192682" PMx_abs="0.711879" NOx_abs="19.526592" fuel_abs="22.452623" electricity_abs="0"
            CO_normed="667.512837" CO2_normed="78444.360120" HC_normed="4.794856" PMx_normed="1.069119" NOx_normed="29.325568" fuel_normed="33.719960" electricity_normed="0"
            traveltime="0.02" CO_perVeh="0.338928" CO2_perVeh="39.829875" HC_perVeh="0.002435" PMx_perVeh="0.000543" NOx_perVeh="0.014890" fuel_perVeh="0.017121" electricity_perVeh="0"/>
        <edge id=":1110673446_0" sampledSeconds="1313.38" CO_abs="13950.639805" CO2_abs="1140479.197564" HC_abs="90.521213" PMx_abs="20.767937" NOx_abs="465.426767" fuel_abs="490.239690" electricity_abs="0"
            CO_normed="19554.687263" CO2_normed="1598615.859219" HC_normed="126.884073" PMx_normed="29.110529" NOx_normed="652.391217" fuel_normed="687.171625" electricity_normed="0"
            traveltime="0.02" CO_perVeh="0.242090" CO2_perVeh="19.791127" HC_perVeh="0.001571" PMx_perVeh="0.000360" NOx_perVeh="0.008077" fuel_perVeh="0.008507" electricity_perVeh="0"/>
        <edge id=":1110673451_0" sampledSeconds="36.26" CO_abs="454.739722" CO2_abs="31256.838856" HC_abs="2.782682" PMx_abs="0.432471" NOx_abs="12.052871" fuel_abs="13.436134" electricity_abs="0"
            CO_normed="708.234586" CO2_normed="48680.977854" HC_normed="4.333889" PMx_normed="0.673551" NOx_normed="18.771750" fuel_normed="20.926113" electricity_normed="0"
            traveltime="0.03" CO_perVeh="0.335043" CO2_perVeh="23.029380" HC_perVeh="0.002050" PMx_perVeh="0.000319" NOx_perVeh="0.008880" fuel_perVeh="0.009899" electricity_perVeh="0"/>
        <edge id=":1110673464_0" sampledSeconds="1019.66" CO_abs="3560.088227" CO2_abs="254481.575821" HC_abs="22.049207" PMx_abs="3.701157" NOx_abs="98.993324" fuel_abs="109.391647" electricity_abs="0"
            CO_normed="106.023971" CO2_normed="7578.786143" HC_normed="0.656654" PMx_normed="0.110225" NOx_normed="2.948148" fuel_normed="3.257823" electricity_normed="0"
            traveltime="1.21" CO_perVeh="4.221766" CO2_perVeh="301.779533" HC_perVeh="0.026147" PMx_perVeh="0.004389" NOx_perVeh="0.117392" fuel_perVeh="0.129723" electricity_perVeh="0"/>
        <edge id=":1110673464_1" sampledSeconds="2598.41" CO_abs="61551.064594" CO2_abs="7491862.712186" HC_abs="458.476790" PMx_abs="133.903293" NOx_abs="2840.557730" fuel_abs="3220.406620" electricity_abs="0"
            CO_normed="1796.178906" CO2_normed="218627.019046" HC_normed="13.379238" PMx_normed="3.907557" NOx_normed="82.892959" fuel_normed="93.977683" electricity_normed="0"
            traveltime="0.72" CO_perVeh="16.979288" CO2_perVeh="2066.682246" HC_perVeh="0.126474" PMx_perVeh="0.036938" NOx_perVeh="0.783588" fuel_perVeh="0.888371" electricity_perVeh="0"/>
        <edge id=":1110673479_0" sampledSeconds="134.19" CO_abs="6544.623371" CO2_abs="456119.318873" HC_abs="40.496891" PMx_abs="7.866261" NOx_abs="185.750589" fuel_abs="196.066024" electricity_abs="0"
            CO_normed="9173.633974" CO2_normed="639344.916071" HC_normed="56.764711" PMx_normed="11.026181" NOx_normed="260.367606" fuel_normed="274.826806" electricity_normed="0"
            traveltime="0.03" CO_perVeh="1.383593" CO2_perVeh="96.427748" HC_perVeh="0.008561" PMx_perVeh="0.001663" NOx_perVeh="0.039269" fuel_perVeh="0.041450" electricity_perVeh="0"/>
        <edge id=":1110673511_0" sampledSeconds="63.45" CO_abs="1247.651194" CO2_abs="135977.889867" HC_abs="8.815868" PMx_abs="1.916930" NOx_abs="51.480585" fuel_abs="58.451198" electricity_abs="0"
            CO_normed="1748.839426" CO2_normed="190600.943628" HC_normed="12.357250" PMx_normed="2.686971" NOx_normed="72.160615" fuel_normed="81.931361" electricity_normed="0"
            traveltime="0.02" CO_perVeh="0.478183" CO2_perVeh="52.115802" HC_perVeh="0.003379" PMx_perVeh="0.000735" NOx_perVeh="0.019731" fuel_perVeh="0.022402" electricity_perVeh="0"/>
        <edge id=":1110673517_0" sampledSeconds="182.05" CO_abs="8142.596012" CO2_abs="578302.755127" HC_abs="50.652541" PMx_abs="10.001411" NOx_abs="235.428020" fuel_abs="248.587265" electricity_abs="0"
            CO_normed="11413.520867" CO2_normed="810610.099466" HC_normed="70.999940" PMx_normed="14.019032" NOx_normed="330.000729" fuel_normed="348.446114" electricity_normed="0"
            traveltime="0.03" CO_perVeh="1.246697" CO2_perVeh="88.542833" HC_perVeh="0.007755" PMx_perVeh="0.001531" NOx_perVeh="0.036046" fuel_perVeh="0.038061" electricity_perVeh="0"/>
        <edge id=":1110673534_0" sampledSeconds="657.97" CO_abs="4097.463566" CO2_abs="353494.481707" HC_abs="26.722712" PMx_abs="4.713725" NOx_abs="133.858407" fuel_abs="151.953431" electricity_abs="0"
            CO_normed="111.306916" CO2_normed="9602.618736" HC_normed="0.725918" PMx_normed="0.128048" NOx_normed="3.636241" fuel_normed="4.127790" electricity_normed="0"
            traveltime="1.45" CO_perVeh="9.009712" CO2_perVeh="777.281745" HC_perVeh="0.058759" PMx_perVeh="0.010365" NOx_perVeh="0.294335" fuel_perVeh="0.334123" electricity_perVeh="0"/>
        <edge id=":1110673534_1" sampledSeconds="263.86" CO_abs="4081.404381" CO2_abs="533172.602814" HC_abs="30.564720" PMx_abs="7.104279" NOx_abs="197.384580" fuel_abs="229.188637" electricity_abs="0"
            CO_normed="107.806406" CO2_normed="14083.245997" HC_normed="0.807338" PMx_normed="0.187653" NOx_normed="5.213726" fuel_normed="6.053799" electricity_normed="0"
            traveltime="1.22" CO_perVeh="18.936692" CO2_perVeh="2473.787119" HC_perVeh="0.141813" PMx_perVeh="0.032962" NOx_perVeh="0.915815" fuel_perVeh="1.063378" electricity_perVeh="0"/>
        <edge id=":1110673549_0" sampledSeconds="654.29" CO_abs="2002.579413" CO2_abs="169605.340115" HC_abs="13.082855" PMx_abs="2.699067" NOx_abs="66.465644" fuel_abs="72.906117" electricity_abs="0"
            CO_normed="52.697617" CO2_normed="4463.142475" HC_normed="0.344274" PMx_normed="0.071026" NOx_normed="1.749035" fuel_normed="1.918515" electricity_normed="0"
            traveltime="1.30" CO_perVeh="3.978651" CO2_perVeh="336.965666" HC_perVeh="0.025993" PMx_perVeh="0.005362" NOx_perVeh="0.132052" fuel_perVeh="0.144847" electricity_perVeh="0"/>
        <edge id=":1110673549_1" sampledSeconds="3199.34" CO_abs="68616.369005" CO2_abs="9076648.496760" HC_abs="528.929775" PMx_abs="159.224552" NOx_abs="3389.730587" fuel_abs="3901.635968" electricity_abs="0"
            CO_normed="1746.608999" CO2_normed="231043.352663" HC_normed="13.463748" PMx_normed="4.053013" NOx_normed="86.284571" fuel_normed="99.314968" electricity_normed="0"
            traveltime="0.81" CO_perVeh="17.305545" CO2_perVeh="2289.196467" HC_perVeh="0.133400" PMx_perVeh="0.040158" NOx_perVeh="0.854915" fuel_perVeh="0.984021" electricity_perVeh="0"/>
        <edge id=":1110673556_0" sampledSeconds="463.59" CO_abs="56783.186529" CO2_abs="2737758.802205" HC_abs="323.586039" PMx_abs="55.290446" NOx_abs="1180.268429" fuel_abs="1176.845700" electricity_abs="0"
            CO_normed="1108.027373" CO2_normed="53422.709785" HC_normed="6.314232" PMx_normed="1.078899" NOx_normed="23.030932" fuel_normed="22.964144" electricity_normed="0"
            traveltime="2.73" CO_perVeh="334.731425" CO2_perVeh="16138.824900" HC_perVeh="1.907509" PMx_perVeh="0.325932" NOx_perVeh="6.957569" fuel_perVeh="6.937392" electricity_perVeh="0"/>
        <edge id=":1110673556_2" sampledSeconds="175.20" CO_abs="17183.484018" CO2_abs="734890.046804" HC_abs="95.498969" PMx_abs="14.178119" NOx_abs="313.379445" fuel_abs="315.900462" electricity_abs="0"
            CO_normed="350.599454" CO2_normed="14994.168167" HC_normed="1.948492" PMx_normed="0.289280" NOx_normed="6.393969" fuel_normed="6.445406" electricity_normed="0"
            traveltime="3.03" CO_perVeh="297.126993" CO2_perVeh="12707.299034" HC_perVeh="1.651314" PMx_perVeh="0.245160" NOx_perVeh="5.418778" fuel_perVeh="5.462370" electricity_perVeh="0"/>
        <edge id=":1110673556_3" sampledSeconds="234.96" CO_abs="25195.904487" CO2_abs="858190.536600" HC_abs="134.796134" PMx_abs="17.037378" NOx_abs="370.257255" fuel_abs="368.906047" electricity_abs="0"
            CO_normed="1169.444887" CO2_normed="39832.129684" HC_normed="6.256439" PMx_normed="0.790774" NOx_normed="17.185152" fuel_normed="17.122437" electricity_normed="0"
            traveltime="1.88" CO_perVeh="201.582259" CO2_perVeh="6866.035984" HC_perVeh="1.078449" PMx_perVeh="0.136309" NOx_perVeh="2.962279" fuel_perVeh="2.951468" electricity_perVeh="0"/>
        <edge id=":1110673556_4" sampledSeconds="54.58" CO_abs="6101.122129" CO2_abs="243449.905608" HC_abs="33.511543" PMx_abs="4.848711" NOx_abs="104.961647" fuel_abs="104.649684" electricity_abs="0"
            CO_normed="173.000186" CO2_normed="6903.136534" HC_normed="0.950236" PMx_normed="0.137487" NOx_normed="2.976237" fuel_normed="2.967391" electricity_normed="0"
            traveltime="2.43" CO_perVeh="271.824915" CO2_perVeh="10846.488314" HC_perVeh="1.493049" PMx_perVeh="0.216026" NOx_perVeh="4.676384" fuel_perVeh="4.662485" electricity_perVeh="0"/>
        <edge id=":1110673556_5" sampledSeconds="22.79" CO_abs="1301.870803" CO2_abs="57467.958024" HC_abs="7.257921" PMx_abs="1.002978" NOx_abs="23.841217" fuel_abs="24.703349" electricity_abs="0"
            CO_normed="51.452237" CO2_normed="2271.235364" HC_normed="0.286846" PMx_normed="0.039639" NOx_normed="0.942247" fuel_normed="0.976320" electricity_normed="0"
            traveltime="1.58" CO_perVeh="90.005883" CO2_perVeh="3973.093394" HC_perVeh="0.501782" PMx_perVeh="0.069342" NOx_perVeh="1.648282" fuel_perVeh="1.707886" electricity_perVeh="0"/>
        <edge id=":1110673556_6" sampledSeconds="218.14" CO_abs="26763.246525" CO2_abs="1328789.430949" HC_abs="153.474527" PMx_abs="26.921675" NOx_abs="572.920077" fuel_abs="571.189120" electricity_abs="0"
            CO_normed="535.407051" CO2_normed="26582.844887" HC_normed="3.070306" PMx_normed="0.538576" NOx_normed="11.461444" fuel_normed="11.426816" electricity_normed="0"
            traveltime="2.54" CO_perVeh="311.859550" CO2_perVeh="15483.759542" HC_perVeh="1.788367" PMx_perVeh="0.313706" NOx_perVeh="6.675969" fuel_perVeh="6.655799" electricity_perVeh="0"/>
        <edge id=":1110673561_0" sampledSeconds="104.31" CO_abs="8934.796148" CO2_abs="644385.416119" HC_abs="56.120715" PMx_abs="12.859284" NOx_abs="271.604304" fuel_abs="276.990774" electricity_abs="0"
            CO_normed="224.577742" CO2_normed="16196.745776" HC_normed="1.410604" PMx_normed="0.323220" NOx_normed="6.826824" fuel_normed="6.962214" electricity_normed="0"
            traveltime="1.23" CO_perVeh="105.439267" CO2_perVeh="7604.373351" HC_perVeh="0.662279" PMx_perVeh="0.151752" NOx_perVeh="3.205194" fuel_perVeh="3.268760" electricity_perVeh="0"/>
        <edge id=":1110673561_1" sampledSeconds="5184.86" CO_abs="484116.565767" CO2_abs="33567095.731644" HC_abs="3016.406749" PMx_abs="701.218285" NOx_abs="14347.957745" fuel_abs="14428.873626" electricity_abs="0"
            CO_normed="11863.440707" CO2_normed="822573.070388" HC_normed="73.918071" PMx_normed="17.183592" NOx_normed="351.601573" fuel_normed="353.584444" electricity_normed="0"
            traveltime="1.19" CO_perVeh="111.288908" CO2_perVeh="7716.417282" HC_perVeh="0.693413" PMx_perVeh="0.161196" NOx_perVeh="3.298314" fuel_perVeh="3.316915" electricity_perVeh="0"/>
        <edge id=":1110673562_0" sampledSeconds="301.70" CO_abs="6543.587745" CO2_abs="500060.990584" HC_abs="41.200785" PMx_abs="6.811627" NOx_abs="191.368279" fuel_abs="214.956941" electricity_abs="0"
            CO_normed="10191.313702" CO2_normed="778820.216616" HC_normed="64.168182" PMx_normed="10.608772" NOx_normed="298.046613" fuel_normed="334.784785" electricity_normed="0"
            traveltime="0.03" CO_perVeh="0.586577" CO2_perVeh="44.826184" HC_perVeh="0.003693" PMx_perVeh="0.000611" NOx_perVeh="0.017155" fuel_perVeh="0.019269" electricity_perVeh="0"/>
        <edge id=":1110673564_0" sampledSeconds="27.73" CO_abs="435.088274" CO2_abs="49996.509329" HC_abs="3.117623" PMx_abs="0.684849" NOx_abs="18.736581" fuel_abs="21.491419" electricity_abs="0"
            CO_normed="1829.596759" CO2_normed="210241.132561" HC_normed="13.109966" PMx_normed="2.879870" NOx_normed="78.789500" fuel_normed="90.373915" electricity_normed="0"
            traveltime="7.833469e-03" CO_perVeh="0.122889" CO2_perVeh="14.121313" HC_perVeh="0.000881" PMx_perVeh="0.000193" NOx_perVeh="0.005292" fuel_perVeh="0.006070" electricity_perVeh="0"/>
        <edge id=":1110673588_0" sampledSeconds="62.66" CO_abs="1181.189134" CO2_abs="125610.814140" HC_abs="8.268220" PMx_abs="1.804110" NOx_abs="47.800056" fuel_abs="53.994795" electricity_abs="0"
            CO_normed="1986.815038" CO2_normed="211283.229018" HC_normed="13.907531" PMx_normed="3.034597" NOx_normed="80.401916" fuel_normed="90.821756" electricity_normed="0"
            traveltime="0.02" CO_perVeh="0.381029" CO2_perVeh="40.519617" HC_perVeh="0.002667" PMx_perVeh="0.000582" NOx_perVeh="0.015419" fuel_perVeh="0.017418" electricity_perVeh="0"/>
        <edge id=":1110673601_0" sampledSeconds="28.88" CO_abs="532.059918" CO2_abs="59125.394810" HC_abs="3.752660" PMx_abs="0.839590" NOx_abs="22.355838" fuel_abs="25.415512" electricity_abs="0"
            CO_normed="799.062070" CO2_normed="88796.127504" HC_normed="5.635847" PMx_normed="1.260919" NOx_normed="33.574606" fuel_normed="38.169708" electricity_normed="0"
            traveltime="0.02" CO_perVeh="0.405721" CO2_perVeh="45.085952" HC_perVeh="0.002862" PMx_perVeh="0.000640" NOx_perVeh="0.017047" fuel_perVeh="0.019381" electricity_perVeh="0"/>
        <edge id=":1110673617_0" sampledSeconds="850.12" CO_abs="31797.090079" CO2_abs="3220506.105959" HC_abs="222.082223" PMx_abs="60.820265" NOx_abs="1263.001423" fuel_abs="1384.344716" electricity_abs="0"
            CO_normed="44570.153130" CO2_normed="4514200.826014" HC_normed="311.293854" PMx_normed="85.252094" NOx_normed="1770.355925" fuel_normed="1940.443475" electricity_normed="0"
            traveltime="0.02" CO_perVeh="0.563547" CO2_perVeh="57.077760" HC_perVeh="0.003936" PMx_perVeh="0.001078" NOx_perVeh="0.022384" fuel_perVeh="0.024535" electricity_perVeh="0"/>
        <edge id=":1110673621_0" sampledSeconds="26.37" CO_abs="633.114671" CO2_abs="58703.169868" HC_abs="4.235952" PMx_abs="0.917096" NOx_abs="22.939277" fuel_abs="25.233961" electricity_abs="0"
            CO_normed="1064.928310" CO2_normed="98741.460821" HC_normed="7.125068" PMx_normed="1.542599" NOx_normed="38.584930" fuel_normed="42.444696" electricity_normed="0"
            traveltime="0.02" CO_perVeh="0.479632" CO2_perVeh="44.472098" HC_perVeh="0.003209" PMx_perVeh="0.000695" NOx_perVeh="0.017378" fuel_perVeh="0.019117" electricity_perVeh="0"/>
        <edge id=":1110673630_0" sampledSeconds="286.39" CO_abs="1499.576299" CO2_abs="134668.498958" HC_abs="9.905761" PMx_abs="1.795262" NOx_abs="50.908675" fuel_abs="57.888670" electricity_abs="0"
            CO_normed="44.977836" CO2_normed="4039.206062" HC_normed="0.297110" PMx_normed="0.053847" NOx_normed="1.526939" fuel_normed="1.736295" electricity_normed="0"
            traveltime="1.29" CO_perVeh="6.747521" CO2_perVeh="605.956812" HC_perVeh="0.044572" PMx_perVeh="0.008078" NOx_perVeh="0.229070" fuel_perVeh="0.260477" electricity_perVeh="0"/>
        <edge id=":1110673630_1" sampledSeconds="336.44" CO_abs="1346.427170" CO2_abs="104132.424442" HC_abs="8.510589" PMx_abs="1.440055" NOx_abs="39.984066" fuel_abs="44.762468" electricity_abs="0"
            CO_normed="49.233763" CO2_normed="3807.729979" HC_normed="0.311200" PMx_normed="0.052657" NOx_normed="1.462066" fuel_normed="1.636795" electricity_normed="0"
            traveltime="1.07" CO_perVeh="4.292145" CO2_perVeh="331.953675" HC_perVeh="0.027130" PMx_perVeh="0.004591" NOx_perVeh="0.127461" fuel_perVeh="0.142694" electricity_perVeh="0"/>
        <edge id=":1110673650_0" sampledSeconds="199.30" CO_abs="3071.257537" CO2_abs="379521.464839" HC_abs="22.705357" PMx_abs="5.217571" NOx_abs="141.940172" fuel_abs="163.140317" electricity_abs="0"
            CO_normed="4304.998300" CO2_normed="531977.289811" HC_normed="31.826221" PMx_normed="7.313497" NOx_normed="198.958306" fuel_normed="228.674664" electricity_normed="0"
            traveltime="0.02" CO_perVeh="0.354963" CO2_perVeh="43.863482" HC_perVeh="0.002624" PMx_perVeh="0.000603" NOx_perVeh="0.016405" fuel_perVeh="0.018855" electricity_perVeh="0"/>
        <edge id=":1110673655_0" sampledSeconds="20.70" CO_abs="393.474139" CO2_abs="46019.707127" HC_abs="2.853253" PMx_abs="0.644521" NOx_abs="17.345418" fuel_abs="19.781931" electricity_abs="0"
            CO_normed="551.534829" CO2_normed="64506.072365" HC_normed="3.999420" PMx_normed="0.903428" NOx_normed="24.313166" fuel_normed="27.728440" electricity_normed="0"
            traveltime="0.02" CO_perVeh="0.449513" CO2_perVeh="52.573923" HC_perVeh="0.003260" PMx_perVeh="0.000736" NOx_perVeh="0.019816" fuel_perVeh="0.022599" electricity_perVeh="0"/>
        <edge id=":1110673663_0" sampledSeconds="111.57" CO_abs="2042.850274" CO2_abs="225235.150666" HC_abs="14.465177" PMx_abs="3.175897" NOx_abs="85.177235" fuel_abs="96.819139" electricity_abs="0"
            CO_normed="52.444584" CO2_normed="5782.295400" HC_normed="0.371354" PMx_normed="0.081532" NOx_normed="2.186692" fuel_normed="2.485566" electricity_normed="0"
            traveltime="1.31" CO_perVeh="23.994240" CO2_perVeh="2645.493100" HC_perVeh="0.169900" PMx_perVeh="0.037302" NOx_perVeh="1.000447" fuel_perVeh="1.137186" electricity_perVeh="0"/>
        <edge id=":1110673663_1" sampledSeconds="170.16" CO_abs="2657.815574" CO2_abs="339797.514942" HC_abs="19.855077" PMx_abs="4.494831" NOx_abs="125.867128" fuel_abs="146.064855" electricity_abs="0"
            CO_normed="68.315546" CO2_normed="8734.034494" HC_normed="0.510348" PMx_normed="0.115534" NOx_normed="3.235244" fuel_normed="3.754399" electricity_normed="0"
            traveltime="1.27" CO_perVeh="19.887140" CO2_perVeh="2542.539376" HC_perVeh="0.148566" PMx_perVeh="0.033633" NOx_perVeh="0.941802" fuel_perVeh="1.092932" electricity_perVeh="0"/>
        <edge id=":1110673666_0" sampledSeconds="274.97" CO_abs="6432.301520" CO2_abs="502640.847328" HC_abs="40.747393" PMx_abs="6.779347" NOx_abs="191.715821" fuel_abs="216.065922" electricity_abs="0"