<?xml version="1.0" encoding="UTF-8"?>

<!-- generated on Mon Nov  9 22:16:28 2020 by Eclipse SUMO sumo Version 1.7.0
<configuration xmlns:xsi="http://www.w3.org/2001/XMLSchema-instance" xsi:noNamespaceSchemaLocation="http://sumo.dlr.de/xsd/sumoConfiguration.xsd">

    <input>
        <net-file value="../dataSets/Porto/6AM7AM_Routing_SaoBento/Porto.net.xml"/>
        <route-files value="../results/Porto/6AM7AM_Routing_SaoBento/cost_hc-ttime/solution7/Porto.rou.xml"/>
        <additional-files value="moreOutputInfo.xml"/>
    </input>

    <output>
        <emission-output.precision value="6"/>
        <tripinfo-output value="../results/Porto/6AM7AM_Routing_SaoBento/cost_hc-ttime/solution7/Porto-tripinfo"/>
    </output>

    <processing>
        <collision.action value="warn"/>
        <time-to-teleport value="-1"/>
    </processing>

    <emissions>
        <device.emissions.probability value="1"/>
    </emissions>

    <gui_only>
        <quit-on-end value="true"/>
        <start value="true"/>
    </gui_only>

</configuration>
-->

<meandata xmlns:xsi="http://www.w3.org/2001/XMLSchema-instance" xsi:noNamespaceSchemaLocation="http://sumo.dlr.de/xsd/meandata_file.xsd">
    <interval begin="0.00" end="4790.00" id="emissions-detector">
        <edge id=":1092997347_0" sampledSeconds="283.90" CO_abs="37218.998200" CO2_abs="1482770.661052" HC_abs="204.550854" PMx_abs="30.425116" NOx_abs="644.817901" fuel_abs="637.384383" electricity_abs="0"
            CO_normed="63573.919871" CO2_normed="2532726.503980" HC_normed="349.394133" PMx_normed="51.969263" NOx_normed="1101.416040" fuel_normed="1088.718818" electricity_normed="0"
            traveltime="0.07" CO_perVeh="9.810324" CO2_perVeh="390.834294" HC_perVeh="0.053916" PMx_perVeh="0.008020" NOx_perVeh="0.169964" fuel_perVeh="0.168004" electricity_perVeh="0"/>
        <edge id=":1103427051_0" sampledSeconds="11.14" CO_abs="846.189483" CO2_abs="46650.900028" HC_abs="4.959812" PMx_abs="0.914839" NOx_abs="19.918715" fuel_abs="20.053171" electricity_abs="0"
            CO_normed="2192.989806" CO2_normed="120900.755958" HC_normed="12.853880" PMx_normed="2.370903" NOx_normed="51.621462" fuel_normed="51.969920" electricity_normed="0"
            traveltime="0.03" CO_perVeh="2.318546" CO2_perVeh="127.822761" HC_perVeh="0.013590" PMx_perVeh="0.002507" NOx_perVeh="0.054577" fuel_perVeh="0.054945" electricity_perVeh="0"/>
        <edge id=":1105984386_0" sampledSeconds="22.69" CO_abs="412.236723" CO2_abs="32145.423044" HC_abs="2.610957" PMx_abs="0.440162" NOx_abs="12.315268" fuel_abs="13.818068" electricity_abs="0"
            CO_normed="31.907622" CO2_normed="2488.094682" HC_normed="0.202091" PMx_normed="0.034069" NOx_normed="0.953217" fuel_normed="1.069535" electricity_normed="0"
            traveltime="0.95" CO_perVeh="17.301256" CO2_perVeh="1349.118507" HC_perVeh="0.109580" PMx_perVeh="0.018473" NOx_perVeh="0.516862" fuel_perVeh="0.579934" electricity_perVeh="0"/>
        <edge id=":1105984390_0" sampledSeconds="23.09" CO_abs="12.305384" CO2_abs="1001.111818" HC_abs="0.078402" PMx_abs="0.011090" NOx_abs="0.366378" fuel_abs="0.430343" electricity_abs="0"
            CO_normed="0.736330" CO2_normed="59.904567" HC_normed="0.004691" PMx_normed="0.000664" NOx_normed="0.021923" fuel_normed="0.025751" electricity_normed="0"
            traveltime="1.05" CO_perVeh="0.558043" CO2_perVeh="45.399929" HC_perVeh="0.003555" PMx_perVeh="0.000503" NOx_perVeh="0.016615" fuel_perVeh="0.019516" electricity_perVeh="0"/>
        <edge id=":1105984390_1" sampledSeconds="646.90" CO_abs="14409.201124" CO2_abs="1904499.613518" HC_abs="111.127141" PMx_abs="33.499185" NOx_abs="710.880315" fuel_abs="818.657243" electricity_abs="0"
            CO_normed="824.787679" CO2_normed="109014.219594" HC_normed="6.360956" PMx_normed="1.917505" NOx_normed="40.691036" fuel_normed="46.860225" electricity_normed="0"
            traveltime="0.64" CO_perVeh="14.177757" CO2_perVeh="1873.909093" HC_perVeh="0.109342" PMx_perVeh="0.032961" NOx_perVeh="0.699462" fuel_perVeh="0.805508" electricity_perVeh="0"/>
        <edge id=":1105984395_0" sampledSeconds="8.96" CO_abs="208.038098" CO2_abs="16798.485903" HC_abs="1.326443" PMx_abs="0.205818" NOx_abs="6.272853" fuel_abs="7.221047" electricity_abs="0"
            CO_normed="169.950339" CO2_normed="13723.007454" HC_normed="1.083597" PMx_normed="0.168137" NOx_normed="5.124414" fuel_normed="5.899013" electricity_normed="0"
            traveltime="0.09" CO_perVeh="2.109734" CO2_perVeh="170.355016" HC_perVeh="0.013452" PMx_perVeh="0.002087" NOx_perVeh="0.063614" fuel_perVeh="0.073229" electricity_perVeh="0"/>
        <edge id=":1105984398_0" sampledSeconds="23.18" CO_abs="1663.800887" CO2_abs="111356.244872" HC_abs="10.218317" PMx_abs="2.095648" NOx_abs="46.538653" fuel_abs="47.867030" electricity_abs="0"
            CO_normed="103.428931" CO2_normed="6922.377257" HC_normed="0.635214" PMx_normed="0.130274" NOx_normed="2.893040" fuel_normed="2.975618" electricity_normed="0"
            traveltime="1.10" CO_perVeh="78.792579" CO2_perVeh="5273.495039" HC_perVeh="0.483909" PMx_perVeh="0.099244" NOx_perVeh="2.203930" fuel_perVeh="2.266838" electricity_perVeh="0"/>
        <edge id=":1105984398_1" sampledSeconds="450.25" CO_abs="7830.163833" CO2_abs="933511.882487" HC_abs="57.043327" PMx_abs="13.219910" NOx_abs="351.828608" fuel_abs="401.277100" electricity_abs="0"
            CO_normed="471.167578" CO2_normed="56172.583611" HC_normed="3.432491" PMx_normed="0.795487" NOx_normed="21.170723" fuel_normed="24.146207" electricity_normed="0"
            traveltime="0.95" CO_perVeh="16.602068" CO2_perVeh="1979.298068" HC_perVeh="0.120947" PMx_perVeh="0.028030" NOx_perVeh="0.745972" fuel_perVeh="0.850816" electricity_perVeh="0"/>
        <edge id=":1106006327_0" sampledSeconds="134.15" CO_abs="17917.348376" CO2_abs="581743.055648" HC_abs="95.268115" PMx_abs="12.083983" NOx_abs="254.353719" fuel_abs="250.070868" electricity_abs="0"
            CO_normed="1519.871962" CO2_normed="49347.422450" HC_normed="8.081293" PMx_normed="1.025046" NOx_normed="21.576021" fuel_normed="21.212720" electricity_normed="0"
            traveltime="2.08" CO_perVeh="277.715452" CO2_perVeh="9016.905415" HC_perVeh="1.476637" PMx_perVeh="0.187299" NOx_perVeh="3.942434" fuel_perVeh="3.876050" electricity_perVeh="0"/>
        <edge id=":1106006327_1" sampledSeconds="161.44" CO_abs="21745.078024" CO2_abs="725666.257425" HC_abs="116.109522" PMx_abs="15.110804" NOx_abs="317.432167" fuel_abs="311.937823" electricity_abs="0"
            CO_normed="1608.548832" CO2_normed="53679.715918" HC_normed="8.588971" PMx_normed="1.117792" NOx_normed="23.481412" fuel_normed="23.074979" electricity_normed="0"
            traveltime="2.29" CO_perVeh="308.699409" CO2_perVeh="10301.767795" HC_perVeh="1.648324" PMx_perVeh="0.214517" NOx_perVeh="4.506359" fuel_perVeh="4.428359" electricity_perVeh="0"/>
        <edge id=":1106006327_2" sampledSeconds="0.00" CO_abs="0" CO2_abs="0" HC_abs="0" PMx_abs="0" NOx_abs="0" fuel_abs="0" electricity_abs="0"
            CO_normed="0" CO2_normed="0" HC_normed="0" PMx_normed="0" NOx_normed="0" fuel_normed="0" electricity_normed="0"/>
        <edge id=":1106006327_3" sampledSeconds="0.00" CO_abs="0" CO2_abs="0" HC_abs="0" PMx_abs="0" NOx_abs="0" fuel_abs="0" electricity_abs="0"
            CO_normed="0" CO2_normed="0" HC_normed="0" PMx_normed="0" NOx_normed="0" fuel_normed="0" electricity_normed="0"/>
        <edge id=":1107381198_0" sampledSeconds="0.00" CO_abs="0" CO2_abs="0" HC_abs="0" PMx_abs="0" NOx_abs="0" fuel_abs="0" electricity_abs="0"
            CO_normed="0" CO2_normed="0" HC_normed="0" PMx_normed="0" NOx_normed="0" fuel_normed="0" electricity_normed="0"/>
        <edge id=":1107381198_1" sampledSeconds="36.92" CO_abs="1419.809598" CO2_abs="56827.842479" HC_abs="7.764640" PMx_abs="0.935420" NOx_abs="23.249135" fuel_abs="24.428383" electricity_abs="0"
            CO_normed="116.366443" CO2_normed="4657.563875" HC_normed="0.636384" PMx_normed="0.076666" NOx_normed="1.905480" fuel_normed="2.002130" electricity_normed="0"
            traveltime="1.52" CO_perVeh="58.457498" CO2_perVeh="2339.759858" HC_perVeh="0.319692" PMx_perVeh="0.038514" NOx_perVeh="0.957231" fuel_perVeh="1.005784" electricity_perVeh="0"/>
        <edge id=":1110338277_0" sampledSeconds="96.80" CO_abs="1439.631915" CO2_abs="180599.791494" HC_abs="10.665597" PMx_abs="2.422155" NOx_abs="67.132932" fuel_abs="77.632326" electricity_abs="0"
            CO_normed="3864.207348" CO2_normed="484759.356829" HC_normed="28.628205" PMx_normed="6.501459" NOx_normed="180.195763" fuel_normed="208.377850" electricity_normed="0"
            traveltime="0.02" CO_perVeh="0.324452" CO2_perVeh="40.702058" HC_perVeh="0.002404" PMx_perVeh="0.000546" NOx_perVeh="0.015130" fuel_perVeh="0.017496" electricity_perVeh="0"/>
        <edge id=":1110338293_0" sampledSeconds="123.86" CO_abs="5883.823282" CO2_abs="400779.203321" HC_abs="36.226416" PMx_abs="7.134035" NOx_abs="164.820854" fuel_abs="172.277451" electricity_abs="0"
            CO_normed="14740.267095" CO2_normed="1004039.757799" HC_normed="90.755114" PMx_normed="17.872321" NOx_normed="412.912370" fuel_normed="431.592780" electricity_normed="0"
            traveltime="0.03" CO_perVeh="1.349552" CO2_perVeh="91.925350" HC_perVeh="0.008309" PMx_perVeh="0.001636" NOx_perVeh="0.037804" fuel_perVeh="0.039515" electricity_perVeh="0"/>
        <edge id=":1110338295_0" sampledSeconds="0.00" CO_abs="0" CO2_abs="0" HC_abs="0" PMx_abs="0" NOx_abs="0" fuel_abs="0" electricity_abs="0"
            CO_normed="0" CO2_normed="0" HC_normed="0" PMx_normed="0" NOx_normed="0" fuel_normed="0" electricity_normed="0"/>
        <edge id=":1110673403_0" sampledSeconds="143.75" CO_abs="2311.139263" CO2_abs="274402.993804" HC_abs="16.776003" PMx_abs="3.886089" NOx_abs="103.426529" fuel_abs="117.954190" electricity_abs="0"
            CO_normed="5789.910470" CO2_normed="687439.650448" HC_normed="42.027566" PMx_normed="9.735505" NOx_normed="259.106126" fuel_normed="295.501103" electricity_normed="0"
            traveltime="0.02" CO_perVeh="0.371069" CO2_perVeh="44.057211" HC_perVeh="0.002693" PMx_perVeh="0.000624" NOx_perVeh="0.016606" fuel_perVeh="0.018938" electricity_perVeh="0"/>
        <edge id=":1110673412_0" sampledSeconds="252.98" CO_abs="45063.839685" CO2_abs="3069915.334647" HC_abs="280.316836" PMx_abs="67.496890" NOx_abs="1319.768496" fuel_abs="1319.605381" electricity_abs="0"
            CO_normed="116787.720730" CO2_normed="7956011.233697" HC_normed="726.470816" PMx_normed="174.925349" NOx_normed="3420.320052" fuel_normed="3419.897324" electricity_normed="0"
            traveltime="0.02" CO_perVeh="2.772993" CO2_perVeh="188.906554" HC_perVeh="0.017249" PMx_perVeh="0.004153" NOx_perVeh="0.081212" fuel_perVeh="0.081202" electricity_perVeh="0"/>
        <edge id=":1110673414_0" sampledSeconds="0.00" CO_abs="0" CO2_abs="0" HC_abs="0" PMx_abs="0" NOx_abs="0" fuel_abs="0" electricity_abs="0"
            CO_normed="0" CO2_normed="0" HC_normed="0" PMx_normed="0" NOx_normed="0" fuel_normed="0" electricity_normed="0"/>
        <edge id=":1110673414_1" sampledSeconds="15.11" CO_abs="903.005590" CO2_abs="30886.650397" HC_abs="4.819096" PMx_abs="0.535132" NOx_abs="12.821569" fuel_abs="13.277205" electricity_abs="0"
            CO_normed="75.157041" CO2_normed="2570.692020" HC_normed="0.401093" PMx_normed="0.044539" NOx_normed="1.067138" fuel_normed="1.105060" electricity_normed="0"
            traveltime="1.65" CO_perVeh="98.622889" CO2_perVeh="3373.324300" HC_perVeh="0.526324" PMx_perVeh="0.058445" NOx_perVeh="1.400324" fuel_perVeh="1.450087" electricity_perVeh="0"/>
        <edge id=":1110673417_0" sampledSeconds="29.51" CO_abs="394.114026" CO2_abs="51012.830483" HC_abs="2.926930" PMx_abs="0.667060" NOx_abs="18.822703" fuel_abs="21.928304" electricity_abs="0"
            CO_normed="1057.866457" CO2_normed="136926.774335" HC_normed="7.856357" PMx_normed="1.790497" NOx_normed="50.523211" fuel_normed="58.859151" electricity_normed="0"
            traveltime="0.02" CO_perVeh="0.292517" CO2_perVeh="37.862406" HC_perVeh="0.002172" PMx_perVeh="0.000495" NOx_perVeh="0.013970" fuel_perVeh="0.016275" electricity_perVeh="0"/>
        <edge id=":1110673446_0" sampledSeconds="333.87" CO_abs="3755.354014" CO2_abs="290124.939370" HC_abs="24.009449" PMx_abs="5.472906" NOx_abs="119.909351" fuel_abs="124.711263" electricity_abs="0"
            CO_normed="9407.985004" CO2_normed="726826.570447" HC_normed="60.148933" PMx_normed="13.710830" NOx_normed="300.399208" fuel_normed="312.429051" electricity_normed="0"
            traveltime="0.02" CO_perVeh="0.256318" CO2_perVeh="19.802164" HC_perVeh="0.001639" PMx_perVeh="0.000374" NOx_perVeh="0.008184" fuel_perVeh="0.008512" electricity_perVeh="0"/>
        <edge id=":1110673451_0" sampledSeconds="37.27" CO_abs="343.386610" CO2_abs="24007.099014" HC_abs="2.114498" PMx_abs="0.352203" NOx_abs="9.389218" fuel_abs="10.319709" electricity_abs="0"
            CO_normed="955.843035" CO2_normed="66825.606164" HC_normed="5.885868" PMx_normed="0.980385" NOx_normed="26.135611" fuel_normed="28.725703" electricity_normed="0"
            traveltime="0.03" CO_perVeh="0.246253" CO2_perVeh="17.216246" HC_perVeh="0.001516" PMx_perVeh="0.000253" NOx_perVeh="0.006733" fuel_perVeh="0.007401" electricity_perVeh="0"/>
        <edge id=":1110673464_0" sampledSeconds="321.91" CO_abs="540.500193" CO2_abs="44033.058551" HC_abs="3.447999" PMx_abs="0.575585" NOx_abs="16.618347" fuel_abs="18.928126" electricity_abs="0"
            CO_normed="28.769224" CO2_normed="2343.749235" HC_normed="0.183527" PMx_normed="0.030637" NOx_normed="0.884545" fuel_normed="1.007488" electricity_normed="0"
            traveltime="1.16" CO_perVeh="1.953837" CO2_perVeh="159.173697" HC_perVeh="0.012464" PMx_perVeh="0.002081" NOx_perVeh="0.060073" fuel_perVeh="0.068423" electricity_perVeh="0"/>
        <edge id=":1110673464_1" sampledSeconds="708.66" CO_abs="15807.224291" CO2_abs="2064451.559400" HC_abs="121.411186" PMx_abs="36.447336" NOx_abs="772.318222" fuel_abs="887.413148" electricity_abs="0"
            CO_normed="824.439179" CO2_normed="107673.220636" HC_normed="6.332303" PMx_normed="1.900942" NOx_normed="40.280911" fuel_normed="46.283785" electricity_normed="0"
            traveltime="0.70" CO_perVeh="15.609302" CO2_perVeh="2038.602571" HC_perVeh="0.119891" PMx_perVeh="0.035991" NOx_perVeh="0.762648" fuel_perVeh="0.876302" electricity_perVeh="0"/>
        <edge id=":1110673479_0" sampledSeconds="134.38" CO_abs="6602.874737" CO2_abs="456226.853073" HC_abs="40.794075" PMx_abs="8.031904" NOx_abs="186.882550" fuel_abs="196.112043" electricity_abs="0"
            CO_normed="16541.648611" CO2_normed="1142948.274923" HC_normed="102.198101" PMx_normed="20.121679" NOx_normed="468.181753" fuel_normed="491.303657" electricity_normed="0"
            traveltime="0.03" CO_perVeh="1.390957" CO2_perVeh="96.108459" HC_perVeh="0.008594" PMx_perVeh="0.001692" NOx_perVeh="0.039369" fuel_perVeh="0.041313" electricity_perVeh="0"/>
        <edge id=":1110673511_0" sampledSeconds="11.80" CO_abs="227.717294" CO2_abs="28695.748211" HC_abs="1.693375" PMx_abs="0.399128" NOx_abs="10.752981" fuel_abs="12.335085" electricity_abs="0"
            CO_normed="570.481738" CO2_normed="71889.139568" HC_normed="4.242276" PMx_normed="0.999903" NOx_normed="26.938575" fuel_normed="30.902091" electricity_normed="0"
            traveltime="0.02" CO_perVeh="0.450925" CO2_perVeh="56.823264" HC_perVeh="0.003353" PMx_perVeh="0.000790" NOx_perVeh="0.021293" fuel_perVeh="0.024426" electricity_perVeh="0"/>
        <edge id=":1110673517_0" sampledSeconds="17.25" CO_abs="759.988168" CO2_abs="53257.026661" HC_abs="4.709581" PMx_abs="0.917243" NOx_abs="21.666425" fuel_abs="22.892899" electricity_abs="0"
            CO_normed="1903.936956" CO2_normed="133420.526081" HC_normed="11.798532" PMx_normed="2.297896" NOx_normed="54.279144" fuel_normed="57.351729" electricity_normed="0"
            traveltime="0.03" CO_perVeh="1.220211" CO2_perVeh="85.507669" HC_perVeh="0.007562" PMx_perVeh="0.001473" NOx_perVeh="0.034787" fuel_perVeh="0.036756" electricity_perVeh="0"/>
        <edge id=":1110673534_0" sampledSeconds="476.29" CO_abs="2988.462282" CO2_abs="268738.156783" HC_abs="19.729122" PMx_abs="3.478563" NOx_abs="100.925644" fuel_abs="115.520076" electricity_abs="0"
            CO_normed="145.092114" CO2_normed="13047.441704" HC_normed="0.957864" PMx_normed="0.168887" NOx_normed="4.900017" fuel_normed="5.608587" electricity_normed="0"
            traveltime="1.43" CO_perVeh="9.003039" CO2_perVeh="809.600357" HC_perVeh="0.059436" PMx_perVeh="0.010480" NOx_perVeh="0.304049" fuel_perVeh="0.348016" electricity_perVeh="0"/>
        <edge id=":1110673534_1" sampledSeconds="183.88" CO_abs="2545.596775" CO2_abs="330285.409495" HC_abs="19.096986" PMx_abs="4.418424" NOx_abs="122.443410" fuel_abs="141.975903" electricity_abs="0"
            CO_normed="120.174835" CO2_normed="15592.412404" HC_normed="0.901548" PMx_normed="0.208589" NOx_normed="5.780419" fuel_normed="6.702527" electricity_normed="0"
            traveltime="1.22" CO_perVeh="16.901849" CO2_perVeh="2192.976544" HC_perVeh="0.126797" PMx_perVeh="0.029337" NOx_perVeh="0.812980" fuel_perVeh="0.942669" electricity_perVeh="0"/>
        <edge id=":1110673549_0" sampledSeconds="59.81" CO_abs="107.182211" CO2_abs="11919.116655" HC_abs="0.764498" PMx_abs="0.170826" NOx_abs="4.517679" fuel_abs="5.123524" electricity_abs="0"
            CO_normed="5.040956" CO2_normed="560.575719" HC_normed="0.035956" PMx_normed="0.008034" NOx_normed="0.212474" fuel_normed="0.240968" electricity_normed="0"
            traveltime="1.25" CO_perVeh="2.233050" CO2_perVeh="248.324643" HC_perVeh="0.015928" PMx_perVeh="0.003559" NOx_perVeh="0.094122" fuel_perVeh="0.106744" electricity_perVeh="0"/>
        <edge id=":1110673549_1" sampledSeconds="638.94" CO_abs="13912.437057" CO2_abs="1871532.744420" HC_abs="107.982948" PMx_abs="32.709276" NOx_abs="696.786569" fuel_abs="804.486436" electricity_abs="0"
            CO_normed="632.936523" CO2_normed="85144.063752" HC_normed="4.912608" PMx_normed="1.488085" NOx_normed="31.699814" fuel_normed="36.599544" electricity_normed="0"
            traveltime="0.80" CO_perVeh="17.513010" CO2_perVeh="2355.890071" HC_perVeh="0.135929" PMx_perVeh="0.041175" NOx_perVeh="0.877117" fuel_perVeh="1.012690" electricity_perVeh="0"/>
        <edge id=":1110673556_0" sampledSeconds="422.58" CO_abs="51675.133918" CO2_abs="2574459.608946" HC_abs="296.482118" PMx_abs="51.857876" NOx_abs="1108.509114" fuel_abs="1106.649128" electricity_abs="0"
            CO_normed="1802.193104" CO2_normed="89785.415209" HC_normed="10.339945" PMx_normed="1.808566" NOx_normed="38.659745" fuel_normed="38.594877" electricity_normed="0"
            traveltime="2.62" CO_perVeh="320.774570" CO2_perVeh="15981.016632" HC_perVeh="1.840419" PMx_perVeh="0.321909" NOx_perVeh="6.881096" fuel_perVeh="6.869550" electricity_perVeh="0"/>
        <edge id=":1110673556_2" sampledSeconds="246.27" CO_abs="24136.892976" CO2_abs="1052743.235911" HC_abs="134.625616" PMx_abs="20.241366" NOx_abs="448.454416" fuel_abs="452.532804" electricity_abs="0"
            CO_normed="880.177698" CO2_normed="38389.411562" HC_normed="4.909268" PMx_normed="0.738123" NOx_normed="16.353371" fuel_normed="16.502094" electricity_normed="0"
            traveltime="2.99" CO_perVeh="292.775886" CO2_perVeh="12769.573716" HC_perVeh="1.632983" PMx_perVeh="0.245524" NOx_perVeh="5.439666" fuel_perVeh="5.489136" electricity_perVeh="0"/>
        <edge id=":1110673556_3" sampledSeconds="413.20" CO_abs="35045.431435" CO2_abs="1252601.835946" HC_abs="188.759699" PMx_abs="24.029989" NOx_abs="535.003488" fuel_abs="538.449447" electricity_abs="0"
            CO_normed="2907.168475" CO2_normed="103908.681382" HC_normed="15.658425" PMx_normed="1.993390" NOx_normed="44.380828" fuel_normed="44.666685" electricity_normed="0"
            traveltime="1.74" CO_perVeh="147.380943" CO2_perVeh="5267.723423" HC_perVeh="0.793815" PMx_perVeh="0.101056" NOx_perVeh="2.249917" fuel_perVeh="2.264409" electricity_perVeh="0"/>
        <edge id=":1110673556_4" sampledSeconds="202.03" CO_abs="20724.942416" CO2_abs="820977.224964" HC_abs="113.616059" PMx_abs="15.972640" NOx_abs="351.558484" fuel_abs="352.907011" electricity_abs="0"
            CO_normed="1050.314035" CO2_normed="41606.093976" HC_normed="5.757919" PMx_normed="0.809473" NOx_normed="17.816542" fuel_normed="17.884884" electricity_normed="0"
            traveltime="2.43" CO_perVeh="249.161678" CO2_perVeh="9870.042517" HC_perVeh="1.365927" PMx_perVeh="0.192028" NOx_perVeh="4.226545" fuel_perVeh="4.242757" electricity_perVeh="0"/>
        <edge id=":1110673556_5" sampledSeconds="24.15" CO_abs="1940.900219" CO2_abs="80572.714464" HC_abs="10.724304" PMx_abs="1.539545" NOx_abs="34.306776" fuel_abs="34.635123" electricity_abs="0"
            CO_normed="137.097195" CO2_normed="5691.324581" HC_normed="0.757521" PMx_normed="0.108747" NOx_normed="2.423289" fuel_normed="2.446482" electricity_normed="0"
            traveltime="1.67" CO_perVeh="134.185694" CO2_perVeh="5570.459272" HC_perVeh="0.741433" PMx_perVeh="0.106438" NOx_perVeh="2.371826" fuel_perVeh="2.394527" electricity_perVeh="0"/>
        <edge id=":1110673556_6" sampledSeconds="536.03" CO_abs="62907.873086" CO2_abs="3148859.987835" HC_abs="361.262787" PMx_abs="63.268783" NOx_abs="1354.538118" fuel_abs="1353.559089" electricity_abs="0"
            CO_normed="2249.258020" CO2_normed="112586.839020" HC_normed="12.916876" PMx_normed="2.262162" NOx_normed="48.431231" fuel_normed="48.396226" electricity_normed="0"
            traveltime="2.54" CO_perVeh="298.328571" CO2_perVeh="14932.866986" HC_perVeh="1.713220" PMx_perVeh="0.300040" NOx_perVeh="6.423638" fuel_perVeh="6.418995" electricity_perVeh="0"/>
        <edge id=":1110673561_0" sampledSeconds="100.80" CO_abs="9593.245218" CO2_abs="690369.700350" HC_abs="60.304952" PMx_abs="13.980125" NOx_abs="291.895695" fuel_abs="296.756997" electricity_abs="0"
            CO_normed="430.959633" CO2_normed="31013.641955" HC_normed="2.709094" PMx_normed="0.628032" NOx_normed="13.112900" fuel_normed="13.331285" electricity_normed="0"
            traveltime="1.19" CO_perVeh="113.209605" CO2_perVeh="8147.032537" HC_perVeh="0.711657" PMx_perVeh="0.164979" NOx_perVeh="3.444653" fuel_perVeh="3.502021" electricity_perVeh="0"/>
        <edge id=":1110673561_1" sampledSeconds="1313.92" CO_abs="124754.352570" CO2_abs="8581891.257085" HC_abs="775.819516" PMx_abs="180.139009" NOx_abs="3675.422420" fuel_abs="3688.940029" electricity_abs="0"
            CO_normed="5463.933570" CO2_normed="375865.713407" HC_normed="33.978985" PMx_normed="7.889645" NOx_normed="160.974455" fuel_normed="161.566493" electricity_normed="0"
            traveltime="1.19" CO_perVeh="113.150313" CO2_perVeh="7783.645718" HC_perVeh="0.703657" PMx_perVeh="0.163383" NOx_perVeh="3.333553" fuel_perVeh="3.345813" electricity_perVeh="0"/>
        <edge id=":1110673562_0" sampledSeconds="104.14" CO_abs="2118.430944" CO2_abs="169717.528082" HC_abs="13.507334" PMx_abs="2.236276" NOx_abs="64.337522" fuel_abs="72.955063" electricity_abs="0"
            CO_normed="5896.815432" CO2_normed="472421.790068" HC_normed="37.598702" PMx_normed="6.224846" NOx_normed="179.088441" fuel_normed="203.076027" electricity_normed="0"
            traveltime="0.03" CO_perVeh="0.539998" CO2_perVeh="43.261771" HC_perVeh="0.003443" PMx_perVeh="0.000570" NOx_perVeh="0.016400" fuel_perVeh="0.018597" electricity_perVeh="0"/>
        <edge id=":1110673564_0" sampledSeconds="28.50" CO_abs="426.356333" CO2_abs="45953.757886" HC_abs="2.995652" PMx_abs="0.675834" NOx_abs="17.548240" fuel_abs="19.753558" electricity_abs="0"
            CO_normed="3204.348223" CO2_normed="345372.710628" HC_normed="22.514294" PMx_normed="5.079337" NOx_normed="131.886562" fuel_normed="148.460977" electricity_normed="0"
            traveltime="7.835863e-03" CO_perVeh="0.117211" CO2_perVeh="12.633336" HC_perVeh="0.000824" PMx_perVeh="0.000186" NOx_perVeh="0.004824" fuel_perVeh="0.005431" electricity_perVeh="0"/>
        <edge id=":1110673588_0" sampledSeconds="11.64" CO_abs="201.597268" CO2_abs="20342.276725" HC_abs="1.378880" PMx_abs="0.313451" NOx_abs="7.876072" fuel_abs="8.744262" electricity_abs="0"
            CO_normed="606.054416" CO2_normed="61154.234830" HC_normed="4.145275" PMx_normed="0.942317" NOx_normed="23.677543" fuel_normed="26.287552" electricity_normed="0"
            traveltime="0.02" CO_perVeh="0.335995" CO2_perVeh="33.903795" HC_perVeh="0.002298" PMx_perVeh="0.000522" NOx_perVeh="0.013127" fuel_perVeh="0.014574" electricity_perVeh="0"/>
        <edge id=":1110673601_0" sampledSeconds="29.51" CO_abs="564.659671" CO2_abs="68212.665807" HC_abs="4.135050" PMx_abs="0.952131" NOx_abs="25.594687" fuel_abs="29.321745" electricity_abs="0"
            CO_normed="1515.638842" CO2_normed="183093.943412" HC_normed="11.099151" PMx_normed="2.555676" NOx_normed="68.700324" fuel_normed="78.704356" electricity_normed="0"
            traveltime="0.02" CO_perVeh="0.419103" CO2_perVeh="50.628929" HC_perVeh="0.003069" PMx_perVeh="0.000707" NOx_perVeh="0.018997" fuel_perVeh="0.021763" electricity_perVeh="0"/>
        <edge id=":1110673617_0" sampledSeconds="238.51" CO_abs="6604.592818" CO2_abs="790049.175637" HC_abs="49.013418" PMx_abs="14.284308" NOx_abs="299.883430" fuel_abs="339.605685" electricity_abs="0"
            CO_normed="16545.952779" CO2_normed="1979246.369027" HC_normed="122.789356" PMx_normed="35.785322" NOx_normed="751.273729" fuel_normed="850.786685" electricity_normed="0"
            traveltime="0.01" CO_perVeh="0.404490" CO2_perVeh="48.385534" HC_perVeh="0.003002" PMx_perVeh="0.000875" NOx_perVeh="0.018366" fuel_perVeh="0.020799" electricity_perVeh="0"/>
        <edge id=":1110673621_0" sampledSeconds="25.76" CO_abs="475.481609" CO2_abs="56071.001895" HC_abs="3.459167" PMx_abs="0.781944" NOx_abs="21.084355" fuel_abs="24.102564" electricity_abs="0"
            CO_normed="1429.422792" CO2_normed="168564.181062" HC_normed="10.399166" PMx_normed="2.350729" NOx_normed="63.385117" fuel_normed="72.458647" electricity_normed="0"
            traveltime="0.02" CO_perVeh="0.360213" CO2_perVeh="42.478032" HC_perVeh="0.002621" PMx_perVeh="0.000592" NOx_perVeh="0.015973" fuel_perVeh="0.018260" electricity_perVeh="0"/>
        <edge id=":1110673630_0" sampledSeconds="54.32" CO_abs="263.514033" CO2_abs="25996.250840" HC_abs="1.786068" PMx_abs="0.315949" NOx_abs="9.589463" fuel_abs="11.174790" electricity_abs="0"
            CO_normed="14.126114" CO2_normed="1393.572901" HC_normed="0.095745" PMx_normed="0.016937" NOx_normed="0.514059" fuel_normed="0.599043" electricity_normed="0"
            traveltime="1.27" CO_perVeh="6.150884" CO2_perVeh="606.798476" HC_perVeh="0.041690" PMx_perVeh="0.007375" NOx_perVeh="0.223835" fuel_perVeh="0.260839" electricity_perVeh="0"/>
        <edge id=":1110673630_1" sampledSeconds="7.42" CO_abs="0" CO2_abs="0" HC_abs="0" PMx_abs="0" NOx_abs="0" fuel_abs="0" electricity_abs="0"
            CO_normed="0" CO2_normed="0" HC_normed="0" PMx_normed="0" NOx_normed="0" fuel_normed="0" electricity_normed="0"
            traveltime="1.05" CO_perVeh="0" CO2_perVeh="0" HC_perVeh="0" PMx_perVeh="0" NOx_perVeh="0" fuel_perVeh="0" electricity_perVeh="0"/>
        <edge id=":1110673650_0" sampledSeconds="143.51" CO_abs="1924.161143" CO2_abs="256568.415536" HC_abs="14.603792" PMx_abs="3.407519" NOx_abs="94.868641" fuel_abs="110.288050" electricity_abs="0"
            CO_normed="4820.445453" CO2_normed="642760.122428" HC_normed="36.585700" PMx_normed="8.536582" NOx_normed="237.666742" fuel_normed="276.295740" electricity_normed="0"
            traveltime="0.02" CO_perVeh="0.308937" CO2_perVeh="41.193751" HC_perVeh="0.002345" PMx_perVeh="0.000547" NOx_perVeh="0.015232" fuel_perVeh="0.017707" electricity_perVeh="0"/>
        <edge id=":1110673655_0" sampledSeconds="45.03" CO_abs="802.188921" CO2_abs="87680.320626" HC_abs="5.669004" PMx_abs="1.277367" NOx_abs="33.411320" fuel_abs="37.690034" electricity_abs="0"
            CO_normed="2009.659093" CO2_normed="219658.423279" HC_normed="14.202099" PMx_normed="3.200085" NOx_normed="83.702680" fuel_normed="94.421798" electricity_normed="0"
            traveltime="0.02" CO_perVeh="0.429322" CO2_perVeh="46.925513" HC_perVeh="0.003034" PMx_perVeh="0.000684" NOx_perVeh="0.017881" fuel_perVeh="0.020171" electricity_perVeh="0"/>
        <edge id=":1110673663_0" sampledSeconds="108.29" CO_abs="1626.345573" CO2_abs="202640.211806" HC_abs="11.980342" PMx_abs="2.713212" NOx_abs="75.309794" fuel_abs="87.106592" electricity_abs="0"
            CO_normed="74.621835" CO2_normed="9297.768327" HC_normed="0.549696" PMx_normed="0.124491" NOx_normed="3.455449" fuel_normed="3.996724" electricity_normed="0"
            traveltime="1.27" CO_perVeh="19.102196" CO2_perVeh="2380.104884" HC_perVeh="0.140715" PMx_perVeh="0.031868" NOx_perVeh="0.884549" fuel_perVeh="1.023108" electricity_perVeh="0"/>
        <edge id=":1110673663_1" sampledSeconds="154.68" CO_abs="2437.095409" CO2_abs="308194.893063" HC_abs="18.163605" PMx_abs="4.234129" NOx_abs="115.042400" fuel_abs="132.479996" electricity_abs="0"
            CO_normed="111.958280" CO2_normed="14158.235309" HC_normed="0.834422" PMx_normed="0.194513" NOx_normed="5.284959" fuel_normed="6.086029" electricity_normed="0"
            traveltime="1.25" CO_perVeh="19.714505" CO2_perVeh="2493.094715" HC_perVeh="0.146932" PMx_perVeh="0.034251" NOx_perVeh="0.930618" fuel_perVeh="1.071676" electricity_perVeh="0"/>
        <edge id=":1110673666_0" sampledSeconds="192.59" CO_abs="3882.357848" CO2_abs="303938.924316" HC_abs="24.606287" PMx_abs="4.094762" NOx_abs="115.882920" fuel_abs="130.651628" electricity_abs="0"
            CO_normed="238.581131" CO2_normed="18677.848672" HC_normed="1.512121" PMx_normed="0.251634" NOx_normed="7.121311" fuel_normed="8.028887" electricity_normed="0"