<?xml version="1.0" encoding="UTF-8"?>

<!-- generated on Tue Nov 10 12:12:18 2020 by Eclipse SUMO sumo Version 1.7.0
<configuration xmlns:xsi="http://www.w3.org/2001/XMLSchema-instance" xsi:noNamespaceSchemaLocation="http://sumo.dlr.de/xsd/sumoConfiguration.xsd">

    <input>
        <net-file value="../dataSets/Porto/8AM9AM_Routing_SaoBento/Porto.net.xml"/>
        <route-files value="../results/Porto/8AM9AM_Routing_SaoBento/inputdata/cost_PMx-length/solution13/Porto.rou.xml"/>
        <additional-files value="moreOutputInfo.xml"/>
    </input>

    <output>
        <emission-output.precision value="6"/>
        <tripinfo-output value="../results/Porto/8AM9AM_Routing_SaoBento/inputdata/cost_PMx-length/solution13/Porto-tripinfo"/>
    </output>

    <processing>
        <collision.action value="warn"/>
        <time-to-teleport value="-1"/>
    </processing>

    <emissions>
        <device.emissions.probability value="1"/>
    </emissions>

    <gui_only>
        <quit-on-end value="true"/>
        <start value="true"/>
    </gui_only>

</configuration>
-->

<meandata xmlns:xsi="http://www.w3.org/2001/XMLSchema-instance" xsi:noNamespaceSchemaLocation="http://sumo.dlr.de/xsd/meandata_file.xsd">
    <interval begin="0.00" end="8382.00" id="emissions-detector">
        <edge id=":1092997347_0" sampledSeconds="582.10" CO_abs="71383.970560" CO2_abs="3085802.824988" HC_abs="398.050379" PMx_abs="62.326842" NOx_abs="1334.479821" fuel_abs="1326.460852" electricity_abs="0"
            CO_normed="69679.153927" CO2_normed="3012106.616439" HC_normed="388.544002" PMx_normed="60.838330" NOx_normed="1302.609313" fuel_normed="1294.781856" electricity_normed="0"
            traveltime="0.07" CO_perVeh="8.172818" CO2_perVeh="353.296477" HC_perVeh="0.045573" PMx_perVeh="0.007136" NOx_perVeh="0.152786" fuel_perVeh="0.151868" electricity_perVeh="0"/>
        <edge id=":1103427051_0" sampledSeconds="19.35" CO_abs="1547.193371" CO2_abs="87870.845714" HC_abs="9.124661" PMx_abs="1.686559" NOx_abs="37.241358" fuel_abs="37.771834" electricity_abs="0"
            CO_normed="2291.402816" CO2_normed="130137.258235" HC_normed="13.513679" PMx_normed="2.497804" NOx_normed="55.154678" fuel_normed="55.940316" electricity_normed="0"
            traveltime="0.03" CO_perVeh="2.406081" CO2_perVeh="136.650286" HC_perVeh="0.014190" PMx_perVeh="0.002623" NOx_perVeh="0.057915" fuel_perVeh="0.058740" electricity_perVeh="0"/>
        <edge id=":1105984386_0" sampledSeconds="10.58" CO_abs="211.697088" CO2_abs="15910.826124" HC_abs="1.328381" PMx_abs="0.225909" NOx_abs="6.155742" fuel_abs="6.839439" electricity_abs="0"
            CO_normed="9.363765" CO2_normed="703.766101" HC_normed="0.058757" PMx_normed="0.009992" NOx_normed="0.272280" fuel_normed="0.302521" electricity_normed="0"
            traveltime="1.02" CO_perVeh="20.308029" CO2_perVeh="1526.320111" HC_perVeh="0.127431" PMx_perVeh="0.021671" NOx_perVeh="0.590518" fuel_perVeh="0.656105" electricity_perVeh="0"/>
        <edge id=":1105984390_0" sampledSeconds="10.64" CO_abs="14.437772" CO2_abs="993.820975" HC_abs="0.088795" PMx_abs="0.015933" NOx_abs="0.397836" fuel_abs="0.427203" electricity_abs="0"
            CO_normed="0.493703" CO2_normed="33.983911" HC_normed="0.003036" PMx_normed="0.000545" NOx_normed="0.013604" fuel_normed="0.014608" electricity_normed="0"
            traveltime="1.10" CO_perVeh="1.496562" CO2_perVeh="103.015527" HC_perVeh="0.009204" PMx_perVeh="0.001652" NOx_perVeh="0.041238" fuel_perVeh="0.044282" electricity_perVeh="0"/>
        <edge id=":1105984390_1" sampledSeconds="2395.98" CO_abs="60273.432691" CO2_abs="7374144.899275" HC_abs="450.292267" PMx_abs="131.906173" NOx_abs="2792.733082" fuel_abs="3169.805196" electricity_abs="0"
            CO_normed="1971.587447" CO2_normed="241213.597169" HC_normed="14.729385" PMx_normed="4.314746" NOx_normed="91.352313" fuel_normed="103.686614" electricity_normed="0"
            traveltime="0.65" CO_perVeh="16.288125" CO2_perVeh="1992.768408" HC_perVeh="0.121686" PMx_perVeh="0.035646" NOx_perVeh="0.754700" fuel_perVeh="0.856599" electricity_perVeh="0"/>
        <edge id=":1105984395_0" sampledSeconds="4.21" CO_abs="90.210635" CO2_abs="6754.083050" HC_abs="0.562437" PMx_abs="0.080274" NOx_abs="2.512563" fuel_abs="2.903339" electricity_abs="0"
            CO_normed="42.113832" CO2_normed="3153.068555" HC_normed="0.262567" PMx_normed="0.037475" NOx_normed="1.172962" fuel_normed="1.355392" electricity_normed="0"
            traveltime="0.10" CO_perVeh="2.091050" CO2_perVeh="156.557229" HC_perVeh="0.013037" PMx_perVeh="0.001861" NOx_perVeh="0.058240" fuel_perVeh="0.067298" electricity_perVeh="0"/>
        <edge id=":1105984398_0" sampledSeconds="9.88" CO_abs="789.132567" CO2_abs="50136.091324" HC_abs="4.789043" PMx_abs="0.986121" NOx_abs="21.285764" fuel_abs="21.551209" electricity_abs="0"
            CO_normed="28.033577" CO2_normed="1781.061911" HC_normed="0.170129" PMx_normed="0.035032" NOx_normed="0.756167" fuel_normed="0.765597" electricity_normed="0"
            traveltime="1.13" CO_perVeh="90.168700" CO2_perVeh="5728.703106" HC_perVeh="0.547211" PMx_perVeh="0.112677" NOx_perVeh="2.432177" fuel_perVeh="2.462507" electricity_perVeh="0"/>
        <edge id=":1105984398_1" sampledSeconds="647.06" CO_abs="11620.291682" CO2_abs="1374964.910676" HC_abs="84.599408" PMx_abs="19.767078" NOx_abs="520.032372" fuel_abs="591.038658" electricity_abs="0"
            CO_normed="399.585238" CO2_normed="47280.713413" HC_normed="2.909107" PMx_normed="0.679728" NOx_normed="17.882276" fuel_normed="20.323958" electricity_normed="0"
            traveltime="0.95" CO_perVeh="17.100959" CO2_perVeh="2023.462029" HC_perVeh="0.124500" PMx_perVeh="0.029090" NOx_perVeh="0.765304" fuel_perVeh="0.869800" electricity_perVeh="0"/>
        <edge id=":1106006327_0" sampledSeconds="262.18" CO_abs="35277.334020" CO2_abs="1139643.398295" HC_abs="187.455881" PMx_abs="23.788384" NOx_abs="498.935445" fuel_abs="489.892578" electricity_abs="0"
            CO_normed="1710.081779" CO2_normed="55244.634098" HC_normed="9.086993" PMx_normed="1.153151" NOx_normed="24.186080" fuel_normed="23.747723" electricity_normed="0"
            traveltime="2.11" CO_perVeh="283.521720" CO2_perVeh="9159.242486" HC_perVeh="1.506571" PMx_perVeh="0.191186" NOx_perVeh="4.009913" fuel_perVeh="3.937236" electricity_perVeh="0"/>
        <edge id=":1106006327_1" sampledSeconds="687.86" CO_abs="92725.007539" CO2_abs="3078781.740934" HC_abs="494.738679" PMx_abs="64.146233" NOx_abs="1346.929859" fuel_abs="1323.457884" electricity_abs="0"
            CO_normed="3919.746795" CO2_normed="130148.761164" HC_normed="20.913995" PMx_normed="2.711642" NOx_normed="56.938512" fuel_normed="55.946286" electricity_normed="0"
            traveltime="2.31" CO_perVeh="311.255407" CO2_perVeh="10334.725095" HC_perVeh="1.660718" PMx_perVeh="0.215323" NOx_perVeh="4.521318" fuel_perVeh="4.442528" electricity_perVeh="0"/>
        <edge id=":1106006327_2" sampledSeconds="0.00" CO_abs="0" CO2_abs="0" HC_abs="0" PMx_abs="0" NOx_abs="0" fuel_abs="0" electricity_abs="0"
            CO_normed="0" CO2_normed="0" HC_normed="0" PMx_normed="0" NOx_normed="0" fuel_normed="0" electricity_normed="0"/>
        <edge id=":1106006327_3" sampledSeconds="0.00" CO_abs="0" CO2_abs="0" HC_abs="0" PMx_abs="0" NOx_abs="0" fuel_abs="0" electricity_abs="0"
            CO_normed="0" CO2_normed="0" HC_normed="0" PMx_normed="0" NOx_normed="0" fuel_normed="0" electricity_normed="0"/>
        <edge id=":1107381198_0" sampledSeconds="0.00" CO_abs="0" CO2_abs="0" HC_abs="0" PMx_abs="0" NOx_abs="0" fuel_abs="0" electricity_abs="0"
            CO_normed="0" CO2_normed="0" HC_normed="0" PMx_normed="0" NOx_normed="0" fuel_normed="0" electricity_normed="0"/>
        <edge id=":1107381198_1" sampledSeconds="104.70" CO_abs="4484.455340" CO2_abs="174250.371365" HC_abs="24.444617" PMx_abs="3.098055" NOx_abs="72.801793" fuel_abs="74.904146" electricity_abs="0"
            CO_normed="210.036712" CO2_normed="8161.297719" HC_normed="1.144903" PMx_normed="0.145102" NOx_normed="3.409790" fuel_normed="3.508257" electricity_normed="0"
            traveltime="1.57" CO_perVeh="67.140895" CO2_perVeh="2608.862176" HC_perVeh="0.365983" PMx_perVeh="0.046384" NOx_perVeh="1.089982" fuel_perVeh="1.121459" electricity_perVeh="0"/>
        <edge id=":1110338277_0" sampledSeconds="161.18" CO_abs="2453.452490" CO2_abs="300564.947299" HC_abs="18.056668" PMx_abs="4.113995" NOx_abs="112.386818" fuel_abs="129.200263" electricity_abs="0"
            CO_normed="3763.348742" CO2_normed="461036.323702" HC_normed="27.697109" PMx_normed="6.310453" NOx_normed="172.390047" fuel_normed="198.180177" electricity_normed="0"
            traveltime="0.02" CO_perVeh="0.332297" CO2_perVeh="40.708636" HC_perVeh="0.002446" PMx_perVeh="0.000557" NOx_perVeh="0.015222" fuel_perVeh="0.017499" electricity_perVeh="0"/>
        <edge id=":1110338293_0" sampledSeconds="6398.65" CO_abs="587341.262411" CO2_abs="10343416.591101" HC_abs="2916.361243" PMx_abs="246.301298" NOx_abs="4672.591499" fuel_abs="4446.458274" electricity_abs="0"
            CO_normed="840860.790853" CO2_normed="14808040.932142" HC_normed="4175.177156" PMx_normed="352.614600" NOx_normed="6689.465282" fuel_normed="6365.724087" electricity_normed="0"
            traveltime="0.43" CO_perVeh="39.248099" CO2_perVeh="691.181543" HC_perVeh="0.194881" PMx_perVeh="0.016459" NOx_perVeh="0.312238" fuel_perVeh="0.297127" electricity_perVeh="0"/>
        <edge id=":1110338295_0" sampledSeconds="0.00" CO_abs="0" CO2_abs="0" HC_abs="0" PMx_abs="0" NOx_abs="0" fuel_abs="0" electricity_abs="0"
            CO_normed="0" CO2_normed="0" HC_normed="0" PMx_normed="0" NOx_normed="0" fuel_normed="0" electricity_normed="0"/>
        <edge id=":1110673403_0" sampledSeconds="200.22" CO_abs="3051.342702" CO2_abs="380891.331667" HC_abs="22.596435" PMx_abs="5.160403" NOx_abs="141.936535" fuel_abs="163.729250" electricity_abs="0"
            CO_normed="4368.421907" CO2_normed="545298.971606" HC_normed="32.349943" PMx_normed="7.387835" NOx_normed="203.201912" fuel_normed="234.401217" electricity_normed="0"
            traveltime="0.02" CO_perVeh="0.352661" CO2_perVeh="44.021805" HC_perVeh="0.002612" PMx_perVeh="0.000596" NOx_perVeh="0.016404" fuel_perVeh="0.018923" electricity_perVeh="0"/>
        <edge id=":1110673412_0" sampledSeconds="939.15" CO_abs="167603.289327" CO2_abs="11430247.718836" HC_abs="1042.940125" PMx_abs="251.311173" NOx_abs="4912.673019" fuel_abs="4913.300432" electricity_abs="0"
            CO_normed="248221.493338" CO2_normed="16928266.559626" HC_normed="1544.600684" PMx_normed="372.193379" NOx_normed="7275.698693" fuel_normed="7276.627895" electricity_normed="0"
            traveltime="0.02" CO_perVeh="2.768148" CO2_perVeh="188.782776" HC_perVeh="0.017225" PMx_perVeh="0.004151" NOx_perVeh="0.081138" fuel_perVeh="0.081148" electricity_perVeh="0"/>
        <edge id=":1110673414_0" sampledSeconds="0.00" CO_abs="0" CO2_abs="0" HC_abs="0" PMx_abs="0" NOx_abs="0" fuel_abs="0" electricity_abs="0"
            CO_normed="0" CO2_normed="0" HC_normed="0" PMx_normed="0" NOx_normed="0" fuel_normed="0" electricity_normed="0"/>
        <edge id=":1110673414_1" sampledSeconds="239.40" CO_abs="17084.032638" CO2_abs="659790.882458" HC_abs="93.111277" PMx_abs="12.156797" NOx_abs="278.351802" fuel_abs="283.620491" electricity_abs="0"
            CO_normed="812.563830" CO2_normed="31381.478701" HC_normed="4.428630" PMx_normed="0.578211" NOx_normed="13.239181" fuel_normed="13.489775" electricity_normed="0"
            traveltime="1.55" CO_perVeh="110.842816" CO2_perVeh="4280.785518" HC_perVeh="0.604115" PMx_perVeh="0.078874" NOx_perVeh="1.805973" fuel_perVeh="1.840157" electricity_perVeh="0"/>
        <edge id=":1110673417_0" sampledSeconds="28.91" CO_abs="444.580302" CO2_abs="47069.888527" HC_abs="3.113588" PMx_abs="0.690131" NOx_abs="17.998365" fuel_abs="20.233343" electricity_abs="0"
            CO_normed="681.941357" CO2_normed="72200.463024" HC_normed="4.775931" PMx_normed="1.058592" NOx_normed="27.607677" fuel_normed="31.035908" electricity_normed="0"
            traveltime="0.02" CO_perVeh="0.339014" CO2_perVeh="35.893049" HC_perVeh="0.002374" PMx_perVeh="0.000526" NOx_perVeh="0.013725" fuel_perVeh="0.015429" electricity_perVeh="0"/>
        <edge id=":1110673446_0" sampledSeconds="1311.95" CO_abs="14296.119501" CO2_abs="1167583.593317" HC_abs="92.704910" PMx_abs="21.245825" NOx_abs="476.352625" fuel_abs="501.890661" electricity_abs="0"
            CO_normed="20466.885470" CO2_normed="1671558.472894" HC_normed="132.719985" PMx_normed="30.416356" NOx_normed="681.965104" fuel_normed="718.526357" electricity_normed="0"
            traveltime="0.02" CO_perVeh="0.248277" CO2_perVeh="20.277147" HC_perVeh="0.001610" PMx_perVeh="0.000369" NOx_perVeh="0.008273" fuel_perVeh="0.008716" electricity_perVeh="0"/>
        <edge id=":1110673451_0" sampledSeconds="36.40" CO_abs="335.287855" CO2_abs="23769.494052" HC_abs="2.062853" PMx_abs="0.298686" NOx_abs="8.960141" fuel_abs="10.217645" electricity_abs="0"
            CO_normed="533.345829" CO2_normed="37810.377876" HC_normed="3.281402" PMx_normed="0.475123" NOx_normed="14.252989" fuel_normed="16.253313" electricity_normed="0"
            traveltime="0.03" CO_perVeh="0.247033" CO2_perVeh="17.512862" HC_perVeh="0.001520" PMx_perVeh="0.000220" NOx_perVeh="0.006602" fuel_perVeh="0.007528" electricity_perVeh="0"/>
        <edge id=":1110673464_0" sampledSeconds="1029.73" CO_abs="3552.695408" CO2_abs="254221.980961" HC_abs="22.020077" PMx_abs="3.750122" NOx_abs="99.375123" fuel_abs="109.279959" electricity_abs="0"
            CO_normed="108.063274" CO2_normed="7732.737117" HC_normed="0.669790" PMx_normed="0.114068" NOx_normed="3.022719" fuel_normed="3.323997" electricity_normed="0"
            traveltime="1.22" CO_perVeh="4.213006" CO2_perVeh="301.472124" HC_perVeh="0.026113" PMx_perVeh="0.004447" NOx_perVeh="0.117845" fuel_perVeh="0.129591" electricity_perVeh="0"/>
        <edge id=":1110673464_1" sampledSeconds="2601.79" CO_abs="61483.768262" CO2_abs="7540283.388725" HC_abs="459.286360" PMx_abs="134.440789" NOx_abs="2856.056249" fuel_abs="3241.220618" electricity_abs="0"
            CO_normed="1832.531044" CO2_normed="224739.045413" HC_normed="13.689085" PMx_normed="4.007024" NOx_normed="85.125097" fuel_normed="96.604967" electricity_normed="0"
            traveltime="0.72" CO_perVeh="16.951311" CO2_perVeh="2078.885140" HC_perVeh="0.126627" PMx_perVeh="0.037066" NOx_perVeh="0.787426" fuel_perVeh="0.893617" electricity_perVeh="0"/>
        <edge id=":1110673479_0" sampledSeconds="134.80" CO_abs="6117.031636" CO2_abs="422222.940442" HC_abs="37.799908" PMx_abs="7.526980" NOx_abs="173.571759" fuel_abs="181.495104" electricity_abs="0"
            CO_normed="8757.382442" CO2_normed="604470.924040" HC_normed="54.115831" PMx_normed="10.775921" NOx_normed="248.492138" fuel_normed="259.835510" electricity_normed="0"
            traveltime="0.03" CO_perVeh="1.293196" CO2_perVeh="89.261747" HC_perVeh="0.007991" PMx_perVeh="0.001591" NOx_perVeh="0.036695" fuel_perVeh="0.038370" electricity_perVeh="0"/>
        <edge id=":1110673511_0" sampledSeconds="63.90" CO_abs="1062.428287" CO2_abs="116933.673030" HC_abs="7.541339" PMx_abs="1.657622" NOx_abs="44.304187" fuel_abs="50.264868" electricity_abs="0"
            CO_normed="1521.014012" CO2_normed="167406.833257" HC_normed="10.796477" PMx_normed="2.373116" NOx_normed="63.427612" fuel_normed="71.961157" electricity_normed="0"
            traveltime="0.02" CO_perVeh="0.407191" CO2_perVeh="44.816483" HC_perVeh="0.002890" PMx_perVeh="0.000635" NOx_perVeh="0.016980" fuel_perVeh="0.019265" electricity_perVeh="0"/>
        <edge id=":1110673517_0" sampledSeconds="182.09" CO_abs="8340.517053" CO2_abs="586788.290731" HC_abs="51.765031" PMx_abs="10.229965" NOx_abs="239.498237" fuel_abs="252.234762" electricity_abs="0"
            CO_normed="11940.611385" CO2_normed="840069.134904" HC_normed="74.108849" PMx_normed="14.645619" NOx_normed="342.875071" fuel_normed="361.109179" electricity_normed="0"
            traveltime="0.03" CO_perVeh="1.277015" CO2_perVeh="89.843041" HC_perVeh="0.007926" PMx_perVeh="0.001566" NOx_perVeh="0.036670" fuel_perVeh="0.038620" electricity_perVeh="0"/>
        <edge id=":1110673534_0" sampledSeconds="658.97" CO_abs="4567.202323" CO2_abs="369636.589038" HC_abs="29.197484" PMx_abs="5.084966" NOx_abs="141.357405" fuel_abs="158.892246" electricity_abs="0"
            CO_normed="126.716783" CO2_normed="10255.547298" HC_normed="0.810083" PMx_normed="0.141082" NOx_normed="3.921954" fuel_normed="4.408457" electricity_normed="0"
            traveltime="1.45" CO_perVeh="10.042598" CO2_perVeh="812.775836" HC_perVeh="0.064201" PMx_perVeh="0.011181" NOx_perVeh="0.310824" fuel_perVeh="0.349380" electricity_perVeh="0"/>
        <edge id=":1110673534_1" sampledSeconds="264.43" CO_abs="4030.763168" CO2_abs="496558.481358" HC_abs="29.573514" PMx_abs="6.817741" NOx_abs="185.567850" fuel_abs="213.449605" electricity_abs="0"
            CO_normed="108.742437" CO2_normed="13396.217344" HC_normed="0.797838" PMx_normed="0.183930" NOx_normed="5.006273" fuel_normed="5.758470" electricity_normed="0"
            traveltime="1.23" CO_perVeh="18.701730" CO2_perVeh="2303.906780" HC_perVeh="0.137214" PMx_perVeh="0.031633" NOx_perVeh="0.860988" fuel_perVeh="0.990353" electricity_perVeh="0"/>
        <edge id=":1110673549_0" sampledSeconds="648.50" CO_abs="1733.048564" CO2_abs="147446.061637" HC_abs="11.292963" PMx_abs="2.244739" NOx_abs="57.271651" fuel_abs="63.380915" electricity_abs="0"
            CO_normed="46.578854" CO2_normed="3962.882960" HC_normed="0.303519" PMx_normed="0.060331" NOx_normed="1.539281" fuel_normed="1.703478" electricity_normed="0"
            traveltime="1.29" CO_perVeh="3.443154" CO2_perVeh="292.940167" HC_perVeh="0.022436" PMx_perVeh="0.004460" NOx_perVeh="0.113785" fuel_perVeh="0.125923" electricity_perVeh="0"/>
        <edge id=":1110673549_1" sampledSeconds="3195.96" CO_abs="70094.752895" CO2_abs="9242799.051561" HC_abs="539.332264" PMx_abs="162.231555" NOx_abs="3452.885997" fuel_abs="3973.056431" electricity_abs="0"
            CO_normed="1822.343787" CO2_normed="240296.979819" HC_normed="14.021717" PMx_normed="4.217743" NOx_normed="89.769135" fuel_normed="103.292677" electricity_normed="0"
            traveltime="0.81" CO_perVeh="17.681542" CO2_perVeh="2331.514564" HC_perVeh="0.136048" PMx_perVeh="0.040923" NOx_perVeh="0.870997" fuel_perVeh="1.002211" electricity_perVeh="0"/>
        <edge id=":1110673556_0" sampledSeconds="458.49" CO_abs="56677.759810" CO2_abs="2759741.300754" HC_abs="323.637358" PMx_abs="55.725197" NOx_abs="1189.467828" fuel_abs="1186.294593" electricity_abs="0"
            CO_normed="1129.588458" CO2_normed="55001.678454" HC_normed="6.450097" PMx_normed="1.110604" NOx_normed="23.706109" fuel_normed="23.642866" electricity_normed="0"
            traveltime="2.70" CO_perVeh="334.109944" CO2_perVeh="16268.409615" HC_perVeh="1.907811" PMx_perVeh="0.328495" NOx_perVeh="7.011798" fuel_perVeh="6.993093" electricity_perVeh="0"/>
        <edge id=":1110673556_2" sampledSeconds="177.39" CO_abs="17770.460457" CO2_abs="752174.805898" HC_abs="98.584587" PMx_abs="14.587201" NOx_abs="321.370485" fuel_abs="323.330531" electricity_abs="0"
            CO_normed="370.318607" CO2_normed="15674.569980" HC_normed="2.054404" PMx_normed="0.303983" NOx_normed="6.697039" fuel_normed="6.737885" electricity_normed="0"
            traveltime="3.07" CO_perVeh="307.276654" CO2_perVeh="13006.177218" HC_perVeh="1.704668" PMx_perVeh="0.252234" NOx_perVeh="5.556955" fuel_perVeh="5.590847" electricity_perVeh="0"/>
        <edge id=":1110673556_3" sampledSeconds="350.04" CO_abs="35663.981134" CO2_abs="1237381.981865" HC_abs="191.330083" PMx_abs="24.464911" NOx_abs="533.194351" fuel_abs="531.906751" electricity_abs="0"
            CO_normed="1690.660741" CO2_normed="58658.429931" HC_normed="9.070055" PMx_normed="1.159766" NOx_normed="25.276223" fuel_normed="25.215184" electricity_normed="0"
            traveltime="1.84" CO_perVeh="187.177795" CO2_perVeh="6494.239395" HC_perVeh="1.004171" PMx_perVeh="0.128401" NOx_perVeh="2.798402" fuel_perVeh="2.791644" electricity_perVeh="0"/>
        <edge id=":1110673556_4" sampledSeconds="85.08" CO_abs="10473.648335" CO2_abs="395227.171206" HC_abs="56.994827" PMx_abs="7.969771" NOx_abs="171.095406" fuel_abs="169.893182" electricity_abs="0"
            CO_normed="303.327427" CO2_normed="11446.177785" HC_normed="1.650628" PMx_normed="0.230813" NOx_normed="4.955096" fuel_normed="4.920278" electricity_normed="0"
            traveltime="2.68" CO_perVeh="330.533293" CO2_perVeh="12472.801645" HC_perVeh="1.798675" PMx_perVeh="0.251515" NOx_perVeh="5.399525" fuel_perVeh="5.361585" electricity_perVeh="0"/>
        <edge id=":1110673556_5" sampledSeconds="22.48" CO_abs="1254.263777" CO2_abs="55674.815898" HC_abs="6.990323" PMx_abs="0.921210" NOx_abs="22.757937" fuel_abs="23.932616" electricity_abs="0"
            CO_normed="50.629320" CO2_normed="2247.356684" HC_normed="0.282170" PMx_normed="0.037185" NOx_normed="0.918642" fuel_normed="0.966058" electricity_normed="0"
            traveltime="1.55" CO_perVeh="86.714533" CO2_perVeh="3849.123074" HC_perVeh="0.483282" PMx_perVeh="0.063689" NOx_perVeh="1.573388" fuel_perVeh="1.654601" electricity_perVeh="0"/>
        <edge id=":1110673556_6" sampledSeconds="213.17" CO_abs="25685.319235" CO2_abs="1299111.006094" HC_abs="147.843904" PMx_abs="26.143633" NOx_abs="558.777087" fuel_abs="558.431529" electricity_abs="0"
            CO_normed="524.816041" CO2_normed="26544.123831" HC_normed="3.020825" PMx_normed="0.534181" NOx_normed="11.417229" fuel_normed="11.410169" electricity_normed="0"
            traveltime="2.48" CO_perVeh="299.298969" CO2_perVeh="15137.930788" HC_perVeh="1.722756" PMx_perVeh="0.304639" NOx_perVeh="6.511167" fuel_perVeh="6.507140" electricity_perVeh="0"/>
        <edge id=":1110673561_0" sampledSeconds="105.14" CO_abs="10215.318425" CO2_abs="717122.935874" HC_abs="63.756158" PMx_abs="14.550855" NOx_abs="304.049297" fuel_abs="308.257035" electricity_abs="0"
            CO_normed="262.247171" CO2_normed="18409.946064" HC_normed="1.636745" PMx_normed="0.373549" NOx_normed="7.805539" fuel_normed="7.913560" electricity_normed="0"
            traveltime="1.24" CO_perVeh="120.550672" CO2_perVeh="8462.746683" HC_perVeh="0.752385" PMx_perVeh="0.171714" NOx_perVeh="3.588077" fuel_perVeh="3.637732" electricity_perVeh="0"/>
        <edge id=":1110673561_1" sampledSeconds="5186.72" CO_abs="485455.520191" CO2_abs="33664031.592618" HC_abs="3024.791337" PMx_abs="703.135342" NOx_abs="14388.547640" fuel_abs="14470.541794" electricity_abs="0"
            CO_normed="12150.300098" CO2_normed="842565.527344" HC_normed="75.706467" PMx_normed="17.598534" NOx_normed="360.126035" fuel_normed="362.178239" electricity_normed="0"
            traveltime="1.19" CO_perVeh="111.527453" CO2_perVeh="7733.898474" HC_perVeh="0.694909" PMx_perVeh="0.161537" NOx_perVeh="3.305592" fuel_perVeh="3.324430" electricity_perVeh="0"/>
        <edge id=":1110673562_0" sampledSeconds="301.54" CO_abs="5993.283645" CO2_abs="465368.127262" HC_abs="37.885643" PMx_abs="6.222235" NOx_abs="177.239102" fuel_abs="200.043923" electricity_abs="0"
            CO_normed="9533.577739" CO2_normed="740265.851049" HC_normed="60.265081" PMx_normed="9.897773" NOx_normed="281.936056" fuel_normed="318.211919" electricity_normed="0"
            traveltime="0.03" CO_perVeh="0.537247" CO2_perVeh="41.716293" HC_perVeh="0.003396" PMx_perVeh="0.000558" NOx_perVeh="0.015888" fuel_perVeh="0.017932" electricity_perVeh="0"/>
        <edge id=":1110673564_0" sampledSeconds="27.47" CO_abs="558.837997" CO2_abs="63012.108652" HC_abs="4.005555" PMx_abs="0.924325" NOx_abs="23.994459" fuel_abs="27.086204" electricity_abs="0"
            CO_normed="2400.163195" CO2_normed="270631.819551" HC_normed="17.203530" PMx_normed="3.969899" NOx_normed="103.054227" fuel_normed="116.333016" electricity_normed="0"
            traveltime="7.757992e-03" CO_perVeh="0.157842" CO2_perVeh="17.797517" HC_perVeh="0.001131" PMx_perVeh="0.000261" NOx_perVeh="0.006777" fuel_perVeh="0.007650" electricity_perVeh="0"/>
        <edge id=":1110673588_0" sampledSeconds="62.72" CO_abs="1047.436421" CO2_abs="118327.969961" HC_abs="7.480192" PMx_abs="1.619467" NOx_abs="44.451882" fuel_abs="50.864280" electricity_abs="0"
            CO_normed="1799.461281" CO2_normed="203283.556126" HC_normed="12.850723" PMx_normed="2.782191" NOx_normed="76.366869" fuel_normed="87.383159" electricity_normed="0"
            traveltime="0.02" CO_perVeh="0.337883" CO2_perVeh="38.170313" HC_perVeh="0.002413" PMx_perVeh="0.000522" NOx_perVeh="0.014339" fuel_perVeh="0.016408" electricity_perVeh="0"/>
        <edge id=":1110673601_0" sampledSeconds="28.77" CO_abs="496.307690" CO2_abs="60645.738805" HC_abs="3.634566" PMx_abs="0.814686" NOx_abs="22.564343" fuel_abs="26.069083" electricity_abs="0"
            CO_normed="761.285954" CO2_normed="93024.448520" HC_normed="5.575058" PMx_normed="1.249646" NOx_normed="34.611427" fuel_normed="39.987345" electricity_normed="0"
            traveltime="0.02" CO_perVeh="0.378458" CO2_perVeh="46.245287" HC_perVeh="0.002772" PMx_perVeh="0.000621" NOx_perVeh="0.017206" fuel_perVeh="0.019879" electricity_perVeh="0"/>
        <edge id=":1110673617_0" sampledSeconds="851.20" CO_abs="30798.178574" CO2_abs="3136900.805700" HC_abs="215.313766" PMx_abs="59.051874" NOx_abs="1228.624933" fuel_abs="1348.406857" electricity_abs="0"
            CO_normed="44091.880564" CO2_normed="4490910.244380" HC_normed="308.251633" PMx_normed="84.540979" NOx_normed="1758.947649" fuel_normed="1930.432151" electricity_normed="0"
            traveltime="0.02" CO_perVeh="0.546415" CO2_perVeh="55.654296" HC_perVeh="0.003820" PMx_perVeh="0.001048" NOx_perVeh="0.021798" fuel_perVeh="0.023923" electricity_perVeh="0"/>
        <edge id=":1110673621_0" sampledSeconds="26.81" CO_abs="490.019971" CO2_abs="52715.101040" HC_abs="3.426078" PMx_abs="0.748918" NOx_abs="19.980920" fuel_abs="22.660008" electricity_abs="0"
            CO_normed="841.838174" CO2_normed="90562.807800" HC_normed="5.885890" PMx_normed="1.286616" NOx_normed="34.326563" fuel_normed="38.929147" electricity_normed="0"
            traveltime="0.02" CO_perVeh="0.371227" CO2_perVeh="39.935683" HC_perVeh="0.002596" PMx_perVeh="0.000567" NOx_perVeh="0.015137" fuel_perVeh="0.017167" electricity_perVeh="0"/>
        <edge id=":1110673630_0" sampledSeconds="285.46" CO_abs="1498.559785" CO2_abs="140015.150836" HC_abs="10.004489" PMx_abs="1.865806" NOx_abs="52.830208" fuel_abs="60.186939" electricity_abs="0"
            CO_normed="45.907211" CO2_normed="4289.254971" HC_normed="0.306480" PMx_normed="0.057158" NOx_normed="1.618412" fuel_normed="1.843780" electricity_normed="0"
            traveltime="1.28" CO_perVeh="6.742947" CO2_perVeh="630.014704" HC_perVeh="0.045016" PMx_perVeh="0.008395" NOx_perVeh="0.237716" fuel_perVeh="0.270818" electricity_perVeh="0"/>
        <edge id=":1110673630_1" sampledSeconds="339.10" CO_abs="1421.466108" CO2_abs="115354.267022" HC_abs="9.099265" PMx_abs="1.527366" NOx_abs="43.755328" fuel_abs="49.586355" electricity_abs="0"
            CO_normed="53.087651" CO2_normed="4308.148530" HC_normed="0.339831" PMx_normed="0.057043" NOx_normed="1.634135" fuel_normed="1.851907" electricity_normed="0"
            traveltime="1.08" CO_perVeh="4.531354" CO2_perVeh="367.726700" HC_perVeh="0.029007" PMx_perVeh="0.004869" NOx_perVeh="0.139483" fuel_perVeh="0.158072" electricity_perVeh="0"/>
        <edge id=":1110673650_0" sampledSeconds="200.38" CO_abs="2756.015718" CO2_abs="347291.608355" HC_abs="20.443081" PMx_abs="4.730208" NOx_abs="129.453995" fuel_abs="149.286078" electricity_abs="0"
            CO_normed="3945.620211" CO2_normed="497196.289700" HC_normed="29.267116" PMx_normed="6.771951" NOx_normed="185.331417" fuel_normed="213.723805" electricity_normed="0"
            traveltime="0.02" CO_perVeh="0.318530" CO2_perVeh="40.138660" HC_perVeh="0.002363" PMx_perVeh="0.000547" NOx_perVeh="0.014962" fuel_perVeh="0.017254" electricity_perVeh="0"/>
        <edge id=":1110673655_0" sampledSeconds="20.64" CO_abs="410.247396" CO2_abs="46607.231005" HC_abs="2.934702" PMx_abs="0.649000" NOx_abs="17.556479" fuel_abs="20.034496" electricity_abs="0"
            CO_normed="587.326265" CO2_normed="66724.740165" HC_normed="4.201434" PMx_normed="0.929134" NOx_normed="25.134544" fuel_normed="28.682170" electricity_normed="0"
            traveltime="0.02" CO_perVeh="0.468688" CO2_perVeh="53.246484" HC_perVeh="0.003353" PMx_perVeh="0.000741" NOx_perVeh="0.020057" fuel_perVeh="0.022888" electricity_perVeh="0"/>
        <edge id=":1110673663_0" sampledSeconds="111.83" CO_abs="2207.046856" CO2_abs="233289.930899" HC_abs="15.416475" PMx_abs="3.356000" NOx_abs="88.805846" fuel_abs="100.281513" electricity_abs="0"
            CO_normed="57.869869" CO2_normed="6116.978321" HC_normed="0.404228" PMx_normed="0.087996" NOx_normed="2.328534" fuel_normed="2.629431" electricity_normed="0"
            traveltime="1.31" CO_perVeh="25.922807" CO2_perVeh="2740.100294" HC_perVeh="0.181074" PMx_perVeh="0.039418" NOx_perVeh="1.043067" fuel_perVeh="1.177854" electricity_perVeh="0"/>
        <edge id=":1110673663_1" sampledSeconds="169.28" CO_abs="2710.990270" CO2_abs="341957.263266" HC_abs="20.114018" PMx_abs="4.610324" NOx_abs="127.191109" fuel_abs="146.993135" electricity_abs="0"
            CO_normed="71.170416" CO2_normed="8977.251198" HC_normed="0.528044" PMx_normed="0.121033" NOx_normed="3.339091" fuel_normed="3.858945" electricity_normed="0"
            traveltime="1.27" CO_perVeh="20.329810" CO2_perVeh="2564.349382" HC_perVeh="0.150836" PMx_perVeh="0.034573" NOx_perVeh="0.953811" fuel_perVeh="1.102307" electricity_perVeh="0"/>