<?xml version="1.0" encoding="UTF-8"?>

<!-- generated on qui 03 set 2020 03:08:37 by Eclipse SUMO GUI Version 1.6.0
<configuration xmlns:xsi="http://www.w3.org/2001/XMLSchema-instance" xsi:noNamespaceSchemaLocation="http://sumo.dlr.de/xsd/sumoConfiguration.xsd">

    <input>
        <net-file value="../dataSets/Angeja_Estarreja/angeja_estarreja.net.xml"/>
        <route-files value="../results/angeja_estarreja/inputdata/angeja_estarreja-base.rou.xml"/>
        <additional-files value="moreOutputInfo.xml"/>
    </input>

    <output>
        <emission-output.precision value="6"/>
        <tripinfo-output value="../results/angeja_estarreja/inputdata/angeja_estarreja-tripinfo"/>
    </output>

    <processing>
        <collision.action value="warn"/>
        <time-to-teleport value="-1"/>
    </processing>

    <emissions>
        <device.emissions.probability value="1"/>
    </emissions>

    <gui_only>
        <gui-settings-file value="gui-settings.xml"/>
        <quit-on-end value="true"/>
        <start value="true"/>
        <window-size value="924,923"/>
        <window-pos value="72,27"/>
    </gui_only>

</configuration>
-->

<tripinfos xmlns:xsi="http://www.w3.org/2001/XMLSchema-instance" xsi:noNamespaceSchemaLocation="http://sumo.dlr.de/xsd/tripinfo_file.xsd">
    <tripinfo id="sveh21" depart="88.00" departLane="1_0" departPos="4.85" departSpeed="14.03" departDelay="0.00" arrival="141.00" arrivalLane="77477309_0" arrivalPos="222.43" arrivalSpeed="16.35" duration="53.00" routeLength="718.95" waitingTime="0.00" waitingCount="0" stopTime="0.00" timeLoss="3.15" rerouteNo="0" devices="tripinfo_sveh21 emissions_sveh21" vType="SCar" speedFactor="1.01" vaporized="">
        <emissions CO_abs="1111.363947" CO2_abs="121865.435267" HC_abs="7.834184" PMx_abs="1.861954" NOx_abs="46.773941" fuel_abs="52.384637" electricity_abs="0"/>
    </tripinfo>
    <tripinfo id="sveh23" depart="94.00" departLane="100_0" departPos="4.85" departSpeed="14.83" departDelay="0.00" arrival="145.00" arrivalLane="2_0" arrivalPos="142.18" arrivalSpeed="12.30" duration="51.00" routeLength="613.33" waitingTime="0.00" waitingCount="0" stopTime="0.00" timeLoss="3.55" rerouteNo="0" devices="tripinfo_sveh23 emissions_sveh23" vType="SCar" speedFactor="0.89" vaporized="">
        <emissions CO_abs="1106.536685" CO2_abs="102919.656223" HC_abs="7.431666" PMx_abs="1.563456" NOx_abs="39.945710" fuel_abs="44.240790" electricity_abs="0"/>
    </tripinfo>
    <tripinfo id="sveh6" depart="41.00" departLane="389783911.154_0" departPos="4.85" departSpeed="22.22" departDelay="0.00" arrival="215.00" arrivalLane="462392869_1" arrivalPos="125.48" arrivalSpeed="22.18" duration="174.00" routeLength="3746.53" waitingTime="0.00" waitingCount="0" stopTime="0.00" timeLoss="4.84" rerouteNo="0" devices="tripinfo_sveh6 emissions_sveh6" vType="SCar" speedFactor="1.05" vaporized="">
        <emissions CO_abs="4264.944013" CO2_abs="534868.000776" HC_abs="32.406679" PMx_abs="9.689871" NOx_abs="199.856941" fuel_abs="229.915229" electricity_abs="0"/>
    </tripinfo>
    <tripinfo id="sveh7" depart="42.00" departLane="389783911.154_0" departPos="4.85" departSpeed="20.72" departDelay="0.00" arrival="216.00" arrivalLane="462392869_2" arrivalPos="125.48" arrivalSpeed="22.11" duration="174.00" routeLength="3746.53" waitingTime="0.00" waitingCount="0" stopTime="0.00" timeLoss="5.03" rerouteNo="0" devices="tripinfo_sveh7 emissions_sveh7" vType="SCar" speedFactor="0.89" vaporized="">
        <emissions CO_abs="4728.803221" CO2_abs="542844.620829" HC_abs="34.755574" PMx_abs="10.093061" NOx_abs="205.940438" fuel_abs="233.343816" electricity_abs="0"/>
    </tripinfo>
    <tripinfo id="sveh11" depart="55.00" departLane="462392872_0" departPos="4.85" departSpeed="22.22" departDelay="0.00" arrival="220.00" arrivalLane="389783908_0" arrivalPos="273.35" arrivalSpeed="21.68" duration="165.00" routeLength="3556.47" waitingTime="0.00" waitingCount="0" stopTime="0.00" timeLoss="4.53" rerouteNo="0" devices="tripinfo_sveh11 emissions_sveh11" vType="SCar" speedFactor="1.03" vaporized="">
        <emissions CO_abs="3792.548055" CO2_abs="475147.653792" HC_abs="28.809019" PMx_abs="8.611539" NOx_abs="177.565901" fuel_abs="204.244189" electricity_abs="0"/>
    </tripinfo>
    <tripinfo id="sveh31" depart="147.00" departLane="1_0" departPos="4.85" departSpeed="16.28" departDelay="0.00" arrival="238.00" arrivalLane="245327988#1_0" arrivalPos="180.33" arrivalSpeed="21.29" duration="91.00" routeLength="1550.83" waitingTime="0.00" waitingCount="0" stopTime="0.00" timeLoss="11.68" rerouteNo="0" devices="tripinfo_sveh31 emissions_sveh31" vType="SCar" speedFactor="1.17" vaporized="">
        <emissions CO_abs="4848.442628" CO2_abs="384629.833497" HC_abs="31.340115" PMx_abs="7.624850" NOx_abs="157.659709" fuel_abs="165.334240" electricity_abs="0"/>
    </tripinfo>
    <tripinfo id="sveh26" depart="125.00" departLane="462392872_0" departPos="4.85" departSpeed="22.22" departDelay="0.00" arrival="290.00" arrivalLane="389783908_0" arrivalPos="273.35" arrivalSpeed="21.18" duration="165.00" routeLength="3556.47" waitingTime="0.00" waitingCount="0" stopTime="0.00" timeLoss="4.94" rerouteNo="0" devices="tripinfo_sveh26 emissions_sveh26" vType="SCar" speedFactor="0.92" vaporized="">
        <emissions CO_abs="3416.665020" CO2_abs="464401.867196" HC_abs="26.817957" PMx_abs="8.225425" NOx_abs="171.468063" fuel_abs="199.625199" electricity_abs="0"/>
    </tripinfo>
    <tripinfo id="sveh12" depart="58.00" departLane="462392872_0" departPos="4.85" departSpeed="22.22" departDelay="0.00" arrival="307.00" arrivalLane="319615436_0" arrivalPos="125.64" arrivalSpeed="22.12" duration="249.00" routeLength="4773.89" waitingTime="0.00" waitingCount="0" stopTime="0.00" timeLoss="9.90" rerouteNo="0" devices="tripinfo_sveh12 emissions_sveh12" vType="SCar" speedFactor="1.05" vaporized="">
        <emissions CO_abs="6180.729633" CO2_abs="754188.336624" HC_abs="46.006977" PMx_abs="13.175687" NOx_abs="284.847188" fuel_abs="324.191180" electricity_abs="0"/>
    </tripinfo>
    <tripinfo id="sveh34" depart="151.00" departLane="462392872_0" departPos="4.85" departSpeed="22.22" departDelay="0.00" arrival="317.00" arrivalLane="389783908_0" arrivalPos="273.35" arrivalSpeed="21.17" duration="166.00" routeLength="3556.47" waitingTime="0.00" waitingCount="0" stopTime="0.00" timeLoss="5.24" rerouteNo="0" devices="tripinfo_sveh34 emissions_sveh34" vType="SCar" speedFactor="0.99" vaporized="">
        <emissions CO_abs="3819.110274" CO2_abs="513161.045673" HC_abs="29.804105" PMx_abs="9.110237" NOx_abs="189.818894" fuel_abs="220.584526" electricity_abs="0"/>
    </tripinfo>
    <tripinfo id="sveh53" depart="264.00" departLane="24443879.82_0" departPos="4.85" departSpeed="16.72" departDelay="0.00" arrival="332.00" arrivalLane="319615436_0" arrivalPos="125.64" arrivalSpeed="21.85" duration="68.00" routeLength="1041.49" waitingTime="0.00" waitingCount="0" stopTime="0.00" timeLoss="4.50" rerouteNo="0" devices="tripinfo_sveh53 emissions_sveh53" vType="SCar" speedFactor="1.00" vaporized="">
        <emissions CO_abs="1991.531633" CO2_abs="204634.751701" HC_abs="13.906575" PMx_abs="3.543266" NOx_abs="80.412684" fuel_abs="87.963131" electricity_abs="0"/>
    </tripinfo>
    <tripinfo id="sveh18" depart="77.00" departLane="319615443_0" departPos="4.85" departSpeed="22.22" departDelay="0.00" arrival="359.00" arrivalLane="462392869_1" arrivalPos="125.48" arrivalSpeed="21.40" duration="282.00" routeLength="5127.13" waitingTime="1.00" waitingCount="1" stopTime="0.00" timeLoss="17.85" rerouteNo="0" devices="tripinfo_sveh18 emissions_sveh18" vType="SCar" speedFactor="0.94" vaporized="">
        <emissions CO_abs="7111.370599" CO2_abs="800767.036183" HC_abs="51.512111" PMx_abs="13.895791" NOx_abs="304.324363" fuel_abs="344.213638" electricity_abs="0"/>
    </tripinfo>
    <tripinfo id="sveh28" depart="136.00" departLane="319615443_0" departPos="4.85" departSpeed="22.22" departDelay="0.00" arrival="401.00" arrivalLane="462392869_2" arrivalPos="125.48" arrivalSpeed="21.14" duration="265.00" routeLength="5127.13" waitingTime="1.00" waitingCount="1" stopTime="0.00" timeLoss="17.45" rerouteNo="0" devices="tripinfo_sveh28 emissions_sveh28" vType="SCar" speedFactor="1.13" vaporized="">
        <emissions CO_abs="8096.396167" CO2_abs="827557.229386" HC_abs="56.878176" PMx_abs="15.418197" NOx_abs="321.444962" fuel_abs="355.728557" electricity_abs="0"/>
    </tripinfo>
    <tripinfo id="sveh48" depart="226.00" departLane="389783911.154_0" departPos="4.85" departSpeed="22.22" departDelay="0.00" arrival="401.00" arrivalLane="462392869_1" arrivalPos="125.48" arrivalSpeed="21.01" duration="175.00" routeLength="3746.53" waitingTime="0.00" waitingCount="0" stopTime="0.00" timeLoss="5.60" rerouteNo="0" devices="tripinfo_sveh48 emissions_sveh48" vType="SCar" speedFactor="0.88" vaporized="">
        <emissions CO_abs="3984.613152" CO2_abs="524835.445230" HC_abs="30.840603" PMx_abs="9.367555" NOx_abs="194.727578" fuel_abs="225.602780" electricity_abs="0"/>
    </tripinfo>
    <tripinfo id="sveh50" depart="239.00" departLane="27_0" departPos="4.85" departSpeed="16.62" departDelay="0.00" arrival="413.00" arrivalLane="389783908_0" arrivalPos="273.35" arrivalSpeed="21.37" duration="174.00" routeLength="3248.08" waitingTime="0.00" waitingCount="0" stopTime="0.00" timeLoss="7.65" rerouteNo="0" devices="tripinfo_sveh50 emissions_sveh50" vType="SCar" speedFactor="0.85" vaporized="">
        <emissions CO_abs="4720.716225" CO2_abs="503796.134322" HC_abs="33.639699" PMx_abs="9.008744" NOx_abs="192.894621" fuel_abs="216.559085" electricity_abs="0"/>
    </tripinfo>
    <tripinfo id="sveh71" depart="435.00" departLane="1_0" departPos="4.85" departSpeed="14.66" departDelay="0.00" arrival="487.00" arrivalLane="77477309_0" arrivalPos="222.43" arrivalSpeed="17.56" duration="52.00" routeLength="718.95" waitingTime="0.00" waitingCount="0" stopTime="0.00" timeLoss="4.38" rerouteNo="0" devices="tripinfo_sveh71 emissions_sveh71" vType="SCar" speedFactor="1.06" vaporized="">
        <emissions CO_abs="1450.904925" CO2_abs="147133.443631" HC_abs="10.017611" PMx_abs="2.381186" NOx_abs="57.251463" fuel_abs="63.246158" electricity_abs="0"/>
    </tripinfo>
    <tripinfo id="sveh57" depart="321.00" departLane="389783911.154_0" departPos="4.85" departSpeed="22.22" departDelay="0.00" arrival="495.00" arrivalLane="462392869_1" arrivalPos="125.48" arrivalSpeed="21.68" duration="174.00" routeLength="3746.53" waitingTime="0.00" waitingCount="0" stopTime="0.00" timeLoss="5.12" rerouteNo="0" devices="tripinfo_sveh57 emissions_sveh57" vType="SCar" speedFactor="1.02" vaporized="">
        <emissions CO_abs="4221.497268" CO2_abs="550977.926866" HC_abs="32.558369" PMx_abs="9.864247" NOx_abs="204.599819" fuel_abs="236.840228" electricity_abs="0"/>
    </tripinfo>
    <tripinfo id="sveh20" depart="86.00" departLane="248846659#1.206_0" departPos="4.85" departSpeed="11.31" departDelay="0.00" arrival="499.00" arrivalLane="188949094#1_0" arrivalPos="37.15" arrivalSpeed="15.96" duration="413.00" routeLength="5895.24" waitingTime="1.00" waitingCount="1" stopTime="0.00" timeLoss="31.82" rerouteNo="0" devices="tripinfo_sveh20 emissions_sveh20" vType="SCar" speedFactor="1.02" vaporized="">
        <emissions CO_abs="9568.920066" CO2_abs="989358.967311" HC_abs="66.650854" PMx_abs="16.057048" NOx_abs="383.555926" fuel_abs="425.281618" electricity_abs="0"/>
    </tripinfo>
    <tripinfo id="sveh19" depart="80.00" departLane="248846659#1.206_0" departPos="4.85" departSpeed="12.87" departDelay="0.00" arrival="505.00" arrivalLane="77477309_0" arrivalPos="222.43" arrivalSpeed="19.24" duration="425.00" routeLength="6518.69" waitingTime="0.00" waitingCount="0" stopTime="0.00" timeLoss="31.90" rerouteNo="0" devices="tripinfo_sveh19 emissions_sveh19" vType="SCar" speedFactor="1.16" vaporized="">
        <emissions CO_abs="11684.682431" CO2_abs="1189108.496775" HC_abs="80.816932" PMx_abs="20.184675" NOx_abs="464.145145" fuel_abs="511.144106" electricity_abs="0"/>
    </tripinfo>
    <tripinfo id="sveh22" depart="92.00" departLane="27_0" departPos="4.85" departSpeed="18.95" departDelay="0.00" arrival="528.00" arrivalLane="-248846659#1_0" arrivalPos="144.53" arrivalSpeed="10.17" duration="436.00" routeLength="5825.70" waitingTime="0.00" waitingCount="0" stopTime="0.00" timeLoss="24.98" rerouteNo="0" devices="tripinfo_sveh22 emissions_sveh22" vType="SCar" speedFactor="0.98" vaporized="">
        <emissions CO_abs="8182.188598" CO2_abs="943475.863583" HC_abs="58.948988" PMx_abs="13.823790" NOx_abs="357.714078" fuel_abs="405.559801" electricity_abs="0"/>
    </tripinfo>
    <tripinfo id="sveh49" depart="237.00" departLane="319615443_0" departPos="4.85" departSpeed="22.22" departDelay="0.00" arrival="532.00" arrivalLane="462392869_1" arrivalPos="125.48" arrivalSpeed="21.43" duration="295.00" routeLength="5127.13" waitingTime="1.00" waitingCount="1" stopTime="0.00" timeLoss="20.27" rerouteNo="0" devices="tripinfo_sveh49 emissions_sveh49" vType="SCar" speedFactor="0.85" vaporized="">
        <emissions CO_abs="7081.027383" CO2_abs="793086.197066" HC_abs="51.197743" PMx_abs="13.620689" NOx_abs="300.365600" fuel_abs="340.912260" electricity_abs="0"/>
    </tripinfo>
    <tripinfo id="sveh38" depart="170.00" departLane="248846659#1.206_0" departPos="4.85" departSpeed="12.25" departDelay="0.00" arrival="545.00" arrivalLane="188949094#1_0" arrivalPos="37.15" arrivalSpeed="16.66" duration="375.00" routeLength="5895.24" waitingTime="0.00" waitingCount="0" stopTime="0.00" timeLoss="22.32" rerouteNo="0" devices="tripinfo_sveh38 emissions_sveh38" vType="SCar" speedFactor="1.10" vaporized="">
        <emissions CO_abs="8635.729713" CO2_abs="987200.780791" HC_abs="62.341213" PMx_abs="16.199433" NOx_abs="379.239692" fuel_abs="424.353312" electricity_abs="0"/>
    </tripinfo>
    <tripinfo id="sveh5" depart="31.00" departLane="319611362_0" departPos="4.85" departSpeed="22.22" departDelay="0.00" arrival="549.00" arrivalLane="319615436_1" arrivalPos="125.64" arrivalSpeed="21.17" duration="518.00" routeLength="11178.14" waitingTime="0.00" waitingCount="0" stopTime="0.00" timeLoss="14.76" rerouteNo="0" devices="tripinfo_sveh5 emissions_sveh5" vType="SCar" speedFactor="1.03" vaporized="">
        <emissions CO_abs="12097.612656" CO2_abs="1557166.413283" HC_abs="92.972734" PMx_abs="28.019631" NOx_abs="579.591044" fuel_abs="669.354586" electricity_abs="0"/>
    </tripinfo>
    <tripinfo id="sveh30" depart="141.00" departLane="248846659#1.206_0" departPos="4.85" departSpeed="13.09" departDelay="0.00" arrival="557.00" arrivalLane="77477309_0" arrivalPos="222.43" arrivalSpeed="19.55" duration="416.00" routeLength="6518.69" waitingTime="0.00" waitingCount="0" stopTime="0.00" timeLoss="29.85" rerouteNo="0" devices="tripinfo_sveh30 emissions_sveh30" vType="SCar" speedFactor="1.18" vaporized="">
        <emissions CO_abs="10340.979955" CO2_abs="1142522.236153" HC_abs="73.299359" PMx_abs="18.748287" NOx_abs="439.332163" fuel_abs="491.119210" electricity_abs="0"/>
    </tripinfo>
    <tripinfo id="sveh8" depart="45.00" departLane="319615443_0" departPos="4.85" departSpeed="22.22" departDelay="0.00" arrival="560.00" arrivalLane="319611370_1" arrivalPos="380.09" arrivalSpeed="21.63" duration="515.00" routeLength="11083.48" waitingTime="0.00" waitingCount="0" stopTime="0.00" timeLoss="15.23" rerouteNo="0" devices="tripinfo_sveh8 emissions_sveh8" vType="SCar" speedFactor="0.94" vaporized="">
        <emissions CO_abs="12347.397597" CO2_abs="1575165.904477" HC_abs="94.385540" PMx_abs="28.381749" NOx_abs="587.091958" fuel_abs="677.091692" electricity_abs="0"/>
    </tripinfo>
    <tripinfo id="sveh9" depart="52.00" departLane="319611362_0" departPos="4.85" departSpeed="22.22" departDelay="0.00" arrival="571.00" arrivalLane="319615436_1" arrivalPos="125.64" arrivalSpeed="22.06" duration="519.00" routeLength="11178.14" waitingTime="0.00" waitingCount="0" stopTime="0.00" timeLoss="15.09" rerouteNo="0" devices="tripinfo_sveh9 emissions_sveh9" vType="SCar" speedFactor="0.86" vaporized="">
        <emissions CO_abs="11832.654698" CO2_abs="1510025.487109" HC_abs="90.505126" PMx_abs="27.214622" NOx_abs="562.761391" fuel_abs="649.090813" electricity_abs="0"/>
    </tripinfo>
    <tripinfo id="sveh70" depart="423.00" departLane="27_0" departPos="4.85" departSpeed="18.91" departDelay="0.00" arrival="590.00" arrivalLane="389783908_0" arrivalPos="273.35" arrivalSpeed="21.16" duration="167.00" routeLength="3248.08" waitingTime="0.00" waitingCount="0" stopTime="0.00" timeLoss="6.68" rerouteNo="0" devices="tripinfo_sveh70 emissions_sveh70" vType="SCar" speedFactor="0.97" vaporized="">
        <emissions CO_abs="4065.269854" CO2_abs="466014.594844" HC_abs="29.704683" PMx_abs="8.303387" NOx_abs="177.052137" fuel_abs="200.318416" electricity_abs="0"/>
    </tripinfo>
    <tripinfo id="sveh17" depart="72.00" departLane="319611362_0" departPos="4.85" departSpeed="22.22" departDelay="0.00" arrival="591.00" arrivalLane="319615436_1" arrivalPos="125.64" arrivalSpeed="21.49" duration="519.00" routeLength="11178.14" waitingTime="0.00" waitingCount="0" stopTime="0.00" timeLoss="15.42" rerouteNo="0" devices="tripinfo_sveh17 emissions_sveh17" vType="SCar" speedFactor="0.94" vaporized="">
        <emissions CO_abs="11831.529062" CO2_abs="1532931.353743" HC_abs="91.125802" PMx_abs="27.521555" NOx_abs="570.078887" fuel_abs="658.937073" electricity_abs="0"/>
    </tripinfo>
    <tripinfo id="sveh37" depart="165.00" departLane="248846659#1.206_0" departPos="4.85" departSpeed="13.11" departDelay="0.00" arrival="593.00" arrivalLane="77477309_0" arrivalPos="222.43" arrivalSpeed="19.16" duration="428.00" routeLength="6518.69" waitingTime="8.00" waitingCount="1" stopTime="0.00" timeLoss="42.04" rerouteNo="0" devices="tripinfo_sveh37 emissions_sveh37" vType="SCar" speedFactor="1.18" vaporized="">
        <emissions CO_abs="11740.747610" CO2_abs="1148920.659392" HC_abs="80.013200" PMx_abs="19.538712" NOx_abs="447.783609" fuel_abs="493.869568" electricity_abs="0"/>
    </tripinfo>
    <tripinfo id="sveh43" depart="191.00" departLane="27_0" departPos="4.85" departSpeed="20.17" departDelay="0.00" arrival="602.00" arrivalLane="-248846659#1_0" arrivalPos="144.53" arrivalSpeed="10.47" duration="411.00" routeLength="5825.70" waitingTime="0.00" waitingCount="0" stopTime="0.00" timeLoss="25.28" rerouteNo="0" devices="tripinfo_sveh43 emissions_sveh43" vType="SCar" speedFactor="1.04" vaporized="">
        <emissions CO_abs="7760.467190" CO2_abs="882929.303300" HC_abs="55.620462" PMx_abs="13.583002" NOx_abs="337.577079" fuel_abs="379.532644" electricity_abs="0"/>
    </tripinfo>
    <tripinfo id="sveh84" depart="535.00" departLane="27_0" departPos="4.85" departSpeed="19.47" departDelay="0.00" arrival="604.00" arrivalLane="462392869_0" arrivalPos="125.48" arrivalSpeed="21.83" duration="69.00" routeLength="996.02" waitingTime="0.00" waitingCount="0" stopTime="0.00" timeLoss="7.12" rerouteNo="0" devices="tripinfo_sveh84 emissions_sveh84" vType="SCar" speedFactor="1.00" vaporized="">
        <emissions CO_abs="2726.421859" CO2_abs="227141.835365" HC_abs="17.802495" PMx_abs="4.160641" NOx_abs="91.602412" fuel_abs="97.637901" electricity_abs="0"/>
    </tripinfo>
    <tripinfo id="sveh24" depart="103.00" departLane="319615443_0" departPos="4.85" departSpeed="22.22" departDelay="0.00" arrival="618.00" arrivalLane="319611370_1" arrivalPos="380.09" arrivalSpeed="21.34" duration="515.00" routeLength="11083.48" waitingTime="0.00" waitingCount="0" stopTime="0.00" timeLoss="15.36" rerouteNo="0" devices="tripinfo_sveh24 emissions_sveh24" vType="SCar" speedFactor="0.83" vaporized="">
        <emissions CO_abs="12590.685188" CO2_abs="1580546.989957" HC_abs="95.731264" PMx_abs="28.623487" NOx_abs="590.727327" fuel_abs="679.404671" electricity_abs="0"/>
    </tripinfo>
    <tripinfo id="sveh73" depart="450.00" departLane="389783911.154_0" departPos="4.85" departSpeed="22.22" departDelay="0.00" arrival="624.00" arrivalLane="462392869_1" arrivalPos="125.48" arrivalSpeed="21.33" duration="174.00" routeLength="3746.53" waitingTime="0.00" waitingCount="0" stopTime="0.00" timeLoss="4.98" rerouteNo="0" devices="tripinfo_sveh73 emissions_sveh73" vType="SCar" speedFactor="0.98" vaporized="">
        <emissions CO_abs="3655.627296" CO2_abs="516470.045536" HC_abs="29.160807" PMx_abs="9.058428" NOx_abs="189.511939" fuel_abs="222.007012" electricity_abs="0"/>
    </tripinfo>
    <tripinfo id="sveh14" depart="62.00" departLane="319611362_0" departPos="4.85" departSpeed="22.22" departDelay="0.00" arrival="642.00" arrivalLane="95223234_0" arrivalPos="261.08" arrivalSpeed="13.16" duration="580.00" routeLength="11795.50" waitingTime="0.00" waitingCount="0" stopTime="0.00" timeLoss="21.46" rerouteNo="0" devices="tripinfo_sveh14 emissions_sveh14" vType="SCar" speedFactor="0.99" vaporized="">
        <emissions CO_abs="13922.638270" CO2_abs="1718303.939791" HC_abs="104.835444" PMx_abs="30.535460" NOx_abs="644.537432" fuel_abs="738.620504" electricity_abs="0"/>
    </tripinfo>
    <tripinfo id="sveh68" depart="408.00" departLane="27_0" departPos="4.85" departSpeed="19.89" departDelay="0.00" arrival="659.00" arrivalLane="319615436_0" arrivalPos="125.64" arrivalSpeed="21.80" duration="251.00" routeLength="4465.50" waitingTime="0.00" waitingCount="0" stopTime="0.00" timeLoss="11.46" rerouteNo="0" devices="tripinfo_sveh68 emissions_sveh68" vType="SCar" speedFactor="1.02" vaporized="">
        <emissions CO_abs="6345.131999" CO2_abs="702838.086590" HC_abs="45.732892" PMx_abs="12.366631" NOx_abs="270.416832" fuel_abs="302.118007" electricity_abs="0"/>
    </tripinfo>
    <tripinfo id="sveh35" depart="152.00" departLane="319615443_0" departPos="4.85" departSpeed="22.22" departDelay="0.00" arrival="667.00" arrivalLane="319611370_1" arrivalPos="380.09" arrivalSpeed="21.18" duration="515.00" routeLength="11083.48" waitingTime="0.00" waitingCount="0" stopTime="0.00" timeLoss="15.40" rerouteNo="0" devices="tripinfo_sveh35 emissions_sveh35" vType="SCar" speedFactor="1.02" vaporized="">
        <emissions CO_abs="11444.293605" CO2_abs="1513913.590262" HC_abs="88.866447" PMx_abs="27.024004" NOx_abs="561.118824" fuel_abs="650.762326" electricity_abs="0"/>
    </tripinfo>
    <tripinfo id="sveh2" depart="22.00" departLane="516175821_0" departPos="4.85" departSpeed="22.22" departDelay="0.00" arrival="668.00" arrivalLane="462392869_1" arrivalPos="125.48" arrivalSpeed="21.58" duration="646.00" routeLength="13909.04" waitingTime="0.00" waitingCount="0" stopTime="0.00" timeLoss="19.30" rerouteNo="0" devices="tripinfo_sveh2 emissions_sveh2" vType="SCar" speedFactor="1.01" vaporized="">
        <emissions CO_abs="14323.250139" CO2_abs="1900380.673556" HC_abs="111.312336" PMx_abs="33.883785" NOx_abs="704.122948" fuel_abs="816.886893" electricity_abs="0"/>
    </tripinfo>
    <tripinfo id="sveh86" depart="549.00" departLane="516175821_0" departPos="4.85" departSpeed="22.22" departDelay="0.00" arrival="670.00" arrivalLane="2_0" arrivalPos="142.18" arrivalSpeed="13.60" duration="121.00" routeLength="1876.02" waitingTime="0.00" waitingCount="0" stopTime="0.00" timeLoss="10.25" rerouteNo="0" devices="tripinfo_sveh86 emissions_sveh86" vType="SCar" speedFactor="1.01" vaporized="">
        <emissions CO_abs="3343.908409" CO2_abs="325404.175023" HC_abs="22.865898" PMx_abs="5.650714" NOx_abs="127.188863" fuel_abs="139.876586" electricity_abs="0"/>
    </tripinfo>
    <tripinfo id="sveh92" depart="562.00" departLane="516175821_0" departPos="4.85" departSpeed="22.22" departDelay="0.00" arrival="675.00" arrivalLane="2_0" arrivalPos="142.18" arrivalSpeed="14.54" duration="113.00" routeLength="1876.02" waitingTime="0.00" waitingCount="0" stopTime="0.00" timeLoss="9.80" rerouteNo="0" devices="tripinfo_sveh92 emissions_sveh92" vType="SCar" speedFactor="1.09" vaporized="">
        <emissions CO_abs="3418.328329" CO2_abs="334917.502189" HC_abs="23.430105" PMx_abs="5.921393" NOx_abs="131.217578" fuel_abs="143.965789" electricity_abs="0"/>
    </tripinfo>
    <tripinfo id="sveh0" depart="1.00" departLane="516175821_0" departPos="4.85" departSpeed="22.22" departDelay="0.00" arrival="684.00" arrivalLane="389783908_0" arrivalPos="273.35" arrivalSpeed="21.12" duration="683.00" routeLength="14621.90" waitingTime="0.00" waitingCount="0" stopTime="0.00" timeLoss="19.40" rerouteNo="0" devices="tripinfo_sveh0 emissions_sveh0" vType="SCar" speedFactor="1.06" vaporized="">
        <emissions CO_abs="17314.345617" CO2_abs="2058602.006816" HC_abs="128.727032" PMx_abs="37.765817" NOx_abs="776.668938" fuel_abs="884.898186" electricity_abs="0"/>
    </tripinfo>
    <tripinfo id="sveh42" depart="183.00" departLane="319615443_0" departPos="4.85" departSpeed="22.22" departDelay="0.00" arrival="697.00" arrivalLane="319611370_1" arrivalPos="380.09" arrivalSpeed="21.64" duration="514.00" routeLength="11083.48" waitingTime="0.00" waitingCount="0" stopTime="0.00" timeLoss="15.09" rerouteNo="0" devices="tripinfo_sveh42 emissions_sveh42" vType="SCar" speedFactor="1.09" vaporized="">
        <emissions CO_abs="12710.463337" CO2_abs="1576546.550880" HC_abs="96.307029" PMx_abs="28.666948" NOx_abs="590.542817" fuel_abs="677.684982" electricity_abs="0"/>
    </tripinfo>
    <tripinfo id="sveh1" depart="16.00" departLane="462392872_0" departPos="4.85" departSpeed="22.22" departDelay="0.00" arrival="701.00" arrivalLane="245327988#1_0" arrivalPos="180.33" arrivalSpeed="21.31" duration="685.00" routeLength="14544.77" waitingTime="0.00" waitingCount="0" stopTime="0.00" timeLoss="21.63" rerouteNo="0" devices="tripinfo_sveh1 emissions_sveh1" vType="SCar" speedFactor="0.94" vaporized="">
        <emissions CO_abs="16427.665493" CO2_abs="2055101.294782" HC_abs="124.692182" PMx_abs="37.073335" NOx_abs="769.379052" fuel_abs="883.393846" electricity_abs="0"/>
    </tripinfo>
    <tripinfo id="sveh85" depart="537.00" departLane="462392872_0" departPos="4.85" departSpeed="22.22" departDelay="0.00" arrival="703.00" arrivalLane="389783908_0" arrivalPos="273.35" arrivalSpeed="21.79" duration="166.00" routeLength="3556.47" waitingTime="0.00" waitingCount="0" stopTime="0.00" timeLoss="5.04" rerouteNo="0" devices="tripinfo_sveh85 emissions_sveh85" vType="SCar" speedFactor="1.04" vaporized="">
        <emissions CO_abs="3755.635591" CO2_abs="491619.401113" HC_abs="29.000583" PMx_abs="8.791862" NOx_abs="182.542795" fuel_abs="211.324712" electricity_abs="0"/>
    </tripinfo>
    <tripinfo id="sveh13" depart="59.00" departLane="516175821_0" departPos="4.85" departSpeed="22.22" departDelay="0.00" arrival="704.00" arrivalLane="462392869_1" arrivalPos="125.48" arrivalSpeed="21.69" duration="645.00" routeLength="13909.04" waitingTime="0.00" waitingCount="0" stopTime="0.00" timeLoss="18.82" rerouteNo="0" devices="tripinfo_sveh13 emissions_sveh13" vType="SCar" speedFactor="1.12" vaporized="">
        <emissions CO_abs="14815.528502" CO2_abs="1884152.219828" HC_abs="113.256211" PMx_abs="34.005391" NOx_abs="702.682160" fuel_abs="809.910732" electricity_abs="0"/>
    </tripinfo>
    <tripinfo id="sveh87" depart="550.00" departLane="462392872_0" departPos="4.85" departSpeed="22.22" departDelay="0.00" arrival="716.00" arrivalLane="389783908_0" arrivalPos="273.35" arrivalSpeed="21.85" duration="166.00" routeLength="3556.47" waitingTime="0.00" waitingCount="0" stopTime="0.00" timeLoss="5.00" rerouteNo="0" devices="tripinfo_sveh87 emissions_sveh87" vType="SCar" speedFactor="1.02" vaporized="">
        <emissions CO_abs="3836.631522" CO2_abs="499675.235309" HC_abs="29.611151" PMx_abs="8.956806" NOx_abs="185.708447" fuel_abs="214.787536" electricity_abs="0"/>
    </tripinfo>
    <tripinfo id="sveh88" depart="552.00" departLane="462392872_0" departPos="4.85" departSpeed="22.22" departDelay="0.00" arrival="717.00" arrivalLane="389783908_0" arrivalPos="273.35" arrivalSpeed="22.14" duration="165.00" routeLength="3556.47" waitingTime="0.00" waitingCount="0" stopTime="0.00" timeLoss="4.67" rerouteNo="0" devices="tripinfo_sveh88 emissions_sveh88" vType="SCar" speedFactor="1.02" vaporized="">
        <emissions CO_abs="3958.020476" CO2_abs="502064.473871" HC_abs="30.253982" PMx_abs="9.073335" NOx_abs="187.324680" fuel_abs="215.814514" electricity_abs="0"/>
    </tripinfo>
    <tripinfo id="sveh16" depart="69.00" departLane="516175821_0" departPos="4.85" departSpeed="22.22" departDelay="0.00" arrival="718.00" arrivalLane="462392869_1" arrivalPos="125.48" arrivalSpeed="21.84" duration="649.00" routeLength="13909.04" waitingTime="0.00" waitingCount="0" stopTime="0.00" timeLoss="19.28" rerouteNo="0" devices="tripinfo_sveh16 emissions_sveh16" vType="SCar" speedFactor="0.88" vaporized="">
        <emissions CO_abs="16492.640108" CO2_abs="1989740.474844" HC_abs="123.412732" PMx_abs="36.389350" NOx_abs="749.215124" fuel_abs="855.297847" electricity_abs="0"/>
    </tripinfo>
    <tripinfo id="sveh45" depart="215.00" departLane="319615443_0" departPos="4.85" departSpeed="22.22" departDelay="0.00" arrival="730.00" arrivalLane="319611370_1" arrivalPos="380.09" arrivalSpeed="21.11" duration="515.00" routeLength="11083.48" waitingTime="0.00" waitingCount="0" stopTime="0.00" timeLoss="16.02" rerouteNo="0" devices="tripinfo_sveh45 emissions_sveh45" vType="SCar" speedFactor="1.09" vaporized="">
        <emissions CO_abs="12232.427490" CO2_abs="1552191.847444" HC_abs="93.386621" PMx_abs="28.011706" NOx_abs="579.375675" fuel_abs="667.216142" electricity_abs="0"/>
    </tripinfo>
    <tripinfo id="sveh47" depart="226.00" departLane="319615443_0" departPos="4.85" departSpeed="22.22" departDelay="0.00" arrival="740.00" arrivalLane="319611370_1" arrivalPos="380.09" arrivalSpeed="21.28" duration="514.00" routeLength="11083.48" waitingTime="0.00" waitingCount="0" stopTime="0.00" timeLoss="14.74" rerouteNo="0" devices="tripinfo_sveh47 emissions_sveh47" vType="SCar" speedFactor="0.90" vaporized="">