<?xml version="1.0" encoding="UTF-8"?>

<!-- generated on Wed Nov 11 12:10:34 2020 by Eclipse SUMO sumo Version 1.7.0
<configuration xmlns:xsi="http://www.w3.org/2001/XMLSchema-instance" xsi:noNamespaceSchemaLocation="http://sumo.dlr.de/xsd/sumoConfiguration.xsd">

    <input>
        <net-file value="../dataSets/Angeja_Estarreja/angeja_estarreja.net.xml"/>
        <route-files value="../results/angeja_estarreja/inputdata/angeja_estarreja-base.rou.xml"/>
        <additional-files value="moreOutputInfo.xml"/>
    </input>

    <output>
        <emission-output.precision value="6"/>
        <tripinfo-output value="../results/angeja_estarreja/inputdata/angeja_estarreja-tripinfo"/>
    </output>

    <processing>
        <collision.action value="warn"/>
        <time-to-teleport value="-1"/>
    </processing>

    <emissions>
        <device.emissions.probability value="1"/>
    </emissions>

    <gui_only>
        <quit-on-end value="true"/>
        <start value="true"/>
    </gui_only>

</configuration>
-->

<meandata xmlns:xsi="http://www.w3.org/2001/XMLSchema-instance" xsi:noNamespaceSchemaLocation="http://sumo.dlr.de/xsd/meandata_file.xsd">
    <interval begin="0.00" end="3102.00" id="emissions-detector">
        <edge id=":10_0" sampledSeconds="73.41" CO_abs="7608.920698" CO2_abs="424409.866502" HC_abs="44.731882" PMx_abs="8.378412" NOx_abs="181.370951" fuel_abs="182.435003" electricity_abs="0"
            CO_normed="504.886729" CO2_normed="28161.538000" HC_normed="2.968165" PMx_normed="0.555946" NOx_normed="12.034793" fuel_normed="12.105398" electricity_normed="0"
            traveltime="1.86" CO_perVeh="193.026258" CO2_perVeh="10766.605600" HC_perVeh="1.134777" PMx_perVeh="0.212547" NOx_perVeh="4.601094" fuel_perVeh="4.628087" electricity_perVeh="0"/>
        <edge id=":10_1" sampledSeconds="0.00" CO_abs="0" CO2_abs="0" HC_abs="0" PMx_abs="0" NOx_abs="0" fuel_abs="0" electricity_abs="0"
            CO_normed="0" CO2_normed="0" HC_normed="0" PMx_normed="0" NOx_normed="0" fuel_normed="0" electricity_normed="0"/>
        <edge id=":100_0" sampledSeconds="1.89" CO_abs="26.345872" CO2_abs="2665.131980" HC_abs="0.185222" PMx_abs="0.051595" NOx_abs="1.035122" fuel_abs="1.145616" electricity_abs="0"
            CO_normed="1.049622" CO2_normed="106.179076" HC_normed="0.007379" PMx_normed="0.002056" NOx_normed="0.041239" fuel_normed="0.045641" electricity_normed="0"
            traveltime="1.63" CO_perVeh="22.652162" CO2_perVeh="2291.478589" HC_perVeh="0.159254" PMx_perVeh="0.044361" NOx_perVeh="0.889997" fuel_perVeh="0.984999" electricity_perVeh="0"/>
        <edge id=":100_1" sampledSeconds="125.42" CO_abs="3093.818620" CO2_abs="383974.741832" HC_abs="23.428902" PMx_abs="6.978786" NOx_abs="143.763421" fuel_abs="165.053117" electricity_abs="0"
            CO_normed="121.464992" CO2_normed="15075.056018" HC_normed="0.919831" PMx_normed="0.273991" NOx_normed="5.644230" fuel_normed="6.480075" electricity_normed="0"
            traveltime="1.37" CO_perVeh="33.740497" CO2_perVeh="4187.542979" HC_perVeh="0.255510" PMx_perVeh="0.076109" NOx_perVeh="1.567852" fuel_perVeh="1.800033" electricity_perVeh="0"/>
        <edge id=":101_0" sampledSeconds="72.50" CO_abs="1625.018149" CO2_abs="210346.557199" HC_abs="12.454448" PMx_abs="3.769854" NOx_abs="78.130154" fuel_abs="90.418370" electricity_abs="0"
            CO_normed="230.832453" CO2_normed="29879.550443" HC_normed="1.769144" PMx_normed="0.535505" NOx_normed="11.098322" fuel_normed="12.843853" electricity_normed="0"
            traveltime="0.38" CO_perVeh="8.492524" CO2_perVeh="1099.294256" HC_perVeh="0.065088" PMx_perVeh="0.019702" NOx_perVeh="0.408317" fuel_perVeh="0.472536" electricity_perVeh="0"/>
        <edge id=":102_0" sampledSeconds="47.73" CO_abs="997.566699" CO2_abs="139259.991494" HC_abs="7.907122" PMx_abs="2.447998" NOx_abs="51.192757" fuel_abs="59.861538" electricity_abs="0"
            CO_normed="142.928104" CO2_normed="19952.717457" HC_normed="1.132907" PMx_normed="0.350741" NOx_normed="7.334731" fuel_normed="8.576766" electricity_normed="0"
            traveltime="0.38" CO_perVeh="7.860205" CO2_perVeh="1097.282034" HC_perVeh="0.062303" PMx_perVeh="0.019289" NOx_perVeh="0.403367" fuel_perVeh="0.471672" electricity_perVeh="0"/>
        <edge id=":103_0" sampledSeconds="71.84" CO_abs="1759.994727" CO2_abs="221122.035246" HC_abs="13.378369" PMx_abs="4.001942" NOx_abs="82.630305" fuel_abs="95.050224" electricity_abs="0"
            CO_normed="253.732556" CO2_normed="31878.424534" HC_normed="1.928715" PMx_normed="0.576947" NOx_normed="11.912535" fuel_normed="13.703073" electricity_normed="0"
            traveltime="0.37" CO_perVeh="9.147700" CO2_perVeh="1149.297768" HC_perVeh="0.069535" PMx_perVeh="0.020800" NOx_perVeh="0.429477" fuel_perVeh="0.494030" electricity_perVeh="0"/>
        <edge id=":104_0" sampledSeconds="47.47" CO_abs="1279.053360" CO2_abs="151290.081491" HC_abs="9.506891" PMx_abs="2.789048" NOx_abs="57.074776" fuel_abs="65.032635" electricity_abs="0"
            CO_normed="183.485119" CO2_normed="21703.143527" HC_normed="1.363800" PMx_normed="0.400100" NOx_normed="8.187596" fuel_normed="9.329181" electricity_normed="0"
            traveltime="0.37" CO_perVeh="10.073541" CO2_perVeh="1191.527219" HC_perVeh="0.074874" PMx_perVeh="0.021966" NOx_perVeh="0.449508" fuel_perVeh="0.512183" electricity_perVeh="0"/>
        <edge id=":105_0" sampledSeconds="27.43" CO_abs="592.885840" CO2_abs="78644.848544" HC_abs="4.601068" PMx_abs="1.401015" NOx_abs="29.141727" fuel_abs="33.805830" electricity_abs="0"
            CO_normed="3127.584878" CO2_normed="414866.442118" HC_normed="24.271505" PMx_normed="7.390618" NOx_normed="153.728120" fuel_normed="178.332143" electricity_normed="0"
            traveltime="0.01" CO_perVeh="0.220542" CO2_perVeh="29.254293" HC_perVeh="0.001712" PMx_perVeh="0.000521" NOx_perVeh="0.010840" fuel_perVeh="0.012575" electricity_perVeh="0"/>
        <edge id=":106_0" sampledSeconds="19.06" CO_abs="438.837005" CO2_abs="51782.929244" HC_abs="3.257387" PMx_abs="0.955034" NOx_abs="19.542227" fuel_abs="22.259095" electricity_abs="0"
            CO_normed="1642.866430" CO2_normed="193858.847858" HC_normed="12.194621" PMx_normed="3.575343" NOx_normed="73.159895" fuel_normed="83.330984" electricity_normed="0"
            traveltime="0.01" CO_perVeh="0.331929" CO2_perVeh="39.167787" HC_perVeh="0.002464" PMx_perVeh="0.000722" NOx_perVeh="0.014781" fuel_perVeh="0.016836" electricity_perVeh="0"/>
        <edge id=":107_0" sampledSeconds="61.82" CO_abs="1637.819056" CO2_abs="206875.973042" HC_abs="12.472827" PMx_abs="3.736566" NOx_abs="77.271937" fuel_abs="88.926497" electricity_abs="0"
            CO_normed="232.650811" CO2_normed="29386.556900" HC_normed="1.771755" PMx_normed="0.530776" NOx_normed="10.976413" fuel_normed="12.631934" electricity_normed="0"
            traveltime="0.38" CO_perVeh="10.055143" CO2_perVeh="1270.083787" HC_perVeh="0.076575" PMx_perVeh="0.022940" NOx_perVeh="0.474399" fuel_perVeh="0.545951" electricity_perVeh="0"/>
        <edge id=":108_0" sampledSeconds="15.39" CO_abs="1404.253446" CO2_abs="100509.206612" HC_abs="8.810262" PMx_abs="2.051760" NOx_abs="42.605310" fuel_abs="43.204092" electricity_abs="0"
            CO_normed="135.469204" CO2_normed="9696.185707" HC_normed="0.849931" PMx_normed="0.197935" NOx_normed="4.110161" fuel_normed="4.167926" electricity_normed="0"
            traveltime="0.83" CO_perVeh="76.028514" CO2_perVeh="5441.728214" HC_perVeh="0.477002" PMx_perVeh="0.111086" NOx_perVeh="2.306719" fuel_perVeh="2.339138" electricity_perVeh="0"/>
        <edge id=":108_1" sampledSeconds="61.32" CO_abs="1490.862072" CO2_abs="188664.639684" HC_abs="11.388053" PMx_abs="3.413134" NOx_abs="70.401975" fuel_abs="81.098284" electricity_abs="0"
            CO_normed="134.124607" CO2_normed="16973.113192" HC_normed="1.024520" PMx_normed="0.307061" NOx_normed="6.333676" fuel_normed="7.295964" electricity_normed="0"
            traveltime="0.60" CO_perVeh="14.528514" CO2_perVeh="1838.544931" HC_perVeh="0.110977" PMx_perVeh="0.033261" NOx_perVeh="0.686070" fuel_perVeh="0.790306" electricity_perVeh="0"/>
        <edge id=":109_0" sampledSeconds="36.12" CO_abs="7.431528" CO2_abs="1463.721513" HC_abs="0.067593" PMx_abs="0.018221" NOx_abs="0.526297" fuel_abs="0.629192" electricity_abs="0"
            CO_normed="0.687219" CO2_normed="135.355354" HC_normed="0.006251" PMx_normed="0.001685" NOx_normed="0.048668" fuel_normed="0.058184" electricity_normed="0"
            traveltime="0.85" CO_perVeh="0.173906" CO2_perVeh="34.252666" HC_perVeh="0.001582" PMx_perVeh="0.000426" NOx_perVeh="0.012316" fuel_perVeh="0.014724" electricity_perVeh="0"/>
        <edge id=":109_1" sampledSeconds="79.19" CO_abs="1711.751606" CO2_abs="208713.200456" HC_abs="12.823333" PMx_abs="3.803112" NOx_abs="78.349115" fuel_abs="89.716212" electricity_abs="0"
            CO_normed="103.251503" CO2_normed="12589.415213" HC_normed="0.773493" PMx_normed="0.229401" NOx_normed="4.725957" fuel_normed="5.411611" electricity_normed="0"
            traveltime="0.89" CO_perVeh="19.335580" CO2_perVeh="2357.579729" HC_perVeh="0.144850" PMx_perVeh="0.042959" NOx_perVeh="0.885015" fuel_perVeh="1.013415" electricity_perVeh="0"/>
        <edge id=":11_0" sampledSeconds="47.94" CO_abs="3139.084406" CO2_abs="234760.699847" HC_abs="19.849066" PMx_abs="4.236761" NOx_abs="96.367313" fuel_abs="100.913064" electricity_abs="0"
            CO_normed="199.618520" CO2_normed="14928.742737" HC_normed="1.262228" PMx_normed="0.269421" NOx_normed="6.128125" fuel_normed="6.417195" electricity_normed="0"
            traveltime="1.52" CO_perVeh="99.631809" CO2_perVeh="7451.100473" HC_perVeh="0.629992" PMx_perVeh="0.134471" NOx_perVeh="3.058615" fuel_perVeh="3.202893" electricity_perVeh="0"/>
        <edge id=":11_1" sampledSeconds="11.81" CO_abs="261.974267" CO2_abs="27482.797105" HC_abs="1.822849" PMx_abs="0.364432" NOx_abs="10.314554" fuel_abs="11.813741" electricity_abs="0"
            CO_normed="17.080451" CO2_normed="1791.849941" HC_normed="0.118848" PMx_normed="0.023761" NOx_normed="0.672498" fuel_normed="0.770244" electricity_normed="0"
            traveltime="1.55" CO_perVeh="34.465203" CO2_perVeh="3615.622975" HC_perVeh="0.239813" PMx_perVeh="0.047945" NOx_perVeh="1.356977" fuel_perVeh="1.554210" electricity_perVeh="0"/>
        <edge id=":110_0" sampledSeconds="18.88" CO_abs="0" CO2_abs="0" HC_abs="0" PMx_abs="0" NOx_abs="0" fuel_abs="0" electricity_abs="0"
            CO_normed="0" CO2_normed="0" HC_normed="0" PMx_normed="0" NOx_normed="0" fuel_normed="0" electricity_normed="0"
            traveltime="0.95" CO_perVeh="0" CO2_perVeh="0" HC_perVeh="0" PMx_perVeh="0" NOx_perVeh="0" fuel_perVeh="0" electricity_perVeh="0"/>
        <edge id=":110_1" sampledSeconds="67.37" CO_abs="1892.355450" CO2_abs="237562.251067" HC_abs="14.389506" PMx_abs="4.304707" NOx_abs="88.727366" fuel_abs="102.117122" electricity_abs="0"
            CO_normed="149.398449" CO2_normed="18755.161336" HC_normed="1.136029" PMx_normed="0.339850" NOx_normed="7.004884" fuel_normed="8.061984" electricity_normed="0"
            traveltime="0.68" CO_perVeh="19.069495" CO2_perVeh="2393.943507" HC_perVeh="0.145005" PMx_perVeh="0.043379" NOx_perVeh="0.894116" fuel_perVeh="1.029047" electricity_perVeh="0"/>
        <edge id=":111_0" sampledSeconds="53.97" CO_abs="1011.812540" CO2_abs="149064.011777" HC_abs="8.217010" PMx_abs="2.586606" NOx_abs="54.370881" fuel_abs="64.075868" electricity_abs="0"
            CO_normed="143.727115" CO2_normed="21174.416726" HC_normed="1.167219" PMx_normed="0.367425" NOx_normed="7.723338" fuel_normed="9.101923" electricity_normed="0"
            traveltime="0.38" CO_perVeh="7.109140" CO2_perVeh="1047.345181" HC_perVeh="0.057734" PMx_perVeh="0.018174" NOx_perVeh="0.382018" fuel_perVeh="0.450206" electricity_perVeh="0"/>
        <edge id=":114_0" sampledSeconds="22.03" CO_abs="2264.197133" CO2_abs="165658.037077" HC_abs="14.304862" PMx_abs="3.353188" NOx_abs="69.942089" fuel_abs="71.208467" electricity_abs="0"
            CO_normed="185.048939" CO2_normed="13538.946556" HC_normed="1.169112" PMx_normed="0.274050" NOx_normed="5.716247" fuel_normed="5.819746" electricity_normed="0"
            traveltime="0.97" CO_perVeh="99.803195" CO2_perVeh="7302.014982" HC_perVeh="0.630542" PMx_perVeh="0.147805" NOx_perVeh="3.082967" fuel_perVeh="3.138787" electricity_perVeh="0"/>
        <edge id=":114_1" sampledSeconds="61.86" CO_abs="1716.903087" CO2_abs="207265.641781" HC_abs="12.844100" PMx_abs="3.790905" NOx_abs="78.025831" fuel_abs="89.093959" electricity_abs="0"
            CO_normed="139.435790" CO2_normed="16832.777932" HC_normed="1.043115" PMx_normed="0.307873" NOx_normed="6.336754" fuel_normed="7.235636" electricity_normed="0"
            traveltime="0.66" CO_perVeh="18.408272" CO2_perVeh="2222.258419" HC_perVeh="0.137712" PMx_perVeh="0.040645" NOx_perVeh="0.836576" fuel_perVeh="0.955247" electricity_perVeh="0"/>
        <edge id=":115_0" sampledSeconds="16.61" CO_abs="8.469963" CO2_abs="2516.693441" HC_abs="0.095414" PMx_abs="0.024224" NOx_abs="0.855656" fuel_abs="1.081828" electricity_abs="0"
            CO_normed="1.177215" CO2_normed="349.787712" HC_normed="0.013261" PMx_normed="0.003367" NOx_normed="0.118925" fuel_normed="0.150360" electricity_normed="0"
            traveltime="0.62" CO_perVeh="0.317576" CO2_perVeh="94.361878" HC_perVeh="0.003577" PMx_perVeh="0.000908" NOx_perVeh="0.032082" fuel_perVeh="0.040562" electricity_perVeh="0"/>
        <edge id=":115_1" sampledSeconds="12.23" CO_abs="199.712356" CO2_abs="25499.749840" HC_abs="1.477105" PMx_abs="0.413961" NOx_abs="9.699346" fuel_abs="10.961187" electricity_abs="0"
            CO_normed="24.788716" CO2_normed="3165.082366" HC_normed="0.183341" PMx_normed="0.051382" NOx_normed="1.203903" fuel_normed="1.360525" electricity_normed="0"
            traveltime="0.58" CO_perVeh="9.459526" CO2_perVeh="1207.814899" HC_perVeh="0.069964" PMx_perVeh="0.019608" NOx_perVeh="0.459417" fuel_perVeh="0.519185" electricity_perVeh="0"/>
        <edge id=":116_0" sampledSeconds="12.71" CO_abs="12.339425" CO2_abs="2700.062018" HC_abs="0.117143" PMx_abs="0.027081" NOx_abs="0.934560" fuel_abs="1.160651" electricity_abs="0"
            CO_normed="1.914494" CO2_normed="418.921692" HC_normed="0.018175" PMx_normed="0.004202" NOx_normed="0.144999" fuel_normed="0.180078" electricity_normed="0"
            traveltime="0.56" CO_perVeh="0.539066" CO2_perVeh="117.956219" HC_perVeh="0.005118" PMx_perVeh="0.001183" NOx_perVeh="0.040828" fuel_perVeh="0.050705" electricity_perVeh="0"/>
        <edge id=":117_0" sampledSeconds="28.44" CO_abs="1689.403775" CO2_abs="143798.762816" HC_abs="11.097344" PMx_abs="2.600914" NOx_abs="58.422064" fuel_abs="61.812474" electricity_abs="0"
            CO_normed="234.805190" CO2_normed="19986.160991" HC_normed="1.542387" PMx_normed="0.361493" NOx_normed="8.119908" fuel_normed="8.591131" electricity_normed="0"
            traveltime="0.60" CO_perVeh="35.674098" CO2_perVeh="3036.509844" HC_perVeh="0.234336" PMx_perVeh="0.054922" NOx_perVeh="1.233663" fuel_perVeh="1.305256" electricity_perVeh="0"/>
        <edge id=":117_1" sampledSeconds="14.83" CO_abs="800.414920" CO2_abs="72679.164555" HC_abs="5.365145" PMx_abs="1.256913" NOx_abs="29.087728" fuel_abs="31.241481" electricity_abs="0"
            CO_normed="104.843657" CO2_normed="9519.999199" HC_normed="0.702762" PMx_normed="0.164639" NOx_normed="3.810104" fuel_normed="4.092216" electricity_normed="0"
            traveltime="0.64" CO_perVeh="34.737576" CO2_perVeh="3154.236581" HC_perVeh="0.232844" PMx_perVeh="0.054549" NOx_perVeh="1.262392" fuel_perVeh="1.355863" electricity_perVeh="0"/>
        <edge id=":118_0" sampledSeconds="134.64" CO_abs="1802.009789" CO2_abs="283024.153696" HC_abs="14.454856" PMx_abs="4.183578" NOx_abs="104.709743" fuel_abs="121.659562" electricity_abs="0"
            CO_normed="33.627710" CO2_normed="5281.577428" HC_normed="0.269745" PMx_normed="0.078071" NOx_normed="1.954012" fuel_normed="2.270316" electricity_normed="0"
            traveltime="3.91" CO_perVeh="52.316902" CO2_perVeh="8216.906987" HC_perVeh="0.419661" PMx_perVeh="0.121460" NOx_perVeh="3.039989" fuel_perVeh="3.532085" electricity_perVeh="0"/>
        <edge id=":118_4" sampledSeconds="25.40" CO_abs="379.392598" CO2_abs="57912.311657" HC_abs="3.091198" PMx_abs="0.865249" NOx_abs="21.560569" fuel_abs="24.893944" electricity_abs="0"
            CO_normed="7.093618" CO2_normed="1082.804028" HC_normed="0.057797" PMx_normed="0.016178" NOx_normed="0.403124" fuel_normed="0.465450" electricity_normed="0"
            traveltime="3.93" CO_perVeh="58.737151" CO2_perVeh="8965.921342" HC_perVeh="0.478576" PMx_perVeh="0.133957" NOx_perVeh="3.337984" fuel_perVeh="3.854053" electricity_perVeh="0"/>
        <edge id=":118_5" sampledSeconds="33.11" CO_abs="368.945181" CO2_abs="62284.101817" HC_abs="3.079705" PMx_abs="0.904148" NOx_abs="22.911122" fuel_abs="26.773189" electricity_abs="0"
            CO_normed="6.966746" CO2_normed="1176.102999" HC_normed="0.058154" PMx_normed="0.017073" NOx_normed="0.432628" fuel_normed="0.505555" electricity_normed="0"
            traveltime="3.84" CO_perVeh="42.809566" CO2_perVeh="7226.968920" HC_perVeh="0.357345" PMx_perVeh="0.104910" NOx_perVeh="2.658431" fuel_perVeh="3.106555" electricity_perVeh="0"/>
        <edge id=":119_0" sampledSeconds="26.35" CO_abs="310.883124" CO2_abs="54845.326304" HC_abs="2.640733" PMx_abs="0.767790" NOx_abs="20.040597" fuel_abs="23.575613" electricity_abs="0"
            CO_normed="40.999181" CO2_normed="7232.986588" HC_normed="0.348259" PMx_normed="0.101256" NOx_normed="2.642948" fuel_normed="3.109145" electricity_normed="0"
            traveltime="0.55" CO_perVeh="6.512966" CO2_perVeh="1149.003384" HC_perVeh="0.055323" PMx_perVeh="0.016085" NOx_perVeh="0.419848" fuel_perVeh="0.493906" electricity_perVeh="0"/>
        <edge id=":12_0" sampledSeconds="95.44" CO_abs="8565.505839" CO2_abs="499497.227484" HC_abs="50.865643" PMx_abs="9.737094" NOx_abs="212.283883" fuel_abs="214.711629" electricity_abs="0"
            CO_normed="493.576253" CO2_normed="28782.885036" HC_normed="2.931067" PMx_normed="0.561087" NOx_normed="12.232586" fuel_normed="12.372481" electricity_normed="0"
            traveltime="2.05" CO_perVeh="184.304891" CO2_perVeh="10747.734431" HC_perVeh="1.094481" PMx_perVeh="0.209514" NOx_perVeh="4.567735" fuel_perVeh="4.619973" electricity_perVeh="0"/>
        <edge id=":12_1" sampledSeconds="13.26" CO_abs="278.659888" CO2_abs="23830.540280" HC_abs="1.821840" PMx_abs="0.364451" NOx_abs="9.325963" fuel_abs="10.243747" electricity_abs="0"
            CO_normed="16.041488" CO2_normed="1371.841915" HC_normed="0.104877" PMx_normed="0.020980" NOx_normed="0.536863" fuel_normed="0.589697" electricity_normed="0"
            traveltime="1.79" CO_perVeh="37.587203" CO2_perVeh="3214.396441" HC_perVeh="0.245740" PMx_perVeh="0.049159" NOx_perVeh="1.257938" fuel_perVeh="1.381734" electricity_perVeh="0"/>
        <edge id=":120_0" sampledSeconds="4.44" CO_abs="49.570498" CO2_abs="7410.002540" HC_abs="0.400614" PMx_abs="0.113060" NOx_abs="2.774389" fuel_abs="3.185230" electricity_abs="0"
            CO_normed="239.702602" CO2_normed="35831.733754" HC_normed="1.937204" PMx_normed="0.546712" NOx_normed="13.415809" fuel_normed="15.402466" electricity_normed="0"
            traveltime="0.02" CO_perVeh="0.170297" CO2_perVeh="25.456636" HC_perVeh="0.001376" PMx_perVeh="0.000388" NOx_perVeh="0.009531" fuel_perVeh="0.010943" electricity_perVeh="0"/>
        <edge id=":121_0" sampledSeconds="57.17" CO_abs="8092.408057" CO2_abs="214539.381881" HC_abs="41.881770" PMx_abs="4.622685" NOx_abs="94.824833" fuel_abs="92.223953" electricity_abs="0"
            CO_normed="28459.321458" CO2_normed="754490.528858" HC_normed="147.289501" PMx_normed="16.257024" NOx_normed="333.479281" fuel_normed="324.332522" electricity_normed="0"
            traveltime="0.12" CO_perVeh="16.427748" CO2_perVeh="435.519168" HC_perVeh="0.085021" PMx_perVeh="0.009384" NOx_perVeh="0.192496" fuel_perVeh="0.187216" electricity_perVeh="0"/>
        <edge id=":122_0" sampledSeconds="25.45" CO_abs="117.987399" CO2_abs="17879.896591" HC_abs="0.958465" PMx_abs="0.272517" NOx_abs="6.669793" fuel_abs="7.685772" electricity_abs="0"
            CO_normed="15.977746" CO2_normed="2421.279294" HC_normed="0.129794" PMx_normed="0.036904" NOx_normed="0.903217" fuel_normed="1.040800" electricity_normed="0"
            traveltime="0.53" CO_perVeh="2.466419" CO2_perVeh="373.762891" HC_perVeh="0.020036" PMx_perVeh="0.005697" NOx_perVeh="0.139426" fuel_perVeh="0.160664" electricity_perVeh="0"/>
        <edge id=":123_0" sampledSeconds="25.64" CO_abs="3168.024034" CO2_abs="208546.708837" HC_abs="19.437111" PMx_abs="4.240542" NOx_abs="88.940531" fuel_abs="89.644418" electricity_abs="0"
            CO_normed="74.305247" CO2_normed="4891.413263" HC_normed="0.455893" PMx_normed="0.099461" NOx_normed="2.086079" fuel_normed="2.102588" electricity_normed="0"
            traveltime="3.90" CO_perVeh="481.756190" CO2_perVeh="31713.354088" HC_perVeh="2.955769" PMx_perVeh="0.644852" NOx_perVeh="13.525040" fuel_perVeh="13.632079" electricity_perVeh="0"/>
        <edge id=":123_1" sampledSeconds="0.00" CO_abs="0" CO2_abs="0" HC_abs="0" PMx_abs="0" NOx_abs="0" fuel_abs="0" electricity_abs="0"
            CO_normed="0" CO2_normed="0" HC_normed="0" PMx_normed="0" NOx_normed="0" fuel_normed="0" electricity_normed="0"/>
        <edge id=":123_2" sampledSeconds="36.35" CO_abs="4938.270048" CO2_abs="301360.390830" HC_abs="29.736664" PMx_abs="6.250185" NOx_abs="129.593966" fuel_abs="129.540745" electricity_abs="0"
            CO_normed="116.936702" CO2_normed="7136.120505" HC_normed="0.704155" PMx_normed="0.148002" NOx_normed="3.068745" fuel_normed="3.067485" electricity_normed="0"
            traveltime="4.14" CO_perVeh="562.743246" CO2_perVeh="34341.687022" HC_perVeh="3.388658" PMx_perVeh="0.712243" NOx_perVeh="14.767951" fuel_perVeh="14.761886" electricity_perVeh="0"/>
        <edge id=":123_3" sampledSeconds="74.13" CO_abs="3636.150495" CO2_abs="342271.391989" HC_abs="24.730678" PMx_abs="6.402244" NOx_abs="137.506887" fuel_abs="147.126376" electricity_abs="0"
            CO_normed="88.098202" CO2_normed="8292.696955" HC_normed="0.599185" PMx_normed="0.155116" NOx_normed="3.331575" fuel_normed="3.564640" electricity_normed="0"
            traveltime="2.81" CO_perVeh="137.837614" CO2_perVeh="12974.675274" HC_perVeh="0.937480" PMx_perVeh="0.242693" NOx_perVeh="5.212551" fuel_perVeh="5.577203" electricity_perVeh="0"/>
        <edge id=":123_5" sampledSeconds="0.00" CO_abs="0" CO2_abs="0" HC_abs="0" PMx_abs="0" NOx_abs="0" fuel_abs="0" electricity_abs="0"
            CO_normed="0" CO2_normed="0" HC_normed="0" PMx_normed="0" NOx_normed="0" fuel_normed="0" electricity_normed="0"/>
        <edge id=":123_6" sampledSeconds="25.66" CO_abs="1108.272640" CO2_abs="110705.086611" HC_abs="7.702170" PMx_abs="2.025611" NOx_abs="44.020720" fuel_abs="47.586942" electricity_abs="0"
            CO_normed="25.936610" CO2_normed="2590.801710" HC_normed="0.180252" PMx_normed="0.047405" NOx_normed="1.030205" fuel_normed="1.113665" electricity_normed="0"
            traveltime="2.93" CO_perVeh="126.424458" CO2_perVeh="12628.508569" HC_perVeh="0.878613" PMx_perVeh="0.231068" NOx_perVeh="5.021594" fuel_perVeh="5.428406" electricity_perVeh="0"/>
        <edge id=":124_0" sampledSeconds="22.43" CO_abs="962.458762" CO2_abs="80428.125197" HC_abs="6.251917" PMx_abs="1.572506" NOx_abs="32.973201" fuel_abs="34.572223" electricity_abs="0"
            CO_normed="138.582310" CO2_normed="11580.667988" HC_normed="0.900200" PMx_normed="0.226422" NOx_normed="4.747738" fuel_normed="4.977978" electricity_normed="0"
            traveltime="0.46" CO_perVeh="19.534682" CO2_perVeh="1632.420964" HC_perVeh="0.126893" PMx_perVeh="0.031917" NOx_perVeh="0.669245" fuel_perVeh="0.701700" electricity_perVeh="0"/>
        <edge id=":125_0" sampledSeconds="19.10" CO_abs="849.715758" CO2_abs="78552.099718" HC_abs="5.767483" PMx_abs="1.523950" NOx_abs="31.516952" fuel_abs="33.765826" electricity_abs="0"
            CO_normed="328.710158" CO2_normed="30387.659465" HC_normed="2.231135" PMx_normed="0.589536" NOx_normed="12.192245" fuel_normed="13.062215" electricity_normed="0"
            traveltime="0.16" CO_perVeh="7.150483" CO2_perVeh="661.027487" HC_perVeh="0.048534" PMx_perVeh="0.012824" NOx_perVeh="0.265220" fuel_perVeh="0.284144" electricity_perVeh="0"/>
        <edge id=":125_3" sampledSeconds="0.00" CO_abs="0" CO2_abs="0" HC_abs="0" PMx_abs="0" NOx_abs="0" fuel_abs="0" electricity_abs="0"
            CO_normed="0" CO2_normed="0" HC_normed="0" PMx_normed="0" NOx_normed="0" fuel_normed="0" electricity_normed="0"/>
        <edge id=":126_0" sampledSeconds="6.67" CO_abs="45.705311" CO2_abs="2858.431419" HC_abs="0.276701" PMx_abs="0.058529" NOx_abs="1.229375" fuel_abs="1.228706" electricity_abs="0"
            CO_normed="9.257053" CO2_normed="578.940407" HC_normed="0.056043" PMx_normed="0.011854" NOx_normed="0.248995" fuel_normed="0.248859" electricity_normed="0"
            traveltime="0.57" CO_perVeh="3.910085" CO2_perVeh="244.538515" HC_perVeh="0.023672" PMx_perVeh="0.005007" NOx_perVeh="0.105173" fuel_perVeh="0.105116" electricity_perVeh="0"/>
        <edge id=":126_1" sampledSeconds="14.35" CO_abs="97.728750" CO2_abs="20720.102885" HC_abs="0.937502" PMx_abs="0.317606" NOx_abs="7.388073" fuel_abs="8.906650" electricity_abs="0"
            CO_normed="17.611534" CO2_normed="3733.934948" HC_normed="0.168946" PMx_normed="0.057235" NOx_normed="1.331392" fuel_normed="1.605053" electricity_normed="0"
            traveltime="0.34" CO_perVeh="2.343510" CO2_perVeh="496.862759" HC_perVeh="0.022481" PMx_perVeh="0.007616" NOx_perVeh="0.177164" fuel_perVeh="0.213579" electricity_perVeh="0"/>
        <edge id=":127_0" sampledSeconds="32.05" CO_abs="407.554371" CO2_abs="71991.579634" HC_abs="3.416826" PMx_abs="1.105073" NOx_abs="26.097048" fuel_abs="30.945963" electricity_abs="0"
            CO_normed="57.963701" CO2_normed="10238.875247" HC_normed="0.485952" PMx_normed="0.157167" NOx_normed="3.711607" fuel_normed="4.401235" electricity_normed="0"
            traveltime="0.44" CO_perVeh="5.600047" CO2_perVeh="989.208382" HC_perVeh="0.046949" PMx_perVeh="0.015184" NOx_perVeh="0.358589" fuel_perVeh="0.425216" electricity_perVeh="0"/>
        <edge id=":128_0" sampledSeconds="31.46" CO_abs="46.973052" CO2_abs="6875.902150" HC_abs="0.362044" PMx_abs="0.105371" NOx_abs="2.565809" fuel_abs="2.955643" electricity_abs="0"
            CO_normed="4.464716" CO2_normed="653.543848" HC_normed="0.034412" PMx_normed="0.010015" NOx_normed="0.243876" fuel_normed="0.280929" electricity_normed="0"
            traveltime="0.75" CO_perVeh="1.127282" CO2_perVeh="165.011244" HC_perVeh="0.008689" PMx_perVeh="0.002529" NOx_perVeh="0.061576" fuel_perVeh="0.070931" electricity_perVeh="0"/>
        <edge id=":128_1" sampledSeconds="19.67" CO_abs="32.558873" CO2_abs="4968.889820" HC_abs="0.261037" PMx_abs="0.064607" NOx_abs="1.820809" fuel_abs="2.135917" electricity_abs="0"
            CO_normed="3.196779" CO2_normed="487.868297" HC_normed="0.025630" PMx_normed="0.006343" NOx_normed="0.178775" fuel_normed="0.209714" electricity_normed="0"
            traveltime="0.88" CO_perVeh="1.451591" CO2_perVeh="221.530921" HC_perVeh="0.011638" PMx_perVeh="0.002880" NOx_perVeh="0.081178" fuel_perVeh="0.095227" electricity_perVeh="0"/>
        <edge id=":129_0" sampledSeconds="18.47" CO_abs="842.167058" CO2_abs="87489.990710" HC_abs="5.833596" PMx_abs="1.551901" NOx_abs="34.422079" fuel_abs="37.607891" electricity_abs="0"
            CO_normed="120.662950" CO2_normed="12535.280566" HC_normed="0.835819" PMx_normed="0.222351" NOx_normed="4.931883" fuel_normed="5.388336" electricity_normed="0"
            traveltime="0.49" CO_perVeh="22.119174" CO2_perVeh="2297.888861" HC_perVeh="0.153217" PMx_perVeh="0.040760" NOx_perVeh="0.904082" fuel_perVeh="0.987756" electricity_perVeh="0"/>
        <edge id=":13_0" sampledSeconds="14.40" CO_abs="1294.476523" CO2_abs="93428.840545" HC_abs="8.133811" PMx_abs="1.837576" NOx_abs="39.282247" fuel_abs="40.160668" electricity_abs="0"
            CO_normed="56.286768" CO2_normed="4062.497369" HC_normed="0.353677" PMx_normed="0.079902" NOx_normed="1.708081" fuel_normed="1.746277" electricity_normed="0"
            traveltime="2.04" CO_perVeh="183.150861" CO2_perVeh="13218.913031" HC_perVeh="1.150824" PMx_perVeh="0.259992" NOx_perVeh="5.557905" fuel_perVeh="5.682189" electricity_perVeh="0"/>
        <edge id=":13_1" sampledSeconds="88.53" CO_abs="2088.163159" CO2_abs="162138.624939" HC_abs="13.235161" PMx_abs="2.350647" NOx_abs="62.934441" fuel_abs="69.696902" electricity_abs="0"
            CO_normed="127.951435" CO2_normed="9934.985055" HC_normed="0.810980" PMx_normed="0.144035" NOx_normed="3.856285" fuel_normed="4.270652" electricity_normed="0"
            traveltime="1.86" CO_perVeh="43.933494" CO2_perVeh="3411.283416" HC_perVeh="0.278459" PMx_perVeh="0.049456" NOx_perVeh="1.324097" fuel_perVeh="1.466374" electricity_perVeh="0"/>
        <edge id=":132_0" sampledSeconds="7.25" CO_abs="102.236043" CO2_abs="16646.672613" HC_abs="0.822103" PMx_abs="0.241014" NOx_abs="6.117159" fuel_abs="7.155672" electricity_abs="0"
            CO_normed="1186.491792" CO2_normed="193191.558376" HC_normed="9.540847" PMx_normed="2.797062" NOx_normed="70.992171" fuel_normed="83.044544" electricity_normed="0"
            traveltime="6.226363e-03" CO_perVeh="0.087832" CO2_perVeh="14.301265" HC_perVeh="0.000706" PMx_perVeh="0.000207" NOx_perVeh="0.005255" fuel_perVeh="0.006147" electricity_perVeh="0"/>
        <edge id=":133_0" sampledSeconds="6.06" CO_abs="102.179977" CO2_abs="10204.915158" HC_abs="0.702670" PMx_abs="0.160108" NOx_abs="3.973165" fuel_abs="4.386647" electricity_abs="0"