<?xml version="1.0" encoding="UTF-8"?>

<!-- generated on qua 21 out 2020 00:57:08 WEST by Eclipse SUMO GUI Version 1.7.0
<configuration xmlns:xsi="http://www.w3.org/2001/XMLSchema-instance" xsi:noNamespaceSchemaLocation="http://sumo.dlr.de/xsd/sumoConfiguration.xsd">

    <input>
        <net-file value="../dataSets/Angeja_Estarreja/angeja_estarreja.net.xml"/>
        <route-files value="../dataSets/Angeja_Estarreja/angeja_estarreja.rou.xml"/>
        <additional-files value="moreOutputInfo.xml"/>
    </input>

    <output>
        <emission-output.precision value="6"/>
        <tripinfo-output value="../results/angeja_estarreja/inputdata/angeja_estarreja-tripinfo"/>
    </output>

    <processing>
        <collision.action value="warn"/>
        <time-to-teleport value="-1"/>
    </processing>

    <emissions>
        <device.emissions.probability value="1"/>
    </emissions>

    <gui_only>
        <gui-settings-file value="gui-settings.xml"/>
        <quit-on-end value="true"/>
        <game value="true"/>
        <start value="true"/>
    </gui_only>

</configuration>
-->

<tripinfos xmlns:xsi="http://www.w3.org/2001/XMLSchema-instance" xsi:noNamespaceSchemaLocation="http://sumo.dlr.de/xsd/tripinfo_file.xsd">
    <tripinfo id="21" depart="88.00" departLane="1_0" departPos="4.70" departSpeed="0.00" departDelay="0.00" arrival="148.00" arrivalLane="77477309_0" arrivalPos="222.43" arrivalSpeed="15.64" duration="60.00" routeLength="719.10" waitingTime="0.00" waitingCount="0" stopTime="0.00" timeLoss="8.00" rerouteNo="0" devices="tripinfo_21 emissions_21" vType="Static" speedFactor="0.97" vaporized="">
        <emissions CO_abs="2221.856172" CO2_abs="172090.040155" HC_abs="14.111007" PMx_abs="2.867947" NOx_abs="68.563517" fuel_abs="73.974110" electricity_abs="0"/>
    </tripinfo>
    <tripinfo id="23" depart="94.00" departLane="100_0" departPos="4.70" departSpeed="0.00" departDelay="0.00" arrival="162.00" arrivalLane="2_0" arrivalPos="142.18" arrivalSpeed="9.54" duration="68.00" routeLength="613.48" waitingTime="0.00" waitingCount="0" stopTime="0.00" timeLoss="10.08" rerouteNo="0" devices="tripinfo_23 emissions_23" vType="Static" speedFactor="0.73" vaporized="">
        <emissions CO_abs="2590.413861" CO2_abs="143550.830710" HC_abs="15.118279" PMx_abs="2.357411" NOx_abs="57.984617" fuel_abs="61.706916" electricity_abs="0"/>
    </tripinfo>
    <tripinfo id="6" depart="41.00" departLane="389783911.154_0" departPos="4.70" departSpeed="0.00" departDelay="0.00" arrival="171.00" arrivalLane="462392869_1" arrivalPos="125.48" arrivalSpeed="32.10" duration="130.00" routeLength="3746.68" waitingTime="0.00" waitingCount="0" stopTime="0.00" timeLoss="11.37" rerouteNo="0" devices="tripinfo_6 emissions_6" vType="Static" speedFactor="1.04" vaporized="">
        <emissions CO_abs="15538.333290" CO2_abs="884117.519792" HC_abs="93.101509" PMx_abs="21.201837" NOx_abs="361.871233" fuel_abs="380.041154" electricity_abs="0"/>
    </tripinfo>
    <tripinfo id="11" depart="55.00" departLane="462392872_0" departPos="4.70" departSpeed="0.00" departDelay="0.00" arrival="182.00" arrivalLane="389783908_0" arrivalPos="273.35" arrivalSpeed="27.34" duration="127.00" routeLength="3556.62" waitingTime="0.00" waitingCount="0" stopTime="0.00" timeLoss="11.33" rerouteNo="0" devices="tripinfo_11 emissions_11" vType="Static" speedFactor="1.00" vaporized="">
        <emissions CO_abs="13216.212955" CO2_abs="766856.723613" HC_abs="79.529745" PMx_abs="18.211082" NOx_abs="313.218342" fuel_abs="329.636169" electricity_abs="0"/>
    </tripinfo>
    <tripinfo id="7" depart="44.00" departLane="389783911.154_0" departPos="4.70" departSpeed="0.00" departDelay="2.00" arrival="225.00" arrivalLane="462392869_1" arrivalPos="125.48" arrivalSpeed="24.05" duration="181.00" routeLength="3746.68" waitingTime="0.00" waitingCount="0" stopTime="0.00" timeLoss="13.49" rerouteNo="0" devices="tripinfo_7 emissions_7" vType="Static" speedFactor="0.72" vaporized="">
        <emissions CO_abs="8037.773841" CO2_abs="728203.003529" HC_abs="54.332518" PMx_abs="14.210872" NOx_abs="285.633245" fuel_abs="313.020716" electricity_abs="0"/>
    </tripinfo>
    <tripinfo id="31" depart="147.00" departLane="1_0" departPos="4.70" departSpeed="0.00" departDelay="0.00" arrival="246.00" arrivalLane="245327988#1_0" arrivalPos="180.33" arrivalSpeed="24.45" duration="99.00" routeLength="1550.98" waitingTime="0.00" waitingCount="0" stopTime="0.00" timeLoss="30.88" rerouteNo="0" devices="tripinfo_31 emissions_31" vType="Static" speedFactor="1.26" vaporized="">
        <emissions CO_abs="7806.826249" CO2_abs="530784.074978" HC_abs="48.370356" PMx_abs="10.748672" NOx_abs="219.046343" fuel_abs="228.159674" electricity_abs="0"/>
    </tripinfo>
    <tripinfo id="12" depart="58.00" departLane="462392872_0" departPos="4.70" departSpeed="0.00" departDelay="0.00" arrival="273.00" arrivalLane="319615436_0" arrivalPos="125.64" arrivalSpeed="24.57" duration="215.00" routeLength="4774.04" waitingTime="0.00" waitingCount="0" stopTime="0.00" timeLoss="22.27" rerouteNo="0" devices="tripinfo_12 emissions_12" vType="Static" speedFactor="1.04" vaporized="">
        <emissions CO_abs="16420.263301" CO2_abs="1048659.193112" HC_abs="100.636611" PMx_abs="23.235085" NOx_abs="426.867664" fuel_abs="450.770120" electricity_abs="0"/>
    </tripinfo>
    <tripinfo id="26" depart="125.00" departLane="462392872_0" departPos="4.70" departSpeed="0.00" departDelay="0.00" arrival="285.00" arrivalLane="389783908_0" arrivalPos="273.35" arrivalSpeed="20.88" duration="160.00" routeLength="3556.62" waitingTime="0.00" waitingCount="0" stopTime="0.00" timeLoss="12.39" rerouteNo="0" devices="tripinfo_26 emissions_26" vType="Static" speedFactor="0.78" vaporized="">
        <emissions CO_abs="8067.183251" CO2_abs="656789.733845" HC_abs="52.883739" PMx_abs="13.482549" NOx_abs="261.323263" fuel_abs="282.323216" electricity_abs="0"/>
    </tripinfo>
    <tripinfo id="34" depart="151.00" departLane="462392872_0" departPos="4.70" departSpeed="0.00" departDelay="0.00" arrival="287.00" arrivalLane="389783908_0" arrivalPos="273.35" arrivalSpeed="24.66" duration="136.00" routeLength="3556.62" waitingTime="0.00" waitingCount="0" stopTime="0.00" timeLoss="12.84" rerouteNo="0" devices="tripinfo_34 emissions_34" vType="Static" speedFactor="0.94" vaporized="">
        <emissions CO_abs="11814.324555" CO2_abs="755496.181951" HC_abs="72.722046" PMx_abs="17.203036" NOx_abs="305.926523" fuel_abs="324.752674" electricity_abs="0"/>
    </tripinfo>
    <tripinfo id="54" depart="264.00" departLane="24443879.82_0" departPos="4.70" departSpeed="0.00" departDelay="0.00" arrival="342.00" arrivalLane="319615436_0" arrivalPos="125.64" arrivalSpeed="25.05" duration="78.00" routeLength="1041.64" waitingTime="0.00" waitingCount="0" stopTime="0.00" timeLoss="12.68" rerouteNo="0" devices="tripinfo_54 emissions_54" vType="Static" speedFactor="0.96" vaporized="">
        <emissions CO_abs="3717.952053" CO2_abs="286572.624188" HC_abs="23.690652" PMx_abs="5.223905" NOx_abs="115.988613" fuel_abs="123.184696" electricity_abs="0"/>
    </tripinfo>
    <tripinfo id="28" depart="136.00" departLane="319615443_0" departPos="4.70" departSpeed="0.00" departDelay="0.00" arrival="359.00" arrivalLane="462392869_2" arrivalPos="125.48" arrivalSpeed="32.56" duration="223.00" routeLength="5127.28" waitingTime="1.00" waitingCount="1" stopTime="0.00" timeLoss="35.10" rerouteNo="0" devices="tripinfo_28 emissions_28" vType="Static" speedFactor="1.21" vaporized="">
        <emissions CO_abs="20447.774179" CO2_abs="1213404.517452" HC_abs="123.363972" PMx_abs="27.896017" NOx_abs="499.249734" fuel_abs="521.586371" electricity_abs="0"/>
    </tripinfo>
    <tripinfo id="18" depart="77.00" departLane="319615443_0" departPos="4.70" departSpeed="0.00" departDelay="0.00" arrival="370.00" arrivalLane="462392869_1" arrivalPos="125.48" arrivalSpeed="26.24" duration="293.00" routeLength="5127.28" waitingTime="1.00" waitingCount="1" stopTime="0.00" timeLoss="38.61" rerouteNo="0" devices="tripinfo_18 emissions_18" vType="Static" speedFactor="0.82" vaporized="">
        <emissions CO_abs="15775.613429" CO2_abs="1144983.001659" HC_abs="99.719665" PMx_abs="22.986473" NOx_abs="461.366683" fuel_abs="492.175996" electricity_abs="0"/>
    </tripinfo>
    <tripinfo id="48" depart="226.00" departLane="389783911.154_0" departPos="4.70" departSpeed="0.00" departDelay="0.00" arrival="411.00" arrivalLane="462392869_1" arrivalPos="125.48" arrivalSpeed="21.94" duration="185.00" routeLength="3746.68" waitingTime="0.00" waitingCount="0" stopTime="0.00" timeLoss="13.25" rerouteNo="0" devices="tripinfo_48 emissions_48" vType="Static" speedFactor="0.70" vaporized="">
        <emissions CO_abs="7613.016325" CO2_abs="704158.410444" HC_abs="51.674226" PMx_abs="13.575675" NOx_abs="276.634779" fuel_abs="302.685004" electricity_abs="0"/>
    </tripinfo>
    <tripinfo id="50" depart="239.00" departLane="27_0" departPos="4.70" departSpeed="0.00" departDelay="0.00" arrival="444.00" arrivalLane="389783908_0" arrivalPos="273.35" arrivalSpeed="16.70" duration="205.00" routeLength="3248.23" waitingTime="0.00" waitingCount="0" stopTime="0.00" timeLoss="17.90" rerouteNo="0" devices="tripinfo_50 emissions_50" vType="Static" speedFactor="0.66" vaporized="">
        <emissions CO_abs="7212.470391" CO2_abs="628699.678656" HC_abs="47.841734" PMx_abs="11.263671" NOx_abs="246.128876" fuel_abs="270.249989" electricity_abs="0"/>
    </tripinfo>
    <tripinfo id="58" depart="321.00" departLane="389783911.154_0" departPos="4.70" departSpeed="0.00" departDelay="0.00" arrival="454.00" arrivalLane="462392869_1" arrivalPos="125.48" arrivalSpeed="31.52" duration="133.00" routeLength="3746.68" waitingTime="0.00" waitingCount="0" stopTime="0.00" timeLoss="12.13" rerouteNo="0" devices="tripinfo_58 emissions_58" vType="Static" speedFactor="1.00" vaporized="">
        <emissions CO_abs="14787.181568" CO2_abs="867940.965783" HC_abs="89.263684" PMx_abs="20.502476" NOx_abs="350.772721" fuel_abs="373.087936" electricity_abs="0"/>
    </tripinfo>
    <tripinfo id="8" depart="45.00" departLane="319615443_0" departPos="4.70" departSpeed="0.00" departDelay="0.00" arrival="475.00" arrivalLane="319611370_1" arrivalPos="380.09" arrivalSpeed="26.21" duration="430.00" routeLength="11083.63" waitingTime="0.00" waitingCount="0" stopTime="0.00" timeLoss="22.49" rerouteNo="0" devices="tripinfo_8 emissions_8" vType="Static" speedFactor="0.83" vaporized="">
        <emissions CO_abs="27579.971569" CO2_abs="1976443.229098" HC_abs="174.981055" PMx_abs="43.531722" NOx_abs="786.138233" fuel_abs="849.580918" electricity_abs="0"/>
    </tripinfo>
    <tripinfo id="0" depart="1.00" departLane="516175821_0" departPos="4.70" departSpeed="0.00" departDelay="0.00" arrival="490.00" arrivalLane="389783908_0" arrivalPos="273.35" arrivalSpeed="28.31" duration="489.00" routeLength="14622.05" waitingTime="0.00" waitingCount="0" stopTime="0.00" timeLoss="24.71" rerouteNo="0" devices="tripinfo_0 emissions_0" vType="Static" speedFactor="1.07" vaporized="">
        <emissions CO_abs="51241.042890" CO2_abs="2869192.134279" HC_abs="306.245633" PMx_abs="69.687796" NOx_abs="1160.245465" fuel_abs="1233.334153" electricity_abs="0"/>
    </tripinfo>
    <tripinfo id="73" depart="435.00" departLane="1_0" departPos="4.70" departSpeed="0.00" departDelay="0.00" arrival="492.00" arrivalLane="77477309_0" arrivalPos="222.43" arrivalSpeed="16.38" duration="57.00" routeLength="719.10" waitingTime="0.00" waitingCount="0" stopTime="0.00" timeLoss="9.18" rerouteNo="0" devices="tripinfo_73 emissions_73" vType="Static" speedFactor="1.06" vaporized="">
        <emissions CO_abs="2444.674522" CO2_abs="183089.776899" HC_abs="15.383850" PMx_abs="3.204961" NOx_abs="73.661288" fuel_abs="78.702282" electricity_abs="0"/>
    </tripinfo>
    <tripinfo id="19" depart="80.00" departLane="248846659#1.206_0" departPos="4.70" departSpeed="0.00" departDelay="0.00" arrival="493.00" arrivalLane="77477309_0" arrivalPos="222.43" arrivalSpeed="17.82" duration="413.00" routeLength="6518.84" waitingTime="0.00" waitingCount="0" stopTime="0.00" timeLoss="54.02" rerouteNo="0" devices="tripinfo_19 emissions_19" vType="Static" speedFactor="1.27" vaporized="">
        <emissions CO_abs="15588.517186" CO2_abs="1351416.270204" HC_abs="102.965997" PMx_abs="24.801367" NOx_abs="540.122724" fuel_abs="580.912027" electricity_abs="0"/>
    </tripinfo>
    <tripinfo id="2" depart="22.00" departLane="516175821_0" departPos="4.70" departSpeed="0.00" departDelay="0.00" arrival="499.00" arrivalLane="462392869_1" arrivalPos="125.48" arrivalSpeed="31.22" duration="477.00" routeLength="13909.19" waitingTime="0.00" waitingCount="0" stopTime="0.00" timeLoss="24.59" rerouteNo="0" devices="tripinfo_2 emissions_2" vType="Static" speedFactor="0.97" vaporized="">
        <emissions CO_abs="46875.286275" CO2_abs="2747928.050895" HC_abs="283.089754" PMx_abs="65.627115" NOx_abs="1108.401478" fuel_abs="1181.207650" electricity_abs="0"/>
    </tripinfo>
    <tripinfo id="13" depart="59.00" departLane="516175821_0" departPos="4.70" departSpeed="0.00" departDelay="0.00" arrival="503.00" arrivalLane="462392869_1" arrivalPos="125.48" arrivalSpeed="32.71" duration="444.00" routeLength="13909.19" waitingTime="0.00" waitingCount="0" stopTime="0.00" timeLoss="21.19" rerouteNo="0" devices="tripinfo_13 emissions_13" vType="Static" speedFactor="1.20" vaporized="">
        <emissions CO_abs="50240.846571" CO2_abs="2711007.303305" HC_abs="298.054732" PMx_abs="66.994014" NOx_abs="1092.355649" fuel_abs="1165.338745" electricity_abs="0"/>
    </tripinfo>
    <tripinfo id="17" depart="72.00" departLane="319611362_0" departPos="4.70" departSpeed="0.00" departDelay="0.00" arrival="503.00" arrivalLane="319615436_1" arrivalPos="125.64" arrivalSpeed="26.59" duration="431.00" routeLength="11178.29" waitingTime="0.00" waitingCount="0" stopTime="0.00" timeLoss="21.78" rerouteNo="0" devices="tripinfo_17 emissions_17" vType="Static" speedFactor="0.83" vaporized="">
        <emissions CO_abs="28523.300454" CO2_abs="2038246.856924" HC_abs="180.857577" PMx_abs="45.026356" NOx_abs="810.472378" fuel_abs="876.147401" electricity_abs="0"/>
    </tripinfo>
    <tripinfo id="35" depart="152.00" departLane="319615443_0" departPos="4.70" departSpeed="0.00" departDelay="0.00" arrival="512.00" arrivalLane="319611370_1" arrivalPos="380.09" arrivalSpeed="31.42" duration="360.00" routeLength="11083.63" waitingTime="0.00" waitingCount="0" stopTime="0.00" timeLoss="20.00" rerouteNo="0" devices="tripinfo_35 emissions_35" vType="Static" speedFactor="0.99" vaporized="">
        <emissions CO_abs="41518.741104" CO2_abs="2257218.145061" HC_abs="246.570487" PMx_abs="55.558810" NOx_abs="917.206284" fuel_abs="970.274543" electricity_abs="0"/>
    </tripinfo>
    <tripinfo id="14" depart="62.00" departLane="319611362_0" departPos="4.70" departSpeed="0.00" departDelay="0.00" arrival="522.00" arrivalLane="95223234_0" arrivalPos="261.08" arrivalSpeed="11.77" duration="460.00" routeLength="11795.65" waitingTime="0.00" waitingCount="0" stopTime="0.00" timeLoss="29.90" rerouteNo="0" devices="tripinfo_14 emissions_14" vType="Static" speedFactor="0.93" vaporized="">
        <emissions CO_abs="36922.109126" CO2_abs="2282256.081228" HC_abs="225.569997" PMx_abs="52.425418" NOx_abs="911.743813" fuel_abs="981.037708" electricity_abs="0"/>
    </tripinfo>
    <tripinfo id="42" depart="183.00" departLane="319615443_0" departPos="4.70" departSpeed="0.00" departDelay="0.00" arrival="538.00" arrivalLane="319611370_1" arrivalPos="380.09" arrivalSpeed="31.65" duration="355.00" routeLength="11083.63" waitingTime="0.00" waitingCount="0" stopTime="0.00" timeLoss="20.59" rerouteNo="0" devices="tripinfo_42 emissions_42" vType="Static" speedFactor="1.13" vaporized="">
        <emissions CO_abs="41685.387024" CO2_abs="2230658.614582" HC_abs="246.766518" PMx_abs="55.215667" NOx_abs="903.517465" fuel_abs="958.858416" electricity_abs="0"/>
    </tripinfo>
    <tripinfo id="30" depart="141.00" departLane="248846659#1.206_0" departPos="4.70" departSpeed="0.00" departDelay="0.00" arrival="542.00" arrivalLane="77477309_0" arrivalPos="222.43" arrivalSpeed="20.49" duration="401.00" routeLength="6518.84" waitingTime="0.00" waitingCount="0" stopTime="0.00" timeLoss="52.90" rerouteNo="0" devices="tripinfo_30 emissions_30" vType="Static" speedFactor="1.31" vaporized="">
        <emissions CO_abs="16179.913381" CO2_abs="1400285.407900" HC_abs="107.030720" PMx_abs="25.872863" NOx_abs="559.552225" fuel_abs="601.918550" electricity_abs="0"/>
    </tripinfo>
    <tripinfo id="20" depart="86.00" departLane="248846659#1.206_0" departPos="4.70" departSpeed="0.00" departDelay="0.00" arrival="543.00" arrivalLane="188949094#1_0" arrivalPos="37.15" arrivalSpeed="15.37" duration="457.00" routeLength="5895.39" waitingTime="17.00" waitingCount="1" stopTime="0.00" timeLoss="63.00" rerouteNo="0" devices="tripinfo_20 emissions_20" vType="Static" speedFactor="0.99" vaporized="">
        <emissions CO_abs="15014.148750" CO2_abs="1176921.411576" HC_abs="95.917196" PMx_abs="20.003387" NOx_abs="466.092382" fuel_abs="505.907739" electricity_abs="0"/>
    </tripinfo>
    <tripinfo id="38" depart="170.00" departLane="248846659#1.206_0" departPos="4.70" departSpeed="0.00" departDelay="0.00" arrival="545.00" arrivalLane="188949094#1_0" arrivalPos="37.15" arrivalSpeed="14.33" duration="375.00" routeLength="5895.39" waitingTime="0.00" waitingCount="0" stopTime="0.00" timeLoss="38.88" rerouteNo="0" devices="tripinfo_38 emissions_38" vType="Static" speedFactor="1.15" vaporized="">
        <emissions CO_abs="11845.611714" CO2_abs="1100358.211780" HC_abs="79.845691" PMx_abs="19.462482" NOx_abs="434.483056" fuel_abs="472.994101" electricity_abs="0"/>
    </tripinfo>
    <tripinfo id="45" depart="215.00" departLane="319615443_0" departPos="4.70" departSpeed="0.00" departDelay="0.00" arrival="568.00" arrivalLane="319611370_1" arrivalPos="380.09" arrivalSpeed="32.49" duration="353.00" routeLength="11083.63" waitingTime="0.00" waitingCount="0" stopTime="0.00" timeLoss="19.27" rerouteNo="0" devices="tripinfo_45 emissions_45" vType="Static" speedFactor="1.13" vaporized="">
        <emissions CO_abs="41144.041535" CO2_abs="2204951.778268" HC_abs="243.657858" PMx_abs="54.605751" NOx_abs="892.896337" fuel_abs="947.808167" electricity_abs="0"/>
    </tripinfo>
    <tripinfo id="3" depart="29.00" departLane="462392872_0" departPos="4.70" departSpeed="0.00" departDelay="0.00" arrival="578.00" arrivalLane="319611370_1" arrivalPos="380.09" arrivalSpeed="31.93" duration="549.00" routeLength="15433.44" waitingTime="0.00" waitingCount="0" stopTime="0.00" timeLoss="31.31" rerouteNo="0" devices="tripinfo_3 emissions_3" vType="Static" speedFactor="1.12" vaporized="">
        <emissions CO_abs="53294.208351" CO2_abs="3043625.120422" HC_abs="319.562495" PMx_abs="72.625354" NOx_abs="1228.860834" fuel_abs="1308.315270" electricity_abs="0"/>
    </tripinfo>
    <tripinfo id="22" depart="92.00" departLane="27_0" departPos="4.70" departSpeed="0.00" departDelay="0.00" arrival="580.00" arrivalLane="-248846659#1_0" arrivalPos="144.53" arrivalSpeed="9.06" duration="488.00" routeLength="5825.85" waitingTime="0.00" waitingCount="0" stopTime="0.00" timeLoss="43.28" rerouteNo="0" devices="tripinfo_22 emissions_22" vType="Static" speedFactor="0.90" vaporized="">
        <emissions CO_abs="12303.863470" CO2_abs="1103028.382382" HC_abs="81.462786" PMx_abs="16.885249" NOx_abs="428.879997" fuel_abs="474.145217" electricity_abs="0"/>
    </tripinfo>
    <tripinfo id="37" depart="165.00" departLane="248846659#1.206_0" departPos="4.70" departSpeed="0.00" departDelay="0.00" arrival="583.00" arrivalLane="77477309_0" arrivalPos="222.43" arrivalSpeed="20.79" duration="418.00" routeLength="6518.84" waitingTime="15.00" waitingCount="1" stopTime="0.00" timeLoss="70.07" rerouteNo="0" devices="tripinfo_37 emissions_37" vType="Static" speedFactor="1.31" vaporized="">
        <emissions CO_abs="17506.097078" CO2_abs="1373457.148043" HC_abs="112.293814" PMx_abs="25.600648" NOx_abs="550.082660" fuel_abs="590.387364" electricity_abs="0"/>
    </tripinfo>
    <tripinfo id="72" depart="423.00" departLane="27_0" departPos="4.70" departSpeed="0.00" departDelay="0.00" arrival="587.00" arrivalLane="389783908_0" arrivalPos="273.35" arrivalSpeed="22.20" duration="164.00" routeLength="3248.23" waitingTime="0.00" waitingCount="0" stopTime="0.00" timeLoss="14.52" rerouteNo="0" devices="tripinfo_72 emissions_72" vType="Static" speedFactor="0.83" vaporized="">
        <emissions CO_abs="9254.633439" CO2_abs="672021.057714" HC_abs="58.631839" PMx_abs="13.809387" NOx_abs="268.179128" fuel_abs="288.871212" electricity_abs="0"/>
    </tripinfo>
    <tripinfo id="9" depart="52.00" departLane="319611362_0" departPos="4.70" departSpeed="0.00" departDelay="0.00" arrival="594.00" arrivalLane="319615436_1" arrivalPos="125.64" arrivalSpeed="20.82" duration="542.00" routeLength="11178.29" waitingTime="0.00" waitingCount="0" stopTime="0.00" timeLoss="27.89" rerouteNo="0" devices="tripinfo_9 emissions_9" vType="Static" speedFactor="0.66" vaporized="">
        <emissions CO_abs="18099.299009" CO2_abs="1879735.606290" HC_abs="127.843293" PMx_abs="35.432513" NOx_abs="727.979663" fuel_abs="808.010941" electricity_abs="0"/>
    </tripinfo>
    <tripinfo id="75" depart="450.00" departLane="389783911.154_0" departPos="4.70" departSpeed="0.00" departDelay="0.00" arrival="595.00" arrivalLane="462392869_2" arrivalPos="125.48" arrivalSpeed="30.02" duration="145.00" routeLength="3746.68" waitingTime="0.00" waitingCount="0" stopTime="0.00" timeLoss="13.88" rerouteNo="0" devices="tripinfo_75 emissions_75" vType="Static" speedFactor="0.92" vaporized="">
        <emissions CO_abs="12806.570152" CO2_abs="829380.043328" HC_abs="79.072913" PMx_abs="18.774708" NOx_abs="335.247176" fuel_abs="356.511927" electricity_abs="0"/>
    </tripinfo>
    <tripinfo id="49" depart="237.00" departLane="319615443_0" departPos="4.70" departSpeed="0.00" departDelay="0.00" arrival="599.00" arrivalLane="462392869_1" arrivalPos="125.48" arrivalSpeed="19.94" duration="362.00" routeLength="5127.28" waitingTime="1.00" waitingCount="1" stopTime="0.00" timeLoss="40.20" rerouteNo="0" devices="tripinfo_49 emissions_49" vType="Static" speedFactor="0.65" vaporized="">
        <emissions CO_abs="12455.973226" CO2_abs="1016246.215232" HC_abs="80.651110" PMx_abs="18.101543" NOx_abs="401.491562" fuel_abs="436.839337" electricity_abs="0"/>
    </tripinfo>
    <tripinfo id="51" depart="249.00" departLane="319615443_0" departPos="4.70" departSpeed="0.00" departDelay="0.00" arrival="601.00" arrivalLane="319611370_1" arrivalPos="380.09" arrivalSpeed="32.10" duration="352.00" routeLength="11083.63" waitingTime="0.00" waitingCount="0" stopTime="0.00" timeLoss="18.80" rerouteNo="0" devices="tripinfo_51 emissions_51" vType="Static" speedFactor="1.29" vaporized="">
        <emissions CO_abs="40767.923998" CO2_abs="2178669.041617" HC_abs="241.327595" PMx_abs="54.047772" NOx_abs="880.262141" fuel_abs="936.510643" electricity_abs="0"/>
    </tripinfo>
    <tripinfo id="86" depart="535.00" departLane="27_0" departPos="4.70" departSpeed="0.00" departDelay="0.00" arrival="612.00" arrivalLane="462392869_0" arrivalPos="125.48" arrivalSpeed="25.44" duration="77.00" routeLength="996.17" waitingTime="0.00" waitingCount="0" stopTime="0.00" timeLoss="13.77" rerouteNo="0" devices="tripinfo_86 emissions_86" vType="Static" speedFactor="0.95" vaporized="">
        <emissions CO_abs="4288.890678" CO2_abs="311502.102673" HC_abs="26.951434" PMx_abs="5.820519" NOx_abs="127.458253" fuel_abs="133.900717" electricity_abs="0"/>
    </tripinfo>
    <tripinfo id="53" depart="261.00" departLane="319611362_0" departPos="4.70" departSpeed="0.00" departDelay="0.00" arrival="616.00" arrivalLane="319615436_2" arrivalPos="125.64" arrivalSpeed="32.74" duration="355.00" routeLength="11178.29" waitingTime="0.00" waitingCount="0" stopTime="0.00" timeLoss="17.92" rerouteNo="0" devices="tripinfo_53 emissions_53" vType="Static" speedFactor="1.14" vaporized="">
        <emissions CO_abs="41783.547110" CO2_abs="2231348.106323" HC_abs="247.245954" PMx_abs="55.402314" NOx_abs="905.901904" fuel_abs="959.154506" electricity_abs="0"/>
    </tripinfo>
    <tripinfo id="1" depart="16.00" departLane="462392872_0" departPos="4.70" departSpeed="0.00" departDelay="0.00" arrival="617.00" arrivalLane="245327988#1_0" arrivalPos="180.33" arrivalSpeed="26.24" duration="601.00" routeLength="14544.92" waitingTime="0.00" waitingCount="0" stopTime="0.00" timeLoss="31.40" rerouteNo="0" devices="tripinfo_1 emissions_1" vType="Static" speedFactor="0.83" vaporized="">
        <emissions CO_abs="36076.256680" CO2_abs="2708911.998832" HC_abs="231.650341" PMx_abs="58.347260" NOx_abs="1076.613498" fuel_abs="1164.434876" electricity_abs="0"/>
    </tripinfo>
    <tripinfo id="5" depart="31.00" departLane="319611362_0" departPos="4.70" departSpeed="0.00" departDelay="0.00" arrival="619.00" arrivalLane="319615436_1" arrivalPos="125.64" arrivalSpeed="18.70" duration="588.00" routeLength="11178.29" waitingTime="0.00" waitingCount="0" stopTime="0.00" timeLoss="31.15" rerouteNo="0" devices="tripinfo_5 emissions_5" vType="Static" speedFactor="0.61" vaporized="">
        <emissions CO_abs="15919.797026" CO2_abs="1868278.752830" HC_abs="116.319691" PMx_abs="33.045233" NOx_abs="715.223232" fuel_abs="803.086958" electricity_abs="0"/>
    </tripinfo>
    <tripinfo id="33" depart="147.00" departLane="462392872_0" departPos="4.70" departSpeed="0.00" departDelay="0.00" arrival="619.00" arrivalLane="245327988#1_0" arrivalPos="180.33" arrivalSpeed="33.32" duration="472.00" routeLength="14544.92" waitingTime="0.00" waitingCount="0" stopTime="0.00" timeLoss="27.56" rerouteNo="0" devices="tripinfo_33 emissions_33" vType="Static" speedFactor="1.29" vaporized="">
        <emissions CO_abs="54330.867219" CO2_abs="2964164.109623" HC_abs="323.000360" PMx_abs="72.936827" NOx_abs="1199.353137" fuel_abs="1274.158575" electricity_abs="0"/>
    </tripinfo>
    <tripinfo id="43" depart="191.00" departLane="27_0" departPos="4.70" departSpeed="0.00" departDelay="0.00" arrival="630.00" arrivalLane="-248846659#1_0" arrivalPos="144.53" arrivalSpeed="10.80" duration="439.00" routeLength="5825.85" waitingTime="5.00" waitingCount="1" stopTime="0.00" timeLoss="48.17" rerouteNo="0" devices="tripinfo_43 emissions_43" vType="Static" speedFactor="1.03" vaporized="">
        <emissions CO_abs="12941.396753" CO2_abs="1119604.560802" HC_abs="85.075617" PMx_abs="18.722053" NOx_abs="441.999317" fuel_abs="481.268951" electricity_abs="0"/>
    </tripinfo>
    <tripinfo id="70" depart="408.00" departLane="27_0" departPos="4.70" departSpeed="0.00" departDelay="0.00" arrival="639.00" arrivalLane="319615436_0" arrivalPos="125.64" arrivalSpeed="25.67" duration="231.00" routeLength="4465.65" waitingTime="0.00" waitingCount="0" stopTime="0.00" timeLoss="22.91" rerouteNo="0" devices="tripinfo_70 emissions_70" vType="Static" speedFactor="1.00" vaporized="">
        <emissions CO_abs="15433.718157" CO2_abs="1045485.208542" HC_abs="95.791483" PMx_abs="22.130624" NOx_abs="423.703948" fuel_abs="449.406042" electricity_abs="0"/>
    </tripinfo>
    <tripinfo id="87" depart="537.00" departLane="462392872_0" departPos="4.70" departSpeed="0.00" departDelay="0.00" arrival="664.00" arrivalLane="389783908_0" arrivalPos="273.35" arrivalSpeed="27.52" duration="127.00" routeLength="3556.62" waitingTime="0.00" waitingCount="0" stopTime="0.00" timeLoss="13.04" rerouteNo="0" devices="tripinfo_87 emissions_87" vType="Static" speedFactor="1.04" vaporized="">
        <emissions CO_abs="14076.640269" CO2_abs="816163.119250" HC_abs="84.710797" PMx_abs="19.331886" NOx_abs="331.116145" fuel_abs="350.830989" electricity_abs="0"/>
    </tripinfo>
    <tripinfo id="41" depart="179.00" departLane="24443879.82_0" departPos="4.70" departSpeed="0.00" departDelay="0.00" arrival="670.00" arrivalLane="319611370_1" arrivalPos="380.09" arrivalSpeed="28.77" duration="491.00" routeLength="11701.04" waitingTime="0.00" waitingCount="0" stopTime="0.00" timeLoss="29.16" rerouteNo="0" devices="tripinfo_41 emissions_41" vType="Static" speedFactor="0.86" vaporized="">
        <emissions CO_abs="30564.525120" CO2_abs="2108957.749002" HC_abs="191.700270" PMx_abs="46.017732" NOx_abs="837.588767" fuel_abs="906.544205" electricity_abs="0"/>
    </tripinfo>
    <tripinfo id="55" depart="289.00" departLane="319611362_0" departPos="4.70" departSpeed="0.00" departDelay="0.00" arrival="671.00" arrivalLane="319615436_1" arrivalPos="125.64" arrivalSpeed="30.09" duration="382.00" routeLength="11178.29" waitingTime="0.00" waitingCount="0" stopTime="0.00" timeLoss="19.87" rerouteNo="0" devices="tripinfo_55 emissions_55" vType="Static" speedFactor="0.94" vaporized="">
        <emissions CO_abs="37510.582346" CO2_abs="2214057.100082" HC_abs="226.951055" PMx_abs="52.742704" NOx_abs="890.222282" fuel_abs="951.721322" electricity_abs="0"/>
    </tripinfo>
    <tripinfo id="40" depart="179.00" departLane="516175821_0" departPos="4.70" departSpeed="0.00" departDelay="0.00" arrival="672.00" arrivalLane="188949094#0_0" arrivalPos="39.47" arrivalSpeed="16.85" duration="493.00" routeLength="14069.15" waitingTime="0.00" waitingCount="0" stopTime="0.00" timeLoss="30.14" rerouteNo="0" devices="tripinfo_40 emissions_40" vType="Static" speedFactor="1.01" vaporized="">
        <emissions CO_abs="49886.061348" CO2_abs="2842997.818133" HC_abs="299.210726" PMx_abs="68.170905" NOx_abs="1150.940139" fuel_abs="1222.074286" electricity_abs="0"/>
    </tripinfo>