<?xml version="1.0" encoding="UTF-8"?>

<!-- generated on sex 02 out 2020 17:15:59 WEST by Eclipse SUMO GUI Version 1.1.0
<configuration xmlns:xsi="http://www.w3.org/2001/XMLSchema-instance" xsi:noNamespaceSchemaLocation="http://sumo.dlr.de/xsd/sumoConfiguration.xsd">

    <input>
        <net-file value="../dataSets/Angeja_Estarreja/angeja_estarreja.net.xml"/>
        <route-files value="../dataSets/Angeja_Estarreja/angeja_estarreja.rou.xml"/>
        <additional-files value="moreOutputInfo.xml"/>
    </input>

    <output>
        <emission-output.precision value="6"/>
        <tripinfo-output value="../results/angeja_estarreja/inputdata/angeja_estarreja-tripinfo"/>
    </output>

    <processing>
        <collision.action value="warn"/>
        <time-to-teleport value="-1"/>
    </processing>

    <emissions>
        <device.emissions.probability value="1"/>
    </emissions>

    <gui_only>
        <gui-settings-file value="gui-settings.xml"/>
        <quit-on-end value="true"/>
        <game value="true"/>
        <start value="true"/>
    </gui_only>

</configuration>
-->

<tripinfos xmlns:xsi="http://www.w3.org/2001/XMLSchema-instance" xsi:noNamespaceSchemaLocation="http://sumo.dlr.de/xsd/tripinfo_file.xsd">
    <tripinfo id="21" depart="88.00" departLane="1_0" departPos="4.70" departSpeed="0.00" departDelay="0.00" arrival="148.00" arrivalLane="77477309_0" arrivalPos="222.43" arrivalSpeed="16.10" duration="60.00" routeLength="719.10" waitingTime="0.00" waitingCount="0" stopTime="0.00" timeLoss="8.01" rerouteNo="0" devices="tripinfo_21 emissions_21" vType="Static" speedFactor="0.97" vaporized="">
        <emissions CO_abs="2310.743267" CO2_abs="182088.158435" HC_abs="14.758555" PMx_abs="2.994942" NOx_abs="72.178330" fuel_abs="78.271912" electricity_abs="0"/>
    </tripinfo>
    <tripinfo id="23" depart="94.00" departLane="100_0" departPos="4.70" departSpeed="0.00" departDelay="0.00" arrival="161.00" arrivalLane="2_0" arrivalPos="142.18" arrivalSpeed="9.86" duration="67.00" routeLength="613.48" waitingTime="0.00" waitingCount="0" stopTime="0.00" timeLoss="9.61" rerouteNo="0" devices="tripinfo_23 emissions_23" vType="Static" speedFactor="0.73" vaporized="">
        <emissions CO_abs="2528.717306" CO2_abs="145332.643658" HC_abs="14.865499" PMx_abs="2.302632" NOx_abs="58.144472" fuel_abs="62.472898" electricity_abs="0"/>
    </tripinfo>
    <tripinfo id="6" depart="41.00" departLane="389783911.154_0" departPos="4.70" departSpeed="0.00" departDelay="0.00" arrival="174.00" arrivalLane="462392869_1" arrivalPos="125.48" arrivalSpeed="31.65" duration="133.00" routeLength="3746.68" waitingTime="0.00" waitingCount="0" stopTime="0.00" timeLoss="13.84" rerouteNo="0" devices="tripinfo_6 emissions_6" vType="Static" speedFactor="1.04" vaporized="">
        <emissions CO_abs="15540.078986" CO2_abs="877474.400333" HC_abs="92.933359" PMx_abs="20.971709" NOx_abs="358.091726" fuel_abs="377.185857" electricity_abs="0"/>
    </tripinfo>
    <tripinfo id="11" depart="55.00" departLane="462392872_0" departPos="4.70" departSpeed="0.00" departDelay="0.00" arrival="184.00" arrivalLane="389783908_0" arrivalPos="273.35" arrivalSpeed="26.46" duration="129.00" routeLength="3556.62" waitingTime="0.00" waitingCount="0" stopTime="0.00" timeLoss="13.28" rerouteNo="0" devices="tripinfo_11 emissions_11" vType="Static" speedFactor="1.00" vaporized="">
        <emissions CO_abs="13040.471837" CO2_abs="760391.407510" HC_abs="78.527465" PMx_abs="17.935075" NOx_abs="310.927744" fuel_abs="326.857042" electricity_abs="0"/>
    </tripinfo>
    <tripinfo id="7" depart="45.00" departLane="389783911.154_0" departPos="4.70" departSpeed="0.00" departDelay="3.00" arrival="225.00" arrivalLane="462392869_1" arrivalPos="125.48" arrivalSpeed="23.23" duration="180.00" routeLength="3746.68" waitingTime="0.00" waitingCount="0" stopTime="0.00" timeLoss="12.18" rerouteNo="0" devices="tripinfo_7 emissions_7" vType="Static" speedFactor="0.72" vaporized="">
        <emissions CO_abs="8737.585917" CO2_abs="772971.888473" HC_abs="58.577378" PMx_abs="15.292314" NOx_abs="305.718724" fuel_abs="332.264511" electricity_abs="0"/>
    </tripinfo>
    <tripinfo id="31" depart="147.00" departLane="1_0" departPos="4.70" departSpeed="0.00" departDelay="0.00" arrival="241.00" arrivalLane="245327988#1_0" arrivalPos="180.33" arrivalSpeed="25.32" duration="94.00" routeLength="1550.98" waitingTime="0.00" waitingCount="0" stopTime="0.00" timeLoss="25.83" rerouteNo="0" devices="tripinfo_31 emissions_31" vType="Static" speedFactor="1.26" vaporized="">
        <emissions CO_abs="7653.526325" CO2_abs="530677.346432" HC_abs="47.698501" PMx_abs="10.956764" NOx_abs="221.238658" fuel_abs="228.113253" electricity_abs="0"/>
    </tripinfo>
    <tripinfo id="12" depart="58.00" departLane="462392872_0" departPos="4.70" departSpeed="0.00" departDelay="0.00" arrival="274.00" arrivalLane="319615436_0" arrivalPos="125.64" arrivalSpeed="24.57" duration="216.00" routeLength="4774.04" waitingTime="0.00" waitingCount="0" stopTime="0.00" timeLoss="22.41" rerouteNo="0" devices="tripinfo_12 emissions_12" vType="Static" speedFactor="1.04" vaporized="">
        <emissions CO_abs="15795.516264" CO2_abs="1040636.931100" HC_abs="97.641985" PMx_abs="22.765060" NOx_abs="421.893008" fuel_abs="447.321739" electricity_abs="0"/>
    </tripinfo>
    <tripinfo id="26" depart="125.00" departLane="462392872_0" departPos="4.70" departSpeed="0.00" departDelay="0.00" arrival="286.00" arrivalLane="389783908_0" arrivalPos="273.35" arrivalSpeed="20.48" duration="161.00" routeLength="3556.62" waitingTime="0.00" waitingCount="0" stopTime="0.00" timeLoss="13.84" rerouteNo="0" devices="tripinfo_26 emissions_26" vType="Static" speedFactor="0.78" vaporized="">
        <emissions CO_abs="9007.407729" CO2_abs="706253.691365" HC_abs="58.379647" PMx_abs="14.646831" NOx_abs="282.774499" fuel_abs="303.585431" electricity_abs="0"/>
    </tripinfo>
    <tripinfo id="34" depart="151.00" departLane="462392872_0" departPos="4.70" departSpeed="0.00" departDelay="0.00" arrival="288.00" arrivalLane="389783908_0" arrivalPos="273.35" arrivalSpeed="24.55" duration="137.00" routeLength="3556.62" waitingTime="0.00" waitingCount="0" stopTime="0.00" timeLoss="13.64" rerouteNo="0" devices="tripinfo_34 emissions_34" vType="Static" speedFactor="0.94" vaporized="">
        <emissions CO_abs="12450.798014" CO2_abs="789610.284727" HC_abs="76.464386" PMx_abs="18.046247" NOx_abs="321.498671" fuel_abs="339.416588" electricity_abs="0"/>
    </tripinfo>
    <tripinfo id="54" depart="264.00" departLane="24443879.82_0" departPos="4.70" departSpeed="0.00" departDelay="0.00" arrival="342.00" arrivalLane="319615436_0" arrivalPos="125.64" arrivalSpeed="22.99" duration="78.00" routeLength="1041.64" waitingTime="0.00" waitingCount="0" stopTime="0.00" timeLoss="12.65" rerouteNo="0" devices="tripinfo_54 emissions_54" vType="Static" speedFactor="0.96" vaporized="">
        <emissions CO_abs="3697.318684" CO2_abs="275329.016513" HC_abs="23.406676" PMx_abs="5.151810" NOx_abs="112.818862" fuel_abs="118.351436" electricity_abs="0"/>
    </tripinfo>
    <tripinfo id="28" depart="136.00" departLane="319615443_0" departPos="4.70" departSpeed="0.00" departDelay="0.00" arrival="356.00" arrivalLane="462392869_2" arrivalPos="125.48" arrivalSpeed="32.87" duration="220.00" routeLength="5127.28" waitingTime="1.00" waitingCount="1" stopTime="0.00" timeLoss="32.67" rerouteNo="0" devices="tripinfo_28 emissions_28" vType="Static" speedFactor="1.21" vaporized="">
        <emissions CO_abs="21127.848369" CO2_abs="1278543.224341" HC_abs="128.036686" PMx_abs="29.209737" NOx_abs="523.932497" fuel_abs="549.586496" electricity_abs="0"/>
    </tripinfo>
    <tripinfo id="18" depart="77.00" departLane="319615443_0" departPos="4.70" departSpeed="0.00" departDelay="0.00" arrival="368.00" arrivalLane="462392869_1" arrivalPos="125.48" arrivalSpeed="25.86" duration="291.00" routeLength="5127.28" waitingTime="1.00" waitingCount="1" stopTime="0.00" timeLoss="36.07" rerouteNo="0" devices="tripinfo_18 emissions_18" vType="Static" speedFactor="0.82" vaporized="">
        <emissions CO_abs="14834.026640" CO2_abs="1100576.405870" HC_abs="94.339148" PMx_abs="21.937297" NOx_abs="440.872211" fuel_abs="473.087746" electricity_abs="0"/>
    </tripinfo>
    <tripinfo id="48" depart="226.00" departLane="389783911.154_0" departPos="4.70" departSpeed="0.00" departDelay="0.00" arrival="411.00" arrivalLane="462392869_1" arrivalPos="125.48" arrivalSpeed="23.28" duration="185.00" routeLength="3746.68" waitingTime="0.00" waitingCount="0" stopTime="0.00" timeLoss="12.82" rerouteNo="0" devices="tripinfo_48 emissions_48" vType="Static" speedFactor="0.70" vaporized="">
        <emissions CO_abs="8360.662766" CO2_abs="745143.411877" HC_abs="56.157952" PMx_abs="14.614475" NOx_abs="295.006938" fuel_abs="320.302376" electricity_abs="0"/>
    </tripinfo>
    <tripinfo id="50" depart="239.00" departLane="27_0" departPos="4.70" departSpeed="0.00" departDelay="0.00" arrival="444.00" arrivalLane="389783908_0" arrivalPos="273.35" arrivalSpeed="16.68" duration="205.00" routeLength="3248.23" waitingTime="0.00" waitingCount="0" stopTime="0.00" timeLoss="18.09" rerouteNo="0" devices="tripinfo_50 emissions_50" vType="Static" speedFactor="0.66" vaporized="">
        <emissions CO_abs="7763.861847" CO2_abs="610665.199452" HC_abs="49.944694" PMx_abs="11.379235" NOx_abs="243.667092" fuel_abs="262.497562" electricity_abs="0"/>
    </tripinfo>
    <tripinfo id="58" depart="321.00" departLane="389783911.154_0" departPos="4.70" departSpeed="0.00" departDelay="0.00" arrival="454.00" arrivalLane="462392869_1" arrivalPos="125.48" arrivalSpeed="32.88" duration="133.00" routeLength="3746.68" waitingTime="0.00" waitingCount="0" stopTime="0.00" timeLoss="11.64" rerouteNo="0" devices="tripinfo_58 emissions_58" vType="Static" speedFactor="1.00" vaporized="">
        <emissions CO_abs="14902.940742" CO2_abs="862926.084731" HC_abs="89.639551" PMx_abs="20.525011" NOx_abs="352.674053" fuel_abs="370.931912" electricity_abs="0"/>
    </tripinfo>
    <tripinfo id="8" depart="45.00" departLane="319615443_0" departPos="4.70" departSpeed="0.00" departDelay="0.00" arrival="474.00" arrivalLane="319611370_1" arrivalPos="380.09" arrivalSpeed="27.48" duration="429.00" routeLength="11083.63" waitingTime="0.00" waitingCount="0" stopTime="0.00" timeLoss="21.44" rerouteNo="0" devices="tripinfo_8 emissions_8" vType="Static" speedFactor="0.83" vaporized="">
        <emissions CO_abs="29015.261072" CO2_abs="2076186.205340" HC_abs="184.033445" PMx_abs="45.846704" NOx_abs="826.641370" fuel_abs="892.455630" electricity_abs="0"/>
    </tripinfo>
    <tripinfo id="0" depart="1.00" departLane="516175821_0" departPos="4.70" departSpeed="0.00" departDelay="0.00" arrival="492.00" arrivalLane="389783908_0" arrivalPos="273.35" arrivalSpeed="28.54" duration="491.00" routeLength="14622.05" waitingTime="0.00" waitingCount="0" stopTime="0.00" timeLoss="25.60" rerouteNo="0" devices="tripinfo_0 emissions_0" vType="Static" speedFactor="1.07" vaporized="">
        <emissions CO_abs="52137.958826" CO2_abs="2913150.146928" HC_abs="311.337867" PMx_abs="70.821941" NOx_abs="1185.726804" fuel_abs="1252.228922" electricity_abs="0"/>
    </tripinfo>
    <tripinfo id="73" depart="435.00" departLane="1_0" departPos="4.70" departSpeed="0.00" departDelay="0.00" arrival="492.00" arrivalLane="77477309_0" arrivalPos="222.43" arrivalSpeed="16.35" duration="57.00" routeLength="719.10" waitingTime="0.00" waitingCount="0" stopTime="0.00" timeLoss="9.46" rerouteNo="0" devices="tripinfo_73 emissions_73" vType="Static" speedFactor="1.06" vaporized="">
        <emissions CO_abs="2745.698311" CO2_abs="199754.024698" HC_abs="17.170286" PMx_abs="3.596233" NOx_abs="81.121719" fuel_abs="85.865419" electricity_abs="0"/>
    </tripinfo>
    <tripinfo id="19" depart="80.00" departLane="248846659#1.206_0" departPos="4.70" departSpeed="0.00" departDelay="0.00" arrival="494.00" arrivalLane="77477309_0" arrivalPos="222.43" arrivalSpeed="19.88" duration="414.00" routeLength="6518.84" waitingTime="3.00" waitingCount="1" stopTime="0.00" timeLoss="55.00" rerouteNo="0" devices="tripinfo_19 emissions_19" vType="Static" speedFactor="1.27" vaporized="">
        <emissions CO_abs="15217.494036" CO2_abs="1369432.521948" HC_abs="101.542113" PMx_abs="24.692520" NOx_abs="542.658586" fuel_abs="588.656733" electricity_abs="0"/>
    </tripinfo>
    <tripinfo id="2" depart="22.00" departLane="516175821_0" departPos="4.70" departSpeed="0.00" departDelay="0.00" arrival="499.00" arrivalLane="462392869_1" arrivalPos="125.48" arrivalSpeed="31.18" duration="477.00" routeLength="13909.19" waitingTime="0.00" waitingCount="0" stopTime="0.00" timeLoss="24.60" rerouteNo="0" devices="tripinfo_2 emissions_2" vType="Static" speedFactor="0.97" vaporized="">
        <emissions CO_abs="48545.664940" CO2_abs="2845087.503350" HC_abs="293.055823" PMx_abs="67.992996" NOx_abs="1155.873483" fuel_abs="1222.971133" electricity_abs="0"/>
    </tripinfo>
    <tripinfo id="13" depart="59.00" departLane="516175821_0" departPos="4.70" departSpeed="0.00" departDelay="0.00" arrival="504.00" arrivalLane="462392869_1" arrivalPos="125.48" arrivalSpeed="31.78" duration="445.00" routeLength="13909.19" waitingTime="0.00" waitingCount="0" stopTime="0.00" timeLoss="22.16" rerouteNo="0" devices="tripinfo_13 emissions_13" vType="Static" speedFactor="1.20" vaporized="">
        <emissions CO_abs="49124.052003" CO2_abs="2651228.803150" HC_abs="291.364270" PMx_abs="65.518892" NOx_abs="1073.452796" fuel_abs="1139.642136" electricity_abs="0"/>
    </tripinfo>
    <tripinfo id="17" depart="72.00" departLane="319611362_0" departPos="4.70" departSpeed="0.00" departDelay="0.00" arrival="505.00" arrivalLane="319615436_1" arrivalPos="125.64" arrivalSpeed="26.36" duration="433.00" routeLength="11178.29" waitingTime="0.00" waitingCount="0" stopTime="0.00" timeLoss="23.88" rerouteNo="0" devices="tripinfo_17 emissions_17" vType="Static" speedFactor="0.83" vaporized="">
        <emissions CO_abs="27420.695833" CO2_abs="1959097.920861" HC_abs="173.847981" PMx_abs="43.115550" NOx_abs="776.936620" fuel_abs="842.125319" electricity_abs="0"/>
    </tripinfo>
    <tripinfo id="35" depart="152.00" departLane="319615443_0" departPos="4.70" departSpeed="0.00" departDelay="0.00" arrival="512.00" arrivalLane="319611370_1" arrivalPos="380.09" arrivalSpeed="31.81" duration="360.00" routeLength="11083.63" waitingTime="0.00" waitingCount="0" stopTime="0.00" timeLoss="19.39" rerouteNo="0" devices="tripinfo_35 emissions_35" vType="Static" speedFactor="0.99" vaporized="">
        <emissions CO_abs="39889.154564" CO2_abs="2180043.572344" HC_abs="237.222550" PMx_abs="53.565758" NOx_abs="881.904169" fuel_abs="937.101045" electricity_abs="0"/>
    </tripinfo>
    <tripinfo id="14" depart="62.00" departLane="319611362_0" departPos="4.70" departSpeed="0.00" departDelay="0.00" arrival="523.00" arrivalLane="95223234_0" arrivalPos="261.08" arrivalSpeed="12.61" duration="461.00" routeLength="11796.73" waitingTime="0.00" waitingCount="0" stopTime="0.00" timeLoss="30.39" rerouteNo="0" devices="tripinfo_14 emissions_14" vType="Static" speedFactor="0.93" vaporized="">
        <emissions CO_abs="35594.925686" CO2_abs="2240030.100622" HC_abs="218.399030" PMx_abs="50.950751" NOx_abs="888.864981" fuel_abs="962.887188" electricity_abs="0"/>
    </tripinfo>
    <tripinfo id="42" depart="183.00" departLane="319615443_0" departPos="4.70" departSpeed="0.00" departDelay="0.00" arrival="536.00" arrivalLane="319611370_1" arrivalPos="380.09" arrivalSpeed="31.99" duration="353.00" routeLength="11083.63" waitingTime="0.00" waitingCount="0" stopTime="0.00" timeLoss="19.31" rerouteNo="0" devices="tripinfo_42 emissions_42" vType="Static" speedFactor="1.13" vaporized="">
        <emissions CO_abs="41918.041040" CO2_abs="2228197.398929" HC_abs="247.782110" PMx_abs="55.325626" NOx_abs="903.982468" fuel_abs="957.800392" electricity_abs="0"/>
    </tripinfo>
    <tripinfo id="20" depart="86.00" departLane="248846659#1.206_0" departPos="4.70" departSpeed="0.00" departDelay="0.00" arrival="543.00" arrivalLane="188949094#1_0" arrivalPos="37.15" arrivalSpeed="14.64" duration="457.00" routeLength="5895.39" waitingTime="19.00" waitingCount="1" stopTime="0.00" timeLoss="63.33" rerouteNo="0" devices="tripinfo_20 emissions_20" vType="Static" speedFactor="0.99" vaporized="">
        <emissions CO_abs="15112.784652" CO2_abs="1164104.498102" HC_abs="95.947056" PMx_abs="19.766211" NOx_abs="461.712889" fuel_abs="500.398451" electricity_abs="0"/>
    </tripinfo>
    <tripinfo id="30" depart="141.00" departLane="248846659#1.206_0" departPos="4.70" departSpeed="0.00" departDelay="0.00" arrival="545.00" arrivalLane="77477309_0" arrivalPos="222.43" arrivalSpeed="21.23" duration="404.00" routeLength="6518.84" waitingTime="1.00" waitingCount="1" stopTime="0.00" timeLoss="55.66" rerouteNo="0" devices="tripinfo_30 emissions_30" vType="Static" speedFactor="1.31" vaporized="">
        <emissions CO_abs="16835.077036" CO2_abs="1444916.438253" HC_abs="111.056690" PMx_abs="26.858236" NOx_abs="578.228043" fuel_abs="621.103270" electricity_abs="0"/>
    </tripinfo>
    <tripinfo id="38" depart="170.00" departLane="248846659#1.206_0" departPos="4.70" departSpeed="0.00" departDelay="0.00" arrival="546.00" arrivalLane="188949094#1_0" arrivalPos="37.15" arrivalSpeed="14.40" duration="376.00" routeLength="5895.39" waitingTime="0.00" waitingCount="0" stopTime="0.00" timeLoss="39.83" rerouteNo="0" devices="tripinfo_38 emissions_38" vType="Static" speedFactor="1.15" vaporized="">
        <emissions CO_abs="11627.449954" CO2_abs="1127319.760647" HC_abs="79.432880" PMx_abs="19.667411" NOx_abs="442.394246" fuel_abs="484.583725" electricity_abs="0"/>
    </tripinfo>
    <tripinfo id="45" depart="215.00" departLane="319615443_0" departPos="4.70" departSpeed="0.00" departDelay="0.00" arrival="567.00" arrivalLane="319611370_1" arrivalPos="380.09" arrivalSpeed="33.03" duration="352.00" routeLength="11083.63" waitingTime="0.00" waitingCount="0" stopTime="0.00" timeLoss="18.28" rerouteNo="0" devices="tripinfo_45 emissions_45" vType="Static" speedFactor="1.13" vaporized="">
        <emissions CO_abs="42858.017479" CO2_abs="2283479.767495" HC_abs="253.435896" PMx_abs="56.742120" NOx_abs="929.992363" fuel_abs="981.563263" electricity_abs="0"/>
    </tripinfo>
    <tripinfo id="22" depart="92.00" departLane="27_0" departPos="4.70" departSpeed="0.00" departDelay="0.00" arrival="578.00" arrivalLane="-248846659#1_0" arrivalPos="144.53" arrivalSpeed="9.24" duration="486.00" routeLength="5825.85" waitingTime="0.00" waitingCount="0" stopTime="0.00" timeLoss="41.19" rerouteNo="0" devices="tripinfo_22 emissions_22" vType="Static" speedFactor="0.90" vaporized="">
        <emissions CO_abs="12198.920918" CO2_abs="1099376.946259" HC_abs="81.078698" PMx_abs="16.933384" NOx_abs="428.178877" fuel_abs="472.575431" electricity_abs="0"/>
    </tripinfo>
    <tripinfo id="3" depart="29.00" departLane="462392872_0" departPos="4.70" departSpeed="0.00" departDelay="0.00" arrival="579.00" arrivalLane="319611370_1" arrivalPos="380.09" arrivalSpeed="32.60" duration="550.00" routeLength="15433.44" waitingTime="0.00" waitingCount="0" stopTime="0.00" timeLoss="31.58" rerouteNo="0" devices="tripinfo_3 emissions_3" vType="Static" speedFactor="1.12" vaporized="">
        <emissions CO_abs="56615.067549" CO2_abs="3229101.959658" HC_abs="339.313169" PMx_abs="77.219096" NOx_abs="1307.121691" fuel_abs="1388.042840" electricity_abs="0"/>
    </tripinfo>
    <tripinfo id="37" depart="165.00" departLane="248846659#1.206_0" departPos="4.70" departSpeed="0.00" departDelay="0.00" arrival="580.00" arrivalLane="77477309_0" arrivalPos="222.43" arrivalSpeed="21.64" duration="415.00" routeLength="6518.84" waitingTime="15.00" waitingCount="1" stopTime="0.00" timeLoss="66.76" rerouteNo="0" devices="tripinfo_37 emissions_37" vType="Static" speedFactor="1.31" vaporized="">
        <emissions CO_abs="18277.775277" CO2_abs="1462939.217870" HC_abs="117.920402" PMx_abs="27.179771" NOx_abs="584.584721" fuel_abs="628.851572" electricity_abs="0"/>
    </tripinfo>
    <tripinfo id="72" depart="423.00" departLane="27_0" departPos="4.70" departSpeed="0.00" departDelay="0.00" arrival="586.00" arrivalLane="389783908_0" arrivalPos="273.35" arrivalSpeed="22.42" duration="163.00" routeLength="3248.23" waitingTime="0.00" waitingCount="0" stopTime="0.00" timeLoss="13.83" rerouteNo="0" devices="tripinfo_72 emissions_72" vType="Static" speedFactor="0.83" vaporized="">
        <emissions CO_abs="9446.197462" CO2_abs="684262.929969" HC_abs="59.818249" PMx_abs="14.190068" NOx_abs="275.117782" fuel_abs="294.133132" electricity_abs="0"/>
    </tripinfo>
    <tripinfo id="9" depart="52.00" departLane="319611362_0" departPos="4.70" departSpeed="0.00" departDelay="0.00" arrival="593.00" arrivalLane="319615436_1" arrivalPos="125.64" arrivalSpeed="20.79" duration="541.00" routeLength="11178.29" waitingTime="0.00" waitingCount="0" stopTime="0.00" timeLoss="27.66" rerouteNo="0" devices="tripinfo_9 emissions_9" vType="Static" speedFactor="0.66" vaporized="">
        <emissions CO_abs="19213.541008" CO2_abs="1962331.954902" HC_abs="134.875476" PMx_abs="37.208817" NOx_abs="762.195168" fuel_abs="843.515113" electricity_abs="0"/>
    </tripinfo>
    <tripinfo id="75" depart="450.00" departLane="389783911.154_0" departPos="4.70" departSpeed="0.00" departDelay="0.00" arrival="596.00" arrivalLane="462392869_2" arrivalPos="125.48" arrivalSpeed="30.42" duration="146.00" routeLength="3746.68" waitingTime="0.00" waitingCount="0" stopTime="0.00" timeLoss="14.60" rerouteNo="0" devices="tripinfo_75 emissions_75" vType="Static" speedFactor="0.92" vaporized="">
        <emissions CO_abs="14188.461806" CO2_abs="888423.717669" HC_abs="86.814346" PMx_abs="20.401813" NOx_abs="365.499703" fuel_abs="381.891546" electricity_abs="0"/>
    </tripinfo>
    <tripinfo id="49" depart="237.00" departLane="319615443_0" departPos="4.70" departSpeed="0.00" departDelay="0.00" arrival="596.00" arrivalLane="462392869_1" arrivalPos="125.48" arrivalSpeed="21.17" duration="359.00" routeLength="5127.28" waitingTime="1.00" waitingCount="1" stopTime="0.00" timeLoss="37.62" rerouteNo="0" devices="tripinfo_49 emissions_49" vType="Static" speedFactor="0.65" vaporized="">
        <emissions CO_abs="12455.047110" CO2_abs="1011588.388110" HC_abs="80.634271" PMx_abs="17.929742" NOx_abs="399.314035" fuel_abs="434.837325" electricity_abs="0"/>
    </tripinfo>
    <tripinfo id="51" depart="249.00" departLane="319615443_0" departPos="4.70" departSpeed="0.00" departDelay="0.00" arrival="601.00" arrivalLane="319611370_1" arrivalPos="380.09" arrivalSpeed="32.87" duration="352.00" routeLength="11083.63" waitingTime="0.00" waitingCount="0" stopTime="0.00" timeLoss="18.72" rerouteNo="0" devices="tripinfo_51 emissions_51" vType="Static" speedFactor="1.29" vaporized="">
        <emissions CO_abs="42183.914617" CO2_abs="2244653.235452" HC_abs="249.410398" PMx_abs="55.776033" NOx_abs="911.726695" fuel_abs="964.873821" electricity_abs="0"/>
    </tripinfo>
    <tripinfo id="86" depart="535.00" departLane="27_0" departPos="4.70" departSpeed="0.00" departDelay="0.00" arrival="614.00" arrivalLane="462392869_0" arrivalPos="125.48" arrivalSpeed="27.51" duration="79.00" routeLength="996.17" waitingTime="0.00" waitingCount="0" stopTime="0.00" timeLoss="15.77" rerouteNo="0" devices="tripinfo_86 emissions_86" vType="Static" speedFactor="0.95" vaporized="">
        <emissions CO_abs="5007.566914" CO2_abs="327386.412960" HC_abs="30.575988" PMx_abs="6.413823" NOx_abs="136.295263" fuel_abs="140.728586" electricity_abs="0"/>
    </tripinfo>
    <tripinfo id="1" depart="16.00" departLane="462392872_0" departPos="4.70" departSpeed="0.00" departDelay="0.00" arrival="617.00" arrivalLane="245327988#1_0" arrivalPos="180.33" arrivalSpeed="27.37" duration="601.00" routeLength="14544.92" waitingTime="0.00" waitingCount="0" stopTime="0.00" timeLoss="31.92" rerouteNo="0" devices="tripinfo_1 emissions_1" vType="Static" speedFactor="0.83" vaporized="">
        <emissions CO_abs="35853.681559" CO2_abs="2720462.530419" HC_abs="230.844501" PMx_abs="58.173732" NOx_abs="1078.291368" fuel_abs="1169.400251" electricity_abs="0"/>
    </tripinfo>
    <tripinfo id="5" depart="31.00" departLane="319611362_0" departPos="4.70" departSpeed="0.00" departDelay="0.00" arrival="618.00" arrivalLane="319615436_1" arrivalPos="125.64" arrivalSpeed="19.87" duration="587.00" routeLength="11178.29" waitingTime="0.00" waitingCount="0" stopTime="0.00" timeLoss="30.04" rerouteNo="0" devices="tripinfo_5 emissions_5" vType="Static" speedFactor="0.61" vaporized="">
        <emissions CO_abs="16754.040415" CO2_abs="1896412.431764" HC_abs="121.281295" PMx_abs="34.045059" NOx_abs="731.691929" fuel_abs="815.179903" electricity_abs="0"/>
    </tripinfo>
    <tripinfo id="43" depart="191.00" departLane="27_0" departPos="4.70" departSpeed="0.00" departDelay="0.00" arrival="618.00" arrivalLane="-248846659#1_0" arrivalPos="144.53" arrivalSpeed="10.41" duration="427.00" routeLength="5825.85" waitingTime="0.00" waitingCount="0" stopTime="0.00" timeLoss="36.51" rerouteNo="0" devices="tripinfo_43 emissions_43" vType="Static" speedFactor="1.03" vaporized="">
        <emissions CO_abs="10382.219272" CO2_abs="1055512.372115" HC_abs="71.705376" PMx_abs="16.683730" NOx_abs="409.076871" fuel_abs="453.718570" electricity_abs="0"/>
    </tripinfo>
    <tripinfo id="53" depart="261.00" departLane="319611362_0" departPos="4.70" departSpeed="0.00" departDelay="0.00" arrival="619.00" arrivalLane="319615436_2" arrivalPos="125.64" arrivalSpeed="32.00" duration="358.00" routeLength="11178.29" waitingTime="0.00" waitingCount="0" stopTime="0.00" timeLoss="20.46" rerouteNo="0" devices="tripinfo_53 emissions_53" vType="Static" speedFactor="1.14" vaporized="">
        <emissions CO_abs="41242.767489" CO2_abs="2207308.148532" HC_abs="244.133996" PMx_abs="54.648085" NOx_abs="895.654576" fuel_abs="948.820935" electricity_abs="0"/>
    </tripinfo>
    <tripinfo id="33" depart="147.00" departLane="462392872_0" departPos="4.70" departSpeed="0.00" departDelay="0.00" arrival="619.00" arrivalLane="245327988#1_0" arrivalPos="180.33" arrivalSpeed="32.72" duration="472.00" routeLength="14544.92" waitingTime="0.00" waitingCount="0" stopTime="0.00" timeLoss="27.95" rerouteNo="0" devices="tripinfo_33 emissions_33" vType="Static" speedFactor="1.29" vaporized="">
        <emissions CO_abs="51950.708859" CO2_abs="2835707.772646" HC_abs="308.918705" PMx_abs="69.754428" NOx_abs="1144.840855" fuel_abs="1218.941332" electricity_abs="0"/>
    </tripinfo>
    <tripinfo id="70" depart="408.00" departLane="27_0" departPos="4.70" departSpeed="0.00" departDelay="0.00" arrival="641.00" arrivalLane="319615436_0" arrivalPos="125.64" arrivalSpeed="24.92" duration="233.00" routeLength="4465.65" waitingTime="0.00" waitingCount="0" stopTime="0.00" timeLoss="25.18" rerouteNo="0" devices="tripinfo_70 emissions_70" vType="Static" speedFactor="1.00" vaporized="">
        <emissions CO_abs="15131.652441" CO2_abs="1017110.676665" HC_abs="93.787914" PMx_abs="21.624149" NOx_abs="411.794003" fuel_abs="437.209204" electricity_abs="0"/>
    </tripinfo>
    <tripinfo id="87" depart="537.00" departLane="462392872_0" departPos="4.70" departSpeed="0.00" departDelay="0.00" arrival="664.00" arrivalLane="389783908_0" arrivalPos="273.35" arrivalSpeed="28.09" duration="127.00" routeLength="3556.62" waitingTime="0.00" waitingCount="0" stopTime="0.00" timeLoss="12.79" rerouteNo="0" devices="tripinfo_87 emissions_87" vType="Static" speedFactor="1.04" vaporized="">
        <emissions CO_abs="13445.536031" CO2_abs="767362.499137" HC_abs="80.581256" PMx_abs="18.270205" NOx_abs="314.246554" fuel_abs="329.853641" electricity_abs="0"/>
    </tripinfo>
    <tripinfo id="41" depart="179.00" departLane="24443879.82_0" departPos="4.70" departSpeed="0.00" departDelay="0.00" arrival="668.00" arrivalLane="319611370_1" arrivalPos="380.09" arrivalSpeed="28.35" duration="489.00" routeLength="11701.04" waitingTime="0.00" waitingCount="0" stopTime="0.00" timeLoss="27.40" rerouteNo="0" devices="tripinfo_41 emissions_41" vType="Static" speedFactor="0.86" vaporized="">
        <emissions CO_abs="32155.201387" CO2_abs="2190472.050203" HC_abs="200.955425" PMx_abs="48.106661" NOx_abs="875.181676" fuel_abs="941.583002" electricity_abs="0"/>
    </tripinfo>
    <tripinfo id="40" depart="179.00" departLane="516175821_0" departPos="4.70" departSpeed="0.00" departDelay="0.00" arrival="671.00" arrivalLane="188949094#0_0" arrivalPos="39.47" arrivalSpeed="15.75" duration="492.00" routeLength="14069.56" waitingTime="0.00" waitingCount="0" stopTime="0.00" timeLoss="28.58" rerouteNo="0" devices="tripinfo_40 emissions_40" vType="Static" speedFactor="1.01" vaporized="">
        <emissions CO_abs="49857.155267" CO2_abs="2858075.049227" HC_abs="299.498675" PMx_abs="68.460889" NOx_abs="1153.783475" fuel_abs="1228.555446" electricity_abs="0"/>
    </tripinfo>
    <tripinfo id="55" depart="289.00" departLane="319611362_0" departPos="4.70" departSpeed="0.00" departDelay="0.00" arrival="674.00" arrivalLane="319615436_1" arrivalPos="125.64" arrivalSpeed="30.85" duration="385.00" routeLength="11178.29" waitingTime="0.00" waitingCount="0" stopTime="0.00" timeLoss="22.78" rerouteNo="0" devices="tripinfo_55 emissions_55" vType="Static" speedFactor="0.94" vaporized="">
        <emissions CO_abs="35964.651076" CO2_abs="2151608.209229" HC_abs="218.335584" PMx_abs="50.812076" NOx_abs="857.079772" fuel_abs="924.878214" electricity_abs="0"/>
    </tripinfo>