<?xml version="1.0" encoding="UTF-8"?>

<!-- generated on Wed Sep 30 01:48:21 2020 by Eclipse SUMO Version 1.1.0
<configuration xmlns:xsi="http://www.w3.org/2001/XMLSchema-instance" xsi:noNamespaceSchemaLocation="http://sumo.dlr.de/xsd/sumoConfiguration.xsd">

    <input>
        <net-file value="../dataSets/Angeja_Estarreja/angeja_estarreja.net.xml"/>
        <route-files value="../results/angeja_estarreja/inputdata/angeja_estarreja-base.rou.xml"/>
        <additional-files value="moreOutputInfo.xml"/>
    </input>

    <output>
        <emission-output.precision value="6"/>
        <tripinfo-output value="../results/angeja_estarreja/inputdata/angeja_estarreja-tripinfo"/>
    </output>

    <processing>
        <collision.action value="warn"/>
        <time-to-teleport value="-1"/>
    </processing>

    <emissions>
        <device.emissions.probability value="1"/>
    </emissions>

    <gui_only>
        <quit-on-end value="true"/>
        <start value="true"/>
    </gui_only>

</configuration>
-->

<meandata xmlns:xsi="http://www.w3.org/2001/XMLSchema-instance" xsi:noNamespaceSchemaLocation="http://sumo.dlr.de/xsd/meandata_file.xsd">
    <interval begin="0.00" end="19080.00" id="emissions-detector">
        <edge id=":10_0" sampledSeconds="401.16" CO_abs="40749.927361" CO2_abs="2240890.171341" HC_abs="238.787293" PMx_abs="44.290410" NOx_abs="958.452909" fuel_abs="963.259792" electricity_abs="0"
            CO_normed="439.603519" CO2_normed="24174.354848" HC_normed="2.575998" PMx_normed="0.477798" NOx_normed="10.339632" fuel_normed="10.391488" electricity_normed="0"
            traveltime="1.90" CO_perVeh="193.051765" CO2_perVeh="10616.161344" HC_perVeh="1.131249" PMx_perVeh="0.209825" NOx_perVeh="4.540647" fuel_perVeh="4.563419" electricity_perVeh="0"/>
        <edge id=":10_1" sampledSeconds="0.00" CO_abs="0" CO2_abs="0" HC_abs="0" PMx_abs="0" NOx_abs="0" fuel_abs="0" electricity_abs="0"
            CO_normed="0" CO2_normed="0" HC_normed="0" PMx_normed="0" NOx_normed="0" fuel_normed="0" electricity_normed="0"/>
        <edge id=":100_0" sampledSeconds="11.63" CO_abs="43.878323" CO2_abs="3585.973570" HC_abs="0.287899" PMx_abs="0.074741" NOx_abs="1.458417" fuel_abs="1.541438" electricity_abs="0"
            CO_normed="0.284206" CO2_normed="23.226872" HC_normed="0.001865" PMx_normed="0.000484" NOx_normed="0.009446" fuel_normed="0.009984" electricity_normed="0"
            traveltime="1.67" CO_perVeh="6.287759" CO2_perVeh="513.869589" HC_perVeh="0.041256" PMx_perVeh="0.010710" NOx_perVeh="0.208991" fuel_perVeh="0.220888" electricity_perVeh="0"/>
        <edge id=":100_1" sampledSeconds="911.25" CO_abs="22469.786213" CO2_abs="2830482.167990" HC_abs="171.067274" PMx_abs="51.207785" NOx_abs="1057.272679" fuel_abs="1216.694524" electricity_abs="0"
            CO_normed="143.422947" CO2_normed="18066.753696" HC_normed="1.091909" PMx_normed="0.326855" NOx_normed="6.748492" fuel_normed="7.766069" electricity_normed="0"
            traveltime="1.37" CO_perVeh="33.785319" CO2_perVeh="4255.881361" HC_perVeh="0.257215" PMx_perVeh="0.076995" NOx_perVeh="1.589703" fuel_perVeh="1.829408" electricity_perVeh="0"/>
        <edge id=":101_0" sampledSeconds="438.68" CO_abs="10656.626616" CO2_abs="1342237.343296" HC_abs="81.137144" PMx_abs="24.281575" NOx_abs="501.488786" fuel_abs="576.966293" electricity_abs="0"
            CO_normed="246.105785" CO2_normed="30997.837078" HC_normed="1.873794" PMx_normed="0.560762" NOx_normed="11.581460" fuel_normed="13.324549" electricity_normed="0"
            traveltime="0.38" CO_perVeh="9.205942" CO2_perVeh="1159.518759" HC_perVeh="0.070092" PMx_perVeh="0.020976" NOx_perVeh="0.433221" fuel_perVeh="0.498424" electricity_perVeh="0"/>
        <edge id=":102_0" sampledSeconds="344.63" CO_abs="8960.392967" CO2_abs="1078373.455869" HC_abs="67.040709" PMx_abs="19.769134" NOx_abs="405.897807" fuel_abs="463.543115" electricity_abs="0"
            CO_normed="208.721010" CO2_normed="25119.344418" HC_normed="1.561628" PMx_normed="0.460497" NOx_normed="9.454876" fuel_normed="10.797650" electricity_normed="0"
            traveltime="0.38" CO_perVeh="9.756255" CO2_perVeh="1174.154535" HC_perVeh="0.072995" PMx_perVeh="0.021525" NOx_perVeh="0.441950" fuel_perVeh="0.504715" electricity_perVeh="0"/>
        <edge id=":103_0" sampledSeconds="434.00" CO_abs="10970.583054" CO2_abs="1369577.376409" HC_abs="83.233515" PMx_abs="24.845026" NOx_abs="512.261843" fuel_abs="588.718484" electricity_abs="0"
            CO_normed="257.133085" CO2_normed="32100.723694" HC_normed="1.950862" PMx_normed="0.582328" NOx_normed="12.006606" fuel_normed="13.798628" electricity_normed="0"
            traveltime="0.37" CO_perVeh="9.425519" CO2_perVeh="1176.690237" HC_perVeh="0.071511" PMx_perVeh="0.021346" NOx_perVeh="0.440116" fuel_perVeh="0.505805" electricity_perVeh="0"/>
        <edge id=":104_0" sampledSeconds="344.51" CO_abs="8786.684009" CO2_abs="1063825.918870" HC_abs="65.900996" PMx_abs="19.470456" NOx_abs="400.008354" fuel_abs="457.289825" electricity_abs="0"
            CO_normed="204.927677" CO2_normed="24811.108960" HC_normed="1.536978" PMx_normed="0.454100" NOx_normed="9.329206" fuel_normed="10.665154" electricity_normed="0"
            traveltime="0.37" CO_perVeh="9.561611" CO2_perVeh="1157.648301" HC_perVeh="0.071713" PMx_perVeh="0.021188" NOx_perVeh="0.435286" fuel_perVeh="0.497620" electricity_perVeh="0"/>
        <edge id=":105_0" sampledSeconds="168.72" CO_abs="4008.068765" CO2_abs="490560.763801" HC_abs="30.189104" PMx_abs="8.950135" NOx_abs="184.141237" fuel_abs="210.869526" electricity_abs="0"
            CO_normed="3437.451771" CO2_normed="420721.066724" HC_normed="25.891170" PMx_normed="7.675931" NOx_normed="157.925589" fuel_normed="180.848650" electricity_normed="0"
            traveltime="0.01" CO_perVeh="0.242376" CO2_perVeh="29.665251" HC_perVeh="0.001826" PMx_perVeh="0.000541" NOx_perVeh="0.011135" fuel_perVeh="0.012752" electricity_perVeh="0"/>
        <edge id=":106_0" sampledSeconds="135.96" CO_abs="3377.006589" CO2_abs="424746.148562" HC_abs="25.705617" PMx_abs="7.688683" NOx_abs="158.728740" fuel_abs="182.578893" electricity_abs="0"
            CO_normed="2055.390498" CO2_normed="258518.654025" HC_normed="15.645537" PMx_normed="4.679661" NOx_normed="96.609093" fuel_normed="111.125315" electricity_normed="0"
            traveltime="0.01" CO_perVeh="0.357328" CO2_perVeh="44.943313" HC_perVeh="0.002720" PMx_perVeh="0.000814" NOx_perVeh="0.016795" fuel_perVeh="0.019319" electricity_perVeh="0"/>
        <edge id=":107_0" sampledSeconds="438.61" CO_abs="11097.133146" CO2_abs="1326609.148355" HC_abs="82.771177" PMx_abs="24.355930" NOx_abs="499.929562" fuel_abs="570.248177" electricity_abs="0"
            CO_normed="256.278911" CO2_normed="30636.917123" HC_normed="1.911530" PMx_normed="0.562480" NOx_normed="11.545451" fuel_normed="13.169400" electricity_normed="0"
            traveltime="0.38" CO_perVeh="9.586482" CO2_perVeh="1146.018034" HC_perVeh="0.071504" PMx_perVeh="0.021040" NOx_perVeh="0.431874" fuel_perVeh="0.492620" electricity_perVeh="0"/>
        <edge id=":108_0" sampledSeconds="101.31" CO_abs="8388.383642" CO2_abs="617604.154265" HC_abs="53.022805" PMx_abs="12.338135" NOx_abs="259.832346" fuel_abs="265.478670" electricity_abs="0"
            CO_normed="131.563915" CO2_normed="9686.540791" HC_normed="0.831613" PMx_normed="0.193512" NOx_normed="4.075226" fuel_normed="4.163783" electricity_normed="0"
            traveltime="0.85" CO_perVeh="70.645397" CO2_perVeh="5201.346560" HC_perVeh="0.446548" PMx_perVeh="0.103909" NOx_perVeh="2.188259" fuel_perVeh="2.235812" electricity_perVeh="0"/>
        <edge id=":108_1" sampledSeconds="402.37" CO_abs="10718.348948" CO2_abs="1299334.346478" HC_abs="80.405139" PMx_abs="23.766140" NOx_abs="488.500483" fuel_abs="558.524068" electricity_abs="0"
            CO_normed="156.769767" CO2_normed="19004.451462" HC_normed="1.176030" PMx_normed="0.347611" NOx_normed="7.144954" fuel_normed="8.169140" electricity_normed="0"
            traveltime="0.60" CO_perVeh="15.922373" CO2_perVeh="1930.193357" HC_perVeh="0.119444" PMx_perVeh="0.035305" NOx_perVeh="0.725680" fuel_perVeh="0.829701" electricity_perVeh="0"/>
        <edge id=":109_0" sampledSeconds="308.67" CO_abs="225.400176" CO2_abs="33211.839595" HC_abs="1.773775" PMx_abs="0.462706" NOx_abs="12.156007" fuel_abs="14.276354" electricity_abs="0"
            CO_normed="3.388712" CO2_normed="499.313532" HC_normed="0.026667" PMx_normed="0.006956" NOx_normed="0.182756" fuel_normed="0.214634" electricity_normed="0"
            traveltime="0.86" CO_perVeh="0.626486" CO2_perVeh="92.310275" HC_perVeh="0.004930" PMx_perVeh="0.001286" NOx_perVeh="0.033787" fuel_perVeh="0.039680" electricity_perVeh="0"/>
        <edge id=":109_1" sampledSeconds="523.62" CO_abs="12713.652659" CO2_abs="1595883.058660" HC_abs="96.632949" PMx_abs="28.904695" NOx_abs="596.215984" fuel_abs="685.996960" electricity_abs="0"
            CO_normed="124.677879" CO2_normed="15650.208475" HC_normed="0.947642" PMx_normed="0.283457" NOx_normed="5.846860" fuel_normed="6.727307" electricity_normed="0"
            traveltime="0.89" CO_perVeh="21.648323" CO2_perVeh="2717.408797" HC_perVeh="0.164543" PMx_perVeh="0.049218" NOx_perVeh="1.015214" fuel_perVeh="1.168089" electricity_perVeh="0"/>
        <edge id=":11_0" sampledSeconds="284.80" CO_abs="16860.697434" CO2_abs="1215767.893917" HC_abs="105.482260" PMx_abs="21.800708" NOx_abs="499.253635" fuel_abs="522.604540" electricity_abs="0"
            CO_normed="174.315817" CO2_normed="12569.324310" HC_normed="1.090538" PMx_normed="0.225389" NOx_normed="5.161578" fuel_normed="5.402993" electricity_normed="0"
            traveltime="1.59" CO_perVeh="94.215471" CO2_perVeh="6793.559113" HC_perVeh="0.589422" PMx_perVeh="0.121820" NOx_perVeh="2.789767" fuel_perVeh="2.920249" electricity_perVeh="0"/>
        <edge id=":11_1" sampledSeconds="50.97" CO_abs="1007.049111" CO2_abs="90246.169909" HC_abs="6.637190" PMx_abs="1.150715" NOx_abs="33.813495" fuel_abs="38.793343" electricity_abs="0"
            CO_normed="10.674678" CO2_normed="956.605575" HC_normed="0.070354" PMx_normed="0.012198" NOx_normed="0.358422" fuel_normed="0.411208" electricity_normed="0"
            traveltime="1.68" CO_perVeh="33.121719" CO2_perVeh="2968.185189" HC_perVeh="0.218296" PMx_perVeh="0.037847" NOx_perVeh="1.112122" fuel_perVeh="1.275908" electricity_perVeh="0"/>
        <edge id=":110_0" sampledSeconds="94.22" CO_abs="21.865038" CO2_abs="1958.371149" HC_abs="0.144797" PMx_abs="0.028655" NOx_abs="0.757332" fuel_abs="0.841823" electricity_abs="0"
            CO_normed="0.283538" CO2_normed="25.395463" HC_normed="0.001878" PMx_normed="0.000372" NOx_normed="0.009821" fuel_normed="0.010916" electricity_normed="0"
            traveltime="0.92" CO_perVeh="0.214075" CO2_perVeh="19.173878" HC_perVeh="0.001418" PMx_perVeh="0.000281" NOx_perVeh="0.007415" fuel_perVeh="0.008242" electricity_perVeh="0"/>
        <edge id=":110_1" sampledSeconds="443.73" CO_abs="11281.856643" CO2_abs="1363628.620237" HC_abs="84.483969" PMx_abs="24.958848" NOx_abs="512.761458" fuel_abs="586.161214" electricity_abs="0"
            CO_normed="144.806272" CO2_normed="17502.613531" HC_normed="1.084379" PMx_normed="0.320355" NOx_normed="6.581459" fuel_normed="7.523568" electricity_normed="0"
            traveltime="0.68" CO_perVeh="17.330638" CO2_perVeh="2094.739847" HC_perVeh="0.129780" PMx_perVeh="0.038341" NOx_perVeh="0.787679" fuel_perVeh="0.900432" electricity_perVeh="0"/>
        <edge id=":111_0" sampledSeconds="340.72" CO_abs="8464.909398" CO2_abs="1033728.777515" HC_abs="63.670265" PMx_abs="18.868941" NOx_abs="388.086028" fuel_abs="444.352487" electricity_abs="0"
            CO_normed="195.489929" CO2_normed="23873.092481" HC_normed="1.470411" PMx_normed="0.435762" NOx_normed="8.962519" fuel_normed="10.261945" electricity_normed="0"
            traveltime="0.38" CO_perVeh="9.407455" CO2_perVeh="1148.831772" HC_perVeh="0.070760" PMx_perVeh="0.020970" NOx_perVeh="0.431298" fuel_perVeh="0.493830" electricity_perVeh="0"/>
        <edge id=":114_0" sampledSeconds="107.30" CO_abs="10478.953621" CO2_abs="759591.702627" HC_abs="65.977994" PMx_abs="15.338864" NOx_abs="320.853477" fuel_abs="326.512233" electricity_abs="0"
            CO_normed="139.236694" CO2_normed="10092.900646" HC_normed="0.876667" PMx_normed="0.203812" NOx_normed="4.263267" fuel_normed="4.338456" electricity_normed="0"
            traveltime="0.99" CO_perVeh="96.942012" CO2_perVeh="7027.070704" HC_perVeh="0.610370" PMx_perVeh="0.141902" NOx_perVeh="2.968253" fuel_perVeh="3.020602" electricity_perVeh="0"/>
        <edge id=":114_1" sampledSeconds="415.90" CO_abs="10373.956634" CO2_abs="1289341.374295" HC_abs="78.557669" PMx_abs="23.416248" NOx_abs="482.600467" fuel_abs="554.228686" electricity_abs="0"
            CO_normed="136.973430" CO2_normed="17023.929840" HC_normed="1.037243" PMx_normed="0.309178" NOx_normed="6.372057" fuel_normed="7.317806" electricity_normed="0"
            traveltime="0.66" CO_perVeh="16.530607" CO2_perVeh="2054.529099" HC_perVeh="0.125179" PMx_perVeh="0.037313" NOx_perVeh="0.769010" fuel_perVeh="0.883148" electricity_perVeh="0"/>
        <edge id=":115_0" sampledSeconds="80.19" CO_abs="135.367355" CO2_abs="17913.101021" HC_abs="1.025741" PMx_abs="0.231781" NOx_abs="6.609689" fuel_abs="7.700102" electricity_abs="0"
            CO_normed="3.058804" CO2_normed="404.770106" HC_normed="0.023178" PMx_normed="0.005237" NOx_normed="0.149355" fuel_normed="0.173994" electricity_normed="0"
            traveltime="0.63" CO_perVeh="1.065232" CO2_perVeh="140.961637" HC_perVeh="0.008072" PMx_perVeh="0.001824" NOx_perVeh="0.052013" fuel_perVeh="0.060594" electricity_perVeh="0"/>
        <edge id=":115_1" sampledSeconds="77.67" CO_abs="910.281340" CO2_abs="154731.293696" HC_abs="7.526710" PMx_abs="2.201705" NOx_abs="56.652944" fuel_abs="66.512204" electricity_abs="0"
            CO_normed="18.369112" CO2_normed="3122.415371" HC_normed="0.151886" PMx_normed="0.044430" NOx_normed="1.143234" fuel_normed="1.342190" electricity_normed="0"
            traveltime="0.59" CO_perVeh="6.938275" CO2_perVeh="1179.380703" HC_perVeh="0.057369" PMx_perVeh="0.016782" NOx_perVeh="0.431816" fuel_perVeh="0.506964" electricity_perVeh="0"/>
        <edge id=":116_0" sampledSeconds="80.67" CO_abs="134.401081" CO2_abs="13823.432356" HC_abs="0.929617" PMx_abs="0.197278" NOx_abs="5.258746" fuel_abs="5.942116" electricity_abs="0"
            CO_normed="3.390200" CO2_normed="348.689142" HC_normed="0.023449" PMx_normed="0.004976" NOx_normed="0.132649" fuel_normed="0.149887" electricity_normed="0"
            traveltime="0.57" CO_perVeh="0.944841" CO2_perVeh="97.178855" HC_perVeh="0.006535" PMx_perVeh="0.001387" NOx_perVeh="0.036969" fuel_perVeh="0.041773" electricity_perVeh="0"/>
        <edge id=":117_0" sampledSeconds="240.63" CO_abs="13252.929703" CO2_abs="1104277.909705" HC_abs="86.477709" PMx_abs="20.149602" NOx_abs="450.071517" fuel_abs="474.678217" electricity_abs="0"
            CO_normed="299.467398" CO2_normed="24952.613483" HC_normed="1.954078" PMx_normed="0.455307" NOx_normed="10.169959" fuel_normed="10.725979" electricity_normed="0"
            traveltime="0.60" CO_perVeh="33.316826" CO2_perVeh="2776.068056" HC_perVeh="0.217398" PMx_perVeh="0.050655" NOx_perVeh="1.131444" fuel_perVeh="1.193304" electricity_perVeh="0"/>
        <edge id=":117_1" sampledSeconds="76.34" CO_abs="4487.481206" CO2_abs="363954.345129" HC_abs="29.078063" PMx_abs="6.755570" NOx_abs="149.308664" fuel_abs="156.447118" electricity_abs="0"
            CO_normed="95.563721" CO2_normed="7750.635571" HC_normed="0.619236" PMx_normed="0.143864" NOx_normed="3.179621" fuel_normed="3.331639" electricity_normed="0"
            traveltime="0.65" CO_perVeh="37.939143" CO2_perVeh="3077.030352" HC_perVeh="0.245839" PMx_perVeh="0.057115" NOx_perVeh="1.262321" fuel_perVeh="1.322673" electricity_perVeh="0"/>
        <edge id=":118_0" sampledSeconds="899.02" CO_abs="12403.106642" CO2_abs="1977568.580660" HC_abs="100.527173" PMx_abs="28.965995" NOx_abs="730.051178" fuel_abs="850.069550" electricity_abs="0"
            CO_normed="37.629986" CO2_normed="5999.777252" HC_normed="0.304991" PMx_normed="0.087880" NOx_normed="2.214914" fuel_normed="2.579040" electricity_normed="0"
            traveltime="3.92" CO_perVeh="54.098562" CO2_perVeh="8625.550036" HC_perVeh="0.438469" PMx_perVeh="0.126341" NOx_perVeh="3.184260" fuel_perVeh="3.707744" electricity_perVeh="0"/>
        <edge id=":118_4" sampledSeconds="282.92" CO_abs="3682.583114" CO2_abs="605149.585006" HC_abs="30.289994" PMx_abs="8.725579" NOx_abs="222.257833" fuel_abs="260.127280" electricity_abs="0"
            CO_normed="11.194248" CO2_normed="1839.522587" HC_normed="0.092075" PMx_normed="0.026524" NOx_normed="0.675615" fuel_normed="0.790730" electricity_normed="0"
            traveltime="3.92" CO_perVeh="51.056734" CO2_perVeh="8390.024155" HC_perVeh="0.419952" PMx_perVeh="0.120975" NOx_perVeh="3.081467" fuel_perVeh="3.606504" electricity_perVeh="0"/>
        <edge id=":118_5" sampledSeconds="238.47" CO_abs="3901.902731" CO2_abs="610299.635257" HC_abs="31.536452" PMx_abs="9.098145" NOx_abs="226.526075" fuel_abs="262.340736" electricity_abs="0"
            CO_normed="11.978654" CO2_normed="1873.590540" HC_normed="0.096815" PMx_normed="0.027931" NOx_normed="0.695424" fuel_normed="0.805373" electricity_normed="0"
            traveltime="3.82" CO_perVeh="62.447839" CO2_perVeh="9767.514956" HC_perVeh="0.504724" PMx_perVeh="0.145611" NOx_perVeh="3.625427" fuel_perVeh="4.198621" electricity_perVeh="0"/>
        <edge id=":119_0" sampledSeconds="144.57" CO_abs="2060.267670" CO2_abs="332140.823593" HC_abs="16.858237" PMx_abs="4.845772" NOx_abs="122.677940" fuel_abs="142.772704" electricity_abs="0"
            CO_normed="44.173835" CO2_normed="7121.372719" HC_normed="0.361454" PMx_normed="0.103897" NOx_normed="2.630316" fuel_normed="3.061164" electricity_normed="0"
            traveltime="0.56" CO_perVeh="7.964486" CO2_perVeh="1283.974366" HC_perVeh="0.065170" PMx_perVeh="0.018733" NOx_perVeh="0.474243" fuel_perVeh="0.551924" electricity_perVeh="0"/>
        <edge id=":12_0" sampledSeconds="600.26" CO_abs="53846.051233" CO2_abs="3060691.612624" HC_abs="317.810337" PMx_abs="59.640070" NOx_abs="1301.945779" fuel_abs="1315.656176" electricity_abs="0"
            CO_normed="504.450462" CO2_normed="28673.733044" HC_normed="2.977369" PMx_normed="0.558731" NOx_normed="12.197127" fuel_normed="12.325572" electricity_normed="0"
            traveltime="2.12" CO_perVeh="190.262390" CO2_perVeh="10814.804191" HC_perVeh="1.122967" PMx_perVeh="0.210735" NOx_perVeh="4.600362" fuel_perVeh="4.648807" electricity_perVeh="0"/>
        <edge id=":12_1" sampledSeconds="56.17" CO_abs="1054.944322" CO2_abs="96218.572914" HC_abs="6.996801" PMx_abs="1.252828" NOx_abs="36.207981" fuel_abs="41.360594" electricity_abs="0"
            CO_normed="9.873318" CO2_normed="900.518240" HC_normed="0.065484" PMx_normed="0.011725" NOx_normed="0.338874" fuel_normed="0.387098" electricity_normed="0"
            traveltime="1.89" CO_perVeh="35.574196" CO2_perVeh="3244.624699" HC_perVeh="0.235942" PMx_perVeh="0.042247" NOx_perVeh="1.220984" fuel_perVeh="1.394737" electricity_perVeh="0"/>
        <edge id=":120_0" sampledSeconds="39.10" CO_abs="621.615067" CO2_abs="94621.929577" HC_abs="4.961673" PMx_abs="1.413315" NOx_abs="35.166996" fuel_abs="40.673776" electricity_abs="0"
            CO_normed="488.691090" CO2_normed="74388.309416" HC_normed="3.900686" PMx_normed="1.111097" NOx_normed="27.647010" fuel_normed="31.976239" electricity_normed="0"
            traveltime="0.02" CO_perVeh="0.239179" CO2_perVeh="36.407636" HC_perVeh="0.001909" PMx_perVeh="0.000544" NOx_perVeh="0.013531" fuel_perVeh="0.015650" electricity_perVeh="0"/>
        <edge id=":121_0" sampledSeconds="379.36" CO_abs="53947.691102" CO2_abs="1437733.023186" HC_abs="279.398624" PMx_abs="31.032871" NOx_abs="635.803046" fuel_abs="618.037358" electricity_abs="0"
            CO_normed="30844.877703" CO2_normed="822031.459798" HC_normed="159.747641" PMx_normed="17.743208" NOx_normed="363.523754" fuel_normed="353.366128" electricity_normed="0"
            traveltime="0.12" CO_perVeh="16.453005" CO2_perVeh="438.480846" HC_perVeh="0.085211" PMx_perVeh="0.009464" NOx_perVeh="0.193908" fuel_perVeh="0.188489" electricity_perVeh="0"/>
        <edge id=":122_0" sampledSeconds="140.63" CO_abs="1178.514553" CO2_abs="109995.221579" HC_abs="7.955640" PMx_abs="2.028385" NOx_abs="44.252810" fuel_abs="47.281795" electricity_abs="0"
            CO_normed="25.946469" CO2_normed="2421.682076" HC_normed="0.175153" PMx_normed="0.044657" NOx_normed="0.974281" fuel_normed="1.040968" electricity_normed="0"
            traveltime="0.54" CO_perVeh="4.527182" CO2_perVeh="422.539041" HC_perVeh="0.030561" PMx_perVeh="0.007792" NOx_perVeh="0.169994" fuel_perVeh="0.181630" electricity_perVeh="0"/>
        <edge id=":123_0" sampledSeconds="305.04" CO_abs="40060.142919" CO2_abs="2474002.608257" HC_abs="241.895931" PMx_abs="51.055668" NOx_abs="1062.513374" fuel_abs="1063.458025" electricity_abs="0"
            CO_normed="152.759045" CO2_normed="9433.972210" HC_normed="0.922408" PMx_normed="0.194688" NOx_normed="4.051621" fuel_normed="4.055223" electricity_normed="0"
            traveltime="4.15" CO_perVeh="545.541481" CO2_perVeh="33691.119102" HC_perVeh="3.294154" PMx_perVeh="0.695279" NOx_perVeh="14.469372" fuel_perVeh="14.482237" electricity_perVeh="0"/>
        <edge id=":123_1" sampledSeconds="0.00" CO_abs="0" CO2_abs="0" HC_abs="0" PMx_abs="0" NOx_abs="0" fuel_abs="0" electricity_abs="0"
            CO_normed="0" CO2_normed="0" HC_normed="0" PMx_normed="0" NOx_normed="0" fuel_normed="0" electricity_normed="0"/>
        <edge id=":123_2" sampledSeconds="266.87" CO_abs="34817.912248" CO2_abs="2142680.206190" HC_abs="210.010011" PMx_abs="44.035595" NOx_abs="919.735005" fuel_abs="921.038330" electricity_abs="0"
            CO_normed="134.042387" CO2_normed="8248.914185" HC_normed="0.808499" PMx_normed="0.169529" NOx_normed="3.540806" fuel_normed="3.545824" electricity_normed="0"
            traveltime="4.19" CO_perVeh="547.268152" CO2_perVeh="33678.660235" HC_perVeh="3.300939" PMx_perVeh="0.692152" NOx_perVeh="14.456400" fuel_perVeh="14.476886" electricity_perVeh="0"/>
        <edge id=":123_3" sampledSeconds="469.01" CO_abs="23743.830255" CO2_abs="2204189.168872" HC_abs="160.466960" PMx_abs="41.402411" NOx_abs="886.728629" fuel_abs="947.477218" electricity_abs="0"
            CO_normed="93.527515" CO2_normed="8682.353838" HC_normed="0.632083" PMx_normed="0.163085" NOx_normed="3.492845" fuel_normed="3.732135" electricity_normed="0"
            traveltime="2.81" CO_perVeh="142.116443" CO2_perVeh="13192.965111" HC_perVeh="0.960460" PMx_perVeh="0.247810" NOx_perVeh="5.307430" fuel_perVeh="5.671035" electricity_perVeh="0"/>
        <edge id=":123_5" sampledSeconds="0.00" CO_abs="0" CO2_abs="0" HC_abs="0" PMx_abs="0" NOx_abs="0" fuel_abs="0" electricity_abs="0"
            CO_normed="0" CO2_normed="0" HC_normed="0" PMx_normed="0" NOx_normed="0" fuel_normed="0" electricity_normed="0"/>
        <edge id=":123_6" sampledSeconds="194.45" CO_abs="9362.577979" CO2_abs="897801.885438" HC_abs="63.856829" PMx_abs="16.633774" NOx_abs="359.073973" fuel_abs="385.922928" electricity_abs="0"
            CO_normed="35.622588" CO2_normed="3415.942371" HC_normed="0.242961" PMx_normed="0.063288" NOx_normed="1.366199" fuel_normed="1.468353" electricity_normed="0"
            traveltime="2.91" CO_perVeh="140.068374" CO2_perVeh="13431.519666" HC_perVeh="0.955327" PMx_perVeh="0.248849" NOx_perVeh="5.371908" fuel_perVeh="5.773580" electricity_perVeh="0"/>
        <edge id=":124_0" sampledSeconds="122.59" CO_abs="4656.388436" CO2_abs="403229.597698" HC_abs="30.813889" PMx_abs="7.815604" NOx_abs="164.424128" fuel_abs="173.329265" electricity_abs="0"
            CO_normed="109.002960" CO2_normed="9439.336994" HC_normed="0.721333" PMx_normed="0.182958" NOx_normed="3.849060" fuel_normed="4.057523" electricity_normed="0"
            traveltime="0.46" CO_perVeh="17.439171" CO2_perVeh="1510.181107" HC_perVeh="0.115405" PMx_perVeh="0.029271" NOx_perVeh="0.615804" fuel_perVeh="0.649155" electricity_perVeh="0"/>
        <edge id=":125_0" sampledSeconds="140.84" CO_abs="5421.805328" CO2_abs="553488.816211" HC_abs="37.779244" PMx_abs="10.272246" NOx_abs="218.007722" fuel_abs="237.918910" electricity_abs="0"
            CO_normed="340.994046" CO2_normed="34810.617372" HC_normed="2.376053" PMx_normed="0.646053" NOx_normed="13.711177" fuel_normed="14.963453" electricity_normed="0"
            traveltime="0.16" CO_perVeh="6.209359" CO2_perVeh="633.886791" HC_perVeh="0.043267" PMx_perVeh="0.011764" NOx_perVeh="0.249675" fuel_perVeh="0.272478" electricity_perVeh="0"/>
        <edge id=":125_3" sampledSeconds="0.00" CO_abs="0" CO2_abs="0" HC_abs="0" PMx_abs="0" NOx_abs="0" fuel_abs="0" electricity_abs="0"
            CO_normed="0" CO2_normed="0" HC_normed="0" PMx_normed="0" NOx_normed="0" fuel_normed="0" electricity_normed="0"/>
        <edge id=":126_0" sampledSeconds="28.42" CO_abs="229.175574" CO2_abs="16173.731818" HC_abs="1.419584" PMx_abs="0.262086" NOx_abs="6.482889" fuel_abs="6.952412" electricity_abs="0"
            CO_normed="7.546366" CO2_normed="532.573737" HC_normed="0.046745" PMx_normed="0.008630" NOx_normed="0.213471" fuel_normed="0.228931" electricity_normed="0"
            traveltime="0.57" CO_perVeh="4.567012" CO2_perVeh="322.310220" HC_perVeh="0.028289" PMx_perVeh="0.005223" NOx_perVeh="0.129191" fuel_perVeh="0.138548" electricity_perVeh="0"/>
        <edge id=":126_1" sampledSeconds="84.47" CO_abs="1414.279729" CO2_abs="206291.045014" HC_abs="11.191741" PMx_abs="3.392345" NOx_abs="76.839323" fuel_abs="88.675153" electricity_abs="0"
            CO_normed="41.435595" CO2_normed="6043.919050" HC_normed="0.327896" PMx_normed="0.099389" NOx_normed="2.251240" fuel_normed="2.598006" electricity_normed="0"
            traveltime="0.35" CO_perVeh="5.855666" CO2_perVeh="854.124848" HC_perVeh="0.046338" PMx_perVeh="0.014046" NOx_perVeh="0.318145" fuel_perVeh="0.367149" electricity_perVeh="0"/>
        <edge id=":127_0" sampledSeconds="234.28" CO_abs="4621.425133" CO2_abs="628979.633469" HC_abs="35.743955" PMx_abs="10.605817" NOx_abs="236.275703" fuel_abs="270.369649" electricity_abs="0"
            CO_normed="106.858702" CO2_normed="14543.554233" HC_normed="0.826488" PMx_normed="0.245233" NOx_normed="5.463275" fuel_normed="6.251610" electricity_normed="0"
            traveltime="0.44" CO_perVeh="8.642177" CO2_perVeh="1176.207107" HC_perVeh="0.066842" PMx_perVeh="0.019833" NOx_perVeh="0.441841" fuel_perVeh="0.505598" electricity_perVeh="0"/>
        <edge id=":128_0" sampledSeconds="229.09" CO_abs="250.310225" CO2_abs="37549.373115" HC_abs="1.971593" PMx_abs="0.558097" NOx_abs="13.912839" fuel_abs="16.140819" electricity_abs="0"
            CO_normed="3.868005" CO2_normed="580.244667" HC_normed="0.030467" PMx_normed="0.008624" NOx_normed="0.214993" fuel_normed="0.249422" electricity_normed="0"
            traveltime="0.75" CO_perVeh="0.822858" CO2_perVeh="123.437996" HC_perVeh="0.006481" PMx_perVeh="0.001835" NOx_perVeh="0.045736" fuel_perVeh="0.053061" electricity_perVeh="0"/>
        <edge id=":128_1" sampledSeconds="142.99" CO_abs="279.051528" CO2_abs="34174.556820" HC_abs="2.054974" PMx_abs="0.469610" NOx_abs="12.799175" fuel_abs="14.690205" electricity_abs="0"
            CO_normed="4.454419" CO2_normed="545.518578" HC_normed="0.032803" PMx_normed="0.007496" NOx_normed="0.204310" fuel_normed="0.234495" electricity_normed="0"
            traveltime="0.86" CO_perVeh="1.672755" CO2_perVeh="204.857042" HC_perVeh="0.012318" PMx_perVeh="0.002815" NOx_perVeh="0.076724" fuel_perVeh="0.088059" electricity_perVeh="0"/>
        <edge id=":129_0" sampledSeconds="109.30" CO_abs="6404.327045" CO2_abs="568061.663435" HC_abs="42.657156" PMx_abs="10.761814" NOx_abs="230.720525" fuel_abs="244.182923" electricity_abs="0"
            CO_normed="149.180691" CO2_normed="13232.277275" HC_normed="0.993644" PMx_normed="0.250683" NOx_normed="5.374343" fuel_normed="5.687932" electricity_normed="0"
            traveltime="0.50" CO_perVeh="29.043252" CO2_perVeh="2576.126726" HC_perVeh="0.193448" PMx_perVeh="0.048804" NOx_perVeh="1.046304" fuel_perVeh="1.107355" electricity_perVeh="0"/>
        <edge id=":13_0" sampledSeconds="59.73" CO_abs="5114.460312" CO2_abs="365866.185273" HC_abs="32.026531" PMx_abs="7.057734" NOx_abs="153.175947" fuel_abs="157.268903" electricity_abs="0"
            CO_normed="36.155583" CO2_normed="2586.412728" HC_normed="0.226405" PMx_normed="0.049893" NOx_normed="1.082845" fuel_normed="1.111779" electricity_normed="0"
            traveltime="2.11" CO_perVeh="180.906682" CO2_perVeh="12941.275028" HC_perVeh="1.132830" PMx_perVeh="0.249643" NOx_perVeh="5.418079" fuel_perVeh="5.562854" electricity_perVeh="0"/>
        <edge id=":13_1" sampledSeconds="544.52" CO_abs="12360.595521" CO2_abs="939534.241305" HC_abs="77.788061" PMx_abs="13.214798" NOx_abs="362.352359" fuel_abs="403.868957" electricity_abs="0"
            CO_normed="123.135577" CO2_normed="9359.588784" HC_normed="0.774920" PMx_normed="0.131645" NOx_normed="3.609734" fuel_normed="4.023320" electricity_normed="0"
            traveltime="1.90" CO_perVeh="43.153778" CO2_perVeh="3280.137462" HC_perVeh="0.271577" PMx_perVeh="0.046136" NOx_perVeh="1.265058" fuel_perVeh="1.410003" electricity_perVeh="0"/>
        <edge id=":132_0" sampledSeconds="42.90" CO_abs="582.718553" CO2_abs="92224.988434" HC_abs="4.748220" PMx_abs="1.352549" NOx_abs="34.156516" fuel_abs="39.643455" electricity_abs="0"
            CO_normed="1099.468968" CO2_normed="174009.412139" HC_normed="8.958906" PMx_normed="2.551980" NOx_normed="64.446256" fuel_normed="74.798972" electricity_normed="0"