<?xml version="1.0" encoding="UTF-8"?>

<!-- generated on Sat Oct 31 23:45:00 2020 by Eclipse SUMO sumo Version 1.7.0
<configuration xmlns:xsi="http://www.w3.org/2001/XMLSchema-instance" xsi:noNamespaceSchemaLocation="http://sumo.dlr.de/xsd/sumoConfiguration.xsd">

    <input>
        <net-file value="../dataSets/Angeja_Estarreja/angeja_estarreja.net.xml"/>
        <route-files value="../results/angeja_estarreja/inputdata/angeja_estarreja-base.rou.xml"/>
        <additional-files value="moreOutputInfo.xml"/>
    </input>

    <output>
        <emission-output.precision value="6"/>
        <tripinfo-output value="../results/angeja_estarreja/inputdata/angeja_estarreja-tripinfo"/>
    </output>

    <processing>
        <collision.action value="warn"/>
        <time-to-teleport value="-1"/>
    </processing>

    <emissions>
        <device.emissions.probability value="1"/>
    </emissions>

    <gui_only>
        <quit-on-end value="true"/>
        <start value="true"/>
    </gui_only>

</configuration>
-->

<meandata xmlns:xsi="http://www.w3.org/2001/XMLSchema-instance" xsi:noNamespaceSchemaLocation="http://sumo.dlr.de/xsd/meandata_file.xsd">
    <interval begin="0.00" end="19078.00" id="emissions-detector">
        <edge id=":10_0" sampledSeconds="398.10" CO_abs="39347.992397" CO2_abs="2175355.542808" HC_abs="230.802769" PMx_abs="42.715134" NOx_abs="928.378187" fuel_abs="935.089620" electricity_abs="0"
            CO_normed="424.524174" CO2_normed="23469.838198" HC_normed="2.490123" PMx_normed="0.460852" NOx_normed="10.016241" fuel_normed="10.088651" electricity_normed="0"
            traveltime="1.89" CO_perVeh="186.856569" CO2_perVeh="10330.373866" HC_perVeh="1.096041" PMx_perVeh="0.202847" NOx_perVeh="4.408702" fuel_perVeh="4.440573" electricity_perVeh="0"/>
        <edge id=":10_1" sampledSeconds="0.00" CO_abs="0" CO2_abs="0" HC_abs="0" PMx_abs="0" NOx_abs="0" fuel_abs="0" electricity_abs="0"
            CO_normed="0" CO2_normed="0" HC_normed="0" PMx_normed="0" NOx_normed="0" fuel_normed="0" electricity_normed="0"/>
        <edge id=":100_0" sampledSeconds="11.71" CO_abs="87.798612" CO2_abs="8693.139259" HC_abs="0.612609" PMx_abs="0.169314" NOx_abs="3.394519" fuel_abs="3.736773" electricity_abs="0"
            CO_normed="0.568744" CO2_normed="56.312630" HC_normed="0.003968" PMx_normed="0.001097" NOx_normed="0.021989" fuel_normed="0.024206" electricity_normed="0"
            traveltime="1.68" CO_perVeh="12.581531" CO2_perVeh="1245.725830" HC_perVeh="0.087787" PMx_perVeh="0.024263" NOx_perVeh="0.486434" fuel_perVeh="0.535479" electricity_perVeh="0"/>
        <edge id=":100_1" sampledSeconds="911.60" CO_abs="20722.422205" CO2_abs="2699235.722496" HC_abs="159.835438" PMx_abs="48.375251" NOx_abs="1002.764177" fuel_abs="1160.278042" electricity_abs="0"
            CO_normed="132.283521" CO2_normed="17230.823722" HC_normed="1.020324" PMx_normed="0.308808" NOx_normed="6.401239" fuel_normed="7.406743" electricity_normed="0"
            traveltime="1.37" CO_perVeh="31.158002" CO2_perVeh="4058.540672" HC_perVeh="0.240327" PMx_perVeh="0.072736" NOx_perVeh="1.507745" fuel_perVeh="1.744581" electricity_perVeh="0"/>
        <edge id=":101_0" sampledSeconds="438.86" CO_abs="10139.042024" CO2_abs="1300773.320565" HC_abs="77.625885" PMx_abs="23.397213" NOx_abs="484.188487" fuel_abs="559.142926" electricity_abs="0"
            CO_normed="234.177154" CO2_normed="30043.409719" HC_normed="1.792892" PMx_normed="0.540395" NOx_normed="11.183096" fuel_normed="12.914287" electricity_normed="0"
            traveltime="0.38" CO_perVeh="8.758830" CO2_perVeh="1123.701101" HC_perVeh="0.067059" PMx_perVeh="0.020212" NOx_perVeh="0.418277" fuel_perVeh="0.483028" electricity_perVeh="0"/>
        <edge id=":102_0" sampledSeconds="344.74" CO_abs="7957.933975" CO2_abs="1000998.442613" HC_abs="60.523811" PMx_abs="18.117604" NOx_abs="373.837762" fuel_abs="430.283345" electricity_abs="0"
            CO_normed="185.389430" CO2_normed="23319.435828" HC_normed="1.409973" PMx_normed="0.422071" NOx_normed="8.708990" fuel_normed="10.023957" electricity_normed="0"
            traveltime="0.38" CO_perVeh="8.663734" CO2_perVeh="1089.778346" HC_perVeh="0.065892" PMx_perVeh="0.019724" NOx_perVeh="0.406994" fuel_perVeh="0.468446" electricity_perVeh="0"/>
        <edge id=":103_0" sampledSeconds="434.18" CO_abs="10581.896583" CO2_abs="1300810.726515" HC_abs="79.829245" PMx_abs="23.706777" NOx_abs="487.760655" fuel_abs="559.158780" electricity_abs="0"
            CO_normed="248.048890" CO2_normed="30492.138618" HC_normed="1.871267" PMx_normed="0.555708" NOx_normed="11.433535" fuel_normed="13.107170" electricity_normed="0"
            traveltime="0.37" CO_perVeh="9.091559" CO2_perVeh="1117.606552" HC_perVeh="0.068586" PMx_perVeh="0.020368" NOx_perVeh="0.419065" fuel_perVeh="0.480408" electricity_perVeh="0"/>
        <edge id=":104_0" sampledSeconds="344.40" CO_abs="8400.982914" CO2_abs="1054447.306285" HC_abs="63.850517" PMx_abs="19.093775" NOx_abs="394.067000" fuel_abs="453.258544" electricity_abs="0"
            CO_normed="195.952693" CO2_normed="24594.954100" HC_normed="1.489312" PMx_normed="0.445362" NOx_normed="9.191602" fuel_normed="10.572243" electricity_normed="0"
            traveltime="0.37" CO_perVeh="9.141892" CO2_perVeh="1147.442311" HC_perVeh="0.069482" PMx_perVeh="0.020778" NOx_perVeh="0.428821" fuel_perVeh="0.493233" electricity_perVeh="0"/>
        <edge id=":105_0" sampledSeconds="168.81" CO_abs="3896.654832" CO2_abs="488673.532967" HC_abs="29.598639" PMx_abs="8.850188" NOx_abs="182.626820" fuel_abs="210.058344" electricity_abs="0"
            CO_normed="3342.249854" CO2_normed="419146.451096" HC_normed="25.387429" PMx_normed="7.591009" NOx_normed="156.643195" fuel_normed="180.171839" electricity_normed="0"
            traveltime="0.01" CO_perVeh="0.235639" CO2_perVeh="29.551126" HC_perVeh="0.001790" PMx_perVeh="0.000535" NOx_perVeh="0.011044" fuel_perVeh="0.012703" electricity_perVeh="0"/>
        <edge id=":106_0" sampledSeconds="135.90" CO_abs="3160.088232" CO2_abs="393458.944009" HC_abs="23.926128" PMx_abs="7.140238" NOx_abs="147.166859" fuel_abs="169.129950" electricity_abs="0"
            CO_normed="1923.566350" CO2_normed="239501.029464" HC_normed="14.563990" PMx_normed="4.346309" NOx_normed="89.581429" fuel_normed="102.950505" electricity_normed="0"
            traveltime="0.01" CO_perVeh="0.334378" CO2_perVeh="41.633078" HC_perVeh="0.002532" PMx_perVeh="0.000756" NOx_perVeh="0.015572" fuel_perVeh="0.017896" electricity_perVeh="0"/>
        <edge id=":107_0" sampledSeconds="438.62" CO_abs="10806.518068" CO2_abs="1366610.056876" HC_abs="82.405826" PMx_abs="24.694400" NOx_abs="510.250385" fuel_abs="587.443026" electricity_abs="0"
            CO_normed="249.593565" CO2_normed="31564.012896" HC_normed="1.903292" PMx_normed="0.570356" NOx_normed="11.785037" fuel_normed="13.567922" electricity_normed="0"
            traveltime="0.38" CO_perVeh="9.335437" CO2_perVeh="1180.574763" HC_perVeh="0.071188" PMx_perVeh="0.021333" NOx_perVeh="0.440790" fuel_perVeh="0.507475" electricity_perVeh="0"/>
        <edge id=":108_0" sampledSeconds="98.13" CO_abs="8600.236449" CO2_abs="625341.630970" HC_abs="54.212145" PMx_abs="12.590790" NOx_abs="263.922078" fuel_abs="268.804569" electricity_abs="0"
            CO_normed="134.900768" CO2_normed="9808.924031" HC_normed="0.850356" PMx_normed="0.197495" NOx_normed="4.139804" fuel_normed="4.216389" electricity_normed="0"
            traveltime="0.85" CO_perVeh="74.315721" CO2_perVeh="5403.655438" HC_perVeh="0.468454" PMx_perVeh="0.108799" NOx_perVeh="2.280584" fuel_perVeh="2.322774" electricity_perVeh="0"/>
        <edge id=":108_1" sampledSeconds="402.86" CO_abs="9869.049643" CO2_abs="1242213.504266" HC_abs="75.153435" PMx_abs="22.488301" NOx_abs="464.034079" fuel_abs="533.970636" electricity_abs="0"
            CO_normed="144.362794" CO2_normed="18170.889703" HC_normed="1.099332" PMx_normed="0.328955" NOx_normed="6.787812" fuel_normed="7.810832" electricity_normed="0"
            traveltime="0.60" CO_perVeh="14.660718" CO2_perVeh="1845.338931" HC_perVeh="0.111642" PMx_perVeh="0.033407" NOx_perVeh="0.689334" fuel_perVeh="0.793227" electricity_perVeh="0"/>
        <edge id=":109_0" sampledSeconds="308.58" CO_abs="126.550693" CO2_abs="18646.243524" HC_abs="1.009591" PMx_abs="0.263274" NOx_abs="6.843656" fuel_abs="8.015223" electricity_abs="0"
            CO_normed="1.902788" CO2_normed="280.360795" HC_normed="0.015180" PMx_normed="0.003959" NOx_normed="0.102900" fuel_normed="0.120515" electricity_normed="0"
            traveltime="0.86" CO_perVeh="0.351740" CO2_perVeh="51.826093" HC_perVeh="0.002806" PMx_perVeh="0.000732" NOx_perVeh="0.019022" fuel_perVeh="0.022278" electricity_perVeh="0"/>
        <edge id=":109_1" sampledSeconds="523.82" CO_abs="12727.239397" CO2_abs="1575458.422733" HC_abs="96.155151" PMx_abs="28.639078" NOx_abs="589.855061" fuel_abs="677.217265" electricity_abs="0"
            CO_normed="124.824203" CO2_normed="15451.531621" HC_normed="0.943055" PMx_normed="0.280882" NOx_normed="5.785087" fuel_normed="6.641904" electricity_normed="0"
            traveltime="0.89" CO_perVeh="21.671458" CO2_perVeh="2682.630506" HC_perVeh="0.163729" PMx_perVeh="0.048766" NOx_perVeh="1.004383" fuel_perVeh="1.153140" electricity_perVeh="0"/>
        <edge id=":11_0" sampledSeconds="284.52" CO_abs="17162.220609" CO2_abs="1251168.681742" HC_abs="107.674868" PMx_abs="22.301418" NOx_abs="512.672822" fuel_abs="537.821833" electricity_abs="0"
            CO_normed="177.451742" CO2_normed="12936.674544" HC_normed="1.113323" PMx_normed="0.230589" NOx_normed="5.300869" fuel_normed="5.560902" electricity_normed="0"
            traveltime="1.59" CO_perVeh="95.900345" CO2_perVeh="6991.374293" HC_perVeh="0.601674" PMx_perVeh="0.124618" NOx_perVeh="2.864752" fuel_perVeh="3.005281" electricity_perVeh="0"/>
        <edge id=":11_1" sampledSeconds="50.50" CO_abs="1163.263954" CO2_abs="104110.220370" HC_abs="7.669084" PMx_abs="1.354999" NOx_abs="39.176941" fuel_abs="44.752923" electricity_abs="0"
            CO_normed="12.331841" CO2_normed="1103.679611" HC_normed="0.081300" PMx_normed="0.014364" NOx_normed="0.415317" fuel_normed="0.474429" electricity_normed="0"
            traveltime="1.66" CO_perVeh="38.325891" CO2_perVeh="3430.104537" HC_perVeh="0.252672" PMx_perVeh="0.044643" NOx_perVeh="1.290757" fuel_perVeh="1.474468" electricity_perVeh="0"/>
        <edge id=":110_0" sampledSeconds="94.40" CO_abs="0" CO2_abs="0" HC_abs="0" PMx_abs="0" NOx_abs="0" fuel_abs="0" electricity_abs="0"
            CO_normed="0" CO2_normed="0" HC_normed="0" PMx_normed="0" NOx_normed="0" fuel_normed="0" electricity_normed="0"
            traveltime="0.92" CO_perVeh="0" CO2_perVeh="0" HC_perVeh="0" PMx_perVeh="0" NOx_perVeh="0" fuel_perVeh="0" electricity_perVeh="0"/>
        <edge id=":110_1" sampledSeconds="443.81" CO_abs="10001.100698" CO2_abs="1300206.126534" HC_abs="77.089744" PMx_abs="23.314835" NOx_abs="483.212296" fuel_abs="558.899163" electricity_abs="0"
            CO_normed="128.380813" CO2_normed="16690.314860" HC_normed="0.989575" PMx_normed="0.299285" NOx_normed="6.202836" fuel_normed="7.174403" electricity_normed="0"
            traveltime="0.68" CO_perVeh="15.363233" CO2_perVeh="1997.317062" HC_perVeh="0.118422" PMx_perVeh="0.035815" NOx_perVeh="0.742289" fuel_perVeh="0.858555" electricity_perVeh="0"/>
        <edge id=":111_0" sampledSeconds="341.31" CO_abs="7403.896897" CO2_abs="947490.729986" HC_abs="56.701773" PMx_abs="17.063476" NOx_abs="352.982983" fuel_abs="407.282888" electricity_abs="0"
            CO_normed="171.004667" CO2_normed="21883.791554" HC_normed="1.309617" PMx_normed="0.394108" NOx_normed="8.152698" fuel_normed="9.406840" electricity_normed="0"
            traveltime="0.38" CO_perVeh="8.228288" CO2_perVeh="1052.989653" HC_perVeh="0.063015" PMx_perVeh="0.018963" NOx_perVeh="0.392286" fuel_perVeh="0.452632" electricity_perVeh="0"/>
        <edge id=":114_0" sampledSeconds="106.74" CO_abs="10578.221546" CO2_abs="762093.570589" HC_abs="66.534012" PMx_abs="15.497595" NOx_abs="322.683177" fuel_abs="327.587554" electricity_abs="0"
            CO_normed="140.570429" CO2_normed="10127.205195" HC_normed="0.884148" PMx_normed="0.205942" NOx_normed="4.288028" fuel_normed="4.353201" electricity_normed="0"
            traveltime="0.99" CO_perVeh="97.860351" CO2_perVeh="7050.215774" HC_perVeh="0.615514" PMx_perVeh="0.143370" NOx_perVeh="2.985179" fuel_perVeh="3.030550" electricity_perVeh="0"/>
        <edge id=":114_1" sampledSeconds="416.08" CO_abs="10923.517746" CO2_abs="1310097.222257" HC_abs="81.566354" PMx_abs="24.028966" NOx_abs="493.434450" fuel_abs="563.150477" electricity_abs="0"
            CO_normed="144.244727" CO2_normed="17299.794861" HC_normed="1.077081" PMx_normed="0.317302" NOx_normed="6.515787" fuel_normed="7.436385" electricity_normed="0"
            traveltime="0.66" CO_perVeh="17.406317" CO2_perVeh="2087.602957" HC_perVeh="0.129974" PMx_perVeh="0.038289" NOx_perVeh="0.786274" fuel_perVeh="0.897364" electricity_perVeh="0"/>
        <edge id=":115_0" sampledSeconds="79.99" CO_abs="107.334834" CO2_abs="13249.990217" HC_abs="0.776140" PMx_abs="0.182392" NOx_abs="4.949640" fuel_abs="5.695611" electricity_abs="0"
            CO_normed="2.425626" CO2_normed="299.432364" HC_normed="0.017540" PMx_normed="0.004122" NOx_normed="0.111855" fuel_normed="0.128713" electricity_normed="0"
            traveltime="0.63" CO_perVeh="0.844638" CO2_perVeh="104.266722" HC_perVeh="0.006108" PMx_perVeh="0.001435" NOx_perVeh="0.038950" fuel_perVeh="0.044820" electricity_perVeh="0"/>
        <edge id=":115_1" sampledSeconds="77.53" CO_abs="1282.454053" CO2_abs="185435.931074" HC_abs="10.038430" PMx_abs="2.836087" NOx_abs="69.441468" fuel_abs="79.710639" electricity_abs="0"
            CO_normed="25.882121" CO2_normed="3742.414909" HC_normed="0.202593" PMx_normed="0.057237" NOx_normed="1.401448" fuel_normed="1.608697" electricity_normed="0"
            traveltime="0.59" CO_perVeh="9.774978" CO2_perVeh="1413.408997" HC_perVeh="0.076514" PMx_perVeh="0.021617" NOx_perVeh="0.529289" fuel_perVeh="0.607562" electricity_perVeh="0"/>
        <edge id=":116_0" sampledSeconds="80.18" CO_abs="97.109012" CO2_abs="14887.168057" HC_abs="0.773502" PMx_abs="0.168380" NOx_abs="5.307354" fuel_abs="6.399405" electricity_abs="0"
            CO_normed="2.449783" CO2_normed="375.560708" HC_normed="0.019513" PMx_normed="0.004248" NOx_normed="0.133889" fuel_normed="0.161439" electricity_normed="0"
            traveltime="0.56" CO_perVeh="0.682677" CO2_perVeh="104.656927" HC_perVeh="0.005438" PMx_perVeh="0.001184" NOx_perVeh="0.037311" fuel_perVeh="0.044988" electricity_perVeh="0"/>
        <edge id=":117_0" sampledSeconds="241.03" CO_abs="13780.067390" CO2_abs="1152610.327991" HC_abs="90.096222" PMx_abs="21.081029" NOx_abs="469.864390" fuel_abs="495.454012" electricity_abs="0"
            CO_normed="311.411411" CO2_normed="26047.478462" HC_normed="2.036056" PMx_normed="0.476404" NOx_normed="10.618318" fuel_normed="11.196609" electricity_normed="0"
            traveltime="0.60" CO_perVeh="34.397901" CO2_perVeh="2877.154008" HC_perVeh="0.224899" PMx_perVeh="0.052623" NOx_perVeh="1.172879" fuel_perVeh="1.236756" electricity_perVeh="0"/>
        <edge id=":117_1" sampledSeconds="75.92" CO_abs="4361.256973" CO2_abs="367413.407258" HC_abs="28.582769" PMx_abs="6.677133" NOx_abs="149.529418" fuel_abs="157.934114" electricity_abs="0"
            CO_normed="92.885433" CO2_normed="7825.118707" HC_normed="0.608752" PMx_normed="0.142209" NOx_normed="3.184656" fuel_normed="3.363658" electricity_normed="0"
            traveltime="0.64" CO_perVeh="36.871988" CO2_perVeh="3106.274787" HC_perVeh="0.241651" PMx_perVeh="0.056451" NOx_perVeh="1.264188" fuel_perVeh="1.335245" electricity_perVeh="0"/>
        <edge id=":118_0" sampledSeconds="898.12" CO_abs="12746.247034" CO2_abs="1997066.920543" HC_abs="102.247292" PMx_abs="29.296203" NOx_abs="738.071730" fuel_abs="858.451041" electricity_abs="0"
            CO_normed="38.675099" CO2_normed="6059.568755" HC_normed="0.310242" PMx_normed="0.088892" NOx_normed="2.239482" fuel_normed="2.604742" electricity_normed="0"
            traveltime="3.92" CO_perVeh="55.604028" CO2_perVeh="8711.973314" HC_perVeh="0.446042" PMx_perVeh="0.127801" NOx_perVeh="3.219753" fuel_perVeh="3.744893" electricity_perVeh="0"/>
        <edge id=":118_4" sampledSeconds="282.34" CO_abs="4180.842010" CO2_abs="635138.085491" HC_abs="33.648780" PMx_abs="9.457785" NOx_abs="236.141615" fuel_abs="273.017810" electricity_abs="0"
            CO_normed="12.710179" CO2_normed="1930.883478" HC_normed="0.102296" PMx_normed="0.028753" NOx_normed="0.717894" fuel_normed="0.830002" electricity_normed="0"
            traveltime="3.91" CO_perVeh="57.964785" CO2_perVeh="8805.796139" HC_perVeh="0.466519" PMx_perVeh="0.131126" NOx_perVeh="3.273957" fuel_perVeh="3.785223" electricity_perVeh="0"/>
        <edge id=":118_5" sampledSeconds="238.37" CO_abs="3621.169978" CO2_abs="544005.914805" HC_abs="28.615990" PMx_abs="8.198598" NOx_abs="202.687942" fuel_abs="233.843944" electricity_abs="0"
            CO_normed="11.117983" CO2_normed="1670.247083" HC_normed="0.087859" PMx_normed="0.025172" NOx_normed="0.622307" fuel_normed="0.717965" electricity_normed="0"
            traveltime="3.81" CO_perVeh="57.954863" CO2_perVeh="8706.519883" HC_perVeh="0.457983" PMx_perVeh="0.131214" NOx_perVeh="3.243911" fuel_perVeh="3.742546" electricity_perVeh="0"/>
        <edge id=":119_0" sampledSeconds="144.77" CO_abs="1618.232629" CO2_abs="263741.202267" HC_abs="13.365272" PMx_abs="3.822719" NOx_abs="97.380477" fuel_abs="113.370743" electricity_abs="0"
            CO_normed="34.699877" CO2_normed="5655.421333" HC_normed="0.286592" PMx_normed="0.081971" NOx_normed="2.088136" fuel_normed="2.431017" electricity_normed="0"
            traveltime="0.56" CO_perVeh="6.255709" CO2_perVeh="1019.561891" HC_perVeh="0.051667" PMx_perVeh="0.014778" NOx_perVeh="0.376450" fuel_perVeh="0.438265" electricity_perVeh="0"/>
        <edge id=":12_0" sampledSeconds="589.31" CO_abs="55212.546918" CO2_abs="3142624.362293" HC_abs="326.081594" PMx_abs="61.763601" NOx_abs="1340.144085" fuel_abs="1350.874584" electricity_abs="0"
            CO_normed="517.306543" CO2_normed="29444.396886" HC_normed="3.055178" PMx_normed="0.578686" NOx_normed="12.556300" fuel_normed="12.656838" electricity_normed="0"
            traveltime="2.11" CO_perVeh="197.587352" CO2_perVeh="11246.407919" HC_perVeh="1.166938" PMx_perVeh="0.221031" NOx_perVeh="4.795930" fuel_perVeh="4.834331" electricity_perVeh="0"/>
        <edge id=":12_1" sampledSeconds="56.60" CO_abs="1124.084910" CO2_abs="90502.378588" HC_abs="7.200298" PMx_abs="1.308863" NOx_abs="35.044500" fuel_abs="38.903324" electricity_abs="0"
            CO_normed="10.521514" CO2_normed="847.108661" HC_normed="0.067395" PMx_normed="0.012251" NOx_normed="0.328019" fuel_normed="0.364138" electricity_normed="0"
            traveltime="1.91" CO_perVeh="37.905714" CO2_perVeh="3051.866640" HC_perVeh="0.242804" PMx_perVeh="0.044137" NOx_perVeh="1.181750" fuel_perVeh="1.311874" electricity_perVeh="0"/>
        <edge id=":120_0" sampledSeconds="39.15" CO_abs="522.504586" CO2_abs="84536.367127" HC_abs="4.267696" PMx_abs="1.223856" NOx_abs="31.116969" fuel_abs="36.338474" electricity_abs="0"
            CO_normed="410.817108" CO2_normed="66466.375244" HC_normed="3.355459" PMx_normed="0.962252" NOx_normed="24.465590" fuel_normed="28.570978" electricity_normed="0"
            traveltime="0.02" CO_perVeh="0.201044" CO2_perVeh="32.527019" HC_perVeh="0.001642" PMx_perVeh="0.000471" NOx_perVeh="0.011973" fuel_perVeh="0.013982" electricity_perVeh="0"/>
        <edge id=":121_0" sampledSeconds="375.24" CO_abs="53472.549057" CO2_abs="1429277.215751" HC_abs="277.045392" PMx_abs="30.871494" NOx_abs="632.206775" fuel_abs="614.402297" electricity_abs="0"
            CO_normed="30576.417801" CO2_normed="817282.476199" HC_normed="158.418774" PMx_normed="17.652790" NOx_normed="361.505461" fuel_normed="351.324589" electricity_normed="0"
            traveltime="0.12" CO_perVeh="16.447872" CO2_perVeh="439.638088" HC_perVeh="0.085218" PMx_perVeh="0.009496" NOx_perVeh="0.194463" fuel_perVeh="0.188987" electricity_perVeh="0"/>
        <edge id=":122_0" sampledSeconds="140.27" CO_abs="787.139680" CO2_abs="94595.305163" HC_abs="5.799811" PMx_abs="1.568888" NOx_abs="36.461374" fuel_abs="40.662216" electricity_abs="0"
            CO_normed="17.331679" CO2_normed="2082.852026" HC_normed="0.127703" PMx_normed="0.034545" NOx_normed="0.802827" fuel_normed="0.895323" electricity_normed="0"
            traveltime="0.54" CO_perVeh="3.027532" CO2_perVeh="363.836674" HC_perVeh="0.022307" PMx_perVeh="0.006034" NOx_perVeh="0.140239" fuel_perVeh="0.156397" electricity_perVeh="0"/>
        <edge id=":123_0" sampledSeconds="311.70" CO_abs="40574.179659" CO2_abs="2491711.875442" HC_abs="244.606077" PMx_abs="51.237817" NOx_abs="1069.859879" fuel_abs="1071.070789" electricity_abs="0"
            CO_normed="154.735411" CO2_normed="9502.498012" HC_normed="0.932840" PMx_normed="0.195403" NOx_normed="4.080063" fuel_normed="4.084681" electricity_normed="0"
            traveltime="4.24" CO_perVeh="552.541665" CO2_perVeh="33932.284988" HC_perVeh="3.331061" PMx_perVeh="0.697760" NOx_perVeh="14.569417" fuel_perVeh="14.585908" electricity_perVeh="0"/>
        <edge id=":123_1" sampledSeconds="0.00" CO_abs="0" CO2_abs="0" HC_abs="0" PMx_abs="0" NOx_abs="0" fuel_abs="0" electricity_abs="0"
            CO_normed="0" CO2_normed="0" HC_normed="0" PMx_normed="0" NOx_normed="0" fuel_normed="0" electricity_normed="0"/>
        <edge id=":123_2" sampledSeconds="259.16" CO_abs="35089.540314" CO2_abs="2176573.593814" HC_abs="212.129086" PMx_abs="45.095846" NOx_abs="935.972412" fuel_abs="935.606788" electricity_abs="0"
            CO_normed="135.102266" CO2_normed="8380.275762" HC_normed="0.816743" PMx_normed="0.173629" NOx_normed="3.603695" fuel_normed="3.602287" electricity_normed="0"
            traveltime="4.07" CO_perVeh="551.537604" CO2_perVeh="34211.396703" HC_perVeh="3.334246" PMx_perVeh="0.708817" NOx_perVeh="14.711620" fuel_perVeh="14.705873" electricity_perVeh="0"/>
        <edge id=":123_3" sampledSeconds="469.54" CO_abs="22443.345811" CO2_abs="2120119.498268" HC_abs="152.360721" PMx_abs="39.475416" NOx_abs="849.981265" fuel_abs="911.339860" electricity_abs="0"
            CO_normed="88.414143" CO2_normed="8352.076875" HC_normed="0.600215" PMx_normed="0.155511" NOx_normed="3.348448" fuel_normed="3.590166" electricity_normed="0"
            traveltime="2.81" CO_perVeh="134.332517" CO2_perVeh="12689.774075" HC_perVeh="0.911941" PMx_perVeh="0.236276" NOx_perVeh="5.087482" fuel_perVeh="5.454738" electricity_perVeh="0"/>
        <edge id=":123_5" sampledSeconds="0.00" CO_abs="0" CO2_abs="0" HC_abs="0" PMx_abs="0" NOx_abs="0" fuel_abs="0" electricity_abs="0"
            CO_normed="0" CO2_normed="0" HC_normed="0" PMx_normed="0" NOx_normed="0" fuel_normed="0" electricity_normed="0"/>
        <edge id=":123_6" sampledSeconds="195.04" CO_abs="9329.364394" CO2_abs="871533.530918" HC_abs="63.003129" PMx_abs="16.276922" NOx_abs="350.089194" fuel_abs="374.631314" electricity_abs="0"
            CO_normed="35.499939" CO2_normed="3316.344577" HC_normed="0.239738" PMx_normed="0.061937" NOx_normed="1.332153" fuel_normed="1.425541" electricity_normed="0"
            traveltime="2.92" CO_perVeh="139.571484" CO2_perVeh="13038.533278" HC_perVeh="0.942555" PMx_perVeh="0.243510" NOx_perVeh="5.237492" fuel_perVeh="5.604653" electricity_perVeh="0"/>
        <edge id=":124_0" sampledSeconds="122.16" CO_abs="4248.683053" CO2_abs="384413.448587" HC_abs="28.316097" PMx_abs="7.284685" NOx_abs="155.100407" fuel_abs="165.241213" electricity_abs="0"
            CO_normed="99.469274" CO2_normed="8999.806820" HC_normed="0.662931" PMx_normed="0.170548" NOx_normed="3.631178" fuel_normed="3.868593" electricity_normed="0"
            traveltime="0.46" CO_perVeh="15.965056" CO2_perVeh="1444.490505" HC_perVeh="0.106402" PMx_perVeh="0.027373" NOx_perVeh="0.582813" fuel_perVeh="0.620918" electricity_perVeh="0"/>
        <edge id=":125_0" sampledSeconds="141.11" CO_abs="5568.196479" CO2_abs="561550.868416" HC_abs="38.643315" PMx_abs="10.461830" NOx_abs="221.681576" fuel_abs="241.384381" electricity_abs="0"
            CO_normed="350.237749" CO2_normed="35321.367130" HC_normed="2.430652" PMx_normed="0.658046" NOx_normed="13.943699" fuel_normed="15.182999" electricity_normed="0"
            traveltime="0.16" CO_perVeh="6.377014" CO2_perVeh="643.119910" HC_perVeh="0.044257" PMx_perVeh="0.011981" NOx_perVeh="0.253882" fuel_perVeh="0.276447" electricity_perVeh="0"/>
        <edge id=":125_3" sampledSeconds="0.00" CO_abs="0" CO2_abs="0" HC_abs="0" PMx_abs="0" NOx_abs="0" fuel_abs="0" electricity_abs="0"
            CO_normed="0" CO2_normed="0" HC_normed="0" PMx_normed="0" NOx_normed="0" fuel_normed="0" electricity_normed="0"/>
        <edge id=":126_0" sampledSeconds="26.12" CO_abs="95.554217" CO2_abs="6460.384166" HC_abs="0.589081" PMx_abs="0.124877" NOx_abs="2.719923" fuel_abs="2.777022" electricity_abs="0"
            CO_normed="3.146769" CO2_normed="212.751866" HC_normed="0.019399" PMx_normed="0.004112" NOx_normed="0.089572" fuel_normed="0.091452" electricity_normed="0"
            traveltime="0.57" CO_perVeh="2.077954" CO2_perVeh="140.489674" HC_perVeh="0.012810" PMx_perVeh="0.002716" NOx_perVeh="0.059148" fuel_perVeh="0.060390" electricity_perVeh="0"/>
        <edge id=":126_1" sampledSeconds="84.35" CO_abs="1163.489099" CO2_abs="202771.436025" HC_abs="9.904656" PMx_abs="3.152875" NOx_abs="73.864534" fuel_abs="87.162359" electricity_abs="0"
            CO_normed="34.091500" CO2_normed="5941.424268" HC_normed="0.290217" PMx_normed="0.092383" NOx_normed="2.164311" fuel_normed="2.553952" electricity_normed="0"
            traveltime="0.35" CO_perVeh="4.817296" CO2_perVeh="839.552303" HC_perVeh="0.041009" PMx_perVeh="0.013054" NOx_perVeh="0.305828" fuel_perVeh="0.360886" electricity_perVeh="0"/>
        <edge id=":127_0" sampledSeconds="234.11" CO_abs="5116.816499" CO2_abs="688430.497899" HC_abs="39.194765" PMx_abs="11.592735" NOx_abs="259.146613" fuel_abs="295.924836" electricity_abs="0"
            CO_normed="118.325770" CO2_normed="15919.873011" HC_normed="0.906374" PMx_normed="0.268081" NOx_normed="5.992734" fuel_normed="6.843226" electricity_normed="0"
            traveltime="0.44" CO_perVeh="9.568580" CO2_perVeh="1287.383006" HC_perVeh="0.073295" PMx_perVeh="0.021679" NOx_perVeh="0.484611" fuel_perVeh="0.553387" electricity_perVeh="0"/>
        <edge id=":128_0" sampledSeconds="229.74" CO_abs="302.034564" CO2_abs="46112.153457" HC_abs="2.410254" PMx_abs="0.670329" NOx_abs="17.066738" fuel_abs="19.821595" electricity_abs="0"
            CO_normed="4.667783" CO2_normed="712.638690" HC_normed="0.037249" PMx_normed="0.010360" NOx_normed="0.263757" fuel_normed="0.306332" electricity_normed="0"
            traveltime="0.76" CO_perVeh="0.992898" CO2_perVeh="151.587433" HC_perVeh="0.007923" PMx_perVeh="0.002204" NOx_perVeh="0.056105" fuel_perVeh="0.065161" electricity_perVeh="0"/>
        <edge id=":128_1" sampledSeconds="142.88" CO_abs="187.643701" CO2_abs="25095.095370" HC_abs="1.421055" PMx_abs="0.329454" NOx_abs="9.267324" fuel_abs="10.787337" electricity_abs="0"
            CO_normed="2.995616" CO2_normed="400.627752" HC_normed="0.022686" PMx_normed="0.005260" NOx_normed="0.147947" fuel_normed="0.172213" electricity_normed="0"
            traveltime="0.86" CO_perVeh="1.124817" CO2_perVeh="150.430832" HC_perVeh="0.008518" PMx_perVeh="0.001975" NOx_perVeh="0.055552" fuel_perVeh="0.064664" electricity_perVeh="0"/>
        <edge id=":129_0" sampledSeconds="109.41" CO_abs="5889.976552" CO2_abs="549514.659518" HC_abs="39.765393" PMx_abs="10.154879" NOx_abs="220.897369" fuel_abs="236.210621" electricity_abs="0"
            CO_normed="137.213930" CO2_normed="12801.590186" HC_normed="0.926382" PMx_normed="0.236570" NOx_normed="5.146064" fuel_normed="5.502804" electricity_normed="0"
            traveltime="0.50" CO_perVeh="26.710416" CO2_perVeh="2491.990450" HC_perVeh="0.180332" PMx_perVeh="0.046051" NOx_perVeh="1.001746" fuel_perVeh="1.071190" electricity_perVeh="0"/>
        <edge id=":13_0" sampledSeconds="60.27" CO_abs="5065.541687" CO2_abs="364877.647038" HC_abs="31.765594" PMx_abs="6.955655" NOx_abs="152.201586" fuel_abs="156.844076" electricity_abs="0"
            CO_normed="35.813517" CO2_normed="2579.694877" HC_normed="0.224584" PMx_normed="0.049177" NOx_normed="1.076069" fuel_normed="1.108892" electricity_normed="0"
            traveltime="2.13" CO_perVeh="179.176351" CO2_perVeh="12906.308842" HC_perVeh="1.123600" PMx_perVeh="0.246033" NOx_perVeh="5.383615" fuel_perVeh="5.547827" electricity_perVeh="0"/>
        <edge id=":13_1" sampledSeconds="533.48" CO_abs="14002.031944" CO2_abs="1063091.011515" HC_abs="88.215175" PMx_abs="15.598794" NOx_abs="414.134398" fuel_abs="456.980202" electricity_abs="0"
            CO_normed="139.502100" CO2_normed="10591.564806" HC_normed="0.878887" PMx_normed="0.155411" NOx_normed="4.126017" fuel_normed="4.552889" electricity_normed="0"
            traveltime="1.86" CO_perVeh="48.884423" CO2_perVeh="3711.503529" HC_perVeh="0.307980" PMx_perVeh="0.054459" NOx_perVeh="1.445842" fuel_perVeh="1.595427" electricity_perVeh="0"/>
        <edge id=":132_0" sampledSeconds="42.82" CO_abs="574.692495" CO2_abs="94282.233519" HC_abs="4.714410" PMx_abs="1.361934" NOx_abs="34.723518" fuel_abs="40.527787" electricity_abs="0"
            CO_normed="1084.439135" CO2_normed="177909.655450" HC_normed="8.896046" PMx_normed="2.569955" NOx_normed="65.522941" fuel_normed="76.475538" electricity_normed="0"
            traveltime="6.351243e-03" CO_perVeh="0.085247" CO2_perVeh="13.985349" HC_perVeh="0.000699" PMx_perVeh="0.000202" NOx_perVeh="0.005151" fuel_perVeh="0.006012" electricity_perVeh="0"/>