<?xml version="1.0" encoding="UTF-8"?>

<!-- generated on dom 30 ago 2020 20:15:44 by Eclipse SUMO GUI Version 1.6.0
<configuration xmlns:xsi="http://www.w3.org/2001/XMLSchema-instance" xsi:noNamespaceSchemaLocation="http://sumo.dlr.de/xsd/sumoConfiguration.xsd">

    <input>
        <net-file value="../dataSets/Angeja_Estarreja/angeja_estarreja.net.xml"/>
        <route-files value="../results/angeja_estarreja/inputdata/angeja_estarreja-base.rou.xml"/>
        <additional-files value="moreOutputInfo.xml"/>
    </input>

    <output>
        <emission-output.precision value="6"/>
        <tripinfo-output value="../results/angeja_estarreja/inputdata/angeja_estarreja-tripinfo"/>
    </output>

    <processing>
        <collision.action value="warn"/>
        <time-to-teleport value="-1"/>
    </processing>

    <emissions>
        <device.emissions.probability value="1"/>
    </emissions>

    <gui_only>
        <gui-settings-file value="gui-settings.xml"/>
        <quit-on-end value="true"/>
        <start value="true"/>
    </gui_only>

</configuration>
-->

<meandata xmlns:xsi="http://www.w3.org/2001/XMLSchema-instance" xsi:noNamespaceSchemaLocation="http://sumo.dlr.de/xsd/meandata_file.xsd">
    <interval begin="0.00" end="19079.00" id="emissions-detector">
        <edge id=":10_0" sampledSeconds="405.03" CO_abs="40972.826098" CO2_abs="2238239.912094" HC_abs="239.679836" PMx_abs="43.987322" NOx_abs="955.885067" fuel_abs="962.121158" electricity_abs="0"
            CO_normed="442.031281" CO2_normed="24147.029854" HC_normed="2.585762" PMx_normed="0.474553" NOx_normed="10.312471" fuel_normed="10.379749" electricity_normed="0"
            traveltime="1.93" CO_perVeh="194.753745" CO2_perVeh="10638.895280" HC_perVeh="1.139256" PMx_perVeh="0.209082" NOx_perVeh="4.543553" fuel_perVeh="4.573194" electricity_perVeh="0"/>
        <edge id=":10_1" sampledSeconds="0.00" CO_abs="0" CO2_abs="0" HC_abs="0" PMx_abs="0" NOx_abs="0" fuel_abs="0" electricity_abs="0"
            CO_normed="0" CO2_normed="0" HC_normed="0" PMx_normed="0" NOx_normed="0" fuel_normed="0" electricity_normed="0"/>
        <edge id=":100_0" sampledSeconds="12.04" CO_abs="12.740160" CO2_abs="1847.315932" HC_abs="0.103094" PMx_abs="0.032341" NOx_abs="0.672834" fuel_abs="0.794078" electricity_abs="0"
            CO_normed="0.082524" CO2_normed="11.965961" HC_normed="0.000668" PMx_normed="0.000209" NOx_normed="0.004358" fuel_normed="0.005144" electricity_normed="0"
            traveltime="1.73" CO_perVeh="1.825663" CO2_perVeh="264.720155" HC_perVeh="0.014773" PMx_perVeh="0.004635" NOx_perVeh="0.096417" fuel_perVeh="0.113791" electricity_perVeh="0"/>
        <edge id=":100_1" sampledSeconds="911.40" CO_abs="21139.110896" CO2_abs="2667800.944560" HC_abs="161.142022" PMx_abs="48.257993" NOx_abs="996.170780" fuel_abs="1146.765346" electricity_abs="0"
            CO_normed="134.936419" CO2_normed="17029.264264" HC_normed="1.028611" PMx_normed="0.308043" NOx_normed="6.358816" fuel_normed="7.320100" electricity_normed="0"
            traveltime="1.37" CO_perVeh="31.784549" CO2_perVeh="4011.277972" HC_perVeh="0.242291" PMx_perVeh="0.072560" NOx_perVeh="1.497832" fuel_perVeh="1.724265" electricity_perVeh="0"/>
        <edge id=":101_0" sampledSeconds="438.31" CO_abs="10654.899569" CO2_abs="1383853.987656" HC_abs="82.070043" PMx_abs="24.822387" NOx_abs="514.202451" fuel_abs="594.855561" electricity_abs="0"
            CO_normed="246.078798" CO2_normed="31960.613392" HC_normed="1.895438" PMx_normed="0.573282" NOx_normed="11.875693" fuel_normed="13.738406" electricity_normed="0"
            traveltime="0.38" CO_perVeh="9.204451" CO2_perVeh="1195.470375" HC_perVeh="0.070898" PMx_perVeh="0.021443" NOx_perVeh="0.444204" fuel_perVeh="0.513878" electricity_perVeh="0"/>
        <edge id=":102_0" sampledSeconds="344.85" CO_abs="8553.553401" CO2_abs="1078159.771506" HC_abs="65.148252" PMx_abs="19.501483" NOx_abs="402.763564" fuel_abs="463.451456" electricity_abs="0"
            CO_normed="199.254641" CO2_normed="25115.683247" HC_normed="1.517626" PMx_normed="0.454286" NOx_normed="9.382359" fuel_normed="10.796081" electricity_normed="0"
            traveltime="0.38" CO_perVeh="9.312172" CO2_perVeh="1173.782266" HC_perVeh="0.070926" PMx_perVeh="0.021231" NOx_perVeh="0.438485" fuel_perVeh="0.504555" electricity_perVeh="0"/>
        <edge id=":103_0" sampledSeconds="434.43" CO_abs="10450.686891" CO2_abs="1286059.800706" HC_abs="78.881812" PMx_abs="23.430145" NOx_abs="482.228072" fuel_abs="552.818033" electricity_abs="0"
            CO_normed="244.960381" CO2_normed="30144.783963" HC_normed="1.848962" PMx_normed="0.549194" NOx_normed="11.303254" fuel_normed="12.957858" electricity_normed="0"
            traveltime="0.37" CO_perVeh="8.978846" CO2_perVeh="1104.935285" HC_perVeh="0.067772" PMx_perVeh="0.020130" NOx_perVeh="0.414313" fuel_perVeh="0.474961" electricity_perVeh="0"/>
        <edge id=":104_0" sampledSeconds="345.00" CO_abs="7237.500065" CO2_abs="961921.903465" HC_abs="56.220729" PMx_abs="17.134344" NOx_abs="356.191199" fuel_abs="413.486326" electricity_abs="0"
            CO_normed="168.805640" CO2_normed="22435.625657" HC_normed="1.311278" PMx_normed="0.399637" NOx_normed="8.307714" fuel_normed="9.644052" electricity_normed="0"
            traveltime="0.38" CO_perVeh="7.875792" CO2_perVeh="1046.756019" HC_perVeh="0.061179" PMx_perVeh="0.018645" NOx_perVeh="0.387605" fuel_perVeh="0.449953" electricity_perVeh="0"/>
        <edge id=":105_0" sampledSeconds="168.60" CO_abs="4132.962553" CO2_abs="512114.798812" HC_abs="31.266764" PMx_abs="9.310452" NOx_abs="191.775208" fuel_abs="220.134644" electricity_abs="0"
            CO_normed="3544.750580" CO2_normed="439229.537407" HC_normed="26.816812" PMx_normed="7.985369" NOx_normed="164.481355" fuel_normed="188.804616" electricity_normed="0"
            traveltime="0.01" CO_perVeh="0.249929" CO2_perVeh="30.968669" HC_perVeh="0.001891" PMx_perVeh="0.000563" NOx_perVeh="0.011597" fuel_perVeh="0.013312" electricity_perVeh="0"/>
        <edge id=":106_0" sampledSeconds="135.93" CO_abs="3136.790336" CO2_abs="394247.485431" HC_abs="23.871368" PMx_abs="7.138072" NOx_abs="147.355373" fuel_abs="169.468914" electricity_abs="0"
            CO_normed="1909.284690" CO2_normed="239968.441497" HC_normed="14.529896" PMx_normed="4.344763" NOx_normed="89.691477" fuel_normed="103.151428" electricity_normed="0"
            traveltime="0.01" CO_perVeh="0.331912" CO2_perVeh="41.716330" HC_perVeh="0.002526" PMx_perVeh="0.000755" NOx_perVeh="0.015592" fuel_perVeh="0.017932" electricity_perVeh="0"/>
        <edge id=":107_0" sampledSeconds="438.78" CO_abs="10831.855135" CO2_abs="1342518.873838" HC_abs="81.906418" PMx_abs="24.390496" NOx_abs="502.847769" fuel_abs="577.087230" electricity_abs="0"
            CO_normed="250.165651" CO2_normed="31005.963838" HC_normed="1.891659" PMx_normed="0.563307" NOx_normed="11.613453" fuel_normed="13.328040" electricity_normed="0"
            traveltime="0.38" CO_perVeh="9.357316" CO2_perVeh="1159.761965" HC_perVeh="0.070757" PMx_perVeh="0.021070" NOx_perVeh="0.434395" fuel_perVeh="0.498528" electricity_perVeh="0"/>
        <edge id=":108_0" sampledSeconds="98.95" CO_abs="8725.582069" CO2_abs="632320.398223" HC_abs="54.909901" PMx_abs="12.732718" NOx_abs="266.903120" fuel_abs="271.804421" electricity_abs="0"
            CO_normed="136.859728" CO2_normed="9917.871053" HC_normed="0.861255" PMx_normed="0.199711" NOx_normed="4.186344" fuel_normed="4.263220" electricity_normed="0"
            traveltime="0.85" CO_perVeh="75.128988" CO2_perVeh="5444.403713" HC_perVeh="0.472785" PMx_perVeh="0.109631" NOx_perVeh="2.298089" fuel_perVeh="2.340290" electricity_perVeh="0"/>
        <edge id=":108_1" sampledSeconds="402.76" CO_abs="9765.865291" CO2_abs="1226169.911338" HC_abs="74.281303" PMx_abs="22.208493" NOx_abs="458.288352" fuel_abs="527.074215" electricity_abs="0"
            CO_normed="142.845943" CO2_normed="17935.266628" HC_normed="1.086517" PMx_normed="0.324845" NOx_normed="6.703413" fuel_normed="7.709549" electricity_normed="0"
            traveltime="0.60" CO_perVeh="14.507444" CO2_perVeh="1821.506954" HC_perVeh="0.110347" PMx_perVeh="0.032991" NOx_perVeh="0.680799" fuel_perVeh="0.782982" electricity_perVeh="0"/>
        <edge id=":109_0" sampledSeconds="308.54" CO_abs="192.050398" CO2_abs="34480.375838" HC_abs="1.633165" PMx_abs="0.452131" NOx_abs="12.315406" fuel_abs="14.821661" electricity_abs="0"
            CO_normed="2.887476" CO2_normed="518.412134" HC_normed="0.024555" PMx_normed="0.006798" NOx_normed="0.185162" fuel_normed="0.222844" electricity_normed="0"
            traveltime="0.86" CO_perVeh="0.533792" CO2_perVeh="95.836094" HC_perVeh="0.004539" PMx_perVeh="0.001257" NOx_perVeh="0.034230" fuel_perVeh="0.041196" electricity_perVeh="0"/>
        <edge id=":109_1" sampledSeconds="523.87" CO_abs="13248.996086" CO2_abs="1605925.923194" HC_abs="99.379087" PMx_abs="29.381561" NOx_abs="603.570713" fuel_abs="690.313698" electricity_abs="0"
            CO_normed="129.934595" CO2_normed="15749.520414" HC_normed="0.974623" PMx_normed="0.288149" NOx_normed="5.919295" fuel_normed="6.769995" electricity_normed="0"
            traveltime="0.89" CO_perVeh="22.559938" CO2_perVeh="2734.515827" HC_perVeh="0.169219" PMx_perVeh="0.050030" NOx_perVeh="1.027740" fuel_perVeh="1.175443" electricity_perVeh="0"/>
        <edge id=":11_0" sampledSeconds="285.51" CO_abs="17526.375670" CO2_abs="1265183.122596" HC_abs="109.687803" PMx_abs="22.721636" NOx_abs="519.754539" fuel_abs="543.845881" electricity_abs="0"
            CO_normed="181.207488" CO2_normed="13080.893621" HC_normed="1.134077" PMx_normed="0.234922" NOx_normed="5.373810" fuel_normed="5.622894" electricity_normed="0"
            traveltime="1.60" CO_perVeh="97.935259" CO2_perVeh="7069.689673" HC_perVeh="0.612922" PMx_perVeh="0.126966" NOx_perVeh="2.904325" fuel_perVeh="3.038945" electricity_perVeh="0"/>
        <edge id=":11_1" sampledSeconds="50.65" CO_abs="1143.001770" CO2_abs="93323.122589" HC_abs="7.344660" PMx_abs="1.311064" NOx_abs="35.867979" fuel_abs="40.115895" electricity_abs="0"
            CO_normed="12.116405" CO2_normed="989.272991" HC_normed="0.077857" PMx_normed="0.013898" NOx_normed="0.380219" fuel_normed="0.425249" electricity_normed="0"
            traveltime="1.68" CO_perVeh="37.906626" CO2_perVeh="3094.977486" HC_perVeh="0.243579" PMx_perVeh="0.043480" NOx_perVeh="1.189529" fuel_perVeh="1.330408" electricity_perVeh="0"/>
        <edge id=":110_0" sampledSeconds="95.06" CO_abs="7.279204" CO2_abs="1170.521238" HC_abs="0.058872" PMx_abs="0.008928" NOx_abs="0.393428" fuel_abs="0.503167" electricity_abs="0"
            CO_normed="0.094399" CO2_normed="15.179700" HC_normed="0.000763" PMx_normed="0.000116" NOx_normed="0.005102" fuel_normed="0.006525" electricity_normed="0"
            traveltime="0.93" CO_perVeh="0.071269" CO2_perVeh="11.460254" HC_perVeh="0.000576" PMx_perVeh="0.000087" NOx_perVeh="0.003852" fuel_perVeh="0.004926" electricity_perVeh="0"/>
        <edge id=":110_1" sampledSeconds="443.85" CO_abs="9427.313008" CO2_abs="1213360.570364" HC_abs="72.458238" PMx_abs="21.836636" NOx_abs="451.617327" fuel_abs="521.568186" electricity_abs="0"
            CO_normed="121.008948" CO2_normed="15574.690887" HC_normed="0.930074" PMx_normed="0.280295" NOx_normed="5.796958" fuel_normed="6.694847" electricity_normed="0"
            traveltime="0.68" CO_perVeh="14.481734" CO2_perVeh="1863.899553" HC_perVeh="0.111306" PMx_perVeh="0.033544" NOx_perVeh="0.693750" fuel_perVeh="0.801205" electricity_perVeh="0"/>
        <edge id=":111_0" sampledSeconds="340.47" CO_abs="9075.278610" CO2_abs="1079726.804687" HC_abs="67.581632" PMx_abs="19.858775" NOx_abs="407.134138" fuel_abs="464.124812" electricity_abs="0"
            CO_normed="209.596875" CO2_normed="24936.684998" HC_normed="1.560822" PMx_normed="0.458646" NOx_normed="9.402912" fuel_normed="10.719132" electricity_normed="0"
            traveltime="0.38" CO_perVeh="10.085775" CO2_perVeh="1199.950057" HC_perVeh="0.075107" PMx_perVeh="0.022070" NOx_perVeh="0.452467" fuel_perVeh="0.515803" electricity_perVeh="0"/>
        <edge id=":114_0" sampledSeconds="107.23" CO_abs="10597.043451" CO2_abs="764953.442284" HC_abs="66.670199" PMx_abs="15.502245" NOx_abs="323.525171" fuel_abs="328.816940" electricity_abs="0"
            CO_normed="140.813166" CO2_normed="10164.676273" HC_normed="0.885911" PMx_normed="0.205993" NOx_normed="4.298992" fuel_normed="4.369309" electricity_normed="0"
            traveltime="0.99" CO_perVeh="98.034475" CO2_perVeh="7076.672778" HC_perVeh="0.616774" PMx_perVeh="0.143413" NOx_perVeh="2.992969" fuel_perVeh="3.041924" electricity_perVeh="0"/>
        <edge id=":114_1" sampledSeconds="416.12" CO_abs="9991.378875" CO2_abs="1270225.232556" HC_abs="76.388793" PMx_abs="22.917742" NOx_abs="474.041379" fuel_abs="546.011624" electricity_abs="0"
            CO_normed="131.928946" CO2_normed="16772.407274" HC_normed="1.008659" PMx_normed="0.302612" NOx_normed="6.259374" fuel_normed="7.209689" electricity_normed="0"
            traveltime="0.66" CO_perVeh="15.920999" CO2_perVeh="2024.070482" HC_perVeh="0.121724" PMx_perVeh="0.036519" NOx_perVeh="0.755372" fuel_perVeh="0.870055" electricity_perVeh="0"/>
        <edge id=":115_0" sampledSeconds="80.34" CO_abs="206.150595" CO2_abs="20064.595424" HC_abs="1.409696" PMx_abs="0.323996" NOx_abs="7.881237" fuel_abs="8.624883" electricity_abs="0"
            CO_normed="4.658488" CO2_normed="453.409718" HC_normed="0.031856" PMx_normed="0.007322" NOx_normed="0.178096" fuel_normed="0.194901" electricity_normed="0"
            traveltime="0.63" CO_perVeh="1.622239" CO2_perVeh="157.892161" HC_perVeh="0.011093" PMx_perVeh="0.002550" NOx_perVeh="0.062019" fuel_perVeh="0.067871" electricity_perVeh="0"/>
        <edge id=":115_1" sampledSeconds="77.38" CO_abs="1040.156645" CO2_abs="176161.377047" HC_abs="8.706621" PMx_abs="2.521613" NOx_abs="64.674332" fuel_abs="75.724053" electricity_abs="0"
            CO_normed="20.991044" CO2_normed="3555.052170" HC_normed="0.175705" PMx_normed="0.050888" NOx_normed="1.305170" fuel_normed="1.528161" electricity_normed="0"
            traveltime="0.59" CO_perVeh="7.928152" CO2_perVeh="1342.715314" HC_perVeh="0.066363" PMx_perVeh="0.019220" NOx_perVeh="0.492953" fuel_perVeh="0.577174" electricity_perVeh="0"/>
        <edge id=":116_0" sampledSeconds="80.40" CO_abs="79.944047" CO2_abs="12030.235513" HC_abs="0.636805" PMx_abs="0.144492" NOx_abs="4.350183" fuel_abs="5.171311" electricity_abs="0"
            CO_normed="2.016654" CO2_normed="303.472557" HC_normed="0.016064" PMx_normed="0.003645" NOx_normed="0.109737" fuel_normed="0.130451" electricity_normed="0"
            traveltime="0.57" CO_perVeh="0.562007" CO2_perVeh="84.572665" HC_perVeh="0.004477" PMx_perVeh="0.001016" NOx_perVeh="0.030582" fuel_perVeh="0.036354" electricity_perVeh="0"/>
        <edge id=":117_0" sampledSeconds="240.27" CO_abs="13025.071379" CO2_abs="1096289.613207" HC_abs="85.260120" PMx_abs="19.965796" NOx_abs="446.167975" fuel_abs="471.244405" electricity_abs="0"
            CO_normed="294.334066" CO2_normed="24773.405802" HC_normed="1.926666" PMx_normed="0.451177" NOx_normed="10.082281" fuel_normed="10.648946" electricity_normed="0"
            traveltime="0.60" CO_perVeh="32.684408" CO2_perVeh="2750.969753" HC_perVeh="0.213947" PMx_perVeh="0.050101" NOx_perVeh="1.119590" fuel_perVeh="1.182515" electricity_perVeh="0"/>
        <edge id=":117_1" sampledSeconds="76.34" CO_abs="4444.824158" CO2_abs="363190.940892" HC_abs="28.864113" PMx_abs="6.690013" NOx_abs="148.600881" fuel_abs="156.119024" electricity_abs="0"
            CO_normed="94.660274" CO2_normed="7734.783787" HC_normed="0.614712" PMx_normed="0.142475" NOx_normed="3.164715" fuel_normed="3.324827" electricity_normed="0"
            traveltime="0.65" CO_perVeh="37.578501" CO2_perVeh="3070.576196" HC_perVeh="0.244030" PMx_perVeh="0.056560" NOx_perVeh="1.256337" fuel_perVeh="1.319899" electricity_perVeh="0"/>
        <edge id=":118_0" sampledSeconds="898.64" CO_abs="13674.046305" CO2_abs="2083626.602952" HC_abs="108.956519" PMx_abs="30.981954" NOx_abs="773.639941" fuel_abs="895.658923" electricity_abs="0"
            CO_normed="41.488084" CO2_normed="6321.879734" HC_normed="0.330582" PMx_normed="0.094002" NOx_normed="2.347282" fuel_normed="2.717496" electricity_normed="0"
            traveltime="3.92" CO_perVeh="59.642013" CO2_perVeh="9088.142730" HC_perVeh="0.475235" PMx_perVeh="0.135134" NOx_perVeh="3.374381" fuel_perVeh="3.906591" electricity_perVeh="0"/>
        <edge id=":118_4" sampledSeconds="282.94" CO_abs="3952.283421" CO2_abs="639938.186139" HC_abs="32.251445" PMx_abs="9.266825" NOx_abs="235.443412" fuel_abs="275.081339" electricity_abs="0"
            CO_normed="12.014708" CO2_normed="1945.374296" HC_normed="0.098042" PMx_normed="0.028171" NOx_normed="0.715734" fuel_normed="0.836231" electricity_normed="0"
            traveltime="3.92" CO_perVeh="54.795962" CO2_perVeh="8872.346561" HC_perVeh="0.447146" PMx_perVeh="0.128479" NOx_perVeh="3.264277" fuel_perVeh="3.813832" electricity_perVeh="0"/>
        <edge id=":118_5" sampledSeconds="238.79" CO_abs="4024.416103" CO2_abs="590985.213561" HC_abs="31.369139" PMx_abs="8.999249" NOx_abs="220.602891" fuel_abs="254.038182" electricity_abs="0"
            CO_normed="12.355412" CO2_normed="1814.391288" HC_normed="0.096307" PMx_normed="0.027629" NOx_normed="0.677276" fuel_normed="0.779926" electricity_normed="0"
            traveltime="3.82" CO_perVeh="64.408738" CO2_perVeh="9458.418527" HC_perVeh="0.502047" PMx_perVeh="0.144028" NOx_perVeh="3.530637" fuel_perVeh="4.065752" electricity_perVeh="0"/>
        <edge id=":119_0" sampledSeconds="144.30" CO_abs="1503.405879" CO2_abs="288598.508667" HC_abs="13.191124" PMx_abs="3.951360" NOx_abs="104.308385" fuel_abs="124.055973" electricity_abs="0"
            CO_normed="32.235949" CO2_normed="6188.113962" HC_normed="0.282843" PMx_normed="0.084725" NOx_normed="2.236575" fuel_normed="2.660002" electricity_normed="0"
            traveltime="0.56" CO_perVeh="5.811796" CO2_perVeh="1115.650534" HC_perVeh="0.050994" PMx_perVeh="0.015275" NOx_perVeh="0.403230" fuel_perVeh="0.479570" electricity_perVeh="0"/>
        <edge id=":12_0" sampledSeconds="585.90" CO_abs="52636.417957" CO2_abs="3016803.991216" HC_abs="311.383898" PMx_abs="59.332394" NOx_abs="1286.553595" fuel_abs="1296.789642" electricity_abs="0"
            CO_normed="493.144000" CO2_normed="28264.058317" HC_normed="2.917317" PMx_normed="0.555878" NOx_normed="12.053559" fuel_normed="12.149460" electricity_normed="0"
            traveltime="2.09" CO_perVeh="187.979589" CO2_perVeh="10773.863355" HC_perVeh="1.112040" PMx_perVeh="0.211893" NOx_perVeh="4.594648" fuel_perVeh="4.631204" electricity_perVeh="0"/>
        <edge id=":12_1" sampledSeconds="55.89" CO_abs="1206.356189" CO2_abs="105033.881106" HC_abs="7.896189" PMx_abs="1.426952" NOx_abs="39.959532" fuel_abs="45.149900" electricity_abs="0"
            CO_normed="11.290987" CO2_normed="983.073023" HC_normed="0.073905" PMx_normed="0.013356" NOx_normed="0.374004" fuel_normed="0.422584" electricity_normed="0"
            traveltime="1.88" CO_perVeh="40.680016" CO2_perVeh="3541.889206" HC_perVeh="0.266271" PMx_perVeh="0.048119" NOx_perVeh="1.347491" fuel_perVeh="1.522518" electricity_perVeh="0"/>
        <edge id=":120_0" sampledSeconds="39.11" CO_abs="529.239914" CO2_abs="87601.317328" HC_abs="4.307600" PMx_abs="1.261344" NOx_abs="32.110811" fuel_abs="37.655960" electricity_abs="0"
            CO_normed="416.090923" CO2_normed="68872.569837" HC_normed="3.386656" PMx_normed="0.991675" NOx_normed="25.245671" fuel_normed="29.605294" electricity_normed="0"
            traveltime="0.02" CO_perVeh="0.203635" CO2_perVeh="33.706318" HC_perVeh="0.001657" PMx_perVeh="0.000485" NOx_perVeh="0.012355" fuel_perVeh="0.014489" electricity_perVeh="0"/>
        <edge id=":121_0" sampledSeconds="368.95" CO_abs="52531.369989" CO2_abs="1417902.564572" HC_abs="272.500126" PMx_abs="30.588704" NOx_abs="627.012272" fuel_abs="609.512292" electricity_abs="0"
            CO_normed="30036.662864" CO2_normed="810735.781600" HC_normed="155.811554" PMx_normed="17.490170" NOx_normed="358.516373" fuel_normed="348.510142" electricity_normed="0"
            traveltime="0.11" CO_perVeh="16.133252" CO2_perVeh="435.461318" HC_perVeh="0.083689" PMx_perVeh="0.009394" NOx_perVeh="0.192566" fuel_perVeh="0.187191" electricity_perVeh="0"/>
        <edge id=":122_0" sampledSeconds="139.80" CO_abs="839.901440" CO2_abs="92969.011550" HC_abs="5.954113" PMx_abs="1.581335" NOx_abs="36.236835" fuel_abs="39.963118" electricity_abs="0"
            CO_normed="18.492448" CO2_normed="2046.936096" HC_normed="0.131094" PMx_normed="0.034817" NOx_normed="0.797841" fuel_normed="0.879884" electricity_normed="0"
            traveltime="0.54" CO_perVeh="3.230108" CO2_perVeh="357.541854" HC_perVeh="0.022898" PMx_perVeh="0.006082" NOx_perVeh="0.139360" fuel_perVeh="0.153691" electricity_perVeh="0"/>
        <edge id=":123_0" sampledSeconds="304.18" CO_abs="39968.547701" CO2_abs="2469893.944757" HC_abs="241.390344" PMx_abs="51.003790" NOx_abs="1060.752396" fuel_abs="1061.691853" electricity_abs="0"
            CO_normed="152.417758" CO2_normed="9418.798527" HC_normed="0.920528" PMx_normed="0.194500" NOx_normed="4.045118" fuel_normed="4.048701" electricity_normed="0"
            traveltime="4.14" CO_perVeh="544.294131" CO2_perVeh="33635.167071" HC_perVeh="3.287268" PMx_perVeh="0.694573" NOx_perVeh="14.445391" fuel_perVeh="14.458185" electricity_perVeh="0"/>
        <edge id=":123_1" sampledSeconds="0.00" CO_abs="0" CO2_abs="0" HC_abs="0" PMx_abs="0" NOx_abs="0" fuel_abs="0" electricity_abs="0"
            CO_normed="0" CO2_normed="0" HC_normed="0" PMx_normed="0" NOx_normed="0" fuel_normed="0" electricity_normed="0"/>
        <edge id=":123_2" sampledSeconds="265.30" CO_abs="35428.857745" CO2_abs="2171759.159990" HC_abs="213.534463" PMx_abs="44.859769" NOx_abs="933.378605" fuel_abs="933.537821" electricity_abs="0"
            CO_normed="136.401561" CO2_normed="8361.300889" HC_normed="0.822110" PMx_normed="0.172711" NOx_normed="3.593520" fuel_normed="3.594133" electricity_normed="0"
            traveltime="4.17" CO_perVeh="556.871054" CO2_perVeh="34135.726878" HC_perVeh="3.356336" PMx_perVeh="0.705106" NOx_perVeh="14.670852" fuel_perVeh="14.673355" electricity_perVeh="0"/>
        <edge id=":123_3" sampledSeconds="468.36" CO_abs="23209.120997" CO2_abs="2165768.066706" HC_abs="157.147600" PMx_abs="40.628188" NOx_abs="870.422580" fuel_abs="930.961829" electricity_abs="0"
            CO_normed="91.426074" CO2_normed="8531.459339" HC_normed="0.619041" PMx_normed="0.160044" NOx_normed="3.428795" fuel_normed="3.667273" electricity_normed="0"
            traveltime="2.80" CO_perVeh="138.916286" CO2_perVeh="12963.026737" HC_perVeh="0.940594" PMx_perVeh="0.243177" NOx_perVeh="5.209843" fuel_perVeh="5.572196" electricity_perVeh="0"/>
        <edge id=":123_5" sampledSeconds="0.00" CO_abs="0" CO2_abs="0" HC_abs="0" PMx_abs="0" NOx_abs="0" fuel_abs="0" electricity_abs="0"
            CO_normed="0" CO2_normed="0" HC_normed="0" PMx_normed="0" NOx_normed="0" fuel_normed="0" electricity_normed="0"/>
        <edge id=":123_6" sampledSeconds="195.16" CO_abs="9308.016466" CO2_abs="870780.042408" HC_abs="62.959801" PMx_abs="16.300561" NOx_abs="349.917032" fuel_abs="374.307379" electricity_abs="0"
            CO_normed="35.416850" CO2_normed="3313.303744" HC_normed="0.239561" PMx_normed="0.062023" NOx_normed="1.331429" fuel_normed="1.424233" electricity_normed="0"
            traveltime="2.92" CO_perVeh="139.252632" CO2_perVeh="13027.309644" HC_perVeh="0.941910" PMx_perVeh="0.243865" NOx_perVeh="5.234936" fuel_perVeh="5.599828" electricity_perVeh="0"/>
        <edge id=":124_0" sampledSeconds="122.91" CO_abs="4391.790700" CO2_abs="392719.063648" HC_abs="29.284776" PMx_abs="7.518288" NOx_abs="158.968426" fuel_abs="168.811352" electricity_abs="0"
            CO_normed="102.814291" CO2_normed="9193.774228" HC_normed="0.685573" PMx_normed="0.176007" NOx_normed="3.721540" fuel_normed="3.951969" electricity_normed="0"
            traveltime="0.46" CO_perVeh="16.501131" CO2_perVeh="1475.550427" HC_perVeh="0.110031" PMx_perVeh="0.028248" NOx_perVeh="0.597287" fuel_perVeh="0.634269" electricity_perVeh="0"/>
        <edge id=":125_0" sampledSeconds="141.20" CO_abs="5339.712764" CO2_abs="534579.648021" HC_abs="36.982226" PMx_abs="9.992831" NOx_abs="211.276501" fuel_abs="229.790700" electricity_abs="0"
            CO_normed="335.848594" CO2_normed="33623.123729" HC_normed="2.326048" PMx_normed="0.628513" NOx_normed="13.288527" fuel_normed="14.453003" electricity_normed="0"
            traveltime="0.16" CO_perVeh="6.115342" CO2_perVeh="612.230939" HC_perVeh="0.042354" PMx_perVeh="0.011444" NOx_perVeh="0.241966" fuel_perVeh="0.263169" electricity_perVeh="0"/>
        <edge id=":125_3" sampledSeconds="0.00" CO_abs="0" CO2_abs="0" HC_abs="0" PMx_abs="0" NOx_abs="0" fuel_abs="0" electricity_abs="0"
            CO_normed="0" CO2_normed="0" HC_normed="0" PMx_normed="0" NOx_normed="0" fuel_normed="0" electricity_normed="0"/>
        <edge id=":126_0" sampledSeconds="27.05" CO_abs="289.682219" CO2_abs="20337.254460" HC_abs="1.792092" PMx_abs="0.330620" NOx_abs="8.156567" fuel_abs="8.742137" electricity_abs="0"
            CO_normed="9.539247" CO2_normed="669.706622" HC_normed="0.059014" PMx_normed="0.010887" NOx_normed="0.268596" fuel_normed="0.287879" electricity_normed="0"
            traveltime="0.56" CO_perVeh="6.018499" CO2_perVeh="422.531096" HC_perVeh="0.037233" PMx_perVeh="0.006869" NOx_perVeh="0.169463" fuel_perVeh="0.181628" electricity_perVeh="0"/>
        <edge id=":126_1" sampledSeconds="84.41" CO_abs="1313.640082" CO2_abs="225143.498499" HC_abs="11.092251" PMx_abs="3.513531" NOx_abs="82.252760" fuel_abs="96.779089" electricity_abs="0"
            CO_normed="38.489070" CO2_normed="6596.604333" HC_normed="0.324998" PMx_normed="0.102945" NOx_normed="2.409969" fuel_normed="2.835584" electricity_normed="0"
            traveltime="0.35" CO_perVeh="5.438979" CO2_perVeh="932.181309" HC_perVeh="0.045926" PMx_perVeh="0.014547" NOx_perVeh="0.340558" fuel_perVeh="0.400703" electricity_perVeh="0"/>
        <edge id=":127_0" sampledSeconds="234.46" CO_abs="4765.569119" CO2_abs="659033.692253" HC_abs="36.946397" PMx_abs="11.002647" NOx_abs="247.028497" fuel_abs="283.288576" electricity_abs="0"
            CO_normed="110.197440" CO2_normed="15239.276605" HC_normed="0.854336" PMx_normed="0.254422" NOx_normed="5.712205" fuel_normed="6.550671" electricity_normed="0"
            traveltime="0.44" CO_perVeh="8.911729" CO2_perVeh="1232.408923" HC_perVeh="0.069091" PMx_perVeh="0.020575" NOx_perVeh="0.461949" fuel_perVeh="0.529756" electricity_perVeh="0"/>
        <edge id=":128_0" sampledSeconds="229.09" CO_abs="268.025940" CO2_abs="44755.028445" HC_abs="2.238021" PMx_abs="0.649775" NOx_abs="16.395383" fuel_abs="19.238225" electricity_abs="0"
            CO_normed="4.141981" CO2_normed="691.628795" HC_normed="0.034586" PMx_normed="0.010041" NOx_normed="0.253369" fuel_normed="0.297301" electricity_normed="0"
            traveltime="0.75" CO_perVeh="0.881099" CO2_perVeh="147.126070" HC_perVeh="0.007357" PMx_perVeh="0.002136" NOx_perVeh="0.053898" fuel_perVeh="0.063243" electricity_perVeh="0"/>
        <edge id=":128_1" sampledSeconds="142.38" CO_abs="149.732249" CO2_abs="23491.338804" HC_abs="1.215822" PMx_abs="0.289946" NOx_abs="8.509996" fuel_abs="10.097961" electricity_abs="0"
            CO_normed="2.390258" CO2_normed="375.005109" HC_normed="0.019409" PMx_normed="0.004629" NOx_normed="0.135850" fuel_normed="0.161199" electricity_normed="0"
            traveltime="0.85" CO_perVeh="0.897560" CO2_perVeh="140.817223" HC_perVeh="0.007288" PMx_perVeh="0.001738" NOx_perVeh="0.051013" fuel_perVeh="0.060532" electricity_perVeh="0"/>
        <edge id=":129_0" sampledSeconds="109.65" CO_abs="5900.958184" CO2_abs="532144.261049" HC_abs="39.477632" PMx_abs="10.011079" NOx_abs="215.433111" fuel_abs="228.743769" electricity_abs="0"
            CO_normed="137.462555" CO2_normed="12396.276559" HC_normed="0.919630" PMx_normed="0.233208" NOx_normed="5.018505" fuel_normed="5.328576" electricity_normed="0"
            traveltime="0.50" CO_perVeh="26.760217" CO2_perVeh="2413.217543" HC_perVeh="0.179027" PMx_perVeh="0.045399" NOx_perVeh="0.976966" fuel_perVeh="1.037329" electricity_perVeh="0"/>
        <edge id=":13_0" sampledSeconds="60.39" CO_abs="4893.889820" CO2_abs="351445.639287" HC_abs="30.665530" PMx_abs="6.768937" NOx_abs="147.049191" fuel_abs="151.070180" electricity_abs="0"
            CO_normed="34.598120" CO2_normed="2484.599983" HC_normed="0.216795" PMx_normed="0.047854" NOx_normed="1.039587" fuel_normed="1.068014" electricity_normed="0"
            traveltime="2.14" CO_perVeh="173.104749" CO2_perVeh="12431.197138" HC_perVeh="1.084689" PMx_perVeh="0.239428" NOx_perVeh="5.201366" fuel_perVeh="5.343595" electricity_perVeh="0"/>
        <edge id=":13_1" sampledSeconds="529.84" CO_abs="14088.057951" CO2_abs="1055084.829039" HC_abs="88.494337" PMx_abs="15.899010" NOx_abs="413.919790" fuel_abs="453.538170" electricity_abs="0"
            CO_normed="140.351820" CO2_normed="10511.248330" HC_normed="0.881622" PMx_normed="0.158393" NOx_normed="4.123662" fuel_normed="4.518359" electricity_normed="0"
            traveltime="1.85" CO_perVeh="49.184761" CO2_perVeh="3683.552042" HC_perVeh="0.308955" PMx_perVeh="0.055507" NOx_perVeh="1.445092" fuel_perVeh="1.583410" electricity_perVeh="0"/>
        <edge id=":132_0" sampledSeconds="42.87" CO_abs="601.125580" CO2_abs="91122.799358" HC_abs="4.774559" PMx_abs="1.350407" NOx_abs="33.868806" fuel_abs="39.169664" electricity_abs="0"
            CO_normed="1134.258655" CO2_normed="171938.821578" HC_normed="9.009074" PMx_normed="2.548072" NOx_normed="63.906756" fuel_normed="73.908899" electricity_normed="0"