<?xml version="1.0" encoding="UTF-8"?>

<!-- generated on Wed Sep 30 01:48:21 2020 by Eclipse SUMO Version 1.1.0
<configuration xmlns:xsi="http://www.w3.org/2001/XMLSchema-instance" xsi:noNamespaceSchemaLocation="http://sumo.dlr.de/xsd/sumoConfiguration.xsd">

    <input>
        <net-file value="../dataSets/Angeja_Estarreja/angeja_estarreja.net.xml"/>
        <route-files value="../results/angeja_estarreja/inputdata/angeja_estarreja-base.rou.xml"/>
        <additional-files value="moreOutputInfo.xml"/>
    </input>

    <output>
        <emission-output.precision value="6"/>
        <tripinfo-output value="../results/angeja_estarreja/inputdata/angeja_estarreja-tripinfo"/>
    </output>

    <processing>
        <collision.action value="warn"/>
        <time-to-teleport value="-1"/>
    </processing>

    <emissions>
        <device.emissions.probability value="1"/>
    </emissions>

    <gui_only>
        <quit-on-end value="true"/>
        <start value="true"/>
    </gui_only>

</configuration>
-->

<tripinfos xmlns:xsi="http://www.w3.org/2001/XMLSchema-instance" xsi:noNamespaceSchemaLocation="http://sumo.dlr.de/xsd/tripinfo_file.xsd">
    <tripinfo id="sveh21" depart="88.00" departLane="1_0" departPos="4.85" departSpeed="14.03" departDelay="0.00" arrival="141.00" arrivalLane="77477309_0" arrivalPos="222.43" arrivalSpeed="15.58" duration="53.00" routeLength="718.95" waitingTime="0.00" waitingCount="0" stopTime="0.00" timeLoss="3.35" rerouteNo="0" devices="tripinfo_sveh21 emissions_sveh21" vType="SCar" speedFactor="1.01" vaporized="">
        <emissions CO_abs="1250.603942" CO2_abs="133479.873809" HC_abs="8.792519" PMx_abs="2.072239" NOx_abs="51.486579" fuel_abs="57.377162" electricity_abs="0"/>
    </tripinfo>
    <tripinfo id="sveh23" depart="94.00" departLane="100_0" departPos="4.85" departSpeed="14.83" departDelay="0.00" arrival="145.00" arrivalLane="2_0" arrivalPos="142.18" arrivalSpeed="11.89" duration="51.00" routeLength="613.33" waitingTime="0.00" waitingCount="0" stopTime="0.00" timeLoss="3.90" rerouteNo="0" devices="tripinfo_sveh23 emissions_sveh23" vType="SCar" speedFactor="0.89" vaporized="">
        <emissions CO_abs="1177.184459" CO2_abs="115009.092874" HC_abs="7.996274" PMx_abs="1.616726" NOx_abs="43.685504" fuel_abs="49.437683" electricity_abs="0"/>
    </tripinfo>
    <tripinfo id="sveh6" depart="41.00" departLane="389783911.154_0" departPos="4.85" departSpeed="22.22" departDelay="0.00" arrival="216.00" arrivalLane="462392869_1" arrivalPos="125.48" arrivalSpeed="21.95" duration="175.00" routeLength="3746.53" waitingTime="0.00" waitingCount="0" stopTime="0.00" timeLoss="5.46" rerouteNo="0" devices="tripinfo_sveh6 emissions_sveh6" vType="SCar" speedFactor="1.05" vaporized="">
        <emissions CO_abs="4415.343901" CO2_abs="535534.102391" HC_abs="33.162071" PMx_abs="9.795845" NOx_abs="201.462251" fuel_abs="230.201468" electricity_abs="0"/>
    </tripinfo>
    <tripinfo id="sveh7" depart="42.00" departLane="389783911.154_0" departPos="4.85" departSpeed="19.80" departDelay="0.00" arrival="217.00" arrivalLane="462392869_2" arrivalPos="125.48" arrivalSpeed="21.80" duration="175.00" routeLength="3746.53" waitingTime="0.00" waitingCount="0" stopTime="0.00" timeLoss="5.45" rerouteNo="0" devices="tripinfo_sveh7 emissions_sveh7" vType="SCar" speedFactor="0.89" vaporized="">
        <emissions CO_abs="4887.994391" CO2_abs="565495.288705" HC_abs="36.034647" PMx_abs="10.483837" NOx_abs="214.411802" fuel_abs="243.080299" electricity_abs="0"/>
    </tripinfo>
    <tripinfo id="sveh11" depart="55.00" departLane="462392872_0" departPos="4.85" departSpeed="22.22" departDelay="0.00" arrival="220.00" arrivalLane="389783908_0" arrivalPos="273.35" arrivalSpeed="21.68" duration="165.00" routeLength="3556.47" waitingTime="0.00" waitingCount="0" stopTime="0.00" timeLoss="4.33" rerouteNo="0" devices="tripinfo_sveh11 emissions_sveh11" vType="SCar" speedFactor="1.03" vaporized="">
        <emissions CO_abs="3736.656906" CO2_abs="494941.822634" HC_abs="29.068173" PMx_abs="8.841224" NOx_abs="183.349805" fuel_abs="212.752897" electricity_abs="0"/>
    </tripinfo>
    <tripinfo id="sveh31" depart="147.00" departLane="1_0" departPos="4.85" departSpeed="16.28" departDelay="0.00" arrival="240.00" arrivalLane="245327988#1_0" arrivalPos="180.33" arrivalSpeed="21.52" duration="93.00" routeLength="1550.83" waitingTime="0.00" waitingCount="0" stopTime="0.00" timeLoss="13.84" rerouteNo="0" devices="tripinfo_sveh31 emissions_sveh31" vType="SCar" speedFactor="1.17" vaporized="">
        <emissions CO_abs="4945.418696" CO2_abs="394081.471595" HC_abs="31.977875" PMx_abs="7.706457" NOx_abs="160.782851" fuel_abs="169.397201" electricity_abs="0"/>
    </tripinfo>
    <tripinfo id="sveh26" depart="125.00" departLane="462392872_0" departPos="4.85" departSpeed="22.22" departDelay="0.00" arrival="291.00" arrivalLane="389783908_0" arrivalPos="273.35" arrivalSpeed="21.48" duration="166.00" routeLength="3556.47" waitingTime="0.00" waitingCount="0" stopTime="0.00" timeLoss="5.10" rerouteNo="0" devices="tripinfo_sveh26 emissions_sveh26" vType="SCar" speedFactor="0.92" vaporized="">
        <emissions CO_abs="3554.859862" CO2_abs="464190.520075" HC_abs="27.489575" PMx_abs="8.315753" NOx_abs="172.551804" fuel_abs="199.534277" electricity_abs="0"/>
    </tripinfo>
    <tripinfo id="sveh12" depart="58.00" departLane="462392872_0" departPos="4.85" departSpeed="22.22" departDelay="0.00" arrival="308.00" arrivalLane="319615436_0" arrivalPos="125.64" arrivalSpeed="22.01" duration="250.00" routeLength="4773.89" waitingTime="0.00" waitingCount="0" stopTime="0.00" timeLoss="10.89" rerouteNo="0" devices="tripinfo_sveh12 emissions_sveh12" vType="SCar" speedFactor="1.05" vaporized="">
        <emissions CO_abs="6029.591013" CO2_abs="716634.291541" HC_abs="44.415497" PMx_abs="12.630478" NOx_abs="271.911210" fuel_abs="308.048313" electricity_abs="0"/>
    </tripinfo>
    <tripinfo id="sveh34" depart="151.00" departLane="462392872_0" departPos="4.85" departSpeed="22.22" departDelay="0.00" arrival="316.00" arrivalLane="389783908_0" arrivalPos="273.35" arrivalSpeed="21.69" duration="165.00" routeLength="3556.47" waitingTime="0.00" waitingCount="0" stopTime="0.00" timeLoss="4.64" rerouteNo="0" devices="tripinfo_sveh34 emissions_sveh34" vType="SCar" speedFactor="0.99" vaporized="">
        <emissions CO_abs="3782.003559" CO2_abs="460093.132361" HC_abs="28.417490" PMx_abs="8.411069" NOx_abs="172.812919" fuel_abs="197.772885" electricity_abs="0"/>
    </tripinfo>
    <tripinfo id="sveh53" depart="264.00" departLane="24443879.82_0" departPos="4.85" departSpeed="16.72" departDelay="0.00" arrival="333.00" arrivalLane="319615436_0" arrivalPos="125.64" arrivalSpeed="21.79" duration="69.00" routeLength="1041.49" waitingTime="0.00" waitingCount="0" stopTime="0.00" timeLoss="4.97" rerouteNo="0" devices="tripinfo_sveh53 emissions_sveh53" vType="SCar" speedFactor="1.00" vaporized="">
        <emissions CO_abs="1971.801581" CO2_abs="194054.818456" HC_abs="13.433043" PMx_abs="3.365975" NOx_abs="76.687517" fuel_abs="83.415299" electricity_abs="0"/>
    </tripinfo>
    <tripinfo id="sveh18" depart="77.00" departLane="319615443_0" departPos="4.85" departSpeed="22.22" departDelay="0.00" arrival="362.00" arrivalLane="462392869_1" arrivalPos="125.48" arrivalSpeed="21.48" duration="285.00" routeLength="5127.13" waitingTime="1.00" waitingCount="1" stopTime="0.00" timeLoss="20.44" rerouteNo="0" devices="tripinfo_sveh18 emissions_sveh18" vType="SCar" speedFactor="0.94" vaporized="">
        <emissions CO_abs="8364.220949" CO2_abs="853750.250900" HC_abs="58.552027" PMx_abs="15.409109" NOx_abs="329.940997" fuel_abs="366.988324" electricity_abs="0"/>
    </tripinfo>
    <tripinfo id="sveh48" depart="226.00" departLane="389783911.154_0" departPos="4.85" departSpeed="22.22" departDelay="0.00" arrival="400.00" arrivalLane="462392869_1" arrivalPos="125.48" arrivalSpeed="21.59" duration="174.00" routeLength="3746.53" waitingTime="0.00" waitingCount="0" stopTime="0.00" timeLoss="4.71" rerouteNo="0" devices="tripinfo_sveh48 emissions_sveh48" vType="SCar" speedFactor="0.88" vaporized="">
        <emissions CO_abs="4481.040636" CO2_abs="545729.681457" HC_abs="33.705179" PMx_abs="9.979651" NOx_abs="204.878346" fuel_abs="234.584107" electricity_abs="0"/>
    </tripinfo>
    <tripinfo id="sveh28" depart="136.00" departLane="319615443_0" departPos="4.85" departSpeed="22.22" departDelay="0.00" arrival="404.00" arrivalLane="462392869_1" arrivalPos="125.48" arrivalSpeed="21.89" duration="268.00" routeLength="5127.13" waitingTime="1.00" waitingCount="1" stopTime="0.00" timeLoss="19.95" rerouteNo="0" devices="tripinfo_sveh28 emissions_sveh28" vType="SCar" speedFactor="1.13" vaporized="">
        <emissions CO_abs="7972.846360" CO2_abs="850966.080905" HC_abs="56.753490" PMx_abs="15.504713" NOx_abs="327.516918" fuel_abs="365.791236" electricity_abs="0"/>
    </tripinfo>
    <tripinfo id="sveh50" depart="239.00" departLane="27_0" departPos="4.85" departSpeed="16.62" departDelay="0.00" arrival="413.00" arrivalLane="389783908_0" arrivalPos="273.35" arrivalSpeed="20.94" duration="174.00" routeLength="3248.08" waitingTime="0.00" waitingCount="0" stopTime="0.00" timeLoss="7.61" rerouteNo="0" devices="tripinfo_sveh50 emissions_sveh50" vType="SCar" speedFactor="0.85" vaporized="">
        <emissions CO_abs="4691.234650" CO2_abs="489311.832503" HC_abs="33.210324" PMx_abs="8.913669" NOx_abs="188.333142" fuel_abs="210.332794" electricity_abs="0"/>
    </tripinfo>
    <tripinfo id="sveh71" depart="435.00" departLane="1_0" departPos="4.85" departSpeed="14.66" departDelay="0.00" arrival="487.00" arrivalLane="77477309_0" arrivalPos="222.43" arrivalSpeed="16.39" duration="52.00" routeLength="718.95" waitingTime="0.00" waitingCount="0" stopTime="0.00" timeLoss="4.45" rerouteNo="0" devices="tripinfo_sveh71 emissions_sveh71" vType="SCar" speedFactor="1.06" vaporized="">
        <emissions CO_abs="1581.532502" CO2_abs="152858.090873" HC_abs="10.747580" PMx_abs="2.534285" NOx_abs="59.968369" fuel_abs="65.706890" electricity_abs="0"/>
    </tripinfo>
    <tripinfo id="sveh57" depart="321.00" departLane="389783911.154_0" departPos="4.85" departSpeed="22.22" departDelay="0.00" arrival="495.00" arrivalLane="462392869_1" arrivalPos="125.48" arrivalSpeed="21.58" duration="174.00" routeLength="3746.53" waitingTime="0.00" waitingCount="0" stopTime="0.00" timeLoss="5.08" rerouteNo="0" devices="tripinfo_sveh57 emissions_sveh57" vType="SCar" speedFactor="1.02" vaporized="">
        <emissions CO_abs="4636.992372" CO2_abs="556508.504325" HC_abs="34.618913" PMx_abs="10.205097" NOx_abs="209.502361" fuel_abs="239.217390" electricity_abs="0"/>
    </tripinfo>
    <tripinfo id="sveh20" depart="86.00" departLane="248846659#1.206_0" departPos="4.85" departSpeed="11.31" departDelay="0.00" arrival="499.00" arrivalLane="188949094#1_0" arrivalPos="37.15" arrivalSpeed="17.67" duration="413.00" routeLength="5895.24" waitingTime="1.00" waitingCount="1" stopTime="0.00" timeLoss="31.34" rerouteNo="0" devices="tripinfo_sveh20 emissions_sveh20" vType="SCar" speedFactor="1.02" vaporized="">
        <emissions CO_abs="9736.886671" CO2_abs="1009268.793428" HC_abs="67.710278" PMx_abs="16.413434" NOx_abs="391.122587" fuel_abs="433.839902" electricity_abs="0"/>
    </tripinfo>
    <tripinfo id="sveh19" depart="80.00" departLane="248846659#1.206_0" departPos="4.85" departSpeed="12.87" departDelay="0.00" arrival="503.00" arrivalLane="77477309_0" arrivalPos="222.43" arrivalSpeed="19.19" duration="423.00" routeLength="6518.69" waitingTime="0.00" waitingCount="0" stopTime="0.00" timeLoss="30.32" rerouteNo="0" devices="tripinfo_sveh19 emissions_sveh19" vType="SCar" speedFactor="1.16" vaporized="">
        <emissions CO_abs="10461.207299" CO2_abs="1142456.380152" HC_abs="73.975859" PMx_abs="18.864735" NOx_abs="440.963091" fuel_abs="491.090755" electricity_abs="0"/>
    </tripinfo>
    <tripinfo id="sveh22" depart="92.00" departLane="27_0" departPos="4.85" departSpeed="18.95" departDelay="0.00" arrival="526.00" arrivalLane="-248846659#1_0" arrivalPos="144.53" arrivalSpeed="9.66" duration="434.00" routeLength="5825.70" waitingTime="0.00" waitingCount="0" stopTime="0.00" timeLoss="23.86" rerouteNo="0" devices="tripinfo_sveh22 emissions_sveh22" vType="SCar" speedFactor="0.98" vaporized="">
        <emissions CO_abs="7437.144208" CO2_abs="914585.837301" HC_abs="54.726903" PMx_abs="12.955105" NOx_abs="343.093341" fuel_abs="393.141537" electricity_abs="0"/>
    </tripinfo>
    <tripinfo id="sveh49" depart="237.00" departLane="319615443_0" departPos="4.85" departSpeed="22.22" departDelay="0.00" arrival="534.00" arrivalLane="462392869_1" arrivalPos="125.48" arrivalSpeed="21.14" duration="297.00" routeLength="5127.13" waitingTime="1.00" waitingCount="1" stopTime="0.00" timeLoss="21.41" rerouteNo="0" devices="tripinfo_sveh49 emissions_sveh49" vType="SCar" speedFactor="0.85" vaporized="">
        <emissions CO_abs="7666.405100" CO2_abs="843298.485191" HC_abs="55.009170" PMx_abs="14.429381" NOx_abs="319.936004" fuel_abs="362.496375" electricity_abs="0"/>
    </tripinfo>
    <tripinfo id="sveh38" depart="170.00" departLane="248846659#1.206_0" departPos="4.85" departSpeed="12.25" departDelay="0.00" arrival="546.00" arrivalLane="188949094#1_0" arrivalPos="37.15" arrivalSpeed="14.68" duration="376.00" routeLength="5895.24" waitingTime="0.00" waitingCount="0" stopTime="0.00" timeLoss="23.61" rerouteNo="0" devices="tripinfo_sveh38 emissions_sveh38" vType="SCar" speedFactor="1.10" vaporized="">
        <emissions CO_abs="8185.155173" CO2_abs="930894.814495" HC_abs="58.944523" PMx_abs="15.310699" NOx_abs="358.119957" fuel_abs="400.149851" electricity_abs="0"/>
    </tripinfo>
    <tripinfo id="sveh5" depart="31.00" departLane="319611362_0" departPos="4.85" departSpeed="22.22" departDelay="0.00" arrival="550.00" arrivalLane="319615436_1" arrivalPos="125.64" arrivalSpeed="21.56" duration="519.00" routeLength="11178.14" waitingTime="0.00" waitingCount="0" stopTime="0.00" timeLoss="15.05" rerouteNo="0" devices="tripinfo_sveh5 emissions_sveh5" vType="SCar" speedFactor="1.03" vaporized="">
        <emissions CO_abs="12763.044302" CO2_abs="1573739.286633" HC_abs="96.323106" PMx_abs="28.641563" NOx_abs="589.811364" fuel_abs="676.478247" electricity_abs="0"/>
    </tripinfo>
    <tripinfo id="sveh30" depart="141.00" departLane="248846659#1.206_0" departPos="4.85" departSpeed="13.09" departDelay="0.00" arrival="558.00" arrivalLane="77477309_0" arrivalPos="222.43" arrivalSpeed="18.79" duration="417.00" routeLength="6518.69" waitingTime="0.00" waitingCount="0" stopTime="0.00" timeLoss="30.84" rerouteNo="0" devices="tripinfo_sveh30 emissions_sveh30" vType="SCar" speedFactor="1.18" vaporized="">
        <emissions CO_abs="10998.868581" CO2_abs="1193820.483871" HC_abs="77.810898" PMx_abs="19.875522" NOx_abs="461.264529" fuel_abs="513.169780" electricity_abs="0"/>
    </tripinfo>
    <tripinfo id="sveh8" depart="45.00" departLane="319615443_0" departPos="4.85" departSpeed="22.22" departDelay="0.00" arrival="560.00" arrivalLane="319611370_1" arrivalPos="380.09" arrivalSpeed="21.57" duration="515.00" routeLength="11083.48" waitingTime="0.00" waitingCount="0" stopTime="0.00" timeLoss="15.45" rerouteNo="0" devices="tripinfo_sveh8 emissions_sveh8" vType="SCar" speedFactor="0.94" vaporized="">
        <emissions CO_abs="12879.573694" CO2_abs="1558304.545817" HC_abs="96.580538" PMx_abs="28.524834" NOx_abs="586.100582" fuel_abs="669.843429" electricity_abs="0"/>
    </tripinfo>
    <tripinfo id="sveh9" depart="52.00" departLane="319611362_0" departPos="4.85" departSpeed="22.22" departDelay="0.00" arrival="571.00" arrivalLane="319615436_1" arrivalPos="125.64" arrivalSpeed="21.80" duration="519.00" routeLength="11178.14" waitingTime="0.00" waitingCount="0" stopTime="0.00" timeLoss="15.69" rerouteNo="0" devices="tripinfo_sveh9 emissions_sveh9" vType="SCar" speedFactor="0.86" vaporized="">
        <emissions CO_abs="11996.792360" CO2_abs="1514733.136900" HC_abs="91.389692" PMx_abs="27.372980" NOx_abs="565.780841" fuel_abs="651.114335" electricity_abs="0"/>
    </tripinfo>
    <tripinfo id="sveh70" depart="423.00" departLane="27_0" departPos="4.85" departSpeed="18.91" departDelay="0.00" arrival="591.00" arrivalLane="389783908_0" arrivalPos="273.35" arrivalSpeed="20.99" duration="168.00" routeLength="3248.08" waitingTime="0.00" waitingCount="0" stopTime="0.00" timeLoss="6.83" rerouteNo="0" devices="tripinfo_sveh70 emissions_sveh70" vType="SCar" speedFactor="0.97" vaporized="">
        <emissions CO_abs="4314.265476" CO2_abs="506543.335427" HC_abs="31.901229" PMx_abs="9.020538" NOx_abs="191.849391" fuel_abs="217.739865" electricity_abs="0"/>
    </tripinfo>
    <tripinfo id="sveh17" depart="72.00" departLane="319611362_0" departPos="4.85" departSpeed="22.22" departDelay="0.00" arrival="592.00" arrivalLane="319615436_1" arrivalPos="125.64" arrivalSpeed="21.65" duration="520.00" routeLength="11178.14" waitingTime="0.00" waitingCount="0" stopTime="0.00" timeLoss="15.99" rerouteNo="0" devices="tripinfo_sveh17 emissions_sveh17" vType="SCar" speedFactor="0.94" vaporized="">
        <emissions CO_abs="12289.408239" CO2_abs="1525067.030893" HC_abs="92.970490" PMx_abs="27.694552" NOx_abs="571.185071" fuel_abs="655.556304" electricity_abs="0"/>
    </tripinfo>
    <tripinfo id="sveh37" depart="165.00" departLane="248846659#1.206_0" departPos="4.85" departSpeed="13.11" departDelay="0.00" arrival="594.00" arrivalLane="77477309_0" arrivalPos="222.43" arrivalSpeed="19.55" duration="429.00" routeLength="6518.69" waitingTime="7.00" waitingCount="1" stopTime="0.00" timeLoss="42.93" rerouteNo="0" devices="tripinfo_sveh37 emissions_sveh37" vType="SCar" speedFactor="1.18" vaporized="">
        <emissions CO_abs="11959.676707" CO2_abs="1208800.181558" HC_abs="82.558886" PMx_abs="20.311868" NOx_abs="468.760573" fuel_abs="519.609249" electricity_abs="0"/>
    </tripinfo>
    <tripinfo id="sveh43" depart="191.00" departLane="27_0" departPos="4.85" departSpeed="20.17" departDelay="0.00" arrival="600.00" arrivalLane="-248846659#1_0" arrivalPos="144.53" arrivalSpeed="10.60" duration="409.00" routeLength="5825.70" waitingTime="0.00" waitingCount="0" stopTime="0.00" timeLoss="23.99" rerouteNo="0" devices="tripinfo_sveh43 emissions_sveh43" vType="SCar" speedFactor="1.04" vaporized="">
        <emissions CO_abs="7885.292179" CO2_abs="923174.055531" HC_abs="57.128762" PMx_abs="14.147709" NOx_abs="352.090680" fuel_abs="396.832044" electricity_abs="0"/>
    </tripinfo>
    <tripinfo id="sveh84" depart="535.00" departLane="27_0" departPos="4.85" departSpeed="19.47" departDelay="0.00" arrival="605.00" arrivalLane="462392869_0" arrivalPos="125.48" arrivalSpeed="21.47" duration="70.00" routeLength="996.02" waitingTime="0.00" waitingCount="0" stopTime="0.00" timeLoss="7.28" rerouteNo="0" devices="tripinfo_sveh84 emissions_sveh84" vType="SCar" speedFactor="1.00" vaporized="">
        <emissions CO_abs="2509.559199" CO2_abs="227385.375318" HC_abs="16.782311" PMx_abs="3.961731" NOx_abs="90.202041" fuel_abs="97.742728" electricity_abs="0"/>
    </tripinfo>
    <tripinfo id="sveh24" depart="103.00" departLane="319615443_0" departPos="4.85" departSpeed="22.22" departDelay="0.00" arrival="618.00" arrivalLane="319611370_1" arrivalPos="380.09" arrivalSpeed="22.14" duration="515.00" routeLength="11083.48" waitingTime="0.00" waitingCount="0" stopTime="0.00" timeLoss="15.24" rerouteNo="0" devices="tripinfo_sveh24 emissions_sveh24" vType="SCar" speedFactor="0.83" vaporized="">
        <emissions CO_abs="12534.023527" CO2_abs="1577254.367231" HC_abs="95.345433" PMx_abs="28.538752" NOx_abs="589.157574" fuel_abs="677.989345" electricity_abs="0"/>
    </tripinfo>
    <tripinfo id="sveh73" depart="450.00" departLane="389783911.154_0" departPos="4.85" departSpeed="22.22" departDelay="0.00" arrival="624.00" arrivalLane="462392869_1" arrivalPos="125.48" arrivalSpeed="22.00" duration="174.00" routeLength="3746.53" waitingTime="0.00" waitingCount="0" stopTime="0.00" timeLoss="4.93" rerouteNo="0" devices="tripinfo_sveh73 emissions_sveh73" vType="SCar" speedFactor="0.98" vaporized="">
        <emissions CO_abs="4047.922056" CO2_abs="510071.154211" HC_abs="30.855040" PMx_abs="9.234582" NOx_abs="190.508087" fuel_abs="219.256207" electricity_abs="0"/>
    </tripinfo>
    <tripinfo id="sveh14" depart="62.00" departLane="319611362_0" departPos="4.85" departSpeed="22.22" departDelay="0.00" arrival="641.00" arrivalLane="95223234_0" arrivalPos="261.08" arrivalSpeed="13.32" duration="579.00" routeLength="11796.58" waitingTime="0.00" waitingCount="0" stopTime="0.00" timeLoss="21.03" rerouteNo="0" devices="tripinfo_sveh14 emissions_sveh14" vType="SCar" speedFactor="0.99" vaporized="">
        <emissions CO_abs="13522.977869" CO2_abs="1658790.929051" HC_abs="101.771250" PMx_abs="29.606429" NOx_abs="623.204457" fuel_abs="713.038465" electricity_abs="0"/>
    </tripinfo>
    <tripinfo id="sveh68" depart="408.00" departLane="27_0" departPos="4.85" departSpeed="19.89" departDelay="0.00" arrival="659.00" arrivalLane="319615436_0" arrivalPos="125.64" arrivalSpeed="21.75" duration="251.00" routeLength="4465.50" waitingTime="0.00" waitingCount="0" stopTime="0.00" timeLoss="11.50" rerouteNo="0" devices="tripinfo_sveh68 emissions_sveh68" vType="SCar" speedFactor="1.02" vaporized="">
        <emissions CO_abs="6185.268815" CO2_abs="727106.713164" HC_abs="45.484183" PMx_abs="12.492215" NOx_abs="277.120903" fuel_abs="312.550176" electricity_abs="0"/>
    </tripinfo>
    <tripinfo id="sveh2" depart="22.00" departLane="516175821_0" departPos="4.85" departSpeed="22.22" departDelay="0.00" arrival="667.00" arrivalLane="462392869_1" arrivalPos="125.48" arrivalSpeed="22.19" duration="645.00" routeLength="13909.04" waitingTime="0.00" waitingCount="0" stopTime="0.00" timeLoss="18.28" rerouteNo="0" devices="tripinfo_sveh2 emissions_sveh2" vType="SCar" speedFactor="1.01" vaporized="">
        <emissions CO_abs="15633.731942" CO2_abs="2000123.074363" HC_abs="119.701311" PMx_abs="36.028580" NOx_abs="744.953066" fuel_abs="859.761354" electricity_abs="0"/>
    </tripinfo>
    <tripinfo id="sveh35" depart="152.00" departLane="319615443_0" departPos="4.85" departSpeed="22.22" departDelay="0.00" arrival="667.00" arrivalLane="319611370_1" arrivalPos="380.09" arrivalSpeed="21.73" duration="515.00" routeLength="11083.48" waitingTime="0.00" waitingCount="0" stopTime="0.00" timeLoss="15.46" rerouteNo="0" devices="tripinfo_sveh35 emissions_sveh35" vType="SCar" speedFactor="1.02" vaporized="">
        <emissions CO_abs="11970.665096" CO2_abs="1557966.564456" HC_abs="92.340590" PMx_abs="27.929743" NOx_abs="579.025557" fuel_abs="669.698588" electricity_abs="0"/>
    </tripinfo>
    <tripinfo id="sveh86" depart="549.00" departLane="516175821_0" departPos="4.85" departSpeed="22.22" departDelay="0.00" arrival="670.00" arrivalLane="2_0" arrivalPos="142.18" arrivalSpeed="12.80" duration="121.00" routeLength="1876.02" waitingTime="0.00" waitingCount="0" stopTime="0.00" timeLoss="10.63" rerouteNo="0" devices="tripinfo_sveh86 emissions_sveh86" vType="SCar" speedFactor="1.01" vaporized="">
        <emissions CO_abs="3361.627579" CO2_abs="340447.459693" HC_abs="23.271178" PMx_abs="5.798058" NOx_abs="132.059474" fuel_abs="146.343098" electricity_abs="0"/>
    </tripinfo>
    <tripinfo id="sveh92" depart="562.00" departLane="516175821_0" departPos="4.85" departSpeed="22.22" departDelay="0.00" arrival="674.00" arrivalLane="2_0" arrivalPos="142.18" arrivalSpeed="14.26" duration="112.00" routeLength="1876.02" waitingTime="0.00" waitingCount="0" stopTime="0.00" timeLoss="8.44" rerouteNo="0" devices="tripinfo_sveh92 emissions_sveh92" vType="SCar" speedFactor="1.09" vaporized="">
        <emissions CO_abs="3228.172699" CO2_abs="342882.715909" HC_abs="22.728794" PMx_abs="5.992213" NOx_abs="132.984375" fuel_abs="147.389635" electricity_abs="0"/>
    </tripinfo>
    <tripinfo id="sveh0" depart="1.00" departLane="516175821_0" departPos="4.85" departSpeed="22.22" departDelay="0.00" arrival="684.00" arrivalLane="389783908_0" arrivalPos="273.35" arrivalSpeed="21.82" duration="683.00" routeLength="14621.90" waitingTime="0.00" waitingCount="0" stopTime="0.00" timeLoss="19.78" rerouteNo="0" devices="tripinfo_sveh0 emissions_sveh0" vType="SCar" speedFactor="1.06" vaporized="">
        <emissions CO_abs="16248.042598" CO2_abs="1979710.613391" HC_abs="122.082826" PMx_abs="36.087927" NOx_abs="744.081160" fuel_abs="850.986582" electricity_abs="0"/>
    </tripinfo>
    <tripinfo id="sveh42" depart="183.00" departLane="319615443_0" departPos="4.85" departSpeed="22.22" departDelay="0.00" arrival="698.00" arrivalLane="319611370_1" arrivalPos="380.09" arrivalSpeed="21.95" duration="515.00" routeLength="11083.48" waitingTime="0.00" waitingCount="0" stopTime="0.00" timeLoss="15.88" rerouteNo="0" devices="tripinfo_sveh42 emissions_sveh42" vType="SCar" speedFactor="1.09" vaporized="">
        <emissions CO_abs="12032.123238" CO2_abs="1527562.475453" HC_abs="91.868808" PMx_abs="27.567003" NOx_abs="570.008080" fuel_abs="656.629115" electricity_abs="0"/>
    </tripinfo>
    <tripinfo id="sveh1" depart="16.00" departLane="462392872_0" departPos="4.85" departSpeed="22.22" departDelay="0.00" arrival="700.00" arrivalLane="245327988#1_0" arrivalPos="180.33" arrivalSpeed="22.21" duration="684.00" routeLength="14544.77" waitingTime="0.00" waitingCount="0" stopTime="0.00" timeLoss="20.45" rerouteNo="0" devices="tripinfo_sveh1 emissions_sveh1" vType="SCar" speedFactor="0.94" vaporized="">
        <emissions CO_abs="15321.163108" CO2_abs="1956476.160096" HC_abs="117.253224" PMx_abs="35.080242" NOx_abs="729.943244" fuel_abs="840.999595" electricity_abs="0"/>
    </tripinfo>
    <tripinfo id="sveh85" depart="537.00" departLane="462392872_0" departPos="4.85" departSpeed="22.22" departDelay="0.00" arrival="702.00" arrivalLane="389783908_0" arrivalPos="273.35" arrivalSpeed="21.56" duration="165.00" routeLength="3556.47" waitingTime="0.00" waitingCount="0" stopTime="0.00" timeLoss="4.89" rerouteNo="0" devices="tripinfo_sveh85 emissions_sveh85" vType="SCar" speedFactor="1.04" vaporized="">
        <emissions CO_abs="3770.464107" CO2_abs="467294.856689" HC_abs="28.564545" PMx_abs="8.499093" NOx_abs="175.091204" fuel_abs="200.868601" electricity_abs="0"/>
    </tripinfo>
    <tripinfo id="sveh13" depart="59.00" departLane="516175821_0" departPos="4.85" departSpeed="22.22" departDelay="0.00" arrival="705.00" arrivalLane="462392869_1" arrivalPos="125.48" arrivalSpeed="21.43" duration="646.00" routeLength="13909.04" waitingTime="0.00" waitingCount="0" stopTime="0.00" timeLoss="19.37" rerouteNo="0" devices="tripinfo_sveh13 emissions_sveh13" vType="SCar" speedFactor="1.12" vaporized="">
        <emissions CO_abs="15037.336430" CO2_abs="1919924.127105" HC_abs="115.039165" PMx_abs="34.592364" NOx_abs="715.608252" fuel_abs="825.287463" electricity_abs="0"/>
    </tripinfo>
    <tripinfo id="sveh87" depart="550.00" departLane="462392872_0" departPos="4.85" departSpeed="22.22" departDelay="0.00" arrival="715.00" arrivalLane="389783908_0" arrivalPos="273.35" arrivalSpeed="21.73" duration="165.00" routeLength="3556.47" waitingTime="0.00" waitingCount="0" stopTime="0.00" timeLoss="4.66" rerouteNo="0" devices="tripinfo_sveh87 emissions_sveh87" vType="SCar" speedFactor="1.02" vaporized="">
        <emissions CO_abs="4205.058861" CO2_abs="513062.622312" HC_abs="31.562098" PMx_abs="9.361675" NOx_abs="192.497177" fuel_abs="220.542047" electricity_abs="0"/>
    </tripinfo>
    <tripinfo id="sveh88" depart="552.00" departLane="462392872_0" departPos="4.85" departSpeed="22.22" departDelay="0.00" arrival="717.00" arrivalLane="389783908_0" arrivalPos="273.35" arrivalSpeed="20.99" duration="165.00" routeLength="3556.47" waitingTime="0.00" waitingCount="0" stopTime="0.00" timeLoss="4.72" rerouteNo="0" devices="tripinfo_sveh88 emissions_sveh88" vType="SCar" speedFactor="1.02" vaporized="">
        <emissions CO_abs="3747.454057" CO2_abs="510219.099078" HC_abs="29.476977" PMx_abs="9.044116" NOx_abs="188.258729" fuel_abs="219.319948" electricity_abs="0"/>
    </tripinfo>
    <tripinfo id="sveh16" depart="69.00" departLane="516175821_0" departPos="4.85" departSpeed="22.22" departDelay="0.00" arrival="718.00" arrivalLane="462392869_1" arrivalPos="125.48" arrivalSpeed="22.19" duration="649.00" routeLength="13909.04" waitingTime="0.00" waitingCount="0" stopTime="0.00" timeLoss="18.79" rerouteNo="0" devices="tripinfo_sveh16 emissions_sveh16" vType="SCar" speedFactor="0.88" vaporized="">
        <emissions CO_abs="15278.355722" CO2_abs="1921268.366652" HC_abs="116.035538" PMx_abs="34.695431" NOx_abs="718.210057" fuel_abs="825.865178" electricity_abs="0"/>
    </tripinfo>
    <tripinfo id="sveh45" depart="215.00" departLane="319615443_0" departPos="4.85" departSpeed="22.22" departDelay="0.00" arrival="730.00" arrivalLane="319611370_1" arrivalPos="380.09" arrivalSpeed="21.86" duration="515.00" routeLength="11083.48" waitingTime="0.00" waitingCount="0" stopTime="0.00" timeLoss="15.93" rerouteNo="0" devices="tripinfo_sveh45 emissions_sveh45" vType="SCar" speedFactor="1.09" vaporized="">
        <emissions CO_abs="11526.097395" CO2_abs="1477760.835280" HC_abs="88.391806" PMx_abs="26.599263" NOx_abs="550.693850" fuel_abs="635.221717" electricity_abs="0"/>
    </tripinfo>
    <tripinfo id="sveh47" depart="226.00" departLane="319615443_0" departPos="4.85" departSpeed="22.22" departDelay="0.00" arrival="740.00" arrivalLane="319611370_1" arrivalPos="380.09" arrivalSpeed="21.20" duration="514.00" routeLength="11083.48" waitingTime="0.00" waitingCount="0" stopTime="0.00" timeLoss="14.40" rerouteNo="0" devices="tripinfo_sveh47 emissions_sveh47" vType="SCar" speedFactor="0.90" vaporized="">
        <emissions CO_abs="12515.931964" CO2_abs="1563160.806147" HC_abs="95.096045" PMx_abs="28.378335" NOx_abs="584.613254" fuel_abs="671.931124" electricity_abs="0"/>