<?xml version="1.0" encoding="UTF-8"?>

<!-- generated on Tue Nov 10 00:01:07 2020 by Eclipse SUMO sumo Version 1.7.0
<configuration xmlns:xsi="http://www.w3.org/2001/XMLSchema-instance" xsi:noNamespaceSchemaLocation="http://sumo.dlr.de/xsd/sumoConfiguration.xsd">

    <input>
        <net-file value="../dataSets/Porto/6AM7AM_Routing_SaoBento/Porto.net.xml"/>
        <route-files value="../results/Porto/6AM7AM_Routing_SaoBento/cost_hc-length/solution6/Porto.rou.xml"/>
        <additional-files value="moreOutputInfo.xml"/>
    </input>

    <output>
        <emission-output.precision value="6"/>
        <tripinfo-output value="../results/Porto/6AM7AM_Routing_SaoBento/cost_hc-length/solution6/Porto-tripinfo"/>
    </output>

    <processing>
        <collision.action value="warn"/>
        <time-to-teleport value="-1"/>
    </processing>

    <emissions>
        <device.emissions.probability value="1"/>
    </emissions>

    <gui_only>
        <quit-on-end value="true"/>
        <start value="true"/>
    </gui_only>

</configuration>
-->

<meandata xmlns:xsi="http://www.w3.org/2001/XMLSchema-instance" xsi:noNamespaceSchemaLocation="http://sumo.dlr.de/xsd/meandata_file.xsd">
    <interval begin="0.00" end="4701.00" id="emissions-detector">
        <edge id=":1092997347_0" sampledSeconds="267.86" CO_abs="34003.979562" CO2_abs="1344773.352071" HC_abs="186.602797" PMx_abs="27.404003" NOx_abs="583.584216" fuel_abs="578.065308" electricity_abs="0"
            CO_normed="59181.956654" CO2_normed="2340500.119634" HC_normed="324.771358" PMx_normed="47.695080" NOx_normed="1015.694522" fuel_normed="1006.089182" electricity_normed="0"
            traveltime="0.08" CO_perVeh="9.545722" CO2_perVeh="377.509711" HC_perVeh="0.052384" PMx_perVeh="0.007693" NOx_perVeh="0.163826" fuel_perVeh="0.162277" electricity_perVeh="0"/>
        <edge id=":1103427051_0" sampledSeconds="10.91" CO_abs="934.047935" CO2_abs="52100.967314" HC_abs="5.494154" PMx_abs="1.045571" NOx_abs="22.396633" fuel_abs="22.395870" electricity_abs="0"
            CO_normed="2466.513043" CO2_normed="137581.499410" HC_normed="14.508253" PMx_normed="2.761009" NOx_normed="59.142134" fuel_normed="59.140118" electricity_normed="0"
            traveltime="0.03" CO_perVeh="2.559277" CO2_perVeh="142.755863" HC_perVeh="0.015054" PMx_perVeh="0.002865" NOx_perVeh="0.061366" fuel_perVeh="0.061364" electricity_perVeh="0"/>
        <edge id=":1105984386_0" sampledSeconds="22.81" CO_abs="558.363531" CO2_abs="44922.208359" HC_abs="3.560182" PMx_abs="0.570435" NOx_abs="16.905807" fuel_abs="19.310365" electricity_abs="0"
            CO_normed="44.036223" CO2_normed="3542.861032" HC_normed="0.280779" PMx_normed="0.044988" NOx_normed="1.333303" fuel_normed="1.522943" electricity_normed="0"
            traveltime="0.96" CO_perVeh="23.434085" CO2_perVeh="1885.350290" HC_perVeh="0.149418" PMx_perVeh="0.023941" NOx_perVeh="0.709524" fuel_perVeh="0.810441" electricity_perVeh="0"/>
        <edge id=":1105984390_0" sampledSeconds="23.20" CO_abs="0" CO2_abs="0" HC_abs="0" PMx_abs="0" NOx_abs="0" fuel_abs="0" electricity_abs="0"
            CO_normed="0" CO2_normed="0" HC_normed="0" PMx_normed="0" NOx_normed="0" fuel_normed="0" electricity_normed="0"
            traveltime="1.05" CO_perVeh="0" CO2_perVeh="0" HC_perVeh="0" PMx_perVeh="0" NOx_perVeh="0" fuel_perVeh="0" electricity_perVeh="0"/>
        <edge id=":1105984390_1" sampledSeconds="646.04" CO_abs="14807.831121" CO2_abs="1885762.749733" HC_abs="112.559089" PMx_abs="33.539396" NOx_abs="707.788597" fuel_abs="810.602869" electricity_abs="0"
            CO_normed="863.652384" CO2_normed="109985.282888" HC_normed="6.564900" PMx_normed="1.956153" NOx_normed="41.281083" fuel_normed="47.277626" electricity_normed="0"
            traveltime="0.64" CO_perVeh="14.588139" CO2_perVeh="1857.785199" HC_perVeh="0.110889" PMx_perVeh="0.033042" NOx_perVeh="0.697288" fuel_perVeh="0.798577" electricity_perVeh="0"/>
        <edge id=":1105984395_0" sampledSeconds="9.09" CO_abs="134.976700" CO2_abs="10461.381422" HC_abs="0.853032" PMx_abs="0.141462" NOx_abs="3.998643" fuel_abs="4.496944" electricity_abs="0"
            CO_normed="112.352627" CO2_normed="8707.900521" HC_normed="0.710051" PMx_normed="0.117751" NOx_normed="3.328412" fuel_normed="3.743191" electricity_normed="0"
            traveltime="0.09" CO_perVeh="1.368811" CO2_perVeh="106.089847" HC_perVeh="0.008651" PMx_perVeh="0.001435" NOx_perVeh="0.040551" fuel_perVeh="0.045604" electricity_perVeh="0"/>
        <edge id=":1105984398_0" sampledSeconds="23.25" CO_abs="1465.511273" CO2_abs="100615.021451" HC_abs="9.050070" PMx_abs="1.830028" NOx_abs="41.598602" fuel_abs="43.249931" electricity_abs="0"
            CO_normed="92.827170" CO2_normed="6373.071235" HC_normed="0.573242" PMx_normed="0.115916" NOx_normed="2.634903" fuel_normed="2.739500" electricity_normed="0"
            traveltime="1.11" CO_perVeh="70.127340" CO2_perVeh="4814.609053" HC_perVeh="0.433062" PMx_perVeh="0.087570" NOx_perVeh="1.990568" fuel_perVeh="2.069587" electricity_perVeh="0"/>
        <edge id=":1105984398_1" sampledSeconds="453.70" CO_abs="7311.699308" CO2_abs="873068.581323" HC_abs="53.331733" PMx_abs="12.370731" NOx_abs="329.053580" fuel_abs="375.295082" electricity_abs="0"
            CO_normed="448.299376" CO2_normed="53530.114332" HC_normed="3.269908" PMx_normed="0.758482" NOx_normed="20.175134" fuel_normed="23.010321" electricity_normed="0"
            traveltime="0.96" CO_perVeh="15.394002" CO2_perVeh="1838.152629" HC_perVeh="0.112284" PMx_perVeh="0.026045" NOx_perVeh="0.692787" fuel_perVeh="0.790144" electricity_perVeh="0"/>
        <edge id=":1106006327_0" sampledSeconds="286.52" CO_abs="38532.093011" CO2_abs="1258574.316449" HC_abs="205.083283" PMx_abs="26.247679" NOx_abs="550.896949" fuel_abs="541.016459" electricity_abs="0"
            CO_normed="3330.436270" CO2_normed="108782.088514" HC_normed="17.725920" PMx_normed="2.268660" NOx_normed="47.615560" fuel_normed="46.761562" electricity_normed="0"
            traveltime="2.07" CO_perVeh="278.712012" CO2_perVeh="9103.574532" HC_perVeh="1.483417" PMx_perVeh="0.189856" NOx_perVeh="3.984772" fuel_perVeh="3.913304" electricity_perVeh="0"/>
        <edge id=":1106006327_1" sampledSeconds="158.99" CO_abs="21636.986023" CO2_abs="732134.387482" HC_abs="115.789239" PMx_abs="15.297286" NOx_abs="320.574729" fuel_abs="314.717904" electricity_abs="0"
            CO_normed="1630.854837" CO2_normed="55183.513370" HC_normed="8.727437" PMx_normed="1.153010" NOx_normed="24.162832" fuel_normed="23.721382" electricity_normed="0"
            traveltime="2.26" CO_perVeh="307.164903" CO2_perVeh="10393.591237" HC_perVeh="1.643777" PMx_perVeh="0.217165" NOx_perVeh="4.550971" fuel_perVeh="4.467826" electricity_perVeh="0"/>
        <edge id=":1106006327_2" sampledSeconds="0.00" CO_abs="0" CO2_abs="0" HC_abs="0" PMx_abs="0" NOx_abs="0" fuel_abs="0" electricity_abs="0"
            CO_normed="0" CO2_normed="0" HC_normed="0" PMx_normed="0" NOx_normed="0" fuel_normed="0" electricity_normed="0"/>
        <edge id=":1106006327_3" sampledSeconds="0.00" CO_abs="0" CO2_abs="0" HC_abs="0" PMx_abs="0" NOx_abs="0" fuel_abs="0" electricity_abs="0"
            CO_normed="0" CO2_normed="0" HC_normed="0" PMx_normed="0" NOx_normed="0" fuel_normed="0" electricity_normed="0"/>
        <edge id=":1107381198_0" sampledSeconds="0.00" CO_abs="0" CO2_abs="0" HC_abs="0" PMx_abs="0" NOx_abs="0" fuel_abs="0" electricity_abs="0"
            CO_normed="0" CO2_normed="0" HC_normed="0" PMx_normed="0" NOx_normed="0" fuel_normed="0" electricity_normed="0"/>
        <edge id=":1107381198_1" sampledSeconds="36.23" CO_abs="1209.981525" CO2_abs="50531.346621" HC_abs="6.671657" PMx_abs="0.855803" NOx_abs="20.814173" fuel_abs="21.721650" electricity_abs="0"
            CO_normed="101.046588" CO2_normed="4219.915803" HC_normed="0.557156" PMx_normed="0.071469" NOx_normed="1.738209" fuel_normed="1.813994" electricity_normed="0"
            traveltime="1.49" CO_perVeh="49.818295" CO2_perVeh="2080.515663" HC_perVeh="0.274691" PMx_perVeh="0.035236" NOx_perVeh="0.856977" fuel_perVeh="0.894341" electricity_perVeh="0"/>
        <edge id=":1110338277_0" sampledSeconds="96.69" CO_abs="1195.959127" CO2_abs="164058.730155" HC_abs="9.175502" PMx_abs="2.108729" NOx_abs="60.249976" fuel_abs="70.522073" electricity_abs="0"
            CO_normed="3270.924771" CO2_normed="448697.411310" HC_normed="25.094818" PMx_normed="5.767331" NOx_normed="164.782503" fuel_normed="192.876488" electricity_normed="0"
            traveltime="0.02" CO_perVeh="0.269531" CO2_perVeh="36.973660" HC_perVeh="0.002068" PMx_perVeh="0.000475" NOx_perVeh="0.013578" fuel_perVeh="0.015893" electricity_perVeh="0"/>
        <edge id=":1110338293_0" sampledSeconds="123.92" CO_abs="6324.016432" CO2_abs="434002.636937" HC_abs="39.001972" PMx_abs="7.655070" NOx_abs="177.952093" fuel_abs="186.558827" electricity_abs="0"
            CO_normed="16142.990254" CO2_normed="1107856.124919" HC_normed="99.558320" PMx_normed="19.540703" NOx_normed="454.249120" fuel_normed="476.219087" electricity_normed="0"
            traveltime="0.03" CO_perVeh="1.450535" CO2_perVeh="99.546842" HC_perVeh="0.008946" PMx_perVeh="0.001756" NOx_perVeh="0.040817" fuel_perVeh="0.042791" electricity_perVeh="0"/>
        <edge id=":1110338295_0" sampledSeconds="0.00" CO_abs="0" CO2_abs="0" HC_abs="0" PMx_abs="0" NOx_abs="0" fuel_abs="0" electricity_abs="0"
            CO_normed="0" CO2_normed="0" HC_normed="0" PMx_normed="0" NOx_normed="0" fuel_normed="0" electricity_normed="0"/>
        <edge id=":1110673403_0" sampledSeconds="142.91" CO_abs="2417.628424" CO2_abs="294589.924642" HC_abs="17.769839" PMx_abs="4.140826" NOx_abs="110.750911" fuel_abs="126.631706" electricity_abs="0"
            CO_normed="6171.355263" CO2_normed="751984.491748" HC_normed="45.360152" PMx_normed="10.570072" NOx_normed="282.708132" fuel_normed="323.246218" electricity_normed="0"
            traveltime="0.02" CO_perVeh="0.388168" CO2_perVeh="47.298559" HC_perVeh="0.002853" PMx_perVeh="0.000665" NOx_perVeh="0.017782" fuel_perVeh="0.020332" electricity_perVeh="0"/>
        <edge id=":1110673412_0" sampledSeconds="252.92" CO_abs="44450.163839" CO2_abs="3039924.761112" HC_abs="276.796313" PMx_abs="66.732239" NOx_abs="1305.750571" fuel_abs="1306.713973" electricity_abs="0"
            CO_normed="117378.246611" CO2_normed="8027440.339182" HC_normed="730.927922" PMx_normed="176.217871" NOx_normed="3448.057314" fuel_normed="3450.601341" electricity_normed="0"
            traveltime="0.02" CO_perVeh="2.731260" CO2_perVeh="186.789532" HC_perVeh="0.017008" PMx_perVeh="0.004100" NOx_perVeh="0.080232" fuel_perVeh="0.080292" electricity_perVeh="0"/>
        <edge id=":1110673414_0" sampledSeconds="0.00" CO_abs="0" CO2_abs="0" HC_abs="0" PMx_abs="0" NOx_abs="0" fuel_abs="0" electricity_abs="0"
            CO_normed="0" CO2_normed="0" HC_normed="0" PMx_normed="0" NOx_normed="0" fuel_normed="0" electricity_normed="0"/>
        <edge id=":1110673414_1" sampledSeconds="131.97" CO_abs="9036.905858" CO2_abs="341026.702680" HC_abs="49.056257" PMx_abs="6.259578" NOx_abs="143.742011" fuel_abs="146.595387" electricity_abs="0"
            CO_normed="766.380167" CO2_normed="28920.972015" HC_normed="4.160245" PMx_normed="0.530847" NOx_normed="12.190127" fuel_normed="12.432109" electricity_normed="0"
            traveltime="1.57" CO_perVeh="107.670220" CO2_perVeh="4063.162852" HC_perVeh="0.584481" PMx_perVeh="0.074580" NOx_perVeh="1.712614" fuel_perVeh="1.746611" electricity_perVeh="0"/>
        <edge id=":1110673417_0" sampledSeconds="29.55" CO_abs="538.412005" CO2_abs="60215.836654" HC_abs="3.841369" PMx_abs="0.865803" NOx_abs="22.869608" fuel_abs="25.884231" electricity_abs="0"
            CO_normed="1472.546281" CO2_normed="164689.132977" HC_normed="10.506070" PMx_normed="2.367955" NOx_normed="62.547931" fuel_normed="70.792865" electricity_normed="0"
            traveltime="0.02" CO_perVeh="0.399617" CO2_perVeh="44.693000" HC_perVeh="0.002851" PMx_perVeh="0.000643" NOx_perVeh="0.016974" fuel_perVeh="0.019212" electricity_perVeh="0"/>
        <edge id=":1110673446_0" sampledSeconds="333.01" CO_abs="3583.872609" CO2_abs="281057.112503" HC_abs="22.973301" PMx_abs="5.261592" NOx_abs="115.813655" fuel_abs="120.813442" electricity_abs="0"
            CO_normed="9148.366584" CO2_normed="717439.980863" HC_normed="58.642759" PMx_normed="13.430994" NOx_normed="295.631539" fuel_normed="308.394236" electricity_normed="0"
            traveltime="0.02" CO_perVeh="0.244708" CO2_perVeh="19.190711" HC_perVeh="0.001569" PMx_perVeh="0.000359" NOx_perVeh="0.007908" fuel_perVeh="0.008249" electricity_perVeh="0"/>
        <edge id=":1110673451_0" sampledSeconds="36.98" CO_abs="423.561088" CO2_abs="33526.811767" HC_abs="2.683613" PMx_abs="0.403513" NOx_abs="12.480194" fuel_abs="14.411953" electricity_abs="0"
            CO_normed="1201.336136" CO2_normed="95091.290553" HC_normed="7.611466" PMx_normed="1.144473" NOx_normed="35.397274" fuel_normed="40.876275" electricity_normed="0"
            traveltime="0.03" CO_perVeh="0.303749" CO2_perVeh="24.043132" HC_perVeh="0.001925" PMx_perVeh="0.000289" NOx_perVeh="0.008950" fuel_perVeh="0.010335" electricity_perVeh="0"/>
        <edge id=":1110673464_0" sampledSeconds="323.83" CO_abs="487.719850" CO2_abs="40598.790383" HC_abs="3.144818" PMx_abs="0.529320" NOx_abs="15.296432" fuel_abs="17.451863" electricity_abs="0"
            CO_normed="26.451359" CO2_normed="2201.864792" HC_normed="0.170558" PMx_normed="0.028708" NOx_normed="0.829598" fuel_normed="0.946497" electricity_normed="0"
            traveltime="1.17" CO_perVeh="1.763043" CO2_perVeh="146.759271" HC_perVeh="0.011368" PMx_perVeh="0.001913" NOx_perVeh="0.055295" fuel_perVeh="0.063086" electricity_perVeh="0"/>
        <edge id=":1110673464_1" sampledSeconds="708.92" CO_abs="17013.376248" CO2_abs="2194771.530961" HC_abs="129.606065" PMx_abs="38.792265" NOx_abs="822.147532" fuel_abs="943.431685" electricity_abs="0"
            CO_normed="904.146437" CO2_normed="116637.334704" HC_normed="6.887690" PMx_normed="2.061548" NOx_normed="43.691608" fuel_normed="50.137044" electricity_normed="0"
            traveltime="0.70" CO_perVeh="16.797691" CO2_perVeh="2166.947502" HC_perVeh="0.127963" PMx_perVeh="0.038300" NOx_perVeh="0.811725" fuel_perVeh="0.931471" electricity_perVeh="0"/>
        <edge id=":1110673479_0" sampledSeconds="133.16" CO_abs="6907.764289" CO2_abs="478434.937475" HC_abs="42.710543" PMx_abs="8.452067" NOx_abs="196.180932" fuel_abs="205.658271" electricity_abs="0"
            CO_normed="17633.093270" CO2_normed="1221276.164583" HC_normed="109.024999" PMx_normed="21.575156" NOx_normed="500.780938" fuel_normed="524.973250" electricity_normed="0"
            traveltime="0.03" CO_perVeh="1.455185" CO2_perVeh="100.786800" HC_perVeh="0.008997" PMx_perVeh="0.001781" NOx_perVeh="0.041327" fuel_perVeh="0.043324" electricity_perVeh="0"/>
        <edge id=":1110673511_0" sampledSeconds="11.77" CO_abs="156.644324" CO2_abs="19998.676000" HC_abs="1.165191" PMx_abs="0.260633" NOx_abs="7.384835" fuel_abs="8.596606" electricity_abs="0"
            CO_normed="399.857879" CO2_normed="51049.587747" HC_normed="2.974323" PMx_normed="0.665304" NOx_normed="18.850886" fuel_normed="21.944113" electricity_normed="0"
            traveltime="0.02" CO_perVeh="0.310187" CO2_perVeh="39.601339" HC_perVeh="0.002307" PMx_perVeh="0.000516" NOx_perVeh="0.014623" fuel_perVeh="0.017023" electricity_perVeh="0"/>
        <edge id=":1110673517_0" sampledSeconds="17.24" CO_abs="747.824003" CO2_abs="56700.938464" HC_abs="4.732437" PMx_abs="0.947118" NOx_abs="22.792243" fuel_abs="24.373289" electricity_abs="0"
            CO_normed="1908.931723" CO2_normed="144737.558301" HC_normed="12.080249" PMx_normed="2.417659" NOx_normed="58.180583" fuel_normed="62.216437" electricity_normed="0"
            traveltime="0.03" CO_perVeh="1.200681" CO2_perVeh="91.037097" HC_perVeh="0.007598" PMx_perVeh="0.001521" NOx_perVeh="0.036594" fuel_perVeh="0.039133" electricity_perVeh="0"/>
        <edge id=":1110673534_0" sampledSeconds="475.17" CO_abs="2578.060328" CO2_abs="240818.040509" HC_abs="17.209013" PMx_abs="3.036479" NOx_abs="89.803928" fuel_abs="103.518354" electricity_abs="0"
            CO_normed="127.536463" CO2_normed="11913.251535" HC_normed="0.851329" PMx_normed="0.150214" NOx_normed="4.442594" fuel_normed="5.121046" electricity_normed="0"
            traveltime="1.43" CO_perVeh="7.766662" CO2_perVeh="725.488237" HC_perVeh="0.051844" PMx_perVeh="0.009148" NOx_perVeh="0.270543" fuel_perVeh="0.311859" electricity_perVeh="0"/>
        <edge id=":1110673534_1" sampledSeconds="182.89" CO_abs="2817.713388" CO2_abs="352736.114604" HC_abs="20.873247" PMx_abs="4.841151" NOx_abs="131.714832" fuel_abs="151.626406" electricity_abs="0"
            CO_normed="135.539538" CO2_normed="16967.549038" HC_normed="1.004059" PMx_normed="0.232872" NOx_normed="6.335835" fuel_normed="7.293635" electricity_normed="0"
            traveltime="1.21" CO_perVeh="18.708605" CO2_perVeh="2342.041166" HC_perVeh="0.138591" PMx_perVeh="0.032144" NOx_perVeh="0.874539" fuel_perVeh="1.006745" electricity_perVeh="0"/>
        <edge id=":1110673549_0" sampledSeconds="59.76" CO_abs="0.732945" CO2_abs="2663.582850" HC_abs="0.062742" PMx_abs="0.019607" NOx_abs="0.854485" fuel_abs="1.144974" electricity_abs="0"
            CO_normed="0.035124" CO2_normed="127.644376" HC_normed="0.003007" PMx_normed="0.000940" NOx_normed="0.040949" fuel_normed="0.054870" electricity_normed="0"
            traveltime="1.24" CO_perVeh="0.015270" CO2_perVeh="55.493480" HC_perVeh="0.001307" PMx_perVeh="0.000409" NOx_perVeh="0.017802" fuel_perVeh="0.023855" electricity_perVeh="0"/>
        <edge id=":1110673549_1" sampledSeconds="638.78" CO_abs="13884.382793" CO2_abs="1802848.270481" HC_abs="106.348426" PMx_abs="31.846470" NOx_abs="674.751289" fuel_abs="774.961893" electricity_abs="0"
            CO_normed="643.618895" CO2_normed="83572.113266" HC_normed="4.929845" PMx_normed="1.476262" NOx_normed="31.278501" fuel_normed="35.923824" electricity_normed="0"
            traveltime="0.80" CO_perVeh="17.477687" CO2_perVeh="2269.428825" HC_perVeh="0.133872" PMx_perVeh="0.040088" NOx_perVeh="0.849378" fuel_perVeh="0.975524" electricity_perVeh="0"/>
        <edge id=":1110673556_0" sampledSeconds="411.72" CO_abs="50358.409323" CO2_abs="2544450.844117" HC_abs="289.824339" PMx_abs="51.345362" NOx_abs="1095.423886" fuel_abs="1093.748982" electricity_abs="0"
            CO_normed="1789.521739" CO2_normed="90418.862737" HC_normed="10.299113" PMx_normed="1.824594" NOx_normed="38.926664" fuel_normed="38.867145" electricity_normed="0"
            traveltime="2.56" CO_perVeh="312.600450" CO2_perVeh="15794.710131" HC_perVeh="1.799088" PMx_perVeh="0.318727" NOx_perVeh="6.799857" fuel_perVeh="6.789460" electricity_perVeh="0"/>
        <edge id=":1110673556_2" sampledSeconds="245.45" CO_abs="23250.804009" CO2_abs="1009714.586939" HC_abs="129.597486" PMx_abs="19.522653" NOx_abs="430.886087" fuel_abs="434.036398" electricity_abs="0"
            CO_normed="863.917424" CO2_normed="37517.413351" HC_normed="4.815383" PMx_normed="0.725393" NOx_normed="16.010199" fuel_normed="16.127253" electricity_normed="0"
            traveltime="2.98" CO_perVeh="282.027797" CO2_perVeh="12247.644449" HC_perVeh="1.571993" PMx_perVeh="0.236806" NOx_perVeh="5.226566" fuel_perVeh="5.264778" electricity_perVeh="0"/>
        <edge id=":1110673556_3" sampledSeconds="358.16" CO_abs="31783.247849" CO2_abs="1127859.998074" HC_abs="170.988134" PMx_abs="21.615543" NOx_abs="481.596650" fuel_abs="484.827547" electricity_abs="0"
            CO_normed="2686.472050" CO2_normed="95332.118831" HC_normed="14.452735" PMx_normed="1.827049" NOx_normed="40.706851" fuel_normed="40.979942" electricity_normed="0"
            traveltime="1.74" CO_perVeh="154.453952" CO2_perVeh="5480.951314" HC_perVeh="0.830934" PMx_perVeh="0.105043" NOx_perVeh="2.340368" fuel_perVeh="2.356069" electricity_perVeh="0"/>
        <edge id=":1110673556_4" sampledSeconds="186.09" CO_abs="18901.270358" CO2_abs="757884.238415" HC_abs="103.847417" PMx_abs="14.780030" NOx_abs="324.723335" fuel_abs="325.785480" electricity_abs="0"
            CO_normed="976.027586" CO2_normed="39135.778177" HC_normed="5.362494" PMx_normed="0.763214" NOx_normed="16.768129" fuel_normed="16.822976" electricity_normed="0"
            traveltime="2.39" CO_perVeh="242.642821" CO2_perVeh="9729.249196" HC_perVeh="1.333129" PMx_perVeh="0.189737" NOx_perVeh="4.168597" fuel_perVeh="4.182233" electricity_perVeh="0"/>
        <edge id=":1110673556_5" sampledSeconds="24.17" CO_abs="1939.807464" CO2_abs="79890.039903" HC_abs="10.695056" PMx_abs="1.486446" NOx_abs="33.763329" fuel_abs="34.341741" electricity_abs="0"
            CO_normed="139.614089" CO2_normed="5749.939296" HC_normed="0.769757" PMx_normed="0.106984" NOx_normed="2.430054" fuel_normed="2.471684" electricity_normed="0"
            traveltime="1.67" CO_perVeh="134.110146" CO2_perVeh="5523.262018" HC_perVeh="0.739411" PMx_perVeh="0.102767" NOx_perVeh="2.334255" fuel_perVeh="2.374244" electricity_perVeh="0"/>
        <edge id=":1110673556_6" sampledSeconds="311.12" CO_abs="37067.383401" CO2_abs="1886227.411355" HC_abs="213.642451" PMx_abs="37.979382" NOx_abs="811.374458" fuel_abs="810.807212" electricity_abs="0"
            CO_normed="1350.428105" CO2_normed="68718.487138" HC_normed="7.783359" PMx_normed="1.383654" NOx_normed="29.559758" fuel_normed="29.539092" electricity_normed="0"
            traveltime="2.46" CO_perVeh="293.543859" CO2_perVeh="14937.403765" HC_perVeh="1.691876" PMx_perVeh="0.300766" NOx_perVeh="6.425433" fuel_perVeh="6.420941" electricity_perVeh="0"/>
        <edge id=":1110673561_0" sampledSeconds="100.97" CO_abs="9874.891154" CO2_abs="708686.833145" HC_abs="62.042506" PMx_abs="14.361139" NOx_abs="299.738057" fuel_abs="304.630665" electricity_abs="0"
            CO_normed="452.010607" CO2_normed="32439.240132" HC_normed="2.839917" PMx_normed="0.657363" NOx_normed="13.720129" fuel_normed="13.944082" electricity_normed="0"
            traveltime="1.19" CO_perVeh="116.533300" CO2_perVeh="8363.192482" HC_perVeh="0.732162" PMx_perVeh="0.169475" NOx_perVeh="3.537200" fuel_perVeh="3.594938" electricity_perVeh="0"/>
        <edge id=":1110673561_1" sampledSeconds="1309.08" CO_abs="123515.765627" CO2_abs="8522831.548325" HC_abs="768.658237" PMx_abs="178.692100" NOx_abs="3648.000617" fuel_abs="3663.553176" electricity_abs="0"
            CO_normed="5512.103464" CO2_normed="380346.015429" HC_normed="34.302696" PMx_normed="7.974442" NOx_normed="162.798301" fuel_normed="163.492361" electricity_normed="0"
            traveltime="1.19" CO_perVeh="112.174227" CO2_perVeh="7740.243019" HC_perVeh="0.698078" PMx_perVeh="0.162284" NOx_perVeh="3.313032" fuel_perVeh="3.327156" electricity_perVeh="0"/>
        <edge id=":1110673562_0" sampledSeconds="104.08" CO_abs="2356.294932" CO2_abs="188438.417670" HC_abs="15.034977" PMx_abs="2.578883" NOx_abs="72.037669" fuel_abs="81.002315" electricity_abs="0"
            CO_normed="6683.102693" CO2_normed="534463.355798" HC_normed="42.643343" PMx_normed="7.314423" NOx_normed="204.318708" fuel_normed="229.744919" electricity_normed="0"
            traveltime="0.03" CO_perVeh="0.600630" CO2_perVeh="48.033811" HC_perVeh="0.003832" PMx_perVeh="0.000657" NOx_perVeh="0.018363" fuel_perVeh="0.020648" electricity_perVeh="0"/>
        <edge id=":1110673564_0" sampledSeconds="28.49" CO_abs="479.451692" CO2_abs="53351.836266" HC_abs="3.411002" PMx_abs="0.781063" NOx_abs="20.319033" fuel_abs="22.933672" electricity_abs="0"
            CO_normed="3671.614742" CO2_normed="408565.434070" HC_normed="26.121266" PMx_normed="5.981335" NOx_normed="155.602039" fuel_normed="175.624800" electricity_normed="0"
            traveltime="7.831367e-03" CO_perVeh="0.131808" CO2_perVeh="14.667171" HC_perVeh="0.000938" PMx_perVeh="0.000215" NOx_perVeh="0.005586" fuel_perVeh="0.006305" electricity_perVeh="0"/>
        <edge id=":1110673588_0" sampledSeconds="11.64" CO_abs="185.393986" CO2_abs="24506.227247" HC_abs="1.374868" PMx_abs="0.328489" NOx_abs="9.076550" fuel_abs="10.534196" electricity_abs="0"
            CO_normed="567.894787" CO2_normed="75066.937323" HC_normed="4.211467" PMx_normed="1.006220" NOx_normed="27.803087" fuel_normed="32.268117" electricity_normed="0"
            traveltime="0.02" CO_perVeh="0.308990" CO2_perVeh="40.843712" HC_perVeh="0.002291" PMx_perVeh="0.000547" NOx_perVeh="0.015128" fuel_perVeh="0.017557" electricity_perVeh="0"/>
        <edge id=":1110673601_0" sampledSeconds="29.46" CO_abs="443.751147" CO2_abs="54853.835223" HC_abs="3.278148" PMx_abs="0.731393" NOx_abs="20.405074" fuel_abs="23.579388" electricity_abs="0"
            CO_normed="1213.650690" CO2_normed="150024.164162" HC_normed="8.965669" PMx_normed="2.000346" NOx_normed="55.807477" fuel_normed="64.489164" electricity_normed="0"
            traveltime="0.02" CO_perVeh="0.329362" CO2_perVeh="40.713741" HC_perVeh="0.002433" PMx_perVeh="0.000543" NOx_perVeh="0.015145" fuel_perVeh="0.017501" electricity_perVeh="0"/>
        <edge id=":1110673617_0" sampledSeconds="238.28" CO_abs="5822.139501" CO2_abs="719878.731758" HC_abs="43.749794" PMx_abs="12.900174" NOx_abs="271.636331" fuel_abs="309.442745" electricity_abs="0"
            CO_normed="14861.874922" CO2_normed="1837597.273153" HC_normed="111.677841" PMx_normed="32.929608" NOx_normed="693.392038" fuel_normed="789.898520" electricity_normed="0"
            traveltime="0.01" CO_perVeh="0.356568" CO2_perVeh="44.087851" HC_perVeh="0.002679" PMx_perVeh="0.000790" NOx_perVeh="0.016636" fuel_perVeh="0.018951" electricity_perVeh="0"/>
        <edge id=":1110673621_0" sampledSeconds="25.54" CO_abs="543.243232" CO2_abs="62862.956371" HC_abs="3.894542" PMx_abs="0.892929" NOx_abs="23.752223" fuel_abs="27.022116" electricity_abs="0"
            CO_normed="1664.050744" CO2_normed="192560.427938" HC_normed="11.929675" PMx_normed="2.735200" NOx_normed="72.757289" fuel_normed="82.773552" electricity_normed="0"
            traveltime="0.02" CO_perVeh="0.411548" CO2_perVeh="47.623452" HC_perVeh="0.002950" PMx_perVeh="0.000676" NOx_perVeh="0.017994" fuel_perVeh="0.020471" electricity_perVeh="0"/>
        <edge id=":1110673630_0" sampledSeconds="53.92" CO_abs="419.360723" CO2_abs="40350.855667" HC_abs="2.834667" PMx_abs="0.543930" NOx_abs="15.230787" fuel_abs="17.345211" electricity_abs="0"
            CO_normed="22.906144" CO2_normed="2204.027376" HC_normed="0.154834" PMx_normed="0.029710" NOx_normed="0.831930" fuel_normed="0.947423" electricity_normed="0"
            traveltime="1.26" CO_perVeh="9.788621" CO2_perVeh="941.860343" HC_perVeh="0.066166" PMx_perVeh="0.012696" NOx_perVeh="0.355513" fuel_perVeh="0.404868" electricity_perVeh="0"/>
        <edge id=":1110673630_1" sampledSeconds="7.33" CO_abs="23.828311" CO2_abs="2545.025651" HC_abs="0.165410" PMx_abs="0.026509" NOx_abs="0.911356" fuel_abs="1.094014" electricity_abs="0"
            CO_normed="1.586747" CO2_normed="169.475363" HC_normed="0.011015" PMx_normed="0.001765" NOx_normed="0.060688" fuel_normed="0.072851" electricity_normed="0"
            traveltime="1.04" CO_perVeh="3.372623" CO2_perVeh="360.219015" HC_perVeh="0.023412" PMx_perVeh="0.003752" NOx_perVeh="0.128992" fuel_perVeh="0.154845" electricity_perVeh="0"/>
        <edge id=":1110673650_0" sampledSeconds="142.91" CO_abs="2276.049001" CO2_abs="294161.778739" HC_abs="17.055012" PMx_abs="3.947876" NOx_abs="109.239643" fuel_abs="126.447841" electricity_abs="0"
            CO_normed="5809.952778" CO2_normed="750891.585804" HC_normed="43.535448" PMx_normed="10.077540" NOx_normed="278.850396" fuel_normed="322.776875" electricity_normed="0"
            traveltime="0.02" CO_perVeh="0.365435" CO2_perVeh="47.229614" HC_perVeh="0.002738" PMx_perVeh="0.000634" NOx_perVeh="0.017539" fuel_perVeh="0.020302" electricity_perVeh="0"/>
        <edge id=":1110673655_0" sampledSeconds="45.04" CO_abs="861.953173" CO2_abs="95792.379640" HC_abs="6.127571" PMx_abs="1.359799" NOx_abs="36.270293" fuel_abs="41.177106" electricity_abs="0"
            CO_normed="2200.263364" CO2_normed="244524.262003" HC_normed="15.641534" PMx_normed="3.471089" NOx_normed="92.585305" fuel_normed="105.110674" electricity_normed="0"
            traveltime="0.02" CO_perVeh="0.461308" CO2_perVeh="51.266995" HC_perVeh="0.003279" PMx_perVeh="0.000728" NOx_perVeh="0.019411" fuel_perVeh="0.022038" electricity_perVeh="0"/>
        <edge id=":1110673663_0" sampledSeconds="108.70" CO_abs="1749.068683" CO2_abs="201003.917306" HC_abs="12.596810" PMx_abs="2.828370" NOx_abs="75.852973" fuel_abs="86.403111" electricity_abs="0"
            CO_normed="81.772112" CO2_normed="9397.295282" HC_normed="0.588924" PMx_normed="0.132231" NOx_normed="3.546263" fuel_normed="4.039501" electricity_normed="0"
            traveltime="1.28" CO_perVeh="20.543637" CO2_perVeh="2360.885833" HC_perVeh="0.147955" PMx_perVeh="0.033221" NOx_perVeh="0.890929" fuel_perVeh="1.014845" electricity_perVeh="0"/>
        <edge id=":1110673663_1" sampledSeconds="153.59" CO_abs="2572.588192" CO2_abs="302433.862631" HC_abs="18.701291" PMx_abs="4.322686" NOx_abs="114.306289" fuel_abs="130.003442" electricity_abs="0"
            CO_normed="120.420166" CO2_normed="14156.613214" HC_normed="0.875388" PMx_normed="0.202340" NOx_normed="5.350558" fuel_normed="6.085325" electricity_normed="0"
            traveltime="1.25" CO_perVeh="20.901724" CO2_perVeh="2457.209854" HC_perVeh="0.151944" PMx_perVeh="0.035121" NOx_perVeh="0.928714" fuel_perVeh="1.056250" electricity_perVeh="0"/>
        <edge id=":1110673666_0" sampledSeconds="190.86" CO_abs="3883.703748" CO2_abs="322551.187747" HC_abs="25.036756" PMx_abs="4.284444" NOx_abs="122.277243" fuel_abs="138.652246" electricity_abs="0"