<?xml version="1.0" encoding="UTF-8"?>

<!-- generated on Sun Nov  1 00:03:06 2020 by Eclipse SUMO sumo Version 1.7.0
<configuration xmlns:xsi="http://www.w3.org/2001/XMLSchema-instance" xsi:noNamespaceSchemaLocation="http://sumo.dlr.de/xsd/sumoConfiguration.xsd">

    <input>
        <net-file value="../dataSets/Porto/8AM9AM_Routing_SaoBento/Porto.net.xml"/>
        <route-files value="../results/Porto/8AM9AM_Routing_SaoBento_fewerv/cost_co-ttime/solution4/Porto.rou.xml"/>
        <additional-files value="moreOutputInfo.xml"/>
    </input>

    <output>
        <emission-output.precision value="6"/>
        <tripinfo-output value="../results/Porto/8AM9AM_Routing_SaoBento_fewerv/cost_co-ttime/solution4/Porto-tripinfo"/>
    </output>

    <processing>
        <collision.action value="warn"/>
        <time-to-teleport value="-1"/>
    </processing>

    <emissions>
        <device.emissions.probability value="1"/>
    </emissions>

    <gui_only>
        <quit-on-end value="true"/>
        <start value="true"/>
    </gui_only>

</configuration>
-->

<meandata xmlns:xsi="http://www.w3.org/2001/XMLSchema-instance" xsi:noNamespaceSchemaLocation="http://sumo.dlr.de/xsd/meandata_file.xsd">
    <interval begin="0.00" end="8561.00" id="emissions-detector">
        <edge id=":1092997347_0" sampledSeconds="602.41" CO_abs="72668.406099" CO2_abs="3064692.338149" HC_abs="403.341630" PMx_abs="61.889225" NOx_abs="1325.383367" fuel_abs="1317.387837" electricity_abs="0"
            CO_normed="69449.793980" CO2_normed="2928951.698861" HC_normed="385.476917" PMx_normed="59.148042" NOx_normed="1266.679796" fuel_normed="1259.038402" electricity_normed="0"
            traveltime="0.07" CO_perVeh="8.322644" CO2_perVeh="350.996326" HC_perVeh="0.046194" PMx_perVeh="0.007088" NOx_perVeh="0.151795" fuel_perVeh="0.150879" electricity_perVeh="0"/>
        <edge id=":1103427051_0" sampledSeconds="19.83" CO_abs="1582.093901" CO2_abs="87264.589694" HC_abs="9.270941" PMx_abs="1.694295" NOx_abs="37.151670" fuel_abs="37.511236" electricity_abs="0"
            CO_normed="2294.099563" CO2_normed="126537.152403" HC_normed="13.443236" PMx_normed="2.456795" NOx_normed="53.871411" fuel_normed="54.392795" electricity_normed="0"
            traveltime="0.03" CO_perVeh="2.460356" CO2_perVeh="135.707481" HC_perVeh="0.014417" PMx_perVeh="0.002635" NOx_perVeh="0.057776" fuel_perVeh="0.058335" electricity_perVeh="0"/>
        <edge id=":1105984386_0" sampledSeconds="10.36" CO_abs="311.518575" CO2_abs="21426.508883" HC_abs="1.910092" PMx_abs="0.314758" NOx_abs="8.382903" fuel_abs="9.210418" electricity_abs="0"
            CO_normed="13.490956" CO2_normed="927.919260" HC_normed="0.082720" PMx_normed="0.013631" NOx_normed="0.363039" fuel_normed="0.398876" electricity_normed="0"
            traveltime="0.99" CO_perVeh="29.883870" CO2_perVeh="2055.437673" HC_perVeh="0.183234" PMx_perVeh="0.030195" NOx_perVeh="0.804169" fuel_perVeh="0.883552" electricity_perVeh="0"/>
        <edge id=":1105984390_0" sampledSeconds="10.58" CO_abs="4.289804" CO2_abs="688.340179" HC_abs="0.034578" PMx_abs="0.004829" NOx_abs="0.228800" fuel_abs="0.295894" electricity_abs="0"
            CO_normed="0.143624" CO2_normed="23.045784" HC_normed="0.001158" PMx_normed="0.000162" NOx_normed="0.007660" fuel_normed="0.009907" electricity_normed="0"
            traveltime="1.10" CO_perVeh="0.444664" CO2_perVeh="71.350604" HC_perVeh="0.003584" PMx_perVeh="0.000501" NOx_perVeh="0.023716" fuel_perVeh="0.030671" electricity_perVeh="0"/>
        <edge id=":1105984390_1" sampledSeconds="2397.13" CO_abs="64962.463444" CO2_abs="7618990.162970" HC_abs="478.329643" PMx_abs="138.234362" NOx_abs="2906.118845" fuel_abs="3275.051506" electricity_abs="0"
            CO_normed="2080.538530" CO2_normed="244011.722395" HC_normed="15.319358" PMx_normed="4.427202" NOx_normed="93.073629" fuel_normed="104.889354" electricity_normed="0"
            traveltime="0.65" CO_perVeh="17.544685" CO2_perVeh="2057.692647" HC_perVeh="0.129184" PMx_perVeh="0.037334" NOx_perVeh="0.784868" fuel_perVeh="0.884507" electricity_perVeh="0"/>
        <edge id=":1105984395_0" sampledSeconds="4.16" CO_abs="97.711656" CO2_abs="6620.467714" HC_abs="0.597557" PMx_abs="0.101561" NOx_abs="2.621600" fuel_abs="2.845874" electricity_abs="0"
            CO_normed="44.661834" CO2_normed="3026.069152" HC_normed="0.273130" PMx_normed="0.046421" NOx_normed="1.198275" fuel_normed="1.300786" electricity_normed="0"
            traveltime="0.10" CO_perVeh="2.264921" CO2_perVeh="153.460073" HC_perVeh="0.013851" PMx_perVeh="0.002354" NOx_perVeh="0.060768" fuel_perVeh="0.065966" electricity_perVeh="0"/>
        <edge id=":1105984398_0" sampledSeconds="10.04" CO_abs="630.285644" CO2_abs="41755.584153" HC_abs="3.855137" PMx_abs="0.759182" NOx_abs="17.297801" fuel_abs="17.948888" electricity_abs="0"
            CO_normed="21.922452" CO2_normed="1452.333204" HC_normed="0.134088" PMx_normed="0.026406" NOx_normed="0.601648" fuel_normed="0.624294" electricity_normed="0"
            traveltime="1.16" CO_perVeh="72.573287" CO2_perVeh="4807.883601" HC_perVeh="0.443894" PMx_perVeh="0.087415" NOx_perVeh="1.991729" fuel_perVeh="2.066698" electricity_perVeh="0"/>
        <edge id=":1105984398_1" sampledSeconds="646.59" CO_abs="11089.225147" CO2_abs="1304509.558525" HC_abs="80.211305" PMx_abs="18.616034" NOx_abs="492.619731" fuel_abs="560.753107" electricity_abs="0"
            CO_normed="373.350525" CO2_normed="43920.050519" HC_normed="2.700543" PMx_normed="0.626762" NOx_normed="16.585454" fuel_normed="18.879359" electricity_normed="0"
            traveltime="0.95" CO_perVeh="16.358653" CO2_perVeh="1924.392330" HC_perVeh="0.118326" PMx_perVeh="0.027462" NOx_perVeh="0.726705" fuel_perVeh="0.827214" electricity_perVeh="0"/>
        <edge id=":1106006327_0" sampledSeconds="68.26" CO_abs="9104.749867" CO2_abs="291728.808050" HC_abs="48.315969" PMx_abs="6.060073" NOx_abs="127.540062" fuel_abs="125.404052" electricity_abs="0"
            CO_normed="432.127894" CO2_normed="13845.976794" HC_normed="2.293163" PMx_normed="0.287622" NOx_normed="6.053282" fuel_normed="5.951903" electricity_normed="0"
            traveltime="2.12" CO_perVeh="282.243742" CO2_perVeh="9043.480772" HC_perVeh="1.497776" PMx_perVeh="0.187860" NOx_perVeh="3.953693" fuel_perVeh="3.887477" electricity_perVeh="0"/>
        <edge id=":1106006327_1" sampledSeconds="678.88" CO_abs="91703.559923" CO2_abs="3074666.271491" HC_abs="490.022245" PMx_abs="64.084250" NOx_abs="1345.308281" fuel_abs="1321.687984" electricity_abs="0"
            CO_normed="3795.513068" CO2_normed="127257.175432" HC_normed="20.281501" PMx_normed="2.652379" NOx_normed="55.680883" fuel_normed="54.703264" electricity_normed="0"
            traveltime="2.28" CO_perVeh="307.826654" CO2_perVeh="10320.910461" HC_perVeh="1.644886" PMx_perVeh="0.215115" NOx_perVeh="4.515874" fuel_perVeh="4.436587" electricity_perVeh="0"/>
        <edge id=":1106006327_2" sampledSeconds="0.00" CO_abs="0" CO2_abs="0" HC_abs="0" PMx_abs="0" NOx_abs="0" fuel_abs="0" electricity_abs="0"
            CO_normed="0" CO2_normed="0" HC_normed="0" PMx_normed="0" NOx_normed="0" fuel_normed="0" electricity_normed="0"/>
        <edge id=":1106006327_3" sampledSeconds="0.00" CO_abs="0" CO2_abs="0" HC_abs="0" PMx_abs="0" NOx_abs="0" fuel_abs="0" electricity_abs="0"
            CO_normed="0" CO2_normed="0" HC_normed="0" PMx_normed="0" NOx_normed="0" fuel_normed="0" electricity_normed="0"/>
        <edge id=":1107381198_0" sampledSeconds="0.00" CO_abs="0" CO2_abs="0" HC_abs="0" PMx_abs="0" NOx_abs="0" fuel_abs="0" electricity_abs="0"
            CO_normed="0" CO2_normed="0" HC_normed="0" PMx_normed="0" NOx_normed="0" fuel_normed="0" electricity_normed="0"/>
        <edge id=":1107381198_1" sampledSeconds="103.12" CO_abs="4794.386097" CO2_abs="191912.423338" HC_abs="26.260665" PMx_abs="3.370265" NOx_abs="79.878989" fuel_abs="82.496389" electricity_abs="0"
            CO_normed="219.857696" CO2_normed="8800.589369" HC_normed="1.204244" PMx_normed="0.154551" NOx_normed="3.663036" fuel_normed="3.783063" electricity_normed="0"
            traveltime="1.54" CO_perVeh="71.781153" CO2_perVeh="2873.296960" HC_perVeh="0.393173" PMx_perVeh="0.050459" NOx_perVeh="1.195942" fuel_perVeh="1.235129" electricity_perVeh="0"/>
        <edge id=":1110338277_0" sampledSeconds="159.96" CO_abs="2866.919547" CO2_abs="327665.964821" HC_abs="20.564590" PMx_abs="4.637269" NOx_abs="123.807181" fuel_abs="140.849751" electricity_abs="0"
            CO_normed="4305.617822" CO2_normed="492097.666058" HC_normed="30.884461" PMx_normed="6.964377" NOx_normed="185.936995" fuel_normed="211.531991" electricity_normed="0"
            traveltime="0.02" CO_perVeh="0.388931" CO2_perVeh="44.451715" HC_perVeh="0.002790" PMx_perVeh="0.000629" NOx_perVeh="0.016796" fuel_perVeh="0.019108" electricity_perVeh="0"/>
        <edge id=":1110338293_0" sampledSeconds="6452.85" CO_abs="582621.506878" CO2_abs="10265929.735078" HC_abs="2892.987175" PMx_abs="244.083073" NOx_abs="4635.723784" fuel_abs="4413.148237" electricity_abs="0"
            CO_normed="816663.717152" CO2_normed="14389809.230339" HC_normed="4055.115769" PMx_normed="342.132564" NOx_normed="6497.919099" fuel_normed="6185.933751" electricity_normed="0"
            traveltime="0.43" CO_perVeh="38.932716" CO2_perVeh="686.003722" HC_perVeh="0.193319" PMx_perVeh="0.016310" NOx_perVeh="0.309775" fuel_perVeh="0.294901" electricity_perVeh="0"/>
        <edge id=":1110338295_0" sampledSeconds="0.00" CO_abs="0" CO2_abs="0" HC_abs="0" PMx_abs="0" NOx_abs="0" fuel_abs="0" electricity_abs="0"
            CO_normed="0" CO2_normed="0" HC_normed="0" PMx_normed="0" NOx_normed="0" fuel_normed="0" electricity_normed="0"/>
        <edge id=":1110673403_0" sampledSeconds="201.29" CO_abs="3116.755677" CO2_abs="378795.059908" HC_abs="22.868047" PMx_abs="5.266435" NOx_abs="142.070790" fuel_abs="162.828010" electricity_abs="0"
            CO_normed="4368.773288" CO2_normed="530959.084090" HC_normed="32.054265" PMx_normed="7.381990" NOx_normed="199.141395" fuel_normed="228.236903" electricity_normed="0"
            traveltime="0.02" CO_perVeh="0.360223" CO2_perVeh="43.779749" HC_perVeh="0.002643" PMx_perVeh="0.000609" NOx_perVeh="0.016420" fuel_perVeh="0.018819" electricity_perVeh="0"/>
        <edge id=":1110673412_0" sampledSeconds="952.57" CO_abs="170052.853123" CO2_abs="11591234.514025" HC_abs="1057.994611" PMx_abs="254.825844" NOx_abs="4982.702826" fuel_abs="4982.500732" electricity_abs="0"
            CO_normed="246583.452322" CO2_normed="16807754.592997" HC_normed="1534.134588" PMx_normed="369.507686" NOx_normed="7225.118792" fuel_normed="7224.825747" electricity_normed="0"
            traveltime="0.02" CO_perVeh="2.775748" CO2_perVeh="189.202032" HC_perVeh="0.017269" PMx_perVeh="0.004159" NOx_perVeh="0.081332" fuel_perVeh="0.081329" electricity_perVeh="0"/>
        <edge id=":1110673414_0" sampledSeconds="0.00" CO_abs="0" CO2_abs="0" HC_abs="0" PMx_abs="0" NOx_abs="0" fuel_abs="0" electricity_abs="0"
            CO_normed="0" CO2_normed="0" HC_normed="0" PMx_normed="0" NOx_normed="0" fuel_normed="0" electricity_normed="0"/>
        <edge id=":1110673414_1" sampledSeconds="6.83" CO_abs="340.819172" CO2_abs="14257.399424" HC_abs="1.882946" PMx_abs="0.257986" NOx_abs="5.982032" fuel_abs="6.128729" electricity_abs="0"
            CO_normed="15.871365" CO2_normed="663.942654" HC_normed="0.087686" PMx_normed="0.012014" NOx_normed="0.278573" fuel_normed="0.285404" electricity_normed="0"
            traveltime="1.49" CO_perVeh="74.445987" CO2_perVeh="3114.279555" HC_perVeh="0.411297" PMx_perVeh="0.056352" NOx_perVeh="1.306670" fuel_perVeh="1.338714" electricity_perVeh="0"/>
        <edge id=":1110673417_0" sampledSeconds="28.83" CO_abs="516.230592" CO2_abs="59227.625070" HC_abs="3.704787" PMx_abs="0.844963" NOx_abs="22.374337" fuel_abs="25.459445" electricity_abs="0"
            CO_normed="775.289157" CO2_normed="88949.659690" HC_normed="5.563951" PMx_normed="1.268988" NOx_normed="33.602389" fuel_normed="38.235688" electricity_normed="0"
            traveltime="0.02" CO_perVeh="0.393651" CO2_perVeh="45.163907" HC_perVeh="0.002825" PMx_perVeh="0.000644" NOx_perVeh="0.017062" fuel_perVeh="0.019414" electricity_perVeh="0"/>
        <edge id=":1110673446_0" sampledSeconds="1332.66" CO_abs="13291.204282" CO2_abs="1097544.767923" HC_abs="86.511290" PMx_abs="19.865786" NOx_abs="446.870933" fuel_abs="471.784249" electricity_abs="0"
            CO_normed="18630.352925" CO2_normed="1538434.436991" HC_normed="121.263343" PMx_normed="27.845980" NOx_normed="626.381404" fuel_normed="661.302533" electricity_normed="0"
            traveltime="0.02" CO_perVeh="0.227970" CO2_perVeh="18.824986" HC_perVeh="0.001484" PMx_perVeh="0.000341" NOx_perVeh="0.007665" fuel_perVeh="0.008092" electricity_perVeh="0"/>
        <edge id=":1110673451_0" sampledSeconds="36.51" CO_abs="334.521763" CO2_abs="22432.507490" HC_abs="2.035285" PMx_abs="0.317392" NOx_abs="8.700231" fuel_abs="9.642883" electricity_abs="0"
            CO_normed="521.001072" CO2_normed="34937.518965" HC_normed="3.169855" PMx_normed="0.494322" NOx_normed="13.550179" fuel_normed="15.018313" electricity_normed="0"
            traveltime="0.03" CO_perVeh="0.246469" CO2_perVeh="16.527798" HC_perVeh="0.001500" PMx_perVeh="0.000234" NOx_perVeh="0.006410" fuel_perVeh="0.007105" electricity_perVeh="0"/>
        <edge id=":1110673464_0" sampledSeconds="1025.31" CO_abs="2852.509821" CO2_abs="211015.328063" HC_abs="17.785890" PMx_abs="2.923049" NOx_abs="81.105425" fuel_abs="90.707350" electricity_abs="0"
            CO_normed="84.951383" CO2_normed="6284.305805" HC_normed="0.529686" PMx_normed="0.087052" NOx_normed="2.415423" fuel_normed="2.701381" electricity_normed="0"
            traveltime="1.22" CO_perVeh="3.382677" CO2_perVeh="250.234647" HC_perVeh="0.021092" PMx_perVeh="0.003466" NOx_perVeh="0.096180" fuel_perVeh="0.107566" electricity_perVeh="0"/>
        <edge id=":1110673464_1" sampledSeconds="2606.19" CO_abs="65668.042654" CO2_abs="7880054.744216" HC_abs="487.398328" PMx_abs="141.655192" NOx_abs="2995.762658" fuel_abs="3387.271914" electricity_abs="0"
            CO_normed="1916.320275" CO2_normed="229955.212052" HC_normed="14.223224" PMx_normed="4.133772" NOx_normed="87.422139" fuel_normed="98.847135" electricity_normed="0"
            traveltime="0.72" CO_perVeh="18.100416" CO2_perVeh="2172.019446" HC_perVeh="0.134344" PMx_perVeh="0.039045" NOx_perVeh="0.825737" fuel_perVeh="0.933651" electricity_perVeh="0"/>
        <edge id=":1110673479_0" sampledSeconds="135.09" CO_abs="6319.962817" CO2_abs="437285.335408" HC_abs="39.012357" PMx_abs="7.465015" NOx_abs="177.599477" fuel_abs="187.970260" electricity_abs="0"
            CO_normed="8858.726060" CO2_normed="612945.219589" HC_normed="54.683832" PMx_normed="10.463752" NOx_normed="248.942147" fuel_normed="263.478930" electricity_normed="0"
            traveltime="0.03" CO_perVeh="1.336109" CO2_perVeh="92.446864" HC_perVeh="0.008248" PMx_perVeh="0.001578" NOx_perVeh="0.037546" fuel_perVeh="0.039739" electricity_perVeh="0"/>
        <edge id=":1110673511_0" sampledSeconds="63.47" CO_abs="979.645164" CO2_abs="110451.381614" HC_abs="6.963777" PMx_abs="1.493039" NOx_abs="41.373917" fuel_abs="47.478488" electricity_abs="0"
            CO_normed="1373.173925" CO2_normed="154820.298956" HC_normed="9.761164" PMx_normed="2.092801" NOx_normed="57.994043" fuel_normed="66.550853" electricity_normed="0"
            traveltime="0.02" CO_perVeh="0.375463" CO2_perVeh="42.332053" HC_perVeh="0.002669" PMx_perVeh="0.000572" NOx_perVeh="0.015857" fuel_perVeh="0.018197" electricity_perVeh="0"/>
        <edge id=":1110673517_0" sampledSeconds="182.11" CO_abs="8397.357418" CO2_abs="592765.448522" HC_abs="52.162251" PMx_abs="10.317886" NOx_abs="241.816285" fuel_abs="254.804084" electricity_abs="0"
            CO_normed="11770.621308" CO2_normed="830882.535015" HC_normed="73.116110" PMx_normed="14.462637" NOx_normed="338.955195" fuel_normed="357.160263" electricity_normed="0"
            traveltime="0.03" CO_perVeh="1.285703" CO2_perVeh="90.757188" HC_perVeh="0.007986" PMx_perVeh="0.001580" NOx_perVeh="0.037024" fuel_perVeh="0.039013" electricity_perVeh="0"/>
        <edge id=":1110673534_0" sampledSeconds="735.96" CO_abs="5348.960059" CO2_abs="457105.283768" HC_abs="34.795989" PMx_abs="6.180438" NOx_abs="173.709244" fuel_abs="196.491562" electricity_abs="0"
            CO_normed="145.303609" CO2_normed="12417.188922" HC_normed="0.945227" PMx_normed="0.167891" NOx_normed="4.718783" fuel_normed="5.337661" electricity_normed="0"
            traveltime="1.45" CO_perVeh="10.549036" CO2_perVeh="901.487378" HC_perVeh="0.068623" PMx_perVeh="0.012189" NOx_perVeh="0.342583" fuel_perVeh="0.387514" electricity_perVeh="0"/>
        <edge id=":1110673534_1" sampledSeconds="201.02" CO_abs="2818.093476" CO2_abs="353821.393134" HC_abs="20.873104" PMx_abs="4.807530" NOx_abs="131.798388" fuel_abs="152.092986" electricity_abs="0"
            CO_normed="74.437252" CO2_normed="9345.854780" HC_normed="0.551343" PMx_normed="0.126986" NOx_normed="3.481329" fuel_normed="4.017391" electricity_normed="0"
            traveltime="1.23" CO_perVeh="17.226119" CO2_perVeh="2162.798849" HC_perVeh="0.127591" PMx_perVeh="0.029387" NOx_perVeh="0.805642" fuel_perVeh="0.929697" electricity_perVeh="0"/>
        <edge id=":1110673549_0" sampledSeconds="653.91" CO_abs="1401.971459" CO2_abs="132252.313053" HC_abs="9.433529" PMx_abs="1.895972" NOx_abs="50.418866" fuel_abs="56.849827" electricity_abs="0"
            CO_normed="36.892697" CO2_normed="3480.202424" HC_normed="0.248242" PMx_normed="0.049892" NOx_normed="1.326766" fuel_normed="1.495996" electricity_normed="0"
            traveltime="1.30" CO_perVeh="2.785383" CO2_perVeh="262.753811" HC_perVeh="0.018742" PMx_perVeh="0.003767" NOx_perVeh="0.100170" fuel_perVeh="0.112947" electricity_perVeh="0"/>
        <edge id=":1110673549_1" sampledSeconds="3202.06" CO_abs="68441.680198" CO2_abs="8944591.373643" HC_abs="525.435311" PMx_abs="157.512292" NOx_abs="3347.264666" fuel_abs="3844.870203" electricity_abs="0"
            CO_normed="1742.162348" CO2_normed="227681.878384" HC_normed="13.374798" PMx_normed="4.009428" NOx_normed="85.203614" fuel_normed="97.870013" electricity_normed="0"
            traveltime="0.81" CO_perVeh="17.264153" CO2_perVeh="2256.239100" HC_perVeh="0.132539" PMx_perVeh="0.039732" NOx_perVeh="0.844335" fuel_perVeh="0.969854" electricity_perVeh="0"/>
        <edge id=":1110673556_0" sampledSeconds="472.63" CO_abs="59389.104901" CO2_abs="2831739.271920" HC_abs="337.707122" PMx_abs="57.450649" NOx_abs="1222.979667" fuel_abs="1217.244003" electricity_abs="0"
            CO_normed="1158.877441" CO2_normed="55256.578917" HC_normed="6.589781" PMx_normed="1.121052" NOx_normed="23.864370" fuel_normed="23.752448" electricity_normed="0"
            traveltime="2.79" CO_perVeh="350.093063" CO2_perVeh="16692.830733" HC_perVeh="1.990751" PMx_perVeh="0.338666" NOx_perVeh="7.209348" fuel_perVeh="7.175536" electricity_perVeh="0"/>
        <edge id=":1110673556_2" sampledSeconds="172.05" CO_abs="16300.441246" CO2_abs="704857.144869" HC_abs="90.784126" PMx_abs="13.626587" NOx_abs="300.732688" fuel_abs="302.990298" electricity_abs="0"
            CO_normed="332.582484" CO2_normed="14381.398428" HC_normed="1.852294" PMx_normed="0.278027" NOx_normed="6.135934" fuel_normed="6.181996" electricity_normed="0"
            traveltime="2.98" CO_perVeh="281.857922" CO2_perVeh="12187.987244" HC_perVeh="1.569787" PMx_perVeh="0.235623" NOx_perVeh="5.200098" fuel_perVeh="5.239135" electricity_perVeh="0"/>
        <edge id=":1110673556_3" sampledSeconds="340.00" CO_abs="35291.515551" CO2_abs="1229530.441434" HC_abs="189.466237" PMx_abs="24.362552" NOx_abs="530.080101" fuel_abs="528.531453" electricity_abs="0"
            CO_normed="1638.023451" CO2_normed="57067.532098" HC_normed="8.793902" PMx_normed="1.130766" NOx_normed="24.603184" fuel_normed="24.531305" electricity_normed="0"
            traveltime="1.81" CO_perVeh="188.234713" CO2_perVeh="6557.958943" HC_perVeh="1.010558" PMx_perVeh="0.129943" NOx_perVeh="2.827294" fuel_perVeh="2.819034" electricity_perVeh="0"/>
        <edge id=":1110673556_4" sampledSeconds="86.95" CO_abs="9676.622422" CO2_abs="373720.751164" HC_abs="52.837988" PMx_abs="7.387930" NOx_abs="160.808895" fuel_abs="160.648421" electricity_abs="0"
            CO_normed="274.385178" CO2_normed="10597.027608" HC_normed="1.498246" PMx_normed="0.209488" NOx_normed="4.559812" fuel_normed="4.555262" electricity_normed="0"
            traveltime="2.53" CO_perVeh="281.889508" CO2_perVeh="10886.852243" HC_perVeh="1.539222" PMx_perVeh="0.215218" NOx_perVeh="4.684521" fuel_perVeh="4.679846" electricity_perVeh="0"/>
        <edge id=":1110673556_5" sampledSeconds="21.59" CO_abs="1433.528636" CO2_abs="65624.400394" HC_abs="8.040839" PMx_abs="1.107080" NOx_abs="26.949846" fuel_abs="28.209518" electricity_abs="0"
            CO_normed="56.655588" CO2_normed="2593.592395" HC_normed="0.317788" PMx_normed="0.043754" NOx_normed="1.065106" fuel_normed="1.114890" electricity_normed="0"
            traveltime="1.49" CO_perVeh="99.108153" CO2_perVeh="4536.995583" HC_perVeh="0.555910" PMx_perVeh="0.076539" NOx_perVeh="1.863199" fuel_perVeh="1.950288" electricity_perVeh="0"/>
        <edge id=":1110673556_6" sampledSeconds="545.82" CO_abs="64963.401687" CO2_abs="3147783.768219" HC_abs="370.537200" PMx_abs="63.340424" NOx_abs="1355.625441" fuel_abs="1353.098005" electricity_abs="0"
            CO_normed="1299.613009" CO2_normed="62972.391036" HC_normed="7.412712" PMx_normed="1.267145" NOx_normed="27.119708" fuel_normed="27.069145" electricity_normed="0"
            traveltime="2.65" CO_perVeh="315.412316" CO2_perVeh="15283.217062" HC_perVeh="1.799044" PMx_perVeh="0.307532" NOx_perVeh="6.581875" fuel_perVeh="6.569603" electricity_perVeh="0"/>
        <edge id=":1110673561_0" sampledSeconds="103.93" CO_abs="9490.075713" CO2_abs="667692.322319" HC_abs="59.295009" PMx_abs="13.587477" NOx_abs="283.297419" fuel_abs="287.009097" electricity_abs="0"
            CO_normed="238.534796" CO2_normed="16782.569144" HC_normed="1.490391" PMx_normed="0.341524" NOx_normed="7.120733" fuel_normed="7.214026" electricity_normed="0"
            traveltime="1.23" CO_perVeh="111.992104" CO2_perVeh="7879.417465" HC_perVeh="0.699739" PMx_perVeh="0.160345" NOx_perVeh="3.343185" fuel_perVeh="3.386986" electricity_perVeh="0"/>
        <edge id=":1110673561_1" sampledSeconds="5268.49" CO_abs="487252.701794" CO2_abs="33789417.959533" HC_abs="3036.045296" PMx_abs="705.295010" NOx_abs="14440.414312" fuel_abs="14524.439929" electricity_abs="0"
            CO_normed="11940.292785" CO2_normed="828021.152017" HC_normed="74.399320" PMx_normed="17.283494" NOx_normed="353.867252" fuel_normed="355.926329" electricity_normed="0"
            traveltime="1.20" CO_perVeh="110.625399" CO2_perVeh="7671.517928" HC_perVeh="0.689301" PMx_perVeh="0.160130" NOx_perVeh="3.278538" fuel_perVeh="3.297615" electricity_perVeh="0"/>
        <edge id=":1110673562_0" sampledSeconds="301.57" CO_abs="6655.345227" CO2_abs="503076.449969" HC_abs="41.781347" PMx_abs="6.914449" NOx_abs="193.005275" fuel_abs="216.253128" electricity_abs="0"
            CO_normed="10365.370443" CO2_normed="783516.645203" HC_normed="65.072378" PMx_normed="10.768912" NOx_normed="300.596154" fuel_normed="336.803533" electricity_normed="0"
            traveltime="0.03" CO_perVeh="0.596595" CO2_perVeh="45.096495" HC_perVeh="0.003745" PMx_perVeh="0.000620" NOx_perVeh="0.017301" fuel_perVeh="0.019385" electricity_perVeh="0"/>
        <edge id=":1110673564_0" sampledSeconds="27.79" CO_abs="384.014148" CO2_abs="49257.777009" HC_abs="2.872851" PMx_abs="0.638124" NOx_abs="18.174693" fuel_abs="21.173893" electricity_abs="0"
            CO_normed="1614.824124" CO2_normed="207134.677297" HC_normed="12.080671" PMx_normed="2.683384" NOx_normed="76.426695" fuel_normed="89.038683" electricity_normed="0"
            traveltime="7.850645e-03" CO_perVeh="0.108464" CO2_perVeh="13.912819" HC_perVeh="0.000811" PMx_perVeh="0.000180" NOx_perVeh="0.005133" fuel_perVeh="0.005981" electricity_perVeh="0"/>
        <edge id=":1110673588_0" sampledSeconds="62.39" CO_abs="1133.481331" CO2_abs="129219.055580" HC_abs="8.127375" PMx_abs="1.731079" NOx_abs="48.311352" fuel_abs="55.545956" electricity_abs="0"
            CO_normed="1906.568294" CO2_normed="217352.458866" HC_normed="13.670623" PMx_normed="2.911756" NOx_normed="81.261940" fuel_normed="93.430880" electricity_normed="0"
            traveltime="0.02" CO_perVeh="0.365639" CO2_perVeh="41.683566" HC_perVeh="0.002622" PMx_perVeh="0.000558" NOx_perVeh="0.015584" fuel_perVeh="0.017918" electricity_perVeh="0"/>
        <edge id=":1110673601_0" sampledSeconds="28.97" CO_abs="490.540990" CO2_abs="56898.118928" HC_abs="3.540500" PMx_abs="0.797911" NOx_abs="21.435162" fuel_abs="24.458104" electricity_abs="0"
            CO_normed="736.707813" CO2_normed="85451.143951" HC_normed="5.317219" PMx_normed="1.198325" NOx_normed="32.191910" fuel_normed="36.731847" electricity_normed="0"
            traveltime="0.02" CO_perVeh="0.374061" CO2_perVeh="43.387547" HC_perVeh="0.002700" PMx_perVeh="0.000608" NOx_perVeh="0.016345" fuel_perVeh="0.018650" electricity_perVeh="0"/>
        <edge id=":1110673617_0" sampledSeconds="852.62" CO_abs="32224.498336" CO2_abs="3269188.357344" HC_abs="225.148882" PMx_abs="61.678365" NOx_abs="1281.139088" fuel_abs="1405.271033" electricity_abs="0"
            CO_normed="45169.253595" CO2_normed="4582439.001067" HC_normed="315.592405" PMx_normed="86.454898" NOx_normed="1795.779588" fuel_normed="1969.776007" electricity_normed="0"
            traveltime="0.02" CO_perVeh="0.570711" CO2_perVeh="57.898867" HC_perVeh="0.003987" PMx_perVeh="0.001092" NOx_perVeh="0.022690" fuel_perVeh="0.024888" electricity_perVeh="0"/>
        <edge id=":1110673621_0" sampledSeconds="26.28" CO_abs="563.756763" CO2_abs="57958.925872" HC_abs="3.901294" PMx_abs="0.843473" NOx_abs="22.170124" fuel_abs="24.914094" electricity_abs="0"
            CO_normed="948.265085" CO2_normed="97489.607821" HC_normed="6.562158" PMx_normed="1.418761" NOx_normed="37.291179" fuel_normed="41.906665" electricity_normed="0"
            traveltime="0.02" CO_perVeh="0.427088" CO2_perVeh="43.908277" HC_perVeh="0.002956" PMx_perVeh="0.000639" NOx_perVeh="0.016796" fuel_perVeh="0.018874" electricity_perVeh="0"/>
        <edge id=":1110673630_0" sampledSeconds="286.91" CO_abs="1144.371492" CO2_abs="106757.073276" HC_abs="7.615616" PMx_abs="1.347471" NOx_abs="39.791848" fuel_abs="45.890732" electricity_abs="0"
            CO_normed="34.323931" CO2_normed="3202.039236" HC_normed="0.228420" PMx_normed="0.040416" NOx_normed="1.193505" fuel_normed="1.376433" electricity_normed="0"
            traveltime="1.29" CO_perVeh="5.149235" CO2_perVeh="480.366057" HC_perVeh="0.034267" PMx_perVeh="0.006063" NOx_perVeh="0.179048" fuel_perVeh="0.206491" electricity_perVeh="0"/>
        <edge id=":1110673630_1" sampledSeconds="337.75" CO_abs="1303.261975" CO2_abs="100525.388594" HC_abs="8.231447" PMx_abs="1.389484" NOx_abs="38.589272" fuel_abs="43.211949" electricity_abs="0"
            CO_normed="47.655375" CO2_normed="3675.834283" HC_normed="0.300993" PMx_normed="0.050808" NOx_normed="1.411064" fuel_normed="1.580098" electricity_normed="0"
            traveltime="1.08" CO_perVeh="4.154543" CO2_perVeh="320.455154" HC_perVeh="0.026240" PMx_perVeh="0.004429" NOx_perVeh="0.123015" fuel_perVeh="0.137751" electricity_perVeh="0"/>
        <edge id=":1110673650_0" sampledSeconds="200.29" CO_abs="2963.664349" CO2_abs="384739.091696" HC_abs="22.222695" PMx_abs="5.128110" NOx_abs="142.590413" fuel_abs="165.383283" electricity_abs="0"
            CO_normed="4154.184346" CO2_normed="539290.865594" HC_normed="31.149672" PMx_normed="7.188100" NOx_normed="199.869753" fuel_normed="231.818642" electricity_normed="0"
            traveltime="0.02" CO_perVeh="0.342701" CO2_perVeh="44.489039" HC_perVeh="0.002570" PMx_perVeh="0.000593" NOx_perVeh="0.016488" fuel_perVeh="0.019124" electricity_perVeh="0"/>
        <edge id=":1110673655_0" sampledSeconds="20.61" CO_abs="383.864711" CO2_abs="43798.497086" HC_abs="2.739593" PMx_abs="0.617234" NOx_abs="16.518328" fuel_abs="18.827127" electricity_abs="0"
            CO_normed="538.065242" CO2_normed="61392.590238" HC_normed="3.840102" PMx_normed="0.865181" NOx_normed="23.153830" fuel_normed="26.390085" electricity_normed="0"
            traveltime="0.02" CO_perVeh="0.438557" CO2_perVeh="50.038771" HC_perVeh="0.003130" PMx_perVeh="0.000705" NOx_perVeh="0.018872" fuel_perVeh="0.021510" electricity_perVeh="0"/>
        <edge id=":1110673663_0" sampledSeconds="110.50" CO_abs="1642.721653" CO2_abs="211198.232920" HC_abs="12.266918" PMx_abs="2.793529" NOx_abs="78.217783" fuel_abs="90.785347" electricity_abs="0"
            CO_normed="42.172378" CO2_normed="5421.935994" HC_normed="0.314920" PMx_normed="0.071716" NOx_normed="2.008027" fuel_normed="2.330665" electricity_normed="0"
            traveltime="1.30" CO_perVeh="19.294541" CO2_perVeh="2480.622879" HC_perVeh="0.144081" PMx_perVeh="0.032811" NOx_perVeh="0.918705" fuel_perVeh="1.066317" electricity_perVeh="0"/>
        <edge id=":1110673663_1" sampledSeconds="170.75" CO_abs="2853.516165" CO2_abs="356406.112457" HC_abs="21.185514" PMx_abs="4.827312" NOx_abs="132.828557" fuel_abs="153.204086" electricity_abs="0"
            CO_normed="73.345765" CO2_normed="9160.935979" HC_normed="0.544545" PMx_normed="0.124080" NOx_normed="3.414178" fuel_normed="3.937903" electricity_normed="0"
            traveltime="1.27" CO_perVeh="21.295591" CO2_perVeh="2659.833804" HC_perVeh="0.158106" PMx_perVeh="0.036026" NOx_perVeh="0.991290" fuel_perVeh="1.143351" electricity_perVeh="0"/>