<?xml version="1.0" encoding="UTF-8"?>

<!-- generated on Fri Oct  2 15:47:13 2020 by Eclipse SUMO Version 1.1.0
<configuration xmlns:xsi="http://www.w3.org/2001/XMLSchema-instance" xsi:noNamespaceSchemaLocation="http://sumo.dlr.de/xsd/sumoConfiguration.xsd">

    <input>
        <net-file value="../dataSets/Angeja_Estarreja/angeja_estarreja.net.xml"/>
        <route-files value="../results/angeja_estarreja/cost_co-cost_co2/solution15/angeja_estarreja.rou.xml"/>
        <additional-files value="moreOutputInfo.xml"/>
    </input>

    <output>
        <emission-output.precision value="6"/>
        <tripinfo-output value="../results/angeja_estarreja/cost_co-cost_co2/solution15/angeja_estarreja-tripinfo"/>
    </output>

    <processing>
        <collision.action value="warn"/>
        <time-to-teleport value="-1"/>
    </processing>

    <emissions>
        <device.emissions.probability value="1"/>
    </emissions>

    <gui_only>
        <quit-on-end value="true"/>
        <start value="true"/>
    </gui_only>

</configuration>
-->

<meandata xmlns:xsi="http://www.w3.org/2001/XMLSchema-instance" xsi:noNamespaceSchemaLocation="http://sumo.dlr.de/xsd/meandata_file.xsd">
    <interval begin="0.00" end="19078.00" id="emissions-detector">
        <edge id=":10_0" sampledSeconds="415.50" CO_abs="41861.238983" CO2_abs="2309227.303384" HC_abs="245.409134" PMx_abs="45.283287" NOx_abs="985.161722" fuel_abs="992.635365" electricity_abs="0"
            CO_normed="451.639507" CO2_normed="24914.176145" HC_normed="2.647711" PMx_normed="0.488560" NOx_normed="10.628877" fuel_normed="10.709510" electricity_normed="0"
            traveltime="1.90" CO_perVeh="191.398556" CO2_perVeh="10558.282148" HC_perVeh="1.122063" PMx_perVeh="0.207045" NOx_perVeh="4.504371" fuel_perVeh="4.538542" electricity_perVeh="0"/>
        <edge id=":10_1" sampledSeconds="0.00" CO_abs="0" CO2_abs="0" HC_abs="0" PMx_abs="0" NOx_abs="0" fuel_abs="0" electricity_abs="0"
            CO_normed="0" CO2_normed="0" HC_normed="0" PMx_normed="0" NOx_normed="0" fuel_normed="0" electricity_normed="0"/>
        <edge id=":100_0" sampledSeconds="0.00" CO_abs="0" CO2_abs="0" HC_abs="0" PMx_abs="0" NOx_abs="0" fuel_abs="0" electricity_abs="0"
            CO_normed="0" CO2_normed="0" HC_normed="0" PMx_normed="0" NOx_normed="0" fuel_normed="0" electricity_normed="0"/>
        <edge id=":100_1" sampledSeconds="911.74" CO_abs="20955.494168" CO2_abs="2727249.422041" HC_abs="161.724360" PMx_abs="48.913978" NOx_abs="1013.445836" fuel_abs="1172.319833" electricity_abs="0"
            CO_normed="133.771357" CO2_normed="17409.651794" HC_normed="1.032383" PMx_normed="0.312247" NOx_normed="6.469426" fuel_normed="7.483613" electricity_normed="0"
            traveltime="1.37" CO_perVeh="31.508447" CO2_perVeh="4100.661758" HC_perVeh="0.243167" PMx_perVeh="0.073547" NOx_perVeh="1.523806" fuel_perVeh="1.762687" electricity_perVeh="0"/>
        <edge id=":101_0" sampledSeconds="438.12" CO_abs="11292.401814" CO2_abs="1380565.473787" HC_abs="84.983145" PMx_abs="25.195118" NOx_abs="518.140932" fuel_abs="593.441651" electricity_abs="0"
            CO_normed="260.815816" CO2_normed="31886.335242" HC_normed="1.962820" PMx_normed="0.581921" NOx_normed="11.967281" fuel_normed="13.706470" electricity_normed="0"
            traveltime="0.38" CO_perVeh="9.755169" CO2_perVeh="1192.629287" HC_perVeh="0.073414" PMx_perVeh="0.021765" NOx_perVeh="0.447606" fuel_perVeh="0.512657" electricity_perVeh="0"/>
        <edge id=":102_0" sampledSeconds="341.31" CO_abs="8465.499422" CO2_abs="1068003.743824" HC_abs="64.510562" PMx_abs="19.316435" NOx_abs="398.869739" fuel_abs="459.085852" electricity_abs="0"
            CO_normed="197.213764" CO2_normed="24880.403113" HC_normed="1.502849" PMx_normed="0.449999" NOx_normed="9.292140" fuel_normed="10.694945" electricity_normed="0"
            traveltime="0.38" CO_perVeh="9.312814" CO2_perVeh="1174.900638" HC_perVeh="0.070967" PMx_perVeh="0.021250" NOx_perVeh="0.438793" fuel_perVeh="0.505036" electricity_perVeh="0"/>
        <edge id=":103_0" sampledSeconds="434.40" CO_abs="10241.367469" CO2_abs="1289889.585651" HC_abs="77.979810" PMx_abs="23.340141" NOx_abs="481.832120" fuel_abs="554.464398" electricity_abs="0"
            CO_normed="240.066591" CO2_normed="30236.137545" HC_normed="1.827915" PMx_normed="0.547113" NOx_normed="11.294565" fuel_normed="12.997129" electricity_normed="0"
            traveltime="0.37" CO_perVeh="8.798989" CO2_perVeh="1108.223528" HC_perVeh="0.066997" PMx_perVeh="0.020053" NOx_perVeh="0.413972" fuel_perVeh="0.476374" electricity_perVeh="0"/>
        <edge id=":104_0" sampledSeconds="340.90" CO_abs="8602.839206" CO2_abs="1037358.454843" HC_abs="64.397157" PMx_abs="19.007530" NOx_abs="390.220136" fuel_abs="445.912670" electricity_abs="0"
            CO_normed="200.660985" CO2_normed="24196.357115" HC_normed="1.502062" PMx_normed="0.443350" NOx_normed="9.101874" fuel_normed="10.400901" electricity_normed="0"
            traveltime="0.37" CO_perVeh="9.459554" CO2_perVeh="1140.663978" HC_perVeh="0.070810" PMx_perVeh="0.020900" NOx_perVeh="0.429080" fuel_perVeh="0.490319" electricity_perVeh="0"/>
        <edge id=":105_0" sampledSeconds="168.48" CO_abs="3992.159487" CO2_abs="497741.728338" HC_abs="30.291267" PMx_abs="9.036383" NOx_abs="186.205428" fuel_abs="213.956333" electricity_abs="0"
            CO_normed="3424.166377" CO2_normed="426924.449394" HC_normed="25.981511" PMx_normed="7.750712" NOx_normed="159.712649" fuel_normed="183.515234" electricity_normed="0"
            traveltime="0.01" CO_perVeh="0.241414" CO2_perVeh="30.099499" HC_perVeh="0.001832" PMx_perVeh="0.000546" NOx_perVeh="0.011260" fuel_perVeh="0.012938" electricity_perVeh="0"/>
        <edge id=":106_0" sampledSeconds="134.51" CO_abs="3188.843819" CO2_abs="390411.766303" HC_abs="24.016879" PMx_abs="7.123100" NOx_abs="146.493871" fuel_abs="167.820078" electricity_abs="0"
            CO_normed="1941.070063" CO2_normed="237646.192489" HC_normed="14.619231" PMx_normed="4.335878" NOx_normed="89.171776" fuel_normed="102.153178" electricity_normed="0"
            traveltime="0.01" CO_perVeh="0.340951" CO2_perVeh="41.742837" HC_perVeh="0.002568" PMx_perVeh="0.000762" NOx_perVeh="0.015663" fuel_perVeh="0.017943" electricity_perVeh="0"/>
        <edge id=":107_0" sampledSeconds="438.34" CO_abs="10804.237788" CO2_abs="1353960.507150" HC_abs="82.053093" PMx_abs="24.525281" NOx_abs="506.138238" fuel_abs="582.005526" electricity_abs="0"
            CO_normed="249.540898" CO2_normed="31271.851611" HC_normed="1.895145" PMx_normed="0.566450" NOx_normed="11.690060" fuel_normed="13.442335" electricity_normed="0"
            traveltime="0.38" CO_perVeh="9.333463" CO2_perVeh="1169.646597" HC_perVeh="0.070883" PMx_perVeh="0.021187" NOx_perVeh="0.437238" fuel_perVeh="0.502777" electricity_perVeh="0"/>
        <edge id=":108_0" sampledSeconds="94.24" CO_abs="7802.218768" CO2_abs="577038.839290" HC_abs="49.392912" PMx_abs="11.480951" NOx_abs="242.501481" fuel_abs="248.041610" electricity_abs="0"
            CO_normed="122.383298" CO2_normed="9051.260714" HC_normed="0.774763" PMx_normed="0.180087" NOx_normed="3.803807" fuel_normed="3.890707" electricity_normed="0"
            traveltime="0.86" CO_perVeh="70.899504" CO2_perVeh="5243.606794" HC_perVeh="0.448838" PMx_perVeh="0.104328" NOx_perVeh="2.203634" fuel_perVeh="2.253978" electricity_perVeh="0"/>
        <edge id=":108_1" sampledSeconds="402.93" CO_abs="9919.771342" CO2_abs="1210059.954474" HC_abs="74.588882" PMx_abs="22.089739" NOx_abs="454.523709" fuel_abs="520.149140" electricity_abs="0"
            CO_normed="145.104743" CO2_normed="17700.552997" HC_normed="1.091074" PMx_normed="0.323125" NOx_normed="6.648696" fuel_normed="7.608654" electricity_normed="0"
            traveltime="0.60" CO_perVeh="14.736066" CO2_perVeh="1797.574036" HC_perVeh="0.110804" PMx_perVeh="0.032815" NOx_perVeh="0.675206" fuel_perVeh="0.772694" electricity_perVeh="0"/>
        <edge id=":109_0" sampledSeconds="307.44" CO_abs="108.794565" CO2_abs="19516.068732" HC_abs="0.931385" PMx_abs="0.243853" NOx_abs="7.009519" fuel_abs="8.389144" electricity_abs="0"
            CO_normed="1.635811" CO2_normed="293.439294" HC_normed="0.014004" PMx_normed="0.003667" NOx_normed="0.105394" fuel_normed="0.126137" electricity_normed="0"
            traveltime="0.85" CO_perVeh="0.302388" CO2_perVeh="54.243719" HC_perVeh="0.002589" PMx_perVeh="0.000678" NOx_perVeh="0.019483" fuel_perVeh="0.023317" electricity_perVeh="0"/>
        <edge id=":109_1" sampledSeconds="524.62" CO_abs="11795.538147" CO2_abs="1525908.980927" HC_abs="90.737897" PMx_abs="27.402689" NOx_abs="567.440992" fuel_abs="655.918478" electricity_abs="0"
            CO_normed="115.686411" CO2_normed="14965.568452" HC_normed="0.889925" PMx_normed="0.268756" NOx_normed="5.565258" fuel_normed="6.433013" electricity_normed="0"
            traveltime="0.89" CO_perVeh="20.085025" CO2_perVeh="2598.263763" HC_perVeh="0.154505" PMx_perVeh="0.046660" NOx_perVeh="0.966218" fuel_perVeh="1.116875" electricity_perVeh="0"/>
        <edge id=":11_0" sampledSeconds="297.34" CO_abs="17657.741819" CO2_abs="1267428.399909" HC_abs="110.373240" PMx_abs="22.962277" NOx_abs="522.060624" fuel_abs="544.810796" electricity_abs="0"
            CO_normed="182.575269" CO2_normed="13104.794706" HC_normed="1.141223" PMx_normed="0.237422" NOx_normed="5.397936" fuel_normed="5.633165" electricity_normed="0"
            traveltime="1.59" CO_perVeh="94.669150" CO2_perVeh="6795.114071" HC_perVeh="0.591748" PMx_perVeh="0.123109" NOx_perVeh="2.798944" fuel_perVeh="2.920916" electricity_perVeh="0"/>
        <edge id=":11_1" sampledSeconds="50.81" CO_abs="1033.056550" CO2_abs="90059.783893" HC_abs="6.763836" PMx_abs="1.219438" NOx_abs="34.229502" fuel_abs="38.713135" electricity_abs="0"
            CO_normed="10.951504" CO2_normed="954.729967" HC_normed="0.071704" PMx_normed="0.012927" NOx_normed="0.362869" fuel_normed="0.410401" electricity_normed="0"
            traveltime="1.67" CO_perVeh="33.977100" CO2_perVeh="2962.054977" HC_perVeh="0.222462" PMx_perVeh="0.040107" NOx_perVeh="1.125804" fuel_perVeh="1.273270" electricity_perVeh="0"/>
        <edge id=":110_0" sampledSeconds="94.45" CO_abs="0" CO2_abs="0" HC_abs="0" PMx_abs="0" NOx_abs="0" fuel_abs="0" electricity_abs="0"
            CO_normed="0" CO2_normed="0" HC_normed="0" PMx_normed="0" NOx_normed="0" fuel_normed="0" electricity_normed="0"
            traveltime="0.92" CO_perVeh="0" CO2_perVeh="0" HC_perVeh="0" PMx_perVeh="0" NOx_perVeh="0" fuel_perVeh="0" electricity_perVeh="0"/>
        <edge id=":110_1" sampledSeconds="443.49" CO_abs="11490.431177" CO2_abs="1398524.783316" HC_abs="86.326432" PMx_abs="25.554846" NOx_abs="525.310025" fuel_abs="601.161506" electricity_abs="0"
            CO_normed="147.498854" CO2_normed="17952.398852" HC_normed="1.108144" PMx_normed="0.328039" NOx_normed="6.743231" fuel_normed="7.716911" electricity_normed="0"
            traveltime="0.68" CO_perVeh="17.650999" CO2_perVeh="2148.340591" HC_perVeh="0.132610" PMx_perVeh="0.039256" NOx_perVeh="0.806954" fuel_perVeh="0.923473" electricity_perVeh="0"/>
        <edge id=":111_0" sampledSeconds="340.74" CO_abs="7789.764345" CO2_abs="1001913.428983" HC_abs="59.840992" PMx_abs="18.029360" NOx_abs="373.015091" fuel_abs="430.676730" electricity_abs="0"
            CO_normed="179.916883" CO2_normed="23140.769552" HC_normed="1.382122" PMx_normed="0.416416" NOx_normed="8.615371" fuel_normed="9.947158" electricity_normed="0"
            traveltime="0.38" CO_perVeh="8.657115" CO2_perVeh="1113.471406" HC_perVeh="0.066504" PMx_perVeh="0.020037" NOx_perVeh="0.414548" fuel_perVeh="0.478630" electricity_perVeh="0"/>
        <edge id=":114_0" sampledSeconds="106.85" CO_abs="10902.715963" CO2_abs="777161.712602" HC_abs="68.375912" PMx_abs="15.887638" NOx_abs="329.786628" fuel_abs="334.064577" electricity_abs="0"
            CO_normed="144.882526" CO2_normed="10327.440667" HC_normed="0.908625" PMx_normed="0.211125" NOx_normed="4.382424" fuel_normed="4.439272" electricity_normed="0"
            traveltime="0.99" CO_perVeh="100.862287" CO2_perVeh="7189.612899" HC_perVeh="0.632553" PMx_perVeh="0.146978" NOx_perVeh="3.050894" fuel_perVeh="3.090470" electricity_perVeh="0"/>
        <edge id=":114_1" sampledSeconds="415.89" CO_abs="11441.149057" CO2_abs="1356395.798218" HC_abs="85.081119" PMx_abs="24.964534" NOx_abs="511.926306" fuel_abs="583.052038" electricity_abs="0"
            CO_normed="151.080033" CO2_normed="17911.166180" HC_normed="1.123494" PMx_normed="0.329656" NOx_normed="6.759972" fuel_normed="7.699185" electricity_normed="0"
            traveltime="0.66" CO_perVeh="18.231160" CO2_perVeh="2161.379785" HC_perVeh="0.135574" PMx_perVeh="0.039780" NOx_perVeh="0.815741" fuel_perVeh="0.929078" electricity_perVeh="0"/>
        <edge id=":115_0" sampledSeconds="79.85" CO_abs="172.176676" CO2_abs="18949.052057" HC_abs="1.221963" PMx_abs="0.267307" NOx_abs="7.183649" fuel_abs="8.145401" electricity_abs="0"
            CO_normed="3.890967" CO2_normed="428.223671" HC_normed="0.027615" PMx_normed="0.006041" NOx_normed="0.162341" fuel_normed="0.184075" electricity_normed="0"
            traveltime="0.63" CO_perVeh="1.354891" CO2_perVeh="149.113735" HC_perVeh="0.009616" PMx_perVeh="0.002103" NOx_perVeh="0.056530" fuel_perVeh="0.064098" electricity_perVeh="0"/>
        <edge id=":115_1" sampledSeconds="72.19" CO_abs="1159.694451" CO2_abs="166413.177426" HC_abs="9.014722" PMx_abs="2.528518" NOx_abs="62.255558" fuel_abs="71.533628" electricity_abs="0"
            CO_normed="23.404622" CO2_normed="3358.503138" HC_normed="0.181933" PMx_normed="0.051030" NOx_normed="1.256424" fuel_normed="1.443671" electricity_normed="0"
            traveltime="0.59" CO_perVeh="9.494040" CO2_perVeh="1362.370378" HC_perVeh="0.073801" PMx_perVeh="0.020700" NOx_perVeh="0.509666" fuel_perVeh="0.585622" electricity_perVeh="0"/>
        <edge id=":116_0" sampledSeconds="74.99" CO_abs="106.039056" CO2_abs="13546.441804" HC_abs="0.794519" PMx_abs="0.177777" NOx_abs="5.018170" fuel_abs="5.823055" electricity_abs="0"
            CO_normed="2.675062" CO2_normed="341.738016" HC_normed="0.020043" PMx_normed="0.004485" NOx_normed="0.126594" fuel_normed="0.146899" electricity_normed="0"
            traveltime="0.57" CO_perVeh="0.800674" CO2_perVeh="102.285803" HC_perVeh="0.005999" PMx_perVeh="0.001342" NOx_perVeh="0.037891" fuel_perVeh="0.043968" electricity_perVeh="0"/>
        <edge id=":117_0" sampledSeconds="239.02" CO_abs="13207.778548" CO2_abs="1096053.284381" HC_abs="86.187875" PMx_abs="20.090696" NOx_abs="447.351072" fuel_abs="471.142750" electricity_abs="0"
            CO_normed="298.478435" CO2_normed="24769.363613" HC_normed="1.947733" PMx_normed="0.454023" NOx_normed="10.109546" fuel_normed="10.647207" electricity_normed="0"
            traveltime="0.60" CO_perVeh="33.415356" CO2_perVeh="2772.987974" HC_perVeh="0.218053" PMx_perVeh="0.050829" NOx_perVeh="1.131787" fuel_perVeh="1.191980" electricity_perVeh="0"/>
        <edge id=":117_1" sampledSeconds="75.86" CO_abs="5035.840068" CO2_abs="405220.432732" HC_abs="32.598245" PMx_abs="7.561739" NOx_abs="166.485153" fuel_abs="174.185479" electricity_abs="0"
            CO_normed="107.252608" CO2_normed="8630.327380" HC_normed="0.694273" PMx_normed="0.161049" NOx_normed="3.545777" fuel_normed="3.709778" electricity_normed="0"
            traveltime="0.64" CO_perVeh="42.575210" CO2_perVeh="3425.912034" HC_perVeh="0.275600" PMx_perVeh="0.063930" NOx_perVeh="1.407539" fuel_perVeh="1.472641" electricity_perVeh="0"/>
        <edge id=":118_0" sampledSeconds="897.35" CO_abs="12352.455434" CO2_abs="2000146.612280" HC_abs="100.921620" PMx_abs="29.200155" NOx_abs="737.452993" fuel_abs="859.774891" electricity_abs="0"
            CO_normed="37.480243" CO2_normed="6068.913261" HC_normed="0.306220" PMx_normed="0.088600" NOx_normed="2.237605" fuel_normed="2.608758" electricity_normed="0"
            traveltime="3.91" CO_perVeh="53.877637" CO2_perVeh="8724.028513" HC_perVeh="0.440189" PMx_perVeh="0.127362" NOx_perVeh="3.216545" fuel_perVeh="3.750075" electricity_perVeh="0"/>
        <edge id=":118_4" sampledSeconds="282.71" CO_abs="3635.094042" CO2_abs="595134.112387" HC_abs="29.934451" PMx_abs="8.640873" NOx_abs="218.955107" fuel_abs="255.822003" electricity_abs="0"
            CO_normed="11.051050" CO2_normed="1809.267388" HC_normed="0.091004" PMx_normed="0.026269" NOx_normed="0.665645" fuel_normed="0.777725" electricity_normed="0"
            traveltime="3.92" CO_perVeh="50.398327" CO2_perVeh="8251.165831" HC_perVeh="0.415023" PMx_perVeh="0.119800" NOx_perVeh="3.035677" fuel_perVeh="3.546814" electricity_perVeh="0"/>
        <edge id=":118_5" sampledSeconds="238.22" CO_abs="3891.699460" CO2_abs="561553.182590" HC_abs="30.297912" PMx_abs="8.623206" NOx_abs="210.326111" fuel_abs="241.386620" electricity_abs="0"
            CO_normed="11.948583" CO2_normed="1724.121999" HC_normed="0.093023" PMx_normed="0.026476" NOx_normed="0.645759" fuel_normed="0.741123" electricity_normed="0"
            traveltime="3.81" CO_perVeh="62.284541" CO2_perVeh="8987.354395" HC_perVeh="0.484902" PMx_perVeh="0.138010" NOx_perVeh="3.366155" fuel_perVeh="3.863262" electricity_perVeh="0"/>
        <edge id=":119_0" sampledSeconds="139.21" CO_abs="2117.591665" CO2_abs="320272.927949" HC_abs="17.043231" PMx_abs="4.830384" NOx_abs="119.471574" fuel_abs="137.671104" electricity_abs="0"
            CO_normed="45.407668" CO2_normed="6867.635143" HC_normed="0.365459" PMx_normed="0.103578" NOx_normed="2.561837" fuel_normed="2.952091" electricity_normed="0"
            traveltime="0.56" CO_perVeh="8.489275" CO2_perVeh="1283.951422" HC_perVeh="0.068325" PMx_perVeh="0.019365" NOx_perVeh="0.478953" fuel_perVeh="0.551914" electricity_perVeh="0"/>
        <edge id=":12_0" sampledSeconds="601.97" CO_abs="53431.853355" CO2_abs="3025091.776475" HC_abs="315.061956" PMx_abs="58.902149" NOx_abs="1286.689813" fuel_abs="1300.353610" electricity_abs="0"
            CO_normed="500.622574" CO2_normed="28343.191108" HC_normed="2.951931" PMx_normed="0.551876" NOx_normed="12.055467" fuel_normed="12.183488" electricity_normed="0"
            traveltime="2.13" CO_perVeh="188.886066" CO2_perVeh="10693.952189" HC_perVeh="1.113770" PMx_perVeh="0.208224" NOx_perVeh="4.548556" fuel_perVeh="4.596859" electricity_perVeh="0"/>
        <edge id=":12_1" sampledSeconds="56.03" CO_abs="1027.609272" CO2_abs="88069.091868" HC_abs="6.691914" PMx_abs="1.189394" NOx_abs="33.483385" fuel_abs="37.857432" electricity_abs="0"
            CO_normed="9.618495" CO2_normed="824.332925" HC_normed="0.062637" PMx_normed="0.011133" NOx_normed="0.313407" fuel_normed="0.354348" electricity_normed="0"
            traveltime="1.89" CO_perVeh="34.652420" CO2_perVeh="2969.812813" HC_perVeh="0.225661" PMx_perVeh="0.040108" NOx_perVeh="1.129107" fuel_perVeh="1.276605" electricity_perVeh="0"/>
        <edge id=":120_0" sampledSeconds="39.09" CO_abs="525.683966" CO2_abs="83720.199398" HC_abs="4.264270" PMx_abs="1.229583" NOx_abs="30.890609" fuel_abs="35.987623" electricity_abs="0"
            CO_normed="413.316883" CO2_normed="65824.666683" HC_normed="3.352765" PMx_normed="0.966754" NOx_normed="24.287616" fuel_normed="28.295122" electricity_normed="0"
            traveltime="0.02" CO_perVeh="0.202267" CO2_perVeh="32.212983" HC_perVeh="0.001641" PMx_perVeh="0.000473" NOx_perVeh="0.011886" fuel_perVeh="0.013847" electricity_perVeh="0"/>
        <edge id=":121_0" sampledSeconds="379.08" CO_abs="53910.696965" CO2_abs="1432536.849055" HC_abs="279.105223" PMx_abs="30.928970" NOx_abs="633.541200" fuel_abs="615.803806" electricity_abs="0"
            CO_normed="30826.957446" CO2_normed="819146.384158" HC_normed="159.596617" PMx_normed="17.685656" NOx_normed="362.268505" fuel_normed="352.125994" electricity_normed="0"
            traveltime="0.12" CO_perVeh="16.543372" CO2_perVeh="439.597171" HC_perVeh="0.085648" PMx_perVeh="0.009491" NOx_perVeh="0.194412" fuel_perVeh="0.188969" electricity_perVeh="0"/>
        <edge id=":122_0" sampledSeconds="134.67" CO_abs="1088.523529" CO2_abs="110636.763008" HC_abs="7.536836" PMx_abs="1.957236" NOx_abs="43.780430" fuel_abs="47.557625" electricity_abs="0"
            CO_normed="23.967716" CO2_normed="2436.061764" HC_normed="0.165950" PMx_normed="0.043096" NOx_normed="0.963982" fuel_normed="1.047150" electricity_normed="0"
            traveltime="0.54" CO_perVeh="4.355611" CO2_perVeh="442.701196" HC_perVeh="0.030158" PMx_perVeh="0.007832" NOx_perVeh="0.175183" fuel_perVeh="0.190297" electricity_perVeh="0"/>
        <edge id=":123_0" sampledSeconds="313.18" CO_abs="40833.220390" CO2_abs="2488583.723269" HC_abs="245.711419" PMx_abs="51.262520" NOx_abs="1068.928324" fuel_abs="1069.726287" electricity_abs="0"
            CO_normed="155.723300" CO2_normed="9490.568358" HC_normed="0.937055" PMx_normed="0.195497" NOx_normed="4.076510" fuel_normed="4.079554" electricity_normed="0"
            traveltime="4.26" CO_perVeh="556.069297" CO2_perVeh="33889.685620" HC_perVeh="3.346113" PMx_perVeh="0.698096" NOx_perVeh="14.556731" fuel_perVeh="14.567598" electricity_perVeh="0"/>
        <edge id=":123_1" sampledSeconds="0.00" CO_abs="0" CO2_abs="0" HC_abs="0" PMx_abs="0" NOx_abs="0" fuel_abs="0" electricity_abs="0"
            CO_normed="0" CO2_normed="0" HC_normed="0" PMx_normed="0" NOx_normed="0" fuel_normed="0" electricity_normed="0"/>
        <edge id=":123_2" sampledSeconds="255.29" CO_abs="34397.310542" CO2_abs="2153117.113824" HC_abs="208.447780" PMx_abs="44.598656" NOx_abs="925.343392" fuel_abs="925.523750" electricity_abs="0"
            CO_normed="132.437033" CO2_normed="8289.963277" HC_normed="0.802569" PMx_normed="0.171714" NOx_normed="3.562771" fuel_normed="3.563465" electricity_normed="0"
            traveltime="4.01" CO_perVeh="540.657132" CO2_perVeh="33842.707611" HC_perVeh="3.276383" PMx_perVeh="0.701002" NOx_perVeh="14.544553" fuel_perVeh="14.547388" electricity_perVeh="0"/>
        <edge id=":123_3" sampledSeconds="469.66" CO_abs="21994.687593" CO2_abs="2101959.099057" HC_abs="149.983105" PMx_abs="38.984122" NOx_abs="841.188970" fuel_abs="903.533646" electricity_abs="0"
            CO_normed="86.646683" CO2_normed="8280.535129" HC_normed="0.590849" PMx_normed="0.153575" NOx_normed="3.313811" fuel_normed="3.559414" electricity_normed="0"
            traveltime="2.81" CO_perVeh="131.647466" CO2_perVeh="12581.110214" HC_perVeh="0.897712" PMx_perVeh="0.233336" NOx_perVeh="5.034870" fuel_perVeh="5.408029" electricity_perVeh="0"/>
        <edge id=":123_5" sampledSeconds="0.00" CO_abs="0" CO2_abs="0" HC_abs="0" PMx_abs="0" NOx_abs="0" fuel_abs="0" electricity_abs="0"
            CO_normed="0" CO2_normed="0" HC_normed="0" PMx_normed="0" NOx_normed="0" fuel_normed="0" electricity_normed="0"/>
        <edge id=":123_6" sampledSeconds="194.79" CO_abs="8990.739193" CO2_abs="882558.756098" HC_abs="61.671178" PMx_abs="16.154384" NOx_abs="351.408420" fuel_abs="379.370751" electricity_abs="0"
            CO_normed="34.211408" CO2_normed="3358.297577" HC_normed="0.234670" PMx_normed="0.061470" NOx_normed="1.337173" fuel_normed="1.443575" electricity_normed="0"
            traveltime="2.91" CO_perVeh="134.505499" CO2_perVeh="13203.475601" HC_perVeh="0.922629" PMx_perVeh="0.241677" NOx_perVeh="5.257228" fuel_perVeh="5.675557" electricity_perVeh="0"/>
        <edge id=":124_0" sampledSeconds="118.90" CO_abs="4074.111825" CO2_abs="371850.559691" HC_abs="27.291828" PMx_abs="7.003089" NOx_abs="149.926359" fuel_abs="159.841052" electricity_abs="0"
            CO_normed="95.382249" CO2_normed="8705.687107" HC_normed="0.638951" PMx_normed="0.163955" NOx_normed="3.510044" fuel_normed="3.742165" electricity_normed="0"
            traveltime="0.46" CO_perVeh="15.848503" CO2_perVeh="1446.517628" HC_perVeh="0.106167" PMx_perVeh="0.027242" NOx_perVeh="0.583221" fuel_perVeh="0.621790" electricity_perVeh="0"/>
        <edge id=":125_0" sampledSeconds="141.19" CO_abs="5573.496696" CO2_abs="553564.860159" HC_abs="38.439365" PMx_abs="10.367721" NOx_abs="219.003628" fuel_abs="237.951538" electricity_abs="0"
            CO_normed="350.571131" CO2_normed="34819.049806" HC_normed="2.417824" PMx_normed="0.652126" NOx_normed="13.775257" fuel_normed="14.967074" electricity_normed="0"
            traveltime="0.16" CO_perVeh="6.383085" CO2_perVeh="633.973881" HC_perVeh="0.044023" PMx_perVeh="0.011874" NOx_perVeh="0.250815" fuel_perVeh="0.272516" electricity_perVeh="0"/>
        <edge id=":125_3" sampledSeconds="0.00" CO_abs="0" CO2_abs="0" HC_abs="0" PMx_abs="0" NOx_abs="0" fuel_abs="0" electricity_abs="0"
            CO_normed="0" CO2_normed="0" HC_normed="0" PMx_normed="0" NOx_normed="0" fuel_normed="0" electricity_normed="0"/>
        <edge id=":126_0" sampledSeconds="27.15" CO_abs="151.874184" CO2_abs="11340.252248" HC_abs="0.951960" PMx_abs="0.164465" NOx_abs="4.407711" fuel_abs="4.874725" electricity_abs="0"
            CO_normed="5.001485" CO2_normed="373.454545" HC_normed="0.031350" PMx_normed="0.005416" NOx_normed="0.145154" fuel_normed="0.160533" electricity_normed="0"
            traveltime="0.57" CO_perVeh="3.182460" CO2_perVeh="237.630214" HC_perVeh="0.019948" PMx_perVeh="0.003446" NOx_perVeh="0.092362" fuel_perVeh="0.102148" electricity_perVeh="0"/>
        <edge id=":126_1" sampledSeconds="80.91" CO_abs="1280.258159" CO2_abs="199931.643355" HC_abs="10.385430" PMx_abs="3.201485" NOx_abs="73.799569" fuel_abs="85.941594" electricity_abs="0"
            CO_normed="37.512961" CO2_normed="5858.215245" HC_normed="0.304304" PMx_normed="0.093807" NOx_normed="2.162408" fuel_normed="2.518182" electricity_normed="0"
            traveltime="0.35" CO_perVeh="5.539897" CO2_perVeh="865.138572" HC_perVeh="0.044940" PMx_perVeh="0.013853" NOx_perVeh="0.319343" fuel_perVeh="0.371884" electricity_perVeh="0"/>
        <edge id=":127_0" sampledSeconds="234.48" CO_abs="4779.536849" CO2_abs="631293.039829" HC_abs="36.236114" PMx_abs="10.664634" NOx_abs="237.876924" fuel_abs="271.364052" electricity_abs="0"
            CO_normed="110.526219" CO2_normed="14598.576120" HC_normed="0.837956" PMx_normed="0.246618" NOx_normed="5.500875" fuel_normed="6.275261" electricity_normed="0"
            traveltime="0.44" CO_perVeh="8.937849" CO2_perVeh="1180.533233" HC_perVeh="0.067762" PMx_perVeh="0.019943" NOx_perVeh="0.444836" fuel_perVeh="0.507457" electricity_perVeh="0"/>
        <edge id=":128_0" sampledSeconds="229.67" CO_abs="380.699483" CO2_abs="53886.066396" HC_abs="2.941915" PMx_abs="0.831312" NOx_abs="20.049583" fuel_abs="23.163229" electricity_abs="0"
            CO_normed="5.883507" CO2_normed="832.780360" HC_normed="0.045466" PMx_normed="0.012847" NOx_normed="0.309856" fuel_normed="0.357975" electricity_normed="0"
            traveltime="0.76" CO_perVeh="1.251492" CO2_perVeh="177.142261" HC_perVeh="0.009671" PMx_perVeh="0.002733" NOx_perVeh="0.065910" fuel_perVeh="0.076146" electricity_perVeh="0"/>
        <edge id=":128_1" sampledSeconds="142.04" CO_abs="236.832044" CO2_abs="28100.852216" HC_abs="1.714532" PMx_abs="0.405443" NOx_abs="10.643344" fuel_abs="12.079350" electricity_abs="0"
            CO_normed="3.780878" CO2_normed="448.612810" HC_normed="0.027371" PMx_normed="0.006473" NOx_normed="0.169914" fuel_normed="0.192839" electricity_normed="0"
            traveltime="0.85" CO_perVeh="1.419673" CO2_perVeh="168.448636" HC_perVeh="0.010278" PMx_perVeh="0.002430" NOx_perVeh="0.063801" fuel_perVeh="0.072409" electricity_perVeh="0"/>
        <edge id=":129_0" sampledSeconds="105.73" CO_abs="5095.871150" CO2_abs="472591.232867" HC_abs="34.427917" PMx_abs="8.737163" NOx_abs="190.347693" fuel_abs="203.144844" electricity_abs="0"
            CO_normed="118.714311" CO2_normed="11009.568505" HC_normed="0.802039" PMx_normed="0.203542" NOx_normed="4.434373" fuel_normed="4.732498" electricity_normed="0"
            traveltime="0.50" CO_perVeh="24.151755" CO2_perVeh="2239.834403" HC_perVeh="0.163170" PMx_perVeh="0.041410" NOx_perVeh="0.902148" fuel_perVeh="0.962800" electricity_perVeh="0"/>
        <edge id=":13_0" sampledSeconds="60.00" CO_abs="5269.186242" CO2_abs="368570.917388" HC_abs="32.819617" PMx_abs="7.261408" NOx_abs="155.400267" fuel_abs="158.431399" electricity_abs="0"
            CO_normed="37.253290" CO2_normed="2605.806398" HC_normed="0.232036" PMx_normed="0.051338" NOx_normed="1.098684" fuel_normed="1.120114" electricity_normed="0"
            traveltime="2.12" CO_perVeh="186.379587" CO2_perVeh="13036.945750" HC_perVeh="1.160883" PMx_perVeh="0.256848" NOx_perVeh="5.496757" fuel_perVeh="5.603973" electricity_perVeh="0"/>
        <edge id=":13_1" sampledSeconds="544.81" CO_abs="13067.293185" CO2_abs="982975.950664" HC_abs="82.038320" PMx_abs="14.059410" NOx_abs="380.809066" fuel_abs="422.542584" electricity_abs="0"
            CO_normed="130.189308" CO2_normed="9793.379279" HC_normed="0.817347" PMx_normed="0.140074" NOx_normed="3.793997" fuel_normed="4.209787" electricity_normed="0"
            traveltime="1.90" CO_perVeh="45.621028" CO2_perVeh="3431.802800" HC_perVeh="0.286415" PMx_perVeh="0.049085" NOx_perVeh="1.329495" fuel_perVeh="1.475197" electricity_perVeh="0"/>
        <edge id=":132_0" sampledSeconds="41.08" CO_abs="485.103090" CO2_abs="83169.069772" HC_abs="4.045642" PMx_abs="1.174327" NOx_abs="30.449269" fuel_abs="35.750748" electricity_abs="0"
            CO_normed="915.384801" CO2_normed="156939.223806" HC_normed="7.634087" PMx_normed="2.215944" NOx_normed="57.457473" fuel_normed="67.461312" electricity_normed="0"
            traveltime="6.368179e-03" CO_perVeh="0.075204" CO2_perVeh="12.893430" HC_perVeh="0.000627" PMx_perVeh="0.000182" NOx_perVeh="0.004720" fuel_perVeh="0.005542" electricity_perVeh="0"/>
        <edge id=":133_0" sampledSeconds="44.70" CO_abs="650.004396" CO2_abs="89791.125881" HC_abs="4.964243" PMx_abs="1.207923" NOx_abs="33.235540" fuel_abs="38.597411" electricity_abs="0"