<?xml version="1.0" encoding="UTF-8"?>

<!-- generated on Mon Nov  9 20:59:29 2020 by Eclipse SUMO sumo Version 1.7.0
<configuration xmlns:xsi="http://www.w3.org/2001/XMLSchema-instance" xsi:noNamespaceSchemaLocation="http://sumo.dlr.de/xsd/sumoConfiguration.xsd">

    <input>
        <net-file value="../dataSets/Angeja_Estarreja/angeja_estarreja.net.xml"/>
        <route-files value="../results/angeja_estarreja/cost_PMx-cost_hc/solution6/angeja_estarreja.rou.xml"/>
        <additional-files value="moreOutputInfo.xml"/>
    </input>

    <output>
        <emission-output.precision value="6"/>
        <tripinfo-output value="../results/angeja_estarreja/cost_PMx-cost_hc/solution6/angeja_estarreja-tripinfo"/>
    </output>

    <processing>
        <collision.action value="warn"/>
        <time-to-teleport value="-1"/>
    </processing>

    <emissions>
        <device.emissions.probability value="1"/>
    </emissions>

    <gui_only>
        <quit-on-end value="true"/>
        <start value="true"/>
    </gui_only>

</configuration>
-->

<meandata xmlns:xsi="http://www.w3.org/2001/XMLSchema-instance" xsi:noNamespaceSchemaLocation="http://sumo.dlr.de/xsd/meandata_file.xsd">
    <interval begin="0.00" end="19079.00" id="emissions-detector">
        <edge id=":10_0" sampledSeconds="414.27" CO_abs="41895.652606" CO2_abs="2304986.254942" HC_abs="245.432025" PMx_abs="45.056717" NOx_abs="982.565212" fuel_abs="990.812624" electricity_abs="0"
            CO_normed="451.987103" CO2_normed="24867.116171" HC_normed="2.647819" PMx_normed="0.486090" NOx_normed="10.600308" fuel_normed="10.689284" electricity_normed="0"
            traveltime="1.91" CO_perVeh="193.454080" CO2_perVeh="10643.323757" HC_perVeh="1.133288" PMx_perVeh="0.208050" NOx_perVeh="4.537016" fuel_perVeh="4.575099" electricity_perVeh="0"/>
        <edge id=":10_1" sampledSeconds="0.00" CO_abs="0" CO2_abs="0" HC_abs="0" PMx_abs="0" NOx_abs="0" fuel_abs="0" electricity_abs="0"
            CO_normed="0" CO2_normed="0" HC_normed="0" PMx_normed="0" NOx_normed="0" fuel_normed="0" electricity_normed="0"/>
        <edge id=":100_0" sampledSeconds="0.00" CO_abs="0" CO2_abs="0" HC_abs="0" PMx_abs="0" NOx_abs="0" fuel_abs="0" electricity_abs="0"
            CO_normed="0" CO2_normed="0" HC_normed="0" PMx_normed="0" NOx_normed="0" fuel_normed="0" electricity_normed="0"/>
        <edge id=":100_1" sampledSeconds="911.98" CO_abs="22453.086414" CO2_abs="2779882.879362" HC_abs="169.750247" PMx_abs="50.533120" NOx_abs="1041.300892" fuel_abs="1194.944023" electricity_abs="0"
            CO_normed="143.323865" CO2_normed="17744.712278" HC_normed="1.083560" PMx_normed="0.322566" NOx_normed="6.646893" fuel_normed="7.627637" electricity_normed="0"
            traveltime="1.37" CO_perVeh="33.760210" CO2_perVeh="4179.800836" HC_perVeh="0.255235" PMx_perVeh="0.075981" NOx_perVeh="1.565688" fuel_perVeh="1.796704" electricity_perVeh="0"/>
        <edge id=":101_0" sampledSeconds="438.20" CO_abs="11380.944554" CO2_abs="1427371.638525" HC_abs="86.506570" PMx_abs="25.857442" NOx_abs="533.553665" fuel_abs="613.561606" electricity_abs="0"
            CO_normed="262.847072" CO2_normed="32965.669437" HC_normed="1.997901" PMx_normed="0.597187" NOx_normed="12.322617" fuel_normed="14.170429" electricity_normed="0"
            traveltime="0.38" CO_perVeh="9.831658" CO2_perVeh="1233.063735" HC_perVeh="0.074730" PMx_perVeh="0.022337" NOx_perVeh="0.460921" fuel_perVeh="0.530038" electricity_perVeh="0"/>
        <edge id=":102_0" sampledSeconds="341.67" CO_abs="7903.887300" CO2_abs="974017.194865" HC_abs="59.682744" PMx_abs="17.738309" NOx_abs="365.096064" fuel_abs="418.685259" electricity_abs="0"
            CO_normed="184.120698" CO2_normed="22689.686621" HC_normed="1.390307" PMx_normed="0.413213" NOx_normed="8.504896" fuel_normed="9.753254" electricity_normed="0"
            traveltime="0.38" CO_perVeh="8.694968" CO2_perVeh="1071.504238" HC_perVeh="0.065656" PMx_perVeh="0.019514" NOx_perVeh="0.401638" fuel_perVeh="0.460590" electricity_perVeh="0"/>
        <edge id=":103_0" sampledSeconds="434.39" CO_abs="10097.256798" CO2_abs="1271972.977543" HC_abs="76.867465" PMx_abs="23.016093" NOx_abs="474.963466" fuel_abs="546.762882" electricity_abs="0"
            CO_normed="236.676105" CO2_normed="29814.593842" HC_normed="1.801746" PMx_normed="0.539489" NOx_normed="11.132975" fuel_normed="12.815927" electricity_normed="0"
            traveltime="0.37" CO_perVeh="8.675175" CO2_perVeh="1092.830267" HC_perVeh="0.066042" PMx_perVeh="0.019775" NOx_perVeh="0.408070" fuel_perVeh="0.469758" electricity_perVeh="0"/>
        <edge id=":104_0" sampledSeconds="341.04" CO_abs="8150.885333" CO2_abs="1042571.286842" HC_abs="62.408765" PMx_abs="18.780268" NOx_abs="388.378139" fuel_abs="448.153668" electricity_abs="0"
            CO_normed="190.109209" CO2_normed="24316.671684" HC_normed="1.455606" PMx_normed="0.438026" NOx_normed="9.058434" fuel_normed="10.452624" electricity_normed="0"
            traveltime="0.37" CO_perVeh="8.962593" CO2_perVeh="1146.395931" HC_perVeh="0.068624" PMx_perVeh="0.020651" NOx_perVeh="0.427055" fuel_perVeh="0.492783" electricity_perVeh="0"/>
        <edge id=":105_0" sampledSeconds="168.55" CO_abs="3883.068437" CO2_abs="493644.586545" HC_abs="29.657934" PMx_abs="8.909416" NOx_abs="184.012833" fuel_abs="212.195202" electricity_abs="0"
            CO_normed="3330.421924" CO2_normed="423388.044819" HC_normed="25.436954" PMx_normed="7.641409" NOx_normed="157.823738" fuel_normed="181.995132" electricity_normed="0"
            traveltime="0.01" CO_perVeh="0.234817" CO2_perVeh="29.851736" HC_perVeh="0.001793" PMx_perVeh="0.000539" NOx_perVeh="0.011128" fuel_perVeh="0.012832" electricity_perVeh="0"/>
        <edge id=":106_0" sampledSeconds="134.55" CO_abs="3130.585736" CO2_abs="389708.682038" HC_abs="23.736416" PMx_abs="7.074710" NOx_abs="145.908969" fuel_abs="167.517875" electricity_abs="0"
            CO_normed="1905.508108" CO2_normed="237205.787031" HC_normed="14.447754" PMx_normed="4.306196" NOx_normed="88.811087" fuel_normed="101.963880" electricity_normed="0"
            traveltime="0.01" CO_perVeh="0.334720" CO2_perVeh="41.667422" HC_perVeh="0.002538" PMx_perVeh="0.000756" NOx_perVeh="0.015601" fuel_perVeh="0.017911" electricity_perVeh="0"/>
        <edge id=":107_0" sampledSeconds="438.53" CO_abs="11355.978900" CO2_abs="1353406.224459" HC_abs="84.638302" PMx_abs="24.877858" NOx_abs="510.298117" fuel_abs="581.766989" electricity_abs="0"
            CO_normed="262.270481" CO2_normed="31257.411178" HC_normed="1.954753" PMx_normed="0.574563" NOx_normed="11.785521" fuel_normed="13.436121" electricity_normed="0"
            traveltime="0.38" CO_perVeh="9.810091" CO2_perVeh="1169.167222" HC_perVeh="0.073117" PMx_perVeh="0.021491" NOx_perVeh="0.440831" fuel_perVeh="0.502571" electricity_perVeh="0"/>
        <edge id=":108_0" sampledSeconds="94.11" CO_abs="7747.215178" CO2_abs="568476.995463" HC_abs="48.935964" PMx_abs="11.359809" NOx_abs="239.231095" fuel_abs="244.361254" electricity_abs="0"
            CO_normed="121.514159" CO2_normed="8916.494792" HC_normed="0.767555" PMx_normed="0.178177" NOx_normed="3.752312" fuel_normed="3.832778" electricity_normed="0"
            traveltime="0.85" CO_perVeh="70.372094" CO2_perVeh="5163.780218" HC_perVeh="0.444511" PMx_perVeh="0.103187" NOx_perVeh="2.173064" fuel_perVeh="2.219664" electricity_perVeh="0"/>
        <edge id=":108_1" sampledSeconds="403.33" CO_abs="9631.198581" CO2_abs="1218104.932681" HC_abs="73.454219" PMx_abs="22.010838" NOx_abs="454.822850" fuel_abs="523.607479" electricity_abs="0"
            CO_normed="140.876165" CO2_normed="17817.299664" HC_normed="1.074420" PMx_normed="0.321954" NOx_normed="6.652723" fuel_normed="7.658840" electricity_normed="0"
            traveltime="0.60" CO_perVeh="14.307384" CO2_perVeh="1809.525050" HC_perVeh="0.109118" PMx_perVeh="0.032698" NOx_perVeh="0.675651" fuel_perVeh="0.777832" electricity_perVeh="0"/>
        <edge id=":109_0" sampledSeconds="308.34" CO_abs="148.048678" CO2_abs="22693.493454" HC_abs="1.191283" PMx_abs="0.299444" NOx_abs="8.293173" fuel_abs="9.754978" electricity_abs="0"
            CO_normed="2.225911" CO2_normed="341.196465" HC_normed="0.017911" PMx_normed="0.004502" NOx_normed="0.124688" fuel_normed="0.146666" electricity_normed="0"
            traveltime="0.86" CO_perVeh="0.411492" CO2_perVeh="63.075176" HC_perVeh="0.003311" PMx_perVeh="0.000832" NOx_perVeh="0.023050" fuel_perVeh="0.027113" electricity_perVeh="0"/>
        <edge id=":109_1" sampledSeconds="524.18" CO_abs="11774.680290" CO2_abs="1483906.581867" HC_abs="89.665333" PMx_abs="26.849205" NOx_abs="554.103947" fuel_abs="637.863424" electricity_abs="0"
            CO_normed="115.475792" CO2_normed="14552.861166" HC_normed="0.879359" PMx_normed="0.263314" NOx_normed="5.434168" fuel_normed="6.255608" electricity_normed="0"
            traveltime="0.89" CO_perVeh="20.049476" CO2_perVeh="2526.739524" HC_perVeh="0.152679" PMx_perVeh="0.045718" NOx_perVeh="0.943507" fuel_perVeh="1.086130" electricity_perVeh="0"/>
        <edge id=":11_0" sampledSeconds="293.94" CO_abs="18807.052324" CO2_abs="1321861.231113" HC_abs="116.971739" PMx_abs="24.445453" NOx_abs="548.083452" fuel_abs="568.208570" electricity_abs="0"
            CO_normed="194.448571" CO2_normed="13666.895991" HC_normed="1.209386" PMx_normed="0.252745" NOx_normed="5.666706" fuel_normed="5.874783" electricity_normed="0"
            traveltime="1.59" CO_perVeh="101.516920" CO2_perVeh="7135.157488" HC_perVeh="0.631391" PMx_perVeh="0.131952" NOx_perVeh="2.958451" fuel_perVeh="3.067083" electricity_perVeh="0"/>
        <edge id=":11_1" sampledSeconds="50.96" CO_abs="1018.008837" CO2_abs="89016.595671" HC_abs="6.664861" PMx_abs="1.171124" NOx_abs="33.618315" fuel_abs="38.264759" electricity_abs="0"
            CO_normed="10.791416" CO2_normed="943.621596" HC_normed="0.070651" PMx_normed="0.012415" NOx_normed="0.356371" fuel_normed="0.405626" electricity_normed="0"
            traveltime="1.68" CO_perVeh="33.482183" CO2_perVeh="2927.744647" HC_perVeh="0.219206" PMx_perVeh="0.038518" NOx_perVeh="1.105702" fuel_perVeh="1.258523" electricity_perVeh="0"/>
        <edge id=":110_0" sampledSeconds="94.69" CO_abs="3.163199" CO2_abs="467.749195" HC_abs="0.024861" PMx_abs="0.004523" NOx_abs="0.163384" fuel_abs="0.201068" electricity_abs="0"
            CO_normed="0.041021" CO2_normed="6.065924" HC_normed="0.000322" PMx_normed="0.000059" NOx_normed="0.002119" fuel_normed="0.002608" electricity_normed="0"
            traveltime="0.93" CO_perVeh="0.030970" CO2_perVeh="4.579605" HC_perVeh="0.000243" PMx_perVeh="0.000044" NOx_perVeh="0.001600" fuel_perVeh="0.001969" electricity_perVeh="0"/>
        <edge id=":110_1" sampledSeconds="443.45" CO_abs="11110.683014" CO2_abs="1335224.812050" HC_abs="83.046394" PMx_abs="24.489311" NOx_abs="502.464142" fuel_abs="573.951700" electricity_abs="0"
            CO_normed="142.616678" CO2_normed="17138.939752" HC_normed="1.065983" PMx_normed="0.314345" NOx_normed="6.449627" fuel_normed="7.367241" electricity_normed="0"
            traveltime="0.68" CO_perVeh="17.067680" CO2_perVeh="2051.106154" HC_perVeh="0.127572" PMx_perVeh="0.037619" NOx_perVeh="0.771861" fuel_perVeh="0.881676" electricity_perVeh="0"/>
        <edge id=":111_0" sampledSeconds="340.86" CO_abs="8065.377114" CO2_abs="1029420.524741" HC_abs="61.713023" PMx_abs="18.555471" NOx_abs="383.638699" fuel_abs="442.500747" electricity_abs="0"
            CO_normed="186.272831" CO2_normed="23774.843085" HC_normed="1.425285" PMx_normed="0.428545" NOx_normed="8.860276" fuel_normed="10.219716" electricity_normed="0"
            traveltime="0.38" CO_perVeh="8.963431" CO2_perVeh="1144.043148" HC_perVeh="0.068585" PMx_perVeh="0.020622" NOx_perVeh="0.426356" fuel_perVeh="0.491772" electricity_perVeh="0"/>
        <edge id=":114_0" sampledSeconds="107.01" CO_abs="10656.631396" CO2_abs="763384.486131" HC_abs="66.914832" PMx_abs="15.556007" NOx_abs="323.527874" fuel_abs="328.142448" electricity_abs="0"
            CO_normed="141.604969" CO2_normed="10143.828035" HC_normed="0.889162" PMx_normed="0.206708" NOx_normed="4.299028" fuel_normed="4.360346" electricity_normed="0"
            traveltime="0.99" CO_perVeh="98.585730" CO2_perVeh="7062.158183" HC_perVeh="0.619037" PMx_perVeh="0.143910" NOx_perVeh="2.992994" fuel_perVeh="3.035684" electricity_perVeh="0"/>
        <edge id=":114_1" sampledSeconds="416.12" CO_abs="9946.227281" CO2_abs="1221859.859486" HC_abs="74.922669" PMx_abs="22.250165" NOx_abs="458.275699" fuel_abs="525.221421" electricity_abs="0"
            CO_normed="131.332751" CO2_normed="16133.777435" HC_normed="0.989300" PMx_normed="0.293797" NOx_normed="6.051200" fuel_normed="6.935170" electricity_normed="0"
            traveltime="0.66" CO_perVeh="15.849057" CO2_perVeh="1947.002184" HC_perVeh="0.119387" PMx_perVeh="0.035455" NOx_perVeh="0.730251" fuel_perVeh="0.836927" electricity_perVeh="0"/>
        <edge id=":115_0" sampledSeconds="80.91" CO_abs="73.868366" CO2_abs="10099.825197" HC_abs="0.568696" PMx_abs="0.130636" NOx_abs="3.717548" fuel_abs="4.341497" electricity_abs="0"
            CO_normed="1.669240" CO2_normed="228.230812" HC_normed="0.012851" PMx_normed="0.002952" NOx_normed="0.084007" fuel_normed="0.098107" electricity_normed="0"
            traveltime="0.64" CO_perVeh="0.581284" CO2_perVeh="79.477467" HC_perVeh="0.004475" PMx_perVeh="0.001028" NOx_perVeh="0.029254" fuel_perVeh="0.034164" electricity_perVeh="0"/>
        <edge id=":115_1" sampledSeconds="72.19" CO_abs="1048.555356" CO2_abs="165353.553444" HC_abs="8.497199" PMx_abs="2.436168" NOx_abs="61.207913" fuel_abs="71.078191" electricity_abs="0"
            CO_normed="21.160535" CO2_normed="3336.943199" HC_normed="0.171479" PMx_normed="0.049163" NOx_normed="1.235216" fuel_normed="1.434405" electricity_normed="0"
            traveltime="0.59" CO_perVeh="8.584181" CO2_perVeh="1353.695582" HC_perVeh="0.069564" PMx_perVeh="0.019944" NOx_perVeh="0.501089" fuel_perVeh="0.581894" electricity_perVeh="0"/>
        <edge id=":116_0" sampledSeconds="74.42" CO_abs="107.683855" CO2_abs="15215.928918" HC_abs="0.838112" PMx_abs="0.206896" NOx_abs="5.639630" fuel_abs="6.540682" electricity_abs="0"
            CO_normed="2.716414" CO2_normed="383.834286" HC_normed="0.021142" PMx_normed="0.005219" NOx_normed="0.142264" fuel_normed="0.164994" electricity_normed="0"
            traveltime="0.56" CO_perVeh="0.813094" CO2_perVeh="114.891683" HC_perVeh="0.006328" PMx_perVeh="0.001562" NOx_perVeh="0.042583" fuel_perVeh="0.049387" electricity_perVeh="0"/>
        <edge id=":117_0" sampledSeconds="239.94" CO_abs="13528.221845" CO2_abs="1126689.265683" HC_abs="88.440578" PMx_abs="20.671601" NOx_abs="459.856434" fuel_abs="484.311698" electricity_abs="0"
            CO_normed="305.704009" CO2_normed="25460.361983" HC_normed="1.998536" PMx_normed="0.467127" NOx_normed="10.391606" fuel_normed="10.944234" electricity_normed="0"
            traveltime="0.60" CO_perVeh="34.032446" CO2_perVeh="2834.370405" HC_perVeh="0.222487" PMx_perVeh="0.052003" NOx_perVeh="1.156844" fuel_perVeh="1.218365" electricity_perVeh="0"/>
        <edge id=":117_1" sampledSeconds="75.44" CO_abs="4848.070013" CO2_abs="399705.202608" HC_abs="31.587131" PMx_abs="7.370840" NOx_abs="163.483814" fuel_abs="171.814784" electricity_abs="0"
            CO_normed="103.248097" CO2_normed="8512.418600" HC_normed="0.672703" PMx_normed="0.156975" NOx_normed="3.481673" fuel_normed="3.659095" electricity_normed="0"
            traveltime="0.64" CO_perVeh="40.987719" CO2_perVeh="3379.283849" HC_perVeh="0.267052" PMx_perVeh="0.062316" NOx_perVeh="1.382164" fuel_perVeh="1.452598" electricity_perVeh="0"/>
        <edge id=":118_0" sampledSeconds="898.70" CO_abs="12871.799563" CO2_abs="2020519.292009" HC_abs="103.842477" PMx_abs="29.779594" NOx_abs="747.585646" fuel_abs="868.532044" electricity_abs="0"
            CO_normed="39.054007" CO2_normed="6130.407409" HC_normed="0.315066" PMx_normed="0.090354" NOx_normed="2.268231" fuel_normed="2.635192" electricity_normed="0"
            traveltime="3.92" CO_perVeh="56.159656" CO2_perVeh="8815.524793" HC_perVeh="0.453065" PMx_perVeh="0.129928" NOx_perVeh="3.261716" fuel_perVeh="3.789405" electricity_perVeh="0"/>
        <edge id=":118_4" sampledSeconds="283.14" CO_abs="4061.076855" CO2_abs="617029.580171" HC_abs="32.611454" PMx_abs="9.207709" NOx_abs="229.342906" fuel_abs="265.233738" electricity_abs="0"
            CO_normed="12.345434" CO2_normed="1875.733487" HC_normed="0.099137" PMx_normed="0.027991" NOx_normed="0.697189" fuel_normed="0.806295" electricity_normed="0"
            traveltime="3.93" CO_perVeh="56.304315" CO2_perVeh="8554.732929" HC_perVeh="0.452138" PMx_perVeh="0.127659" NOx_perVeh="3.179697" fuel_perVeh="3.677301" electricity_perVeh="0"/>
        <edge id=":118_5" sampledSeconds="238.85" CO_abs="3604.196472" CO2_abs="552666.979351" HC_abs="28.765622" PMx_abs="8.288571" NOx_abs="205.415640" fuel_abs="237.566980" electricity_abs="0"
            CO_normed="11.065290" CO2_normed="1696.749985" HC_normed="0.088314" PMx_normed="0.025447" NOx_normed="0.630649" fuel_normed="0.729357" electricity_normed="0"
            traveltime="3.82" CO_perVeh="57.683212" CO2_perVeh="8845.135528" HC_perVeh="0.460378" PMx_perVeh="0.132654" NOx_perVeh="3.287566" fuel_perVeh="3.802131" electricity_perVeh="0"/>
        <edge id=":119_0" sampledSeconds="139.45" CO_abs="1809.397556" CO2_abs="297901.433694" HC_abs="14.876409" PMx_abs="4.314459" NOx_abs="109.719413" fuel_abs="128.054713" electricity_abs="0"
            CO_normed="38.797007" CO2_normed="6387.586788" HC_normed="0.318979" PMx_normed="0.092510" NOx_normed="2.352598" fuel_normed="2.745742" electricity_normed="0"
            traveltime="0.56" CO_perVeh="7.253746" CO2_perVeh="1194.265690" HC_perVeh="0.059638" PMx_perVeh="0.017296" NOx_perVeh="0.439857" fuel_perVeh="0.513362" electricity_perVeh="0"/>
        <edge id=":12_0" sampledSeconds="589.69" CO_abs="53869.569137" CO2_abs="3055380.116931" HC_abs="317.841336" PMx_abs="59.820172" NOx_abs="1301.598345" fuel_abs="1313.372657" electricity_abs="0"
            CO_normed="504.697239" CO2_normed="28625.473202" HC_normed="2.977816" PMx_normed="0.560448" NOx_normed="12.194512" fuel_normed="12.304824" electricity_normed="0"
            traveltime="2.12" CO_perVeh="193.930516" CO2_perVeh="10999.372209" HC_perVeh="1.144229" PMx_perVeh="0.215353" NOx_perVeh="4.685756" fuel_perVeh="4.728143" electricity_perVeh="0"/>
        <edge id=":12_1" sampledSeconds="56.18" CO_abs="964.145871" CO2_abs="86627.701784" HC_abs="6.362045" PMx_abs="1.116640" NOx_abs="32.531020" fuel_abs="37.237883" electricity_abs="0"
            CO_normed="9.024000" CO2_normed="810.798913" HC_normed="0.059546" PMx_normed="0.010451" NOx_normed="0.304477" fuel_normed="0.348531" electricity_normed="0"
            traveltime="1.89" CO_perVeh="32.512346" CO2_perVeh="2921.207126" HC_perVeh="0.214537" PMx_perVeh="0.037655" NOx_perVeh="1.096991" fuel_perVeh="1.255713" electricity_perVeh="0"/>
        <edge id=":120_0" sampledSeconds="38.97" CO_abs="618.058831" CO2_abs="95759.095812" HC_abs="4.957750" PMx_abs="1.424219" NOx_abs="35.503763" fuel_abs="41.162596" electricity_abs="0"
            CO_normed="485.920775" CO2_normed="75286.253849" HC_normed="3.897806" PMx_normed="1.119727" NOx_normed="27.913227" fuel_normed="32.362227" electricity_normed="0"
            traveltime="0.01" CO_perVeh="0.237817" CO2_perVeh="36.846193" HC_perVeh="0.001908" PMx_perVeh="0.000548" NOx_perVeh="0.013661" fuel_perVeh="0.015839" electricity_perVeh="0"/>
        <edge id=":121_0" sampledSeconds="373.37" CO_abs="53254.766299" CO2_abs="1434952.878508" HC_abs="276.197853" PMx_abs="30.985918" NOx_abs="634.711362" fuel_abs="616.841730" electricity_abs="0"
            CO_normed="30450.290209" CO2_normed="820484.899728" HC_normed="157.925860" PMx_normed="17.717291" NOx_normed="362.918599" fuel_normed="352.701007" electricity_normed="0"
            traveltime="0.11" CO_perVeh="16.247544" CO2_perVeh="437.791053" HC_perVeh="0.084265" PMx_perVeh="0.009454" NOx_perVeh="0.193645" fuel_perVeh="0.188193" electricity_perVeh="0"/>
        <edge id=":122_0" sampledSeconds="135.12" CO_abs="788.795782" CO2_abs="86308.475979" HC_abs="5.594811" PMx_abs="1.484156" NOx_abs="33.749578" fuel_abs="37.100046" electricity_abs="0"
            CO_normed="17.367234" CO2_normed="1900.288407" HC_normed="0.123183" PMx_normed="0.032677" NOx_normed="0.743078" fuel_normed="0.816847" electricity_normed="0"
            traveltime="0.54" CO_perVeh="3.145204" CO2_perVeh="344.142000" HC_perVeh="0.022308" PMx_perVeh="0.005918" NOx_perVeh="0.134571" fuel_perVeh="0.147931" electricity_perVeh="0"/>
        <edge id=":123_0" sampledSeconds="308.48" CO_abs="40432.949136" CO2_abs="2489433.568885" HC_abs="243.936607" PMx_abs="51.271934" NOx_abs="1068.773279" fuel_abs="1070.091305" electricity_abs="0"
            CO_normed="154.188726" CO2_normed="9493.311760" HC_normed="0.930238" PMx_normed="0.195523" NOx_normed="4.075705" fuel_normed="4.080732" electricity_normed="0"
            traveltime="4.20" CO_perVeh="550.618379" CO2_perVeh="33901.258869" HC_perVeh="3.321944" PMx_perVeh="0.698224" NOx_perVeh="14.554620" fuel_perVeh="14.572569" electricity_perVeh="0"/>
        <edge id=":123_1" sampledSeconds="0.00" CO_abs="0" CO2_abs="0" HC_abs="0" PMx_abs="0" NOx_abs="0" fuel_abs="0" electricity_abs="0"
            CO_normed="0" CO2_normed="0" HC_normed="0" PMx_normed="0" NOx_normed="0" fuel_normed="0" electricity_normed="0"/>
        <edge id=":123_2" sampledSeconds="264.93" CO_abs="35445.450059" CO2_abs="2174160.136356" HC_abs="213.671621" PMx_abs="44.930950" NOx_abs="934.614228" fuel_abs="934.569829" electricity_abs="0"
            CO_normed="136.465442" CO2_normed="8370.544679" HC_normed="0.822639" PMx_normed="0.172985" NOx_normed="3.598277" fuel_normed="3.598106" electricity_normed="0"
            traveltime="4.16" CO_perVeh="557.131795" CO2_perVeh="34173.461965" HC_perVeh="3.358492" PMx_perVeh="0.706225" NOx_perVeh="14.690272" fuel_perVeh="14.689574" electricity_perVeh="0"/>
        <edge id=":123_3" sampledSeconds="469.85" CO_abs="23101.107159" CO2_abs="2167717.820003" HC_abs="156.317411" PMx_abs="40.483672" NOx_abs="869.897290" fuel_abs="931.800050" electricity_abs="0"
            CO_normed="91.000583" CO2_normed="8539.139867" HC_normed="0.615770" PMx_normed="0.159475" NOx_normed="3.426726" fuel_normed="3.670575" electricity_normed="0"
            traveltime="2.81" CO_perVeh="138.269485" CO2_perVeh="12974.669313" HC_perVeh="0.935623" PMx_perVeh="0.242311" NOx_perVeh="5.206688" fuel_perVeh="5.577201" electricity_perVeh="0"/>
        <edge id=":123_5" sampledSeconds="0.00" CO_abs="0" CO2_abs="0" HC_abs="0" PMx_abs="0" NOx_abs="0" fuel_abs="0" electricity_abs="0"
            CO_normed="0" CO2_normed="0" HC_normed="0" PMx_normed="0" NOx_normed="0" fuel_normed="0" electricity_normed="0"/>
        <edge id=":123_6" sampledSeconds="194.71" CO_abs="9356.598319" CO2_abs="868799.320304" HC_abs="63.181770" PMx_abs="16.316953" NOx_abs="349.601271" fuel_abs="373.455932" electricity_abs="0"
            CO_normed="35.601703" CO2_normed="3305.767129" HC_normed="0.240406" PMx_normed="0.062086" NOx_normed="1.330227" fuel_normed="1.420994" electricity_normed="0"
            traveltime="2.91" CO_perVeh="139.978916" CO2_perVeh="12997.628259" HC_perVeh="0.945228" PMx_perVeh="0.244109" NOx_perVeh="5.230192" fuel_perVeh="5.587069" electricity_perVeh="0"/>
        <edge id=":124_0" sampledSeconds="118.70" CO_abs="4378.761949" CO2_abs="378882.723201" HC_abs="28.861815" PMx_abs="7.333307" NOx_abs="154.301962" fuel_abs="162.863711" electricity_abs="0"
            CO_normed="102.509281" CO2_normed="8869.857714" HC_normed="0.675671" PMx_normed="0.171677" NOx_normed="3.612296" fuel_normed="3.812731" electricity_normed="0"
            traveltime="0.46" CO_perVeh="17.010751" CO2_perVeh="1471.895406" HC_perVeh="0.112123" PMx_perVeh="0.028489" NOx_perVeh="0.599437" fuel_perVeh="0.632698" electricity_perVeh="0"/>
        <edge id=":125_0" sampledSeconds="140.98" CO_abs="5643.557108" CO2_abs="558600.161295" HC_abs="38.957727" PMx_abs="10.490678" NOx_abs="221.239284" fuel_abs="240.115959" electricity_abs="0"
            CO_normed="354.959302" CO2_normed="35133.927017" HC_normed="2.450300" PMx_normed="0.659826" NOx_normed="13.915150" fuel_normed="15.102424" electricity_normed="0"
            traveltime="0.16" CO_perVeh="6.463322" CO2_perVeh="639.740593" HC_perVeh="0.044617" PMx_perVeh="0.012015" NOx_perVeh="0.253376" fuel_perVeh="0.274994" electricity_perVeh="0"/>
        <edge id=":125_3" sampledSeconds="0.00" CO_abs="0" CO2_abs="0" HC_abs="0" PMx_abs="0" NOx_abs="0" fuel_abs="0" electricity_abs="0"
            CO_normed="0" CO2_normed="0" HC_normed="0" PMx_normed="0" NOx_normed="0" fuel_normed="0" electricity_normed="0"/>
        <edge id=":126_0" sampledSeconds="26.63" CO_abs="141.802152" CO2_abs="10102.991088" HC_abs="0.879633" PMx_abs="0.158440" NOx_abs="4.013985" fuel_abs="4.342861" electricity_abs="0"
            CO_normed="4.669551" CO2_normed="332.691910" HC_normed="0.028966" PMx_normed="0.005217" NOx_normed="0.132181" fuel_normed="0.143011" electricity_normed="0"
            traveltime="0.57" CO_perVeh="3.019130" CO2_perVeh="215.104237" HC_perVeh="0.018728" PMx_perVeh="0.003373" NOx_perVeh="0.085462" fuel_perVeh="0.092464" electricity_perVeh="0"/>
        <edge id=":126_1" sampledSeconds="80.90" CO_abs="1266.708871" CO2_abs="200065.773282" HC_abs="10.357144" PMx_abs="3.189893" NOx_abs="73.901933" fuel_abs="85.999251" electricity_abs="0"
            CO_normed="37.114006" CO2_normed="5861.838142" HC_normed="0.303460" PMx_normed="0.093462" NOx_normed="2.165294" fuel_normed="2.519740" electricity_normed="0"
            traveltime="0.35" CO_perVeh="5.481267" CO2_perVeh="865.718976" HC_perVeh="0.044817" PMx_perVeh="0.013803" NOx_perVeh="0.319786" fuel_perVeh="0.372134" electricity_perVeh="0"/>
        <edge id=":127_0" sampledSeconds="234.22" CO_abs="4789.001591" CO2_abs="630838.470058" HC_abs="36.480378" PMx_abs="10.737295" NOx_abs="237.994324" fuel_abs="271.168602" electricity_abs="0"
            CO_normed="110.739285" CO2_normed="14587.299635" HC_normed="0.843560" PMx_normed="0.248286" NOx_normed="5.503302" fuel_normed="6.270413" electricity_normed="0"
            traveltime="0.44" CO_perVeh="8.955549" CO2_perVeh="1179.683177" HC_perVeh="0.068219" PMx_perVeh="0.020079" NOx_perVeh="0.445055" fuel_perVeh="0.507092" electricity_perVeh="0"/>
        <edge id=":128_0" sampledSeconds="229.75" CO_abs="231.508401" CO2_abs="41251.311221" HC_abs="1.978757" PMx_abs="0.584955" NOx_abs="14.993408" fuel_abs="17.732139" electricity_abs="0"
            CO_normed="3.577651" CO2_normed="637.483556" HC_normed="0.030579" PMx_normed="0.009040" NOx_normed="0.231703" fuel_normed="0.274026" electricity_normed="0"
            traveltime="0.76" CO_perVeh="0.761052" CO2_perVeh="135.608076" HC_perVeh="0.006505" PMx_perVeh="0.001923" NOx_perVeh="0.049289" fuel_perVeh="0.058292" electricity_perVeh="0"/>
        <edge id=":128_1" sampledSeconds="141.85" CO_abs="85.275906" CO2_abs="15132.770741" HC_abs="0.729214" PMx_abs="0.174458" NOx_abs="5.397663" fuel_abs="6.504965" electricity_abs="0"
            CO_normed="1.361306" CO2_normed="241.572709" HC_normed="0.011641" PMx_normed="0.002785" NOx_normed="0.086166" fuel_normed="0.103842" electricity_normed="0"
            traveltime="0.85" CO_perVeh="0.511181" CO2_perVeh="90.712359" HC_perVeh="0.004371" PMx_perVeh="0.001046" NOx_perVeh="0.032356" fuel_perVeh="0.038994" electricity_perVeh="0"/>
        <edge id=":129_0" sampledSeconds="104.58" CO_abs="6321.786760" CO2_abs="549189.705522" HC_abs="41.826971" PMx_abs="10.485157" NOx_abs="223.857143" fuel_abs="236.070714" electricity_abs="0"
            CO_normed="147.265737" CO2_normed="12793.349419" HC_normed="0.974357" PMx_normed="0.244251" NOx_normed="5.214742" fuel_normed="5.499257" electricity_normed="0"
            traveltime="0.50" CO_perVeh="29.961951" CO2_perVeh="2602.870960" HC_perVeh="0.198238" PMx_perVeh="0.049694" NOx_perVeh="1.060965" fuel_perVeh="1.118851" electricity_perVeh="0"/>
        <edge id=":13_0" sampledSeconds="59.45" CO_abs="5219.037423" CO2_abs="371626.314584" HC_abs="32.650955" PMx_abs="7.226693" NOx_abs="155.945313" fuel_abs="159.744850" electricity_abs="0"
            CO_normed="36.896802" CO2_normed="2627.270428" HC_normed="0.230831" PMx_normed="0.051090" NOx_normed="1.102480" fuel_normed="1.129341" electricity_normed="0"
            traveltime="2.10" CO_perVeh="184.605742" CO2_perVeh="13145.020060" HC_perVeh="1.154917" PMx_perVeh="0.255620" NOx_perVeh="5.516036" fuel_perVeh="5.650432" electricity_perVeh="0"/>
        <edge id=":13_1" sampledSeconds="533.98" CO_abs="15256.689781" CO2_abs="1142156.077004" HC_abs="95.765469" PMx_abs="16.900808" NOx_abs="446.021776" fuel_abs="490.967052" electricity_abs="0"
            CO_normed="151.994276" CO2_normed="11378.692809" HC_normed="0.954060" PMx_normed="0.168374" NOx_normed="4.443477" fuel_normed="4.891243" electricity_normed="0"
            traveltime="1.86" CO_perVeh="53.264732" CO2_perVeh="3987.538474" HC_perVeh="0.334340" PMx_perVeh="0.059005" NOx_perVeh="1.557168" fuel_perVeh="1.714083" electricity_perVeh="0"/>
        <edge id=":132_0" sampledSeconds="40.95" CO_abs="517.026106" CO2_abs="88490.446181" HC_abs="4.293208" PMx_abs="1.254411" NOx_abs="32.344690" fuel_abs="38.038174" electricity_abs="0"
            CO_normed="975.572085" CO2_normed="166971.857148" HC_normed="8.100817" PMx_normed="2.366938" NOx_normed="61.030916" fuel_normed="71.773900" electricity_normed="0"
            traveltime="6.348471e-03" CO_perVeh="0.080153" CO2_perVeh="13.718386" HC_perVeh="0.000666" PMx_perVeh="0.000194" NOx_perVeh="0.005014" fuel_perVeh="0.005897" electricity_perVeh="0"/>