<?xml version="1.0" encoding="UTF-8"?>

<!-- generated on Mon Nov  9 21:57:40 2020 by Eclipse SUMO sumo Version 1.7.0
<configuration xmlns:xsi="http://www.w3.org/2001/XMLSchema-instance" xsi:noNamespaceSchemaLocation="http://sumo.dlr.de/xsd/sumoConfiguration.xsd">

    <input>
        <net-file value="../dataSets/Porto/6AM7AM_Routing_SaoBento/Porto.net.xml"/>
        <route-files value="../results/Porto/6AM7AM_Routing_SaoBento/cost_PMx-ttime/solution7/Porto.rou.xml"/>
        <additional-files value="moreOutputInfo.xml"/>
    </input>

    <output>
        <emission-output.precision value="6"/>
        <tripinfo-output value="../results/Porto/6AM7AM_Routing_SaoBento/cost_PMx-ttime/solution7/Porto-tripinfo"/>
    </output>

    <processing>
        <collision.action value="warn"/>
        <time-to-teleport value="-1"/>
    </processing>

    <emissions>
        <device.emissions.probability value="1"/>
    </emissions>

    <gui_only>
        <quit-on-end value="true"/>
        <start value="true"/>
    </gui_only>

</configuration>
-->

<meandata xmlns:xsi="http://www.w3.org/2001/XMLSchema-instance" xsi:noNamespaceSchemaLocation="http://sumo.dlr.de/xsd/meandata_file.xsd">
    <interval begin="0.00" end="4698.00" id="emissions-detector">
        <edge id=":1092997347_0" sampledSeconds="304.32" CO_abs="39257.074460" CO2_abs="1552470.551452" HC_abs="215.448522" PMx_abs="31.739348" NOx_abs="674.394406" fuel_abs="667.346028" electricity_abs="0"
            CO_normed="68368.294079" CO2_normed="2703710.469265" HC_normed="375.215121" PMx_normed="55.275772" NOx_normed="1174.493915" fuel_normed="1162.218789" electricity_normed="0"
            traveltime="0.08" CO_perVeh="9.731441" CO2_perVeh="384.842107" HC_perVeh="0.053408" PMx_perVeh="0.007868" NOx_perVeh="0.167176" fuel_perVeh="0.165428" electricity_perVeh="0"/>
        <edge id=":1103427051_0" sampledSeconds="10.96" CO_abs="961.726023" CO2_abs="54412.843047" HC_abs="5.673341" PMx_abs="1.077987" NOx_abs="23.275924" fuel_abs="23.389654" electricity_abs="0"
            CO_normed="2541.223471" CO2_normed="143778.155760" HC_normed="14.990993" PMx_normed="2.848426" NOx_normed="61.503301" fuel_normed="61.803815" electricity_normed="0"
            traveltime="0.03" CO_perVeh="2.635115" CO2_perVeh="149.090367" HC_perVeh="0.015545" PMx_perVeh="0.002954" NOx_perVeh="0.063776" fuel_perVeh="0.064087" electricity_perVeh="0"/>
        <edge id=":1105984386_0" sampledSeconds="22.73" CO_abs="509.539762" CO2_abs="39344.666102" HC_abs="3.220659" PMx_abs="0.551659" NOx_abs="15.160649" fuel_abs="16.912726" electricity_abs="0"
            CO_normed="40.211321" CO2_normed="3104.960806" HC_normed="0.254165" PMx_normed="0.043535" NOx_normed="1.196432" fuel_normed="1.334701" electricity_normed="0"
            traveltime="0.95" CO_perVeh="21.384989" CO2_perVeh="1651.265162" HC_perVeh="0.135169" PMx_perVeh="0.023153" NOx_perVeh="0.636281" fuel_perVeh="0.709814" electricity_perVeh="0"/>
        <edge id=":1105984390_0" sampledSeconds="24.12" CO_abs="8.759417" CO2_abs="602.333529" HC_abs="0.053281" PMx_abs="0.006656" NOx_abs="0.221607" fuel_abs="0.258923" electricity_abs="0"
            CO_normed="0.534411" CO2_normed="36.748269" HC_normed="0.003251" PMx_normed="0.000406" NOx_normed="0.013520" fuel_normed="0.015797" electricity_normed="0"
            traveltime="1.09" CO_perVeh="0.397235" CO2_perVeh="27.315530" HC_perVeh="0.002416" PMx_perVeh="0.000302" NOx_perVeh="0.010050" fuel_perVeh="0.011742" electricity_perVeh="0"/>
        <edge id=":1105984390_1" sampledSeconds="646.19" CO_abs="14432.864167" CO2_abs="1919023.211169" HC_abs="111.747826" PMx_abs="33.737543" NOx_abs="715.778778" fuel_abs="824.900299" electricity_abs="0"
            CO_normed="842.320337" CO2_normed="111996.639042" HC_normed="6.521745" PMx_normed="1.968966" NOx_normed="41.773761" fuel_normed="48.142232" electricity_normed="0"
            traveltime="0.64" CO_perVeh="14.199607" CO2_perVeh="1888.008888" HC_perVeh="0.109942" PMx_perVeh="0.033192" NOx_perVeh="0.704211" fuel_perVeh="0.811569" electricity_perVeh="0"/>
        <edge id=":1105984395_0" sampledSeconds="9.05" CO_abs="226.949374" CO2_abs="17270.934130" HC_abs="1.424420" PMx_abs="0.221017" NOx_abs="6.524287" fuel_abs="7.424131" electricity_abs="0"
            CO_normed="189.029963" CO2_normed="14385.252482" HC_normed="1.186423" PMx_normed="0.184088" NOx_normed="5.434188" fuel_normed="6.183684" electricity_normed="0"
            traveltime="0.09" CO_perVeh="2.301515" CO2_perVeh="175.146157" HC_perVeh="0.014445" PMx_perVeh="0.002241" NOx_perVeh="0.066163" fuel_perVeh="0.075289" electricity_perVeh="0"/>
        <edge id=":1105984398_0" sampledSeconds="23.62" CO_abs="1558.938690" CO2_abs="107409.802626" HC_abs="9.632313" PMx_abs="1.933455" NOx_abs="44.275914" fuel_abs="46.170732" electricity_abs="0"
            CO_normed="98.808026" CO2_normed="6807.804976" HC_normed="0.610511" PMx_normed="0.122545" NOx_normed="2.806278" fuel_normed="2.926375" electricity_normed="0"
            traveltime="1.11" CO_perVeh="73.412958" CO2_perVeh="5058.102238" HC_perVeh="0.453601" PMx_perVeh="0.091050" NOx_perVeh="2.085025" fuel_perVeh="2.174255" electricity_perVeh="0"/>
        <edge id=":1105984398_1" sampledSeconds="453.69" CO_abs="7869.192157" CO2_abs="920843.902544" HC_abs="56.966852" PMx_abs="13.157032" NOx_abs="348.052583" fuel_abs="395.831598" electricity_abs="0"
            CO_normed="482.788815" CO2_normed="56495.397240" HC_normed="3.495017" PMx_normed="0.807207" NOx_normed="21.353640" fuel_normed="24.284967" electricity_normed="0"
            traveltime="0.96" CO_perVeh="16.625366" CO2_perVeh="1945.481443" HC_perVeh="0.120355" PMx_perVeh="0.027797" NOx_perVeh="0.735336" fuel_perVeh="0.836280" electricity_perVeh="0"/>
        <edge id=":1106006327_0" sampledSeconds="39.26" CO_abs="5310.989469" CO2_abs="170382.197958" HC_abs="28.193071" PMx_abs="3.560075" NOx_abs="74.609001" fuel_abs="73.241336" electricity_abs="0"
            CO_normed="459.336764" CO2_normed="14736.012554" HC_normed="2.438362" PMx_normed="0.307904" NOx_normed="6.452782" fuel_normed="6.334495" electricity_normed="0"
            traveltime="2.13" CO_perVeh="288.117602" CO2_perVeh="9243.119483" HC_perVeh="1.529455" PMx_perVeh="0.193132" NOx_perVeh="4.047488" fuel_perVeh="3.973293" electricity_perVeh="0"/>
        <edge id=":1106006327_1" sampledSeconds="161.00" CO_abs="21753.806390" CO2_abs="727960.018202" HC_abs="116.208616" PMx_abs="15.175557" NOx_abs="318.531723" fuel_abs="312.923752" electricity_abs="0"
            CO_normed="1640.707032" CO2_normed="54903.914246" HC_normed="8.764641" PMx_normed="1.144565" NOx_normed="24.024174" fuel_normed="23.601212" electricity_normed="0"
            traveltime="2.29" CO_perVeh="308.823319" CO2_perVeh="10334.330685" HC_perVeh="1.649731" PMx_perVeh="0.215437" NOx_perVeh="4.521968" fuel_perVeh="4.442356" electricity_perVeh="0"/>
        <edge id=":1106006327_2" sampledSeconds="0.00" CO_abs="0" CO2_abs="0" HC_abs="0" PMx_abs="0" NOx_abs="0" fuel_abs="0" electricity_abs="0"
            CO_normed="0" CO2_normed="0" HC_normed="0" PMx_normed="0" NOx_normed="0" fuel_normed="0" electricity_normed="0"/>
        <edge id=":1106006327_3" sampledSeconds="0.00" CO_abs="0" CO2_abs="0" HC_abs="0" PMx_abs="0" NOx_abs="0" fuel_abs="0" electricity_abs="0"
            CO_normed="0" CO2_normed="0" HC_normed="0" PMx_normed="0" NOx_normed="0" fuel_normed="0" electricity_normed="0"/>
        <edge id=":1107381198_0" sampledSeconds="0.00" CO_abs="0" CO2_abs="0" HC_abs="0" PMx_abs="0" NOx_abs="0" fuel_abs="0" electricity_abs="0"
            CO_normed="0" CO2_normed="0" HC_normed="0" PMx_normed="0" NOx_normed="0" fuel_normed="0" electricity_normed="0"/>
        <edge id=":1107381198_1" sampledSeconds="36.09" CO_abs="1312.904426" CO2_abs="52803.838604" HC_abs="7.183133" PMx_abs="0.853567" NOx_abs="21.493691" fuel_abs="22.698618" electricity_abs="0"
            CO_normed="109.711781" CO2_normed="4412.509441" HC_normed="0.600253" PMx_normed="0.071328" NOx_normed="1.796103" fuel_normed="1.896791" electricity_normed="0"
            traveltime="1.49" CO_perVeh="54.055916" CO2_perVeh="2174.080460" HC_perVeh="0.295750" PMx_perVeh="0.035144" NOx_perVeh="0.884955" fuel_perVeh="0.934565" electricity_perVeh="0"/>
        <edge id=":1110338277_0" sampledSeconds="96.54" CO_abs="1534.627085" CO2_abs="192431.486977" HC_abs="11.381846" PMx_abs="2.586743" NOx_abs="71.604155" fuel_abs="82.718269" electricity_abs="0"
            CO_normed="4199.855185" CO2_normed="526632.421940" HC_normed="31.149004" PMx_normed="7.079209" NOx_normed="195.961015" fuel_normed="226.377310" electricity_normed="0"
            traveltime="0.02" CO_perVeh="0.345857" CO2_perVeh="43.367983" HC_perVeh="0.002565" PMx_perVeh="0.000583" NOx_perVeh="0.016137" fuel_perVeh="0.018642" electricity_perVeh="0"/>
        <edge id=":1110338293_0" sampledSeconds="123.70" CO_abs="6281.656247" CO2_abs="433848.358745" HC_abs="38.800988" PMx_abs="7.617823" NOx_abs="177.601848" fuel_abs="186.492535" electricity_abs="0"
            CO_normed="16045.098971" CO2_normed="1108169.498710" HC_normed="99.108526" PMx_normed="19.458040" NOx_normed="453.644567" fuel_normed="476.353857" electricity_normed="0"
            traveltime="0.03" CO_perVeh="1.440802" CO2_perVeh="99.510308" HC_perVeh="0.008900" PMx_perVeh="0.001747" NOx_perVeh="0.040736" fuel_perVeh="0.042775" electricity_perVeh="0"/>
        <edge id=":1110338295_0" sampledSeconds="0.00" CO_abs="0" CO2_abs="0" HC_abs="0" PMx_abs="0" NOx_abs="0" fuel_abs="0" electricity_abs="0"
            CO_normed="0" CO2_normed="0" HC_normed="0" PMx_normed="0" NOx_normed="0" fuel_normed="0" electricity_normed="0"/>
        <edge id=":1110673403_0" sampledSeconds="144.06" CO_abs="2100.885830" CO2_abs="271450.910026" HC_abs="15.735128" PMx_abs="3.632405" NOx_abs="100.740876" fuel_abs="116.685404" electricity_abs="0"
            CO_normed="5366.247330" CO2_normed="693361.200577" HC_normed="40.191897" PMx_normed="9.278174" NOx_normed="257.320245" fuel_normed="298.047009" electricity_normed="0"
            traveltime="0.02" CO_perVeh="0.337311" CO2_perVeh="43.583234" HC_perVeh="0.002526" PMx_perVeh="0.000583" NOx_perVeh="0.016175" fuel_perVeh="0.018735" electricity_perVeh="0"/>
        <edge id=":1110673412_0" sampledSeconds="252.60" CO_abs="44734.763585" CO2_abs="3051663.450676" HC_abs="278.376863" PMx_abs="67.046626" NOx_abs="1311.539232" fuel_abs="1311.759827" electricity_abs="0"
            CO_normed="118205.214917" CO2_normed="8063584.226915" HC_normed="735.571049" PMx_normed="177.161121" NOx_normed="3465.554847" fuel_normed="3466.137738" electricity_normed="0"
            traveltime="0.02" CO_perVeh="2.757582" CO2_perVeh="188.113501" HC_perVeh="0.017160" PMx_perVeh="0.004133" NOx_perVeh="0.080847" fuel_perVeh="0.080861" electricity_perVeh="0"/>
        <edge id=":1110673414_0" sampledSeconds="0.00" CO_abs="0" CO2_abs="0" HC_abs="0" PMx_abs="0" NOx_abs="0" fuel_abs="0" electricity_abs="0"
            CO_normed="0" CO2_normed="0" HC_normed="0" PMx_normed="0" NOx_normed="0" fuel_normed="0" electricity_normed="0"/>
        <edge id=":1110673414_1" sampledSeconds="235.97" CO_abs="15534.967440" CO2_abs="579659.503767" HC_abs="84.164516" PMx_abs="10.602772" NOx_abs="244.146283" fuel_abs="249.175437" electricity_abs="0"
            CO_normed="1318.293423" CO2_normed="49189.759445" HC_normed="7.142180" PMx_normed="0.899749" NOx_normed="20.718192" fuel_normed="21.144965" electricity_normed="0"
            traveltime="1.63" CO_perVeh="107.158656" CO2_perVeh="3998.433460" HC_perVeh="0.580558" PMx_perVeh="0.073137" NOx_perVeh="1.684097" fuel_perVeh="1.718787" electricity_perVeh="0"/>
        <edge id=":1110673417_0" sampledSeconds="29.82" CO_abs="539.071671" CO2_abs="60105.512898" HC_abs="3.836702" PMx_abs="0.864180" NOx_abs="22.811738" fuel_abs="25.836810" electricity_abs="0"
            CO_normed="1475.291929" CO2_normed="164492.372463" HC_normed="10.500007" PMx_normed="2.365023" NOx_normed="62.429496" fuel_normed="70.708291" electricity_normed="0"
            traveltime="0.02" CO_perVeh="0.400108" CO2_perVeh="44.611347" HC_perVeh="0.002848" PMx_perVeh="0.000641" NOx_perVeh="0.016931" fuel_perVeh="0.019177" electricity_perVeh="0"/>
        <edge id=":1110673446_0" sampledSeconds="333.54" CO_abs="3606.195040" CO2_abs="286618.285954" HC_abs="23.239266" PMx_abs="5.294697" NOx_abs="117.633449" fuel_abs="123.204010" electricity_abs="0"
            CO_normed="9211.226156" CO2_normed="732102.901543" HC_normed="59.359555" PMx_normed="13.524130" NOx_normed="300.468580" fuel_normed="314.697343" electricity_normed="0"
            traveltime="0.02" CO_perVeh="0.246525" CO2_perVeh="19.593678" HC_perVeh="0.001589" PMx_perVeh="0.000362" NOx_perVeh="0.008042" fuel_perVeh="0.008422" electricity_perVeh="0"/>
        <edge id=":1110673451_0" sampledSeconds="37.11" CO_abs="487.700688" CO2_abs="34038.198075" HC_abs="3.006217" PMx_abs="0.522288" NOx_abs="13.460116" fuel_abs="14.631650" electricity_abs="0"
            CO_normed="1384.137045" CO2_normed="96603.371861" HC_normed="8.531905" PMx_normed="1.482300" NOx_normed="38.200982" fuel_normed="41.525897" electricity_normed="0"
            traveltime="0.03" CO_perVeh="0.349746" CO2_perVeh="24.409863" HC_perVeh="0.002156" PMx_perVeh="0.000375" NOx_perVeh="0.009653" fuel_perVeh="0.010493" electricity_perVeh="0"/>
        <edge id=":1110673464_0" sampledSeconds="322.07" CO_abs="426.272404" CO2_abs="39681.749165" HC_abs="2.837581" PMx_abs="0.469247" NOx_abs="14.562225" fuel_abs="17.057700" electricity_abs="0"
            CO_normed="23.133535" CO2_normed="2153.503585" HC_normed="0.153994" PMx_normed="0.025466" NOx_normed="0.790283" fuel_normed="0.925711" electricity_normed="0"
            traveltime="1.16" CO_perVeh="1.540919" CO2_perVeh="143.444288" HC_perVeh="0.010257" PMx_perVeh="0.001696" NOx_perVeh="0.052641" fuel_perVeh="0.061661" electricity_perVeh="0"/>
        <edge id=":1110673464_1" sampledSeconds="709.17" CO_abs="17438.803661" CO2_abs="2185389.074962" HC_abs="131.824529" PMx_abs="39.026520" NOx_abs="823.055171" fuel_abs="939.398309" electricity_abs="0"
            CO_normed="927.346838" CO2_normed="116212.882974" HC_normed="7.010060" PMx_normed="2.075321" NOx_normed="43.767774" fuel_normed="49.954577" electricity_normed="0"
            traveltime="0.70" CO_perVeh="17.214134" CO2_perVeh="2157.234023" HC_perVeh="0.130126" PMx_perVeh="0.038524" NOx_perVeh="0.812451" fuel_perVeh="0.927296" electricity_perVeh="0"/>
        <edge id=":1110673479_0" sampledSeconds="133.97" CO_abs="6421.500946" CO2_abs="440931.979475" HC_abs="39.620557" PMx_abs="7.838344" NOx_abs="181.197055" fuel_abs="189.537352" electricity_abs="0"
            CO_normed="16402.301266" CO2_normed="1126263.038250" HC_normed="101.201932" PMx_normed="20.021312" NOx_normed="462.827727" fuel_normed="484.131169" electricity_normed="0"
            traveltime="0.03" CO_perVeh="1.352762" CO2_perVeh="92.887298" HC_perVeh="0.008347" PMx_perVeh="0.001651" NOx_perVeh="0.038171" fuel_perVeh="0.039928" electricity_perVeh="0"/>
        <edge id=":1110673511_0" sampledSeconds="11.79" CO_abs="161.086619" CO2_abs="21648.273109" HC_abs="1.221719" PMx_abs="0.274142" NOx_abs="7.929669" fuel_abs="9.305707" electricity_abs="0"
            CO_normed="411.460074" CO2_normed="55295.716753" HC_normed="3.120611" PMx_normed="0.700234" NOx_normed="20.254584" fuel_normed="23.769365" electricity_normed="0"
            traveltime="0.02" CO_perVeh="0.318983" CO2_perVeh="42.867868" HC_perVeh="0.002419" PMx_perVeh="0.000543" NOx_perVeh="0.015702" fuel_perVeh="0.018427" electricity_perVeh="0"/>
        <edge id=":1110673517_0" sampledSeconds="17.21" CO_abs="738.677444" CO2_abs="54014.623029" HC_abs="4.625187" PMx_abs="0.895317" NOx_abs="21.706098" fuel_abs="23.218587" electricity_abs="0"
            CO_normed="1886.787851" CO2_normed="137968.385770" HC_normed="11.814015" PMx_normed="2.286888" NOx_normed="55.443418" fuel_normed="59.306736" electricity_normed="0"
            traveltime="0.03" CO_perVeh="1.186050" CO2_perVeh="86.728056" HC_perVeh="0.007426" PMx_perVeh="0.001438" NOx_perVeh="0.034852" fuel_perVeh="0.037281" electricity_perVeh="0"/>
        <edge id=":1110673534_0" sampledSeconds="476.28" CO_abs="2598.314527" CO2_abs="234574.130376" HC_abs="17.170943" PMx_abs="3.024627" NOx_abs="88.012693" fuel_abs="100.834300" electricity_abs="0"
            CO_normed="128.620518" CO2_normed="11611.775935" HC_normed="0.849988" PMx_normed="0.149724" NOx_normed="4.356762" fuel_normed="4.991451" electricity_normed="0"
            traveltime="1.43" CO_perVeh="7.827680" CO2_perVeh="706.677838" HC_perVeh="0.051729" PMx_perVeh="0.009112" NOx_perVeh="0.265147" fuel_perVeh="0.303773" electricity_perVeh="0"/>
        <edge id=":1110673534_1" sampledSeconds="185.07" CO_abs="2922.615312" CO2_abs="369570.108465" HC_abs="21.735031" PMx_abs="4.985428" NOx_abs="137.470118" fuel_abs="158.862739" electricity_abs="0"
            CO_normed="140.675375" CO2_normed="17788.661144" HC_normed="1.046181" PMx_normed="0.239966" NOx_normed="6.616902" fuel_normed="7.646602" electricity_normed="0"
            traveltime="1.23" CO_perVeh="19.405116" CO2_perVeh="2453.812842" HC_perVeh="0.144313" PMx_perVeh="0.033101" NOx_perVeh="0.912752" fuel_perVeh="1.054792" electricity_perVeh="0"/>
        <edge id=":1110673549_0" sampledSeconds="59.76" CO_abs="17.668813" CO2_abs="1710.789133" HC_abs="0.117941" PMx_abs="0.014194" NOx_abs="0.590395" fuel_abs="0.735413" electricity_abs="0"
            CO_normed="0.847267" CO2_normed="82.036892" HC_normed="0.005656" PMx_normed="0.000681" NOx_normed="0.028311" fuel_normed="0.035265" electricity_normed="0"
            traveltime="1.24" CO_perVeh="0.368115" CO2_perVeh="35.642834" HC_perVeh="0.002457" PMx_perVeh="0.000296" NOx_perVeh="0.012300" fuel_perVeh="0.015322" electricity_perVeh="0"/>
        <edge id=":1110673549_1" sampledSeconds="637.80" CO_abs="14088.688297" CO2_abs="1840854.556700" HC_abs="108.227563" PMx_abs="32.448278" NOx_abs="688.969584" fuel_abs="791.299050" electricity_abs="0"
            CO_normed="653.506642" CO2_normed="85388.409113" HC_normed="5.020157" PMx_normed="1.505120" NOx_normed="31.957993" fuel_normed="36.704566" electricity_normed="0"
            traveltime="0.80" CO_perVeh="17.744738" CO2_perVeh="2318.560922" HC_perVeh="0.136313" PMx_perVeh="0.040869" NOx_perVeh="0.867759" fuel_perVeh="0.996643" electricity_perVeh="0"/>
        <edge id=":1110673556_0" sampledSeconds="416.21" CO_abs="50992.260370" CO2_abs="2563216.071587" HC_abs="293.140586" PMx_abs="51.712131" NOx_abs="1103.821557" fuel_abs="1101.815540" electricity_abs="0"
            CO_normed="1813.203203" CO2_normed="91143.862943" HC_normed="10.423610" PMx_normed="1.838801" NOx_normed="39.250129" fuel_normed="39.178798" electricity_normed="0"
            traveltime="2.58" CO_perVeh="316.536682" CO2_perVeh="15911.275645" HC_perVeh="1.819683" PMx_perVeh="0.321005" NOx_perVeh="6.852020" fuel_perVeh="6.839568" electricity_perVeh="0"/>
        <edge id=":1110673556_2" sampledSeconds="247.21" CO_abs="23525.939209" CO2_abs="1014549.593853" HC_abs="130.946181" PMx_abs="19.549595" NOx_abs="432.512139" fuel_abs="436.115019" electricity_abs="0"
            CO_normed="874.698672" CO2_normed="37721.137262" HC_normed="4.868603" PMx_normed="0.726857" NOx_normed="16.080879" fuel_normed="16.214835" electricity_normed="0"
            traveltime="3.00" CO_perVeh="285.365134" CO2_perVeh="12306.292157" HC_perVeh="1.588352" PMx_perVeh="0.237133" NOx_perVeh="5.246289" fuel_perVeh="5.289992" electricity_perVeh="0"/>
        <edge id=":1110673556_3" sampledSeconds="361.28" CO_abs="31164.476524" CO2_abs="1100589.707235" HC_abs="167.547492" PMx_abs="21.179060" NOx_abs="470.515468" fuel_abs="473.104999" electricity_abs="0"
            CO_normed="2635.852640" CO2_normed="93086.507763" HC_normed="14.170958" PMx_normed="1.791299" NOx_normed="39.795613" fuel_normed="40.014632" electricity_normed="0"
            traveltime="1.76" CO_perVeh="151.447326" CO2_perVeh="5348.441134" HC_perVeh="0.814216" PMx_perVeh="0.102922" NOx_perVeh="2.286524" fuel_perVeh="2.299108" electricity_perVeh="0"/>
        <edge id=":1110673556_4" sampledSeconds="186.45" CO_abs="19289.252237" CO2_abs="775746.308025" HC_abs="106.046481" PMx_abs="15.187272" NOx_abs="332.743293" fuel_abs="333.463563" electricity_abs="0"
            CO_normed="996.698327" CO2_normed="40083.723219" HC_normed="5.479546" PMx_normed="0.784744" NOx_normed="17.193237" fuel_normed="17.230454" electricity_normed="0"
            traveltime="2.39" CO_perVeh="247.623492" CO2_perVeh="9958.551400" HC_perVeh="1.361359" PMx_perVeh="0.194965" NOx_perVeh="4.271553" fuel_perVeh="4.280799" electricity_perVeh="0"/>
        <edge id=":1110673556_5" sampledSeconds="22.20" CO_abs="1536.030045" CO2_abs="68134.088740" HC_abs="8.569797" PMx_abs="1.181294" NOx_abs="28.209295" fuel_abs="29.288331" electricity_abs="0"
            CO_normed="110.623545" CO2_normed="4906.957677" HC_normed="0.617189" PMx_normed="0.085076" NOx_normed="2.031609" fuel_normed="2.109320" electricity_normed="0"
            traveltime="1.53" CO_perVeh="106.194670" CO2_perVeh="4710.504901" HC_perVeh="0.592480" PMx_perVeh="0.081670" NOx_perVeh="1.950272" fuel_perVeh="2.024872" electricity_perVeh="0"/>
        <edge id=":1110673556_6" sampledSeconds="308.89" CO_abs="37088.088171" CO2_abs="1899945.586345" HC_abs="214.082261" PMx_abs="38.299354" NOx_abs="817.343388" fuel_abs="816.703802" electricity_abs="0"
            CO_normed="1352.045240" CO2_normed="69262.464369" HC_normed="7.804363" PMx_normed="1.396202" NOx_normed="29.796231" fuel_normed="29.772915" electricity_normed="0"
            traveltime="2.45" CO_perVeh="293.707824" CO2_perVeh="15046.040675" HC_perVeh="1.695359" PMx_perVeh="0.303300" NOx_perVeh="6.472702" fuel_perVeh="6.467637" electricity_perVeh="0"/>
        <edge id=":1110673561_0" sampledSeconds="101.25" CO_abs="10021.557132" CO2_abs="705423.194099" HC_abs="62.656171" PMx_abs="14.484754" NOx_abs="299.857211" fuel_abs="303.227628" electricity_abs="0"
            CO_normed="459.016983" CO2_normed="32310.470515" HC_normed="2.869838" PMx_normed="0.663445" NOx_normed="13.734348" fuel_normed="13.888723" electricity_normed="0"
            traveltime="1.19" CO_perVeh="118.264101" CO2_perVeh="8324.678374" HC_perVeh="0.739404" PMx_perVeh="0.170934" NOx_perVeh="3.538606" fuel_perVeh="3.578380" electricity_perVeh="0"/>
        <edge id=":1110673561_1" sampledSeconds="1315.50" CO_abs="121921.286082" CO2_abs="8433650.727834" HC_abs="759.270620" PMx_abs="176.374989" NOx_abs="3606.763069" fuel_abs="3625.219117" electricity_abs="0"
            CO_normed="5444.421495" CO2_normed="376606.503936" HC_normed="33.905394" PMx_normed="7.876063" NOx_normed="161.060788" fuel_normed="161.884947" electricity_normed="0"
            traveltime="1.19" CO_perVeh="110.629678" CO2_perVeh="7652.577291" HC_perVeh="0.688952" PMx_perVeh="0.160040" NOx_perVeh="3.272727" fuel_perVeh="3.289473" electricity_perVeh="0"/>
        <edge id=":1110673562_0" sampledSeconds="104.35" CO_abs="2237.696636" CO2_abs="176567.578029" HC_abs="14.221198" PMx_abs="2.416148" NOx_abs="67.539469" fuel_abs="75.899526" electricity_abs="0"
            CO_normed="6350.778023" CO2_normed="501114.170652" HC_normed="40.360999" PMx_normed="6.857240" NOx_normed="191.682898" fuel_normed="215.409468" electricity_normed="0"
            traveltime="0.03" CO_perVeh="0.570399" CO2_perVeh="45.007879" HC_perVeh="0.003625" PMx_perVeh="0.000616" NOx_perVeh="0.017216" fuel_perVeh="0.019347" electricity_perVeh="0"/>
        <edge id=":1110673564_0" sampledSeconds="28.63" CO_abs="467.259403" CO2_abs="57258.414754" HC_abs="3.435355" PMx_abs="0.764550" NOx_abs="21.298607" fuel_abs="24.613019" electricity_abs="0"
            CO_normed="3580.531824" CO2_normed="438761.798881" HC_normed="26.324562" PMx_normed="5.858624" NOx_normed="163.207714" fuel_normed="188.605507" electricity_normed="0"
            traveltime="7.870991e-03" CO_perVeh="0.128456" CO2_perVeh="15.741145" HC_perVeh="0.000944" PMx_perVeh="0.000210" NOx_perVeh="0.005855" fuel_perVeh="0.006766" electricity_perVeh="0"/>
        <edge id=":1110673588_0" sampledSeconds="11.69" CO_abs="248.309492" CO2_abs="27686.749440" HC_abs="1.759031" PMx_abs="0.391285" NOx_abs="10.467617" fuel_abs="11.901367" electricity_abs="0"
            CO_normed="761.101892" CO2_normed="84863.599818" HC_normed="5.391666" PMx_normed="1.199340" NOx_normed="32.084651" fuel_normed="36.479287" electricity_normed="0"
            traveltime="0.02" CO_perVeh="0.413849" CO2_perVeh="46.144582" HC_perVeh="0.002932" PMx_perVeh="0.000652" NOx_perVeh="0.017446" fuel_perVeh="0.019836" electricity_perVeh="0"/>
        <edge id=":1110673601_0" sampledSeconds="29.84" CO_abs="427.400179" CO2_abs="54879.543254" HC_abs="3.193198" PMx_abs="0.738216" NOx_abs="20.390274" fuel_abs="23.590419" electricity_abs="0"
            CO_normed="1169.677557" CO2_normed="150190.320891" HC_normed="8.738911" PMx_normed="2.020295" NOx_normed="55.802610" fuel_normed="64.560534" electricity_normed="0"
            traveltime="0.02" CO_perVeh="0.317222" CO2_perVeh="40.732332" HC_perVeh="0.002370" PMx_perVeh="0.000548" NOx_perVeh="0.015134" fuel_perVeh="0.017509" electricity_perVeh="0"/>
        <edge id=":1110673617_0" sampledSeconds="238.39" CO_abs="6054.551694" CO2_abs="735871.102304" HC_abs="45.121701" PMx_abs="13.227764" NOx_abs="278.462052" fuel_abs="316.317088" electricity_abs="0"
            CO_normed="15465.010712" CO2_normed="1879619.673830" HC_normed="115.253388" PMx_normed="33.787393" NOx_normed="711.269610" fuel_normed="807.961910" electricity_normed="0"
            traveltime="0.01" CO_perVeh="0.371096" CO2_perVeh="45.103108" HC_perVeh="0.002766" PMx_perVeh="0.000811" NOx_perVeh="0.017068" fuel_perVeh="0.019388" electricity_perVeh="0"/>
        <edge id=":1110673621_0" sampledSeconds="25.92" CO_abs="419.901479" CO2_abs="45868.058796" HC_abs="2.969814" PMx_abs="0.671426" NOx_abs="17.501413" fuel_abs="19.716720" electricity_abs="0"
            CO_normed="1287.054341" CO2_normed="140591.751100" HC_normed="9.102878" PMx_normed="2.058012" NOx_normed="53.644177" fuel_normed="60.434390" electricity_normed="0"
            traveltime="0.02" CO_perVeh="0.318107" CO2_perVeh="34.748529" HC_perVeh="0.002250" PMx_perVeh="0.000509" NOx_perVeh="0.013259" fuel_perVeh="0.014937" electricity_perVeh="0"/>
        <edge id=":1110673630_0" sampledSeconds="53.68" CO_abs="364.774096" CO2_abs="33783.239650" HC_abs="2.441707" PMx_abs="0.490122" NOx_abs="12.983282" fuel_abs="14.522015" electricity_abs="0"
            CO_normed="19.937260" CO2_normed="1846.472180" HC_normed="0.133455" PMx_normed="0.026788" NOx_normed="0.709620" fuel_normed="0.793722" electricity_normed="0"
            traveltime="1.25" CO_perVeh="8.514473" CO2_perVeh="788.560569" HC_perVeh="0.056994" PMx_perVeh="0.011440" NOx_perVeh="0.303053" fuel_perVeh="0.338970" electricity_perVeh="0"/>
        <edge id=":1110673630_1" sampledSeconds="7.27" CO_abs="0" CO2_abs="0" HC_abs="0" PMx_abs="0" NOx_abs="0" fuel_abs="0" electricity_abs="0"
            CO_normed="0" CO2_normed="0" HC_normed="0" PMx_normed="0" NOx_normed="0" fuel_normed="0" electricity_normed="0"
            traveltime="1.03" CO_perVeh="0" CO2_perVeh="0" HC_perVeh="0" PMx_perVeh="0" NOx_perVeh="0" fuel_perVeh="0" electricity_perVeh="0"/>
        <edge id=":1110673650_0" sampledSeconds="142.92" CO_abs="1992.972327" CO2_abs="273031.089812" HC_abs="15.237467" PMx_abs="3.584580" NOx_abs="100.633658" fuel_abs="117.364679" electricity_abs="0"
            CO_normed="5090.606199" CO2_normed="697397.419699" HC_normed="38.920732" PMx_normed="9.156015" NOx_normed="257.046381" fuel_normed="299.782066" electricity_normed="0"
            traveltime="0.02" CO_perVeh="0.320590" CO2_perVeh="43.919911" HC_perVeh="0.002451" PMx_perVeh="0.000577" NOx_perVeh="0.016188" fuel_perVeh="0.018879" electricity_perVeh="0"/>
        <edge id=":1110673655_0" sampledSeconds="44.88" CO_abs="681.956116" CO2_abs="77910.522954" HC_abs="4.863172" PMx_abs="1.053784" NOx_abs="29.134233" fuel_abs="33.490512" electricity_abs="0"
            CO_normed="1741.905787" CO2_normed="199005.167188" HC_normed="12.421895" PMx_normed="2.691657" NOx_normed="74.416943" fuel_normed="85.544091" electricity_normed="0"
            traveltime="0.02" CO_perVeh="0.364975" CO2_perVeh="41.696828" HC_perVeh="0.002603" PMx_perVeh="0.000564" NOx_perVeh="0.015592" fuel_perVeh="0.017924" electricity_perVeh="0"/>
        <edge id=":1110673663_0" sampledSeconds="108.46" CO_abs="1712.459457" CO2_abs="205206.219758" HC_abs="12.538566" PMx_abs="2.897526" NOx_abs="77.270627" fuel_abs="88.209451" electricity_abs="0"
            CO_normed="80.111689" CO2_normed="9599.886777" HC_normed="0.586575" PMx_normed="0.135551" NOx_normed="3.614848" fuel_normed="4.126584" electricity_normed="0"
            traveltime="1.27" CO_perVeh="20.113644" CO2_perVeh="2410.243858" HC_perVeh="0.147271" PMx_perVeh="0.034033" NOx_perVeh="0.907580" fuel_perVeh="1.036062" electricity_perVeh="0"/>
        <edge id=":1110673663_1" sampledSeconds="153.64" CO_abs="2586.797128" CO2_abs="319957.526239" HC_abs="19.146623" PMx_abs="4.503836" NOx_abs="120.194898" fuel_abs="137.536136" electricity_abs="0"
            CO_normed="121.162593" CO2_normed="14986.441383" HC_normed="0.896806" PMx_normed="0.210954" NOx_normed="5.629790" fuel_normed="6.442034" electricity_normed="0"
            traveltime="1.24" CO_perVeh="20.936859" CO2_perVeh="2589.652466" HC_perVeh="0.154968" PMx_perVeh="0.036453" NOx_perVeh="0.972826" fuel_perVeh="1.113181" electricity_perVeh="0"/>
        <edge id=":1110673666_0" sampledSeconds="192.27" CO_abs="3764.293113" CO2_abs="304613.260793" HC_abs="24.098603" PMx_abs="4.150018" NOx_abs="116.255717" fuel_abs="130.941340" electricity_abs="0"
            CO_normed="235.855748" CO2_normed="19085.864531" HC_normed="1.509923" PMx_normed="0.260024" NOx_normed="7.284124" fuel_normed="8.204267" electricity_normed="0"