<?xml version="1.0" encoding="UTF-8"?>

<!-- generated on Tue Nov 10 12:09:08 2020 by Eclipse SUMO sumo Version 1.7.0
<configuration xmlns:xsi="http://www.w3.org/2001/XMLSchema-instance" xsi:noNamespaceSchemaLocation="http://sumo.dlr.de/xsd/sumoConfiguration.xsd">

    <input>
        <net-file value="../dataSets/Porto/8AM9AM_Routing_SaoBento/Porto.net.xml"/>
        <route-files value="../results/Porto/8AM9AM_Routing_SaoBento/inputdata/cost_PMx-length/solution12/Porto.rou.xml"/>
        <additional-files value="moreOutputInfo.xml"/>
    </input>

    <output>
        <emission-output.precision value="6"/>
        <tripinfo-output value="../results/Porto/8AM9AM_Routing_SaoBento/inputdata/cost_PMx-length/solution12/Porto-tripinfo"/>
    </output>

    <processing>
        <collision.action value="warn"/>
        <time-to-teleport value="-1"/>
    </processing>

    <emissions>
        <device.emissions.probability value="1"/>
    </emissions>

    <gui_only>
        <quit-on-end value="true"/>
        <start value="true"/>
    </gui_only>

</configuration>
-->

<meandata xmlns:xsi="http://www.w3.org/2001/XMLSchema-instance" xsi:noNamespaceSchemaLocation="http://sumo.dlr.de/xsd/meandata_file.xsd">
    <interval begin="0.00" end="8471.00" id="emissions-detector">
        <edge id=":1092997347_0" sampledSeconds="597.86" CO_abs="72783.655949" CO2_abs="3098497.564889" HC_abs="404.725605" PMx_abs="62.776870" NOx_abs="1341.359203" fuel_abs="1331.918439" electricity_abs="0"
            CO_normed="70298.977639" CO2_normed="2992721.486570" HC_normed="390.909139" PMx_normed="60.633801" NOx_normed="1295.568069" fuel_normed="1286.449593" electricity_normed="0"
            traveltime="0.07" CO_perVeh="8.364243" CO2_perVeh="356.076990" HC_perVeh="0.046511" PMx_perVeh="0.007214" NOx_perVeh="0.154148" fuel_perVeh="0.153063" electricity_perVeh="0"/>
        <edge id=":1103427051_0" sampledSeconds="19.54" CO_abs="1594.760053" CO2_abs="90242.402768" HC_abs="9.398029" PMx_abs="1.736193" NOx_abs="38.270918" fuel_abs="38.791261" electricity_abs="0"
            CO_normed="2337.034747" CO2_normed="132245.368566" HC_normed="13.772304" PMx_normed="2.544297" NOx_normed="56.083964" fuel_normed="56.846499" electricity_normed="0"
            traveltime="0.03" CO_perVeh="2.480054" CO2_perVeh="140.338357" HC_perVeh="0.014615" PMx_perVeh="0.002700" NOx_perVeh="0.059516" fuel_perVeh="0.060325" electricity_perVeh="0"/>
        <edge id=":1105984386_0" sampledSeconds="10.71" CO_abs="230.858078" CO2_abs="16786.188257" HC_abs="1.428963" PMx_abs="0.205023" NOx_abs="6.283018" fuel_abs="7.215780" electricity_abs="0"
            CO_normed="10.104008" CO2_normed="734.684164" HC_normed="0.062542" PMx_normed="0.008973" NOx_normed="0.274990" fuel_normed="0.315814" electricity_normed="0"
            traveltime="1.03" CO_perVeh="22.146136" CO2_perVeh="1610.293301" HC_perVeh="0.137080" PMx_perVeh="0.019668" NOx_perVeh="0.602728" fuel_perVeh="0.692207" electricity_perVeh="0"/>
        <edge id=":1105984390_0" sampledSeconds="10.94" CO_abs="71.581536" CO2_abs="4325.231532" HC_abs="0.425762" PMx_abs="0.068733" NOx_abs="1.736064" fuel_abs="1.859246" electricity_abs="0"
            CO_normed="2.422028" CO2_normed="146.348252" HC_normed="0.014406" PMx_normed="0.002326" NOx_normed="0.058741" fuel_normed="0.062909" electricity_normed="0"
            traveltime="1.13" CO_perVeh="7.419857" CO2_perVeh="448.336288" HC_perVeh="0.044133" PMx_perVeh="0.007125" NOx_perVeh="0.179954" fuel_perVeh="0.192722" electricity_perVeh="0"/>
        <edge id=":1105984390_1" sampledSeconds="2399.75" CO_abs="63803.871157" CO2_abs="7502201.730486" HC_abs="469.847768" PMx_abs="135.891398" NOx_abs="2860.118775" fuel_abs="3224.849693" electricity_abs="0"
            CO_normed="2065.142965" CO2_normed="242824.124112" HC_normed="15.207585" PMx_normed="4.398403" NOx_normed="92.573602" fuel_normed="104.378865" electricity_normed="0"
            traveltime="0.65" CO_perVeh="17.244374" CO2_perVeh="2027.632044" HC_perVeh="0.126987" PMx_perVeh="0.036728" NOx_perVeh="0.773009" fuel_perVeh="0.871585" electricity_perVeh="0"/>
        <edge id=":1105984395_0" sampledSeconds="4.20" CO_abs="54.627997" CO2_abs="4103.550789" HC_abs="0.343027" PMx_abs="0.059703" NOx_abs="1.595957" fuel_abs="1.763953" electricity_abs="0"
            CO_normed="25.234533" CO2_normed="1895.569903" HC_normed="0.158456" PMx_normed="0.027579" NOx_normed="0.737227" fuel_normed="0.814830" electricity_normed="0"
            traveltime="0.10" CO_perVeh="1.266257" CO2_perVeh="95.118839" HC_perVeh="0.007951" PMx_perVeh="0.001384" NOx_perVeh="0.036994" fuel_perVeh="0.040888" electricity_perVeh="0"/>
        <edge id=":1105984398_0" sampledSeconds="10.26" CO_abs="657.103010" CO2_abs="43937.123579" HC_abs="4.024523" PMx_abs="0.775686" NOx_abs="18.046187" fuel_abs="18.886666" electricity_abs="0"
            CO_normed="23.098032" CO2_normed="1544.447464" HC_normed="0.141467" PMx_normed="0.027266" NOx_normed="0.634347" fuel_normed="0.663891" electricity_normed="0"
            traveltime="1.14" CO_perVeh="73.330140" CO2_perVeh="4903.212100" HC_perVeh="0.449121" PMx_perVeh="0.086564" NOx_perVeh="2.013884" fuel_perVeh="2.107678" electricity_perVeh="0"/>
        <edge id=":1105984398_1" sampledSeconds="646.22" CO_abs="11818.185906" CO2_abs="1372362.012335" HC_abs="85.361937" PMx_abs="19.845469" NOx_abs="520.164564" fuel_abs="589.919740" electricity_abs="0"
            CO_normed="402.120485" CO2_normed="46695.396638" HC_normed="2.904488" PMx_normed="0.675253" NOx_normed="17.698895" fuel_normed="20.072354" electricity_normed="0"
            traveltime="0.95" CO_perVeh="17.438545" CO2_perVeh="2025.014402" HC_perVeh="0.125957" PMx_perVeh="0.029283" NOx_perVeh="0.767539" fuel_perVeh="0.870467" electricity_perVeh="0"/>
        <edge id=":1106006327_0" sampledSeconds="282.15" CO_abs="38101.533965" CO2_abs="1229289.296309" HC_abs="202.424026" PMx_abs="25.659012" NOx_abs="538.176424" fuel_abs="528.428237" electricity_abs="0"
            CO_normed="1827.580678" CO2_normed="58964.171037" HC_normed="9.709484" PMx_normed="1.230762" NOx_normed="25.814206" fuel_normed="25.346623" electricity_normed="0"
            traveltime="2.11" CO_perVeh="285.101042" CO2_perVeh="9198.360878" HC_perVeh="1.514671" PMx_perVeh="0.191998" NOx_perVeh="4.026994" fuel_perVeh="3.954052" electricity_perVeh="0"/>
        <edge id=":1106006327_1" sampledSeconds="679.00" CO_abs="91950.256390" CO2_abs="3085414.685484" HC_abs="491.413396" PMx_abs="64.369719" NOx_abs="1350.379605" fuel_abs="1326.308185" electricity_abs="0"
            CO_normed="3846.157420" CO2_normed="129058.809116" HC_normed="20.555171" PMx_normed="2.692500" NOx_normed="56.484590" fuel_normed="55.477714" electricity_normed="0"
            traveltime="2.28" CO_perVeh="308.654754" CO2_perVeh="10356.990285" HC_perVeh="1.649556" PMx_perVeh="0.216074" NOx_perVeh="4.532897" fuel_perVeh="4.452096" electricity_perVeh="0"/>
        <edge id=":1106006327_2" sampledSeconds="0.00" CO_abs="0" CO2_abs="0" HC_abs="0" PMx_abs="0" NOx_abs="0" fuel_abs="0" electricity_abs="0"
            CO_normed="0" CO2_normed="0" HC_normed="0" PMx_normed="0" NOx_normed="0" fuel_normed="0" electricity_normed="0"/>
        <edge id=":1106006327_3" sampledSeconds="0.00" CO_abs="0" CO2_abs="0" HC_abs="0" PMx_abs="0" NOx_abs="0" fuel_abs="0" electricity_abs="0"
            CO_normed="0" CO2_normed="0" HC_normed="0" PMx_normed="0" NOx_normed="0" fuel_normed="0" electricity_normed="0"/>
        <edge id=":1107381198_0" sampledSeconds="0.00" CO_abs="0" CO2_abs="0" HC_abs="0" PMx_abs="0" NOx_abs="0" fuel_abs="0" electricity_abs="0"
            CO_normed="0" CO2_normed="0" HC_normed="0" PMx_normed="0" NOx_normed="0" fuel_normed="0" electricity_normed="0"/>
        <edge id=":1107381198_1" sampledSeconds="103.27" CO_abs="4100.363626" CO2_abs="165291.492691" HC_abs="22.490935" PMx_abs="2.923380" NOx_abs="68.927911" fuel_abs="71.052933" electricity_abs="0"
            CO_normed="190.029426" CO2_normed="7660.356563" HC_normed="1.042332" PMx_normed="0.135483" NOx_normed="3.194432" fuel_normed="3.292915" electricity_normed="0"
            traveltime="1.55" CO_perVeh="61.390306" CO2_perVeh="2474.730584" HC_perVeh="0.336732" PMx_perVeh="0.043769" NOx_perVeh="1.031983" fuel_perVeh="1.063799" electricity_perVeh="0"/>
        <edge id=":1110338277_0" sampledSeconds="160.04" CO_abs="2677.855889" CO2_abs="318491.913637" HC_abs="19.515227" PMx_abs="4.464763" NOx_abs="119.829320" fuel_abs="136.906216" electricity_abs="0"
            CO_normed="4064.405114" CO2_normed="483401.727362" HC_normed="29.619887" PMx_normed="6.776543" NOx_normed="181.874948" fuel_normed="207.793976" electricity_normed="0"
            traveltime="0.02" CO_perVeh="0.362780" CO2_perVeh="43.147365" HC_perVeh="0.002644" PMx_perVeh="0.000605" NOx_perVeh="0.016234" fuel_perVeh="0.018547" electricity_perVeh="0"/>
        <edge id=":1110338293_0" sampledSeconds="6372.03" CO_abs="593325.657173" CO2_abs="10408659.940804" HC_abs="2945.090224" PMx_abs="247.987314" NOx_abs="4703.093994" fuel_abs="4474.507007" electricity_abs="0"
            CO_normed="840503.823170" CO2_normed="14744884.817571" HC_normed="4172.008344" PMx_normed="351.298284" NOx_normed="6662.392625" fuel_normed="6338.576802" electricity_normed="0"
            traveltime="0.43" CO_perVeh="39.684130" CO2_perVeh="696.175207" HC_perVeh="0.196980" PMx_perVeh="0.016586" NOx_perVeh="0.314563" fuel_perVeh="0.299274" electricity_perVeh="0"/>
        <edge id=":1110338295_0" sampledSeconds="0.00" CO_abs="0" CO2_abs="0" HC_abs="0" PMx_abs="0" NOx_abs="0" fuel_abs="0" electricity_abs="0"
            CO_normed="0" CO2_normed="0" HC_normed="0" PMx_normed="0" NOx_normed="0" fuel_normed="0" electricity_normed="0"/>
        <edge id=":1110673403_0" sampledSeconds="200.65" CO_abs="3087.460237" CO2_abs="382171.872137" HC_abs="22.786537" PMx_abs="5.180593" NOx_abs="142.528817" fuel_abs="164.279708" electricity_abs="0"
            CO_normed="4373.689393" CO2_normed="541383.834924" HC_normed="32.279358" PMx_normed="7.338817" NOx_normed="201.906009" fuel_normed="232.718274" electricity_normed="0"
            traveltime="0.02" CO_perVeh="0.356836" CO2_perVeh="44.169805" HC_perVeh="0.002634" PMx_perVeh="0.000599" NOx_perVeh="0.016473" fuel_perVeh="0.018987" electricity_perVeh="0"/>
        <edge id=":1110673412_0" sampledSeconds="942.02" CO_abs="166549.418046" CO2_abs="11385986.180788" HC_abs="1036.999013" PMx_abs="249.995727" NOx_abs="4891.139681" fuel_abs="4894.274783" electricity_abs="0"
            CO_normed="244069.179214" CO2_normed="16685547.955026" HC_normed="1519.666060" PMx_normed="366.355239" NOx_normed="7167.701103" fuel_normed="7172.295425" electricity_normed="0"
            traveltime="0.02" CO_perVeh="2.746458" CO2_perVeh="187.758876" HC_perVeh="0.017100" PMx_perVeh="0.004123" NOx_perVeh="0.080657" fuel_perVeh="0.080708" electricity_perVeh="0"/>
        <edge id=":1110673414_0" sampledSeconds="0.00" CO_abs="0" CO2_abs="0" HC_abs="0" PMx_abs="0" NOx_abs="0" fuel_abs="0" electricity_abs="0"
            CO_normed="0" CO2_normed="0" HC_normed="0" PMx_normed="0" NOx_normed="0" fuel_normed="0" electricity_normed="0"/>
        <edge id=":1110673414_1" sampledSeconds="7.07" CO_abs="348.629936" CO2_abs="14115.698463" HC_abs="1.914951" PMx_abs="0.256066" NOx_abs="5.930291" fuel_abs="6.067825" electricity_abs="0"
            CO_normed="16.407588" CO2_normed="664.327822" HC_normed="0.090123" PMx_normed="0.012051" NOx_normed="0.279098" fuel_normed="0.285570" electricity_normed="0"
            traveltime="1.54" CO_perVeh="76.152112" CO2_perVeh="3083.327458" HC_perVeh="0.418287" PMx_perVeh="0.055933" NOx_perVeh="1.295368" fuel_perVeh="1.325410" electricity_perVeh="0"/>
        <edge id=":1110673417_0" sampledSeconds="29.45" CO_abs="518.959769" CO2_abs="55687.641591" HC_abs="3.651494" PMx_abs="0.790527" NOx_abs="21.134167" fuel_abs="23.937782" electricity_abs="0"
            CO_normed="787.668503" CO2_normed="84521.775861" HC_normed="5.542177" PMx_normed="1.199849" NOx_normed="32.077087" fuel_normed="36.332367" electricity_normed="0"
            traveltime="0.02" CO_perVeh="0.395732" CO2_perVeh="42.464500" HC_perVeh="0.002784" PMx_perVeh="0.000603" NOx_perVeh="0.016116" fuel_perVeh="0.018254" electricity_perVeh="0"/>
        <edge id=":1110673446_0" sampledSeconds="1314.55" CO_abs="14519.933440" CO2_abs="1169304.707255" HC_abs="93.841076" PMx_abs="21.355879" NOx_abs="478.070497" fuel_abs="502.630503" electricity_abs="0"
            CO_normed="20568.905830" CO2_normed="1656434.480824" HC_normed="132.935062" PMx_normed="30.252691" NOx_normed="677.233616" fuel_normed="712.025267" electricity_normed="0"
            traveltime="0.02" CO_perVeh="0.251952" CO2_perVeh="20.289953" HC_perVeh="0.001628" PMx_perVeh="0.000371" NOx_perVeh="0.008296" fuel_perVeh="0.008722" electricity_perVeh="0"/>
        <edge id=":1110673451_0" sampledSeconds="36.79" CO_abs="497.610074" CO2_abs="34710.760897" HC_abs="3.059684" PMx_abs="0.494545" NOx_abs="13.468439" fuel_abs="14.920817" electricity_abs="0"
            CO_normed="783.237043" CO2_normed="54634.652968" HC_normed="4.815935" PMx_normed="0.778413" NOx_normed="21.199291" fuel_normed="23.485330" electricity_normed="0"
            traveltime="0.03" CO_perVeh="0.366629" CO2_perVeh="25.574157" HC_perVeh="0.002254" PMx_perVeh="0.000364" NOx_perVeh="0.009923" fuel_perVeh="0.010993" electricity_perVeh="0"/>
        <edge id=":1110673464_0" sampledSeconds="1033.91" CO_abs="3000.113146" CO2_abs="233310.626194" HC_abs="18.976980" PMx_abs="3.164428" NOx_abs="88.999903" fuel_abs="100.291238" electricity_abs="0"
            CO_normed="90.296467" CO2_normed="7022.110215" HC_normed="0.571163" PMx_normed="0.095242" NOx_normed="2.678691" fuel_normed="3.018534" electricity_normed="0"
            traveltime="1.23" CO_perVeh="3.557715" CO2_perVeh="276.673787" HC_perVeh="0.022504" PMx_perVeh="0.003753" NOx_perVeh="0.105541" fuel_perVeh="0.118931" electricity_perVeh="0"/>
        <edge id=":1110673464_1" sampledSeconds="2609.35" CO_abs="62543.210768" CO2_abs="7628398.857653" HC_abs="466.487671" PMx_abs="136.181061" NOx_abs="2892.226829" fuel_abs="3279.097311" electricity_abs="0"
            CO_normed="1844.522728" CO2_normed="224976.538623" HC_normed="13.757642" PMx_normed="4.016248" NOx_normed="85.297478" fuel_normed="96.707052" electricity_normed="0"
            traveltime="0.72" CO_perVeh="17.247559" CO2_perVeh="2103.685735" HC_perVeh="0.128643" PMx_perVeh="0.037555" NOx_perVeh="0.797590" fuel_perVeh="0.904278" electricity_perVeh="0"/>
        <edge id=":1110673479_0" sampledSeconds="134.91" CO_abs="6182.277045" CO2_abs="422609.879180" HC_abs="38.052824" PMx_abs="7.275607" NOx_abs="172.170490" fuel_abs="181.661866" electricity_abs="0"
            CO_normed="8757.800088" CO2_normed="598668.226911" HC_normed="53.905547" PMx_normed="10.306610" NOx_normed="243.896338" fuel_normed="257.341800" electricity_normed="0"
            traveltime="0.03" CO_perVeh="1.306989" CO2_perVeh="89.343549" HC_perVeh="0.008045" PMx_perVeh="0.001538" NOx_perVeh="0.036398" fuel_perVeh="0.038405" electricity_perVeh="0"/>
        <edge id=":1110673511_0" sampledSeconds="63.99" CO_abs="1000.511625" CO2_abs="106855.487263" HC_abs="7.016704" PMx_abs="1.475559" NOx_abs="40.346877" fuel_abs="45.932753" electricity_abs="0"
            CO_normed="1417.322570" CO2_normed="151371.248632" HC_normed="9.939847" PMx_normed="2.090274" NOx_normed="57.155298" fuel_normed="65.068238" electricity_normed="0"
            traveltime="0.02" CO_perVeh="0.383460" CO2_perVeh="40.953876" HC_perVeh="0.002689" PMx_perVeh="0.000566" NOx_perVeh="0.015464" fuel_perVeh="0.017604" electricity_perVeh="0"/>
        <edge id=":1110673517_0" sampledSeconds="182.51" CO_abs="8054.132033" CO2_abs="571858.686156" HC_abs="50.092423" PMx_abs="9.866305" NOx_abs="232.674183" fuel_abs="245.817275" electricity_abs="0"
            CO_normed="11409.465754" CO2_normed="810093.759163" HC_normed="70.960816" PMx_normed="13.976586" NOx_normed="329.605737" fuel_normed="348.224212" electricity_normed="0"
            traveltime="0.03" CO_perVeh="1.233160" CO2_perVeh="87.556720" HC_perVeh="0.007670" PMx_perVeh="0.001511" NOx_perVeh="0.035625" fuel_perVeh="0.037637" electricity_perVeh="0"/>
        <edge id=":1110673534_0" sampledSeconds="658.77" CO_abs="4196.781853" CO2_abs="357460.447091" HC_abs="27.282230" PMx_abs="4.836398" NOx_abs="135.827649" fuel_abs="153.658183" electricity_abs="0"
            CO_normed="115.216123" CO2_normed="9813.521017" HC_normed="0.748991" PMx_normed="0.132776" NOx_normed="3.728937" fuel_normed="4.218447" electricity_normed="0"
            traveltime="1.45" CO_perVeh="9.228099" CO2_perVeh="786.002313" HC_perVeh="0.059990" PMx_perVeh="0.010635" NOx_perVeh="0.298665" fuel_perVeh="0.337871" electricity_perVeh="0"/>
        <edge id=":1110673534_1" sampledSeconds="264.51" CO_abs="4492.515685" CO2_abs="543632.664411" HC_abs="32.876585" PMx_abs="7.541395" NOx_abs="203.818601" fuel_abs="233.684774" electricity_abs="0"
            CO_normed="119.926279" CO2_normed="14512.101232" HC_normed="0.877630" PMx_normed="0.201315" NOx_normed="5.440873" fuel_normed="6.238141" electricity_normed="0"
            traveltime="1.23" CO_perVeh="20.844146" CO2_perVeh="2522.319180" HC_perVeh="0.152539" PMx_perVeh="0.034990" NOx_perVeh="0.945667" fuel_perVeh="1.084239" electricity_perVeh="0"/>
        <edge id=":1110673549_0" sampledSeconds="648.87" CO_abs="1398.129456" CO2_abs="123714.139027" HC_abs="9.208434" PMx_abs="1.743843" NOx_abs="47.088704" fuel_abs="53.179725" electricity_abs="0"
            CO_normed="37.182487" CO2_normed="3290.109719" HC_normed="0.244893" PMx_normed="0.046377" NOx_normed="1.252298" fuel_normed="1.414286" electricity_normed="0"
            traveltime="1.29" CO_perVeh="2.777750" CO2_perVeh="245.790495" HC_perVeh="0.018295" PMx_perVeh="0.003465" NOx_perVeh="0.093554" fuel_perVeh="0.105655" electricity_perVeh="0"/>
        <edge id=":1110673549_1" sampledSeconds="3199.65" CO_abs="70740.471458" CO2_abs="9074765.650113" HC_abs="539.500025" PMx_abs="160.779694" NOx_abs="3405.770429" fuel_abs="3900.825498" electricity_abs="0"
            CO_normed="1819.808654" CO2_normed="233449.632462" HC_normed="13.878715" PMx_normed="4.136080" NOx_normed="87.613927" fuel_normed="100.349289" electricity_normed="0"
            traveltime="0.81" CO_perVeh="17.844664" CO2_perVeh="2289.158399" HC_perVeh="0.136092" PMx_perVeh="0.040558" NOx_perVeh="0.859124" fuel_perVeh="0.984004" electricity_perVeh="0"/>
        <edge id=":1110673556_0" sampledSeconds="463.27" CO_abs="56798.552250" CO2_abs="2741536.604054" HC_abs="323.740253" PMx_abs="55.335009" NOx_abs="1181.777009" fuel_abs="1178.469601" electricity_abs="0"
            CO_normed="1120.102614" CO2_normed="54064.799076" HC_normed="6.384358" PMx_normed="1.091241" NOx_normed="23.305374" fuel_normed="23.240150" electricity_normed="0"
            traveltime="2.73" CO_perVeh="334.822004" CO2_perVeh="16161.094679" HC_perVeh="1.908418" PMx_perVeh="0.326195" NOx_perVeh="6.966462" fuel_perVeh="6.946965" electricity_perVeh="0"/>
        <edge id=":1110673556_2" sampledSeconds="176.30" CO_abs="17330.397682" CO2_abs="736906.161161" HC_abs="96.237067" PMx_abs="14.353167" NOx_abs="315.213189" fuel_abs="316.766979" electricity_abs="0"
            CO_normed="357.353760" CO2_normed="15195.045849" HC_normed="1.984414" PMx_normed="0.295963" NOx_normed="6.499713" fuel_normed="6.531753" electricity_normed="0"
            traveltime="3.05" CO_perVeh="299.667340" CO2_perVeh="12742.160532" HC_perVeh="1.664076" PMx_perVeh="0.248187" NOx_perVeh="5.450486" fuel_perVeh="5.477354" electricity_perVeh="0"/>
        <edge id=":1110673556_3" sampledSeconds="340.09" CO_abs="34340.292570" CO2_abs="1191330.102723" HC_abs="184.237575" PMx_abs="23.614839" NOx_abs="513.727367" fuel_abs="512.110589" electricity_abs="0"
            CO_normed="1610.807386" CO2_normed="55881.973764" HC_normed="8.642071" PMx_normed="1.107706" NOx_normed="24.097519" fuel_normed="24.021680" electricity_normed="0"
            traveltime="1.83" CO_perVeh="184.662487" CO2_perVeh="6406.293094" HC_perVeh="0.990724" PMx_perVeh="0.126987" NOx_perVeh="2.762532" fuel_perVeh="2.753838" electricity_perVeh="0"/>
        <edge id=":1110673556_4" sampledSeconds="93.29" CO_abs="10876.254110" CO2_abs="413882.250961" HC_abs="59.247525" PMx_abs="8.230316" NOx_abs="178.435825" fuel_abs="177.912391" electricity_abs="0"
            CO_normed="311.677903" CO2_normed="11860.512905" HC_normed="1.697840" PMx_normed="0.235854" NOx_normed="5.113388" fuel_normed="5.098388" electricity_normed="0"
            traveltime="2.62" CO_perVeh="305.101291" CO2_perVeh="11610.248140" HC_perVeh="1.662015" PMx_perVeh="0.230877" NOx_perVeh="5.005492" fuel_perVeh="4.990808" electricity_perVeh="0"/>
        <edge id=":1110673556_5" sampledSeconds="21.81" CO_abs="1556.477128" CO2_abs="71073.837017" HC_abs="8.733653" PMx_abs="1.238016" NOx_abs="29.446309" fuel_abs="30.551974" electricity_abs="0"
            CO_normed="62.168292" CO2_normed="2838.807560" HC_normed="0.348837" PMx_normed="0.049448" NOx_normed="1.176135" fuel_normed="1.220297" electricity_normed="0"
            traveltime="1.51" CO_perVeh="107.608295" CO2_perVeh="4913.746757" HC_perVeh="0.603808" PMx_perVeh="0.085591" NOx_perVeh="2.035794" fuel_perVeh="2.112235" electricity_perVeh="0"/>
        <edge id=":1110673556_6" sampledSeconds="549.42" CO_abs="65621.756918" CO2_abs="3167544.854200" HC_abs="374.020242" PMx_abs="63.852150" NOx_abs="1364.756471" fuel_abs="1361.592505" electricity_abs="0"
            CO_normed="1326.731257" CO2_normed="64040.966966" HC_normed="7.561888" PMx_normed="1.290954" NOx_normed="27.592450" fuel_normed="27.528482" electricity_normed="0"
            traveltime="2.67" CO_perVeh="318.608138" CO2_perVeh="15379.130596" HC_perVeh="1.815951" PMx_perVeh="0.310016" NOx_perVeh="6.626194" fuel_perVeh="6.610833" electricity_perVeh="0"/>
        <edge id=":1110673561_0" sampledSeconds="103.82" CO_abs="9420.145687" CO2_abs="679340.793771" HC_abs="59.237441" PMx_abs="13.616397" NOx_abs="286.575071" fuel_abs="292.016371" electricity_abs="0"
            CO_normed="239.292726" CO2_normed="17256.772447" HC_normed="1.504763" PMx_normed="0.345887" NOx_normed="7.279646" fuel_normed="7.417868" electricity_normed="0"
            traveltime="1.23" CO_perVeh="111.166862" CO2_perVeh="8016.880735" HC_perVeh="0.699059" PMx_perVeh="0.160687" NOx_perVeh="3.381864" fuel_perVeh="3.446077" electricity_perVeh="0"/>
        <edge id=":1110673561_1" sampledSeconds="5195.82" CO_abs="482786.220071" CO2_abs="33464785.863048" HC_abs="3007.982734" PMx_abs="698.926705" NOx_abs="14304.393047" fuel_abs="14384.895822" electricity_abs="0"
            CO_normed="11956.536701" CO2_normed="828778.709337" HC_normed="74.494786" PMx_normed="17.309406" NOx_normed="354.258248" fuel_normed="356.251955" electricity_normed="0"
            traveltime="1.19" CO_perVeh="110.881051" CO2_perVeh="7685.825448" HC_perVeh="0.690841" PMx_perVeh="0.160522" NOx_perVeh="3.285276" fuel_perVeh="3.303765" electricity_perVeh="0"/>
        <edge id=":1110673562_0" sampledSeconds="300.71" CO_abs="6551.103719" CO2_abs="501614.740597" HC_abs="41.265940" PMx_abs="6.806636" NOx_abs="191.783985" fuel_abs="215.624868" electricity_abs="0"
            CO_normed="10311.421272" CO2_normed="789540.377912" HC_normed="64.952488" PMx_normed="10.713628" NOx_normed="301.867525" fuel_normed="339.393017" electricity_normed="0"
            traveltime="0.03" CO_perVeh="0.587251" CO2_perVeh="44.965511" HC_perVeh="0.003699" PMx_perVeh="0.000610" NOx_perVeh="0.017192" fuel_perVeh="0.019329" electricity_perVeh="0"/>
        <edge id=":1110673564_0" sampledSeconds="28.20" CO_abs="504.494461" CO2_abs="59046.347879" HC_abs="3.627021" PMx_abs="0.790831" NOx_abs="22.023170" fuel_abs="25.381585" electricity_abs="0"
            CO_normed="2143.997237" CO2_normed="250934.780268" HC_normed="15.414090" PMx_normed="3.360869" NOx_normed="93.593923" fuel_normed="107.866491" electricity_normed="0"
            traveltime="7.963962e-03" CO_perVeh="0.142492" CO2_perVeh="16.677406" HC_perVeh="0.001024" PMx_perVeh="0.000223" NOx_perVeh="0.006220" fuel_perVeh="0.007169" electricity_perVeh="0"/>
        <edge id=":1110673588_0" sampledSeconds="63.49" CO_abs="1156.893063" CO2_abs="121698.838737" HC_abs="8.075338" PMx_abs="1.721122" NOx_abs="46.182312" fuel_abs="52.313252" electricity_abs="0"
            CO_normed="1966.622607" CO2_normed="206877.969285" HC_normed="13.727407" PMx_normed="2.925766" NOx_normed="78.506114" fuel_normed="88.928205" electricity_normed="0"
            traveltime="0.02" CO_perVeh="0.373191" CO2_perVeh="39.257690" HC_perVeh="0.002605" PMx_perVeh="0.000555" NOx_perVeh="0.014898" fuel_perVeh="0.016875" electricity_perVeh="0"/>
        <edge id=":1110673601_0" sampledSeconds="29.27" CO_abs="420.926558" CO2_abs="45341.878210" HC_abs="2.955018" PMx_abs="0.653583" NOx_abs="17.238068" fuel_abs="19.490556" electricity_abs="0"
            CO_normed="638.875326" CO2_normed="68819.148336" HC_normed="4.485078" PMx_normed="0.991997" NOx_normed="26.163653" fuel_normed="29.582442" electricity_normed="0"
            traveltime="0.02" CO_perVeh="0.320977" CO2_perVeh="34.575359" HC_perVeh="0.002253" PMx_perVeh="0.000498" NOx_perVeh="0.013145" fuel_perVeh="0.014862" electricity_perVeh="0"/>
        <edge id=":1110673617_0" sampledSeconds="853.29" CO_abs="32283.333909" CO2_abs="3291509.254238" HC_abs="225.723320" PMx_abs="61.898863" NOx_abs="1289.670157" fuel_abs="1414.865764" electricity_abs="0"
            CO_normed="45732.499930" CO2_normed="4662744.782299" HC_normed="319.759160" PMx_normed="87.685793" NOx_normed="1826.943913" fuel_normed="2004.295734" electricity_normed="0"
            traveltime="0.02" CO_perVeh="0.572722" CO2_perVeh="58.392972" HC_perVeh="0.004004" PMx_perVeh="0.001098" NOx_perVeh="0.022879" fuel_perVeh="0.025100" electricity_perVeh="0"/>
        <edge id=":1110673621_0" sampledSeconds="26.14" CO_abs="660.989045" CO2_abs="65528.868844" HC_abs="4.533799" PMx_abs="1.009297" NOx_abs="25.414550" fuel_abs="28.168030" electricity_abs="0"
            CO_normed="1123.626756" CO2_normed="111393.662065" HC_normed="7.707083" PMx_normed="1.715721" NOx_normed="43.202635" fuel_normed="47.883324" electricity_normed="0"
            traveltime="0.02" CO_perVeh="0.500749" CO2_perVeh="49.643082" HC_perVeh="0.003435" PMx_perVeh="0.000765" NOx_perVeh="0.019253" fuel_perVeh="0.021339" electricity_perVeh="0"/>
        <edge id=":1110673630_0" sampledSeconds="285.88" CO_abs="1282.651580" CO2_abs="114143.538071" HC_abs="8.435596" PMx_abs="1.487792" NOx_abs="42.943742" fuel_abs="49.065859" electricity_abs="0"
            CO_normed="38.880201" CO2_normed="3459.960458" HC_normed="0.255703" PMx_normed="0.045098" NOx_normed="1.301726" fuel_normed="1.487302" electricity_normed="0"
            traveltime="1.29" CO_perVeh="5.771442" CO2_perVeh="513.602327" HC_perVeh="0.037957" PMx_perVeh="0.006694" NOx_perVeh="0.193230" fuel_perVeh="0.220778" electricity_perVeh="0"/>
        <edge id=":1110673630_1" sampledSeconds="337.98" CO_abs="1200.274450" CO2_abs="102430.866618" HC_abs="7.777439" PMx_abs="1.235134" NOx_abs="37.997286" fuel_abs="44.031223" electricity_abs="0"
            CO_normed="44.355813" CO2_normed="3785.304541" HC_normed="0.287413" PMx_normed="0.045644" NOx_normed="1.404179" fuel_normed="1.627162" electricity_normed="0"
            traveltime="1.08" CO_perVeh="3.826239" CO2_perVeh="326.529443" HC_perVeh="0.024793" PMx_perVeh="0.003937" NOx_perVeh="0.121128" fuel_perVeh="0.140363" electricity_perVeh="0"/>
        <edge id=":1110673650_0" sampledSeconds="199.63" CO_abs="3160.221497" CO2_abs="392768.011433" HC_abs="23.341824" PMx_abs="5.369299" NOx_abs="146.653001" fuel_abs="168.834472" electricity_abs="0"
            CO_normed="4476.762834" CO2_normed="556394.302585" HC_normed="33.065977" PMx_normed="7.606137" NOx_normed="207.748319" fuel_normed="239.170543" electricity_normed="0"
            traveltime="0.02" CO_perVeh="0.365649" CO2_perVeh="45.444620" HC_perVeh="0.002701" PMx_perVeh="0.000621" NOx_perVeh="0.016968" fuel_perVeh="0.019535" electricity_perVeh="0"/>
        <edge id=":1110673655_0" sampledSeconds="20.67" CO_abs="327.054209" CO2_abs="40671.738024" HC_abs="2.423523" PMx_abs="0.533277" NOx_abs="15.062745" fuel_abs="17.483106" electricity_abs="0"
            CO_normed="463.304275" CO2_normed="57615.494781" HC_normed="3.433157" PMx_normed="0.755438" NOx_normed="21.337852" fuel_normed="24.766530" electricity_normed="0"
            traveltime="0.02" CO_perVeh="0.373634" CO2_perVeh="46.464286" HC_perVeh="0.002769" PMx_perVeh="0.000609" NOx_perVeh="0.017208" fuel_perVeh="0.019973" electricity_perVeh="0"/>
        <edge id=":1110673663_0" sampledSeconds="110.36" CO_abs="2035.461863" CO2_abs="230229.403803" HC_abs="14.564505" PMx_abs="3.204007" NOx_abs="86.757389" fuel_abs="98.965986" electricity_abs="0"
            CO_normed="52.810088" CO2_normed="5973.305273" HC_normed="0.377876" PMx_normed="0.083128" NOx_normed="2.250922" fuel_normed="2.567674" electricity_normed="0"
            traveltime="1.30" CO_perVeh="23.907460" CO2_perVeh="2704.152960" HC_perVeh="0.171067" PMx_perVeh="0.037633" NOx_perVeh="1.019006" fuel_perVeh="1.162402" electricity_perVeh="0"/>
        <edge id=":1110673663_1" sampledSeconds="169.14" CO_abs="2415.892687" CO2_abs="309932.579592" HC_abs="18.086870" PMx_abs="4.127676" NOx_abs="114.953071" fuel_abs="133.227114" electricity_abs="0"
            CO_normed="62.756998" CO2_normed="8051.035667" HC_normed="0.469838" PMx_normed="0.107224" NOx_normed="2.986105" fuel_normed="3.460805" electricity_normed="0"
            traveltime="1.27" CO_perVeh="18.072982" CO2_perVeh="2318.565730" HC_perVeh="0.135306" PMx_perVeh="0.030879" NOx_perVeh="0.859949" fuel_perVeh="0.996655" electricity_perVeh="0"/>