<?xml version="1.0" encoding="UTF-8"?>

<!-- generated on Tue Nov 10 12:40:24 2020 by Eclipse SUMO sumo Version 1.7.0
<configuration xmlns:xsi="http://www.w3.org/2001/XMLSchema-instance" xsi:noNamespaceSchemaLocation="http://sumo.dlr.de/xsd/sumoConfiguration.xsd">

    <input>
        <net-file value="../dataSets/Porto/8AM9AM_Routing_SaoBento/Porto.net.xml"/>
        <route-files value="../results/Porto/8AM9AM_Routing_SaoBento/inputdata/cost_PMx-length/solution23/Porto.rou.xml"/>
        <additional-files value="moreOutputInfo.xml"/>
    </input>

    <output>
        <emission-output.precision value="6"/>
        <tripinfo-output value="../results/Porto/8AM9AM_Routing_SaoBento/inputdata/cost_PMx-length/solution23/Porto-tripinfo"/>
    </output>

    <processing>
        <collision.action value="warn"/>
        <time-to-teleport value="-1"/>
    </processing>

    <emissions>
        <device.emissions.probability value="1"/>
    </emissions>

    <gui_only>
        <quit-on-end value="true"/>
        <start value="true"/>
    </gui_only>

</configuration>
-->

<meandata xmlns:xsi="http://www.w3.org/2001/XMLSchema-instance" xsi:noNamespaceSchemaLocation="http://sumo.dlr.de/xsd/meandata_file.xsd">
    <interval begin="0.00" end="8471.00" id="emissions-detector">
        <edge id=":1092997347_0" sampledSeconds="598.47" CO_abs="72774.273090" CO2_abs="3088777.004830" HC_abs="404.441310" PMx_abs="62.562207" NOx_abs="1337.134583" fuel_abs="1327.740169" electricity_abs="0"
            CO_normed="70289.915091" CO2_normed="2983332.765636" HC_normed="390.634549" PMx_normed="60.426467" NOx_normed="1291.487669" fuel_normed="1282.413960" electricity_normed="0"
            traveltime="0.07" CO_perVeh="8.358990" CO2_perVeh="354.782725" HC_perVeh="0.046455" PMx_perVeh="0.007186" NOx_perVeh="0.153586" fuel_perVeh="0.152507" electricity_perVeh="0"/>
        <edge id=":1103427051_0" sampledSeconds="19.16" CO_abs="1678.534531" CO2_abs="96575.299138" HC_abs="9.934898" PMx_abs="1.879907" NOx_abs="41.071295" fuel_abs="41.513442" electricity_abs="0"
            CO_normed="2459.801721" CO2_normed="141525.886247" HC_normed="14.559056" PMx_normed="2.754902" NOx_normed="60.187765" fuel_normed="60.835707" electricity_normed="0"
            traveltime="0.03" CO_perVeh="2.610334" CO2_perVeh="150.186812" HC_perVeh="0.015450" PMx_perVeh="0.002923" NOx_perVeh="0.063871" fuel_perVeh="0.064559" electricity_perVeh="0"/>
        <edge id=":1105984386_0" sampledSeconds="10.34" CO_abs="399.374240" CO2_abs="27905.951539" HC_abs="2.460445" PMx_abs="0.417059" NOx_abs="10.958876" fuel_abs="11.995661" electricity_abs="0"
            CO_normed="17.479485" CO2_normed="1221.364872" HC_normed="0.107687" PMx_normed="0.018254" NOx_normed="0.479639" fuel_normed="0.525016" electricity_normed="0"
            traveltime="0.99" CO_perVeh="38.311834" CO2_perVeh="2677.008392" HC_perVeh="0.236030" PMx_perVeh="0.040008" NOx_perVeh="1.051281" fuel_perVeh="1.150740" electricity_perVeh="0"/>
        <edge id=":1105984390_0" sampledSeconds="10.19" CO_abs="0" CO2_abs="0" HC_abs="0" PMx_abs="0" NOx_abs="0" fuel_abs="0" electricity_abs="0"
            CO_normed="0" CO2_normed="0" HC_normed="0" PMx_normed="0" NOx_normed="0" fuel_normed="0" electricity_normed="0"
            traveltime="1.06" CO_perVeh="0" CO2_perVeh="0" HC_perVeh="0" PMx_perVeh="0" NOx_perVeh="0" fuel_perVeh="0" electricity_perVeh="0"/>
        <edge id=":1105984390_1" sampledSeconds="2398.33" CO_abs="65473.427545" CO2_abs="7716696.997672" HC_abs="482.746049" PMx_abs="139.828695" NOx_abs="2940.153682" fuel_abs="3317.051320" electricity_abs="0"
            CO_normed="2119.181577" CO2_normed="249766.702738" HC_normed="15.625065" PMx_normed="4.525842" NOx_normed="95.164096" fuel_normed="107.363160" electricity_normed="0"
            traveltime="0.65" CO_perVeh="17.689925" CO2_perVeh="2084.934188" HC_perVeh="0.130431" PMx_perVeh="0.037780" NOx_perVeh="0.794385" fuel_perVeh="0.896217" electricity_perVeh="0"/>
        <edge id=":1105984395_0" sampledSeconds="4.18" CO_abs="104.591362" CO2_abs="7010.397717" HC_abs="0.635285" PMx_abs="0.094314" NOx_abs="2.690591" fuel_abs="3.013511" electricity_abs="0"
            CO_normed="48.314313" CO2_normed="3238.341526" HC_normed="0.293460" PMx_normed="0.043567" NOx_normed="1.242876" fuel_normed="1.392043" electricity_normed="0"
            traveltime="0.10" CO_perVeh="2.424390" CO2_perVeh="162.498511" HC_perVeh="0.014726" PMx_perVeh="0.002186" NOx_perVeh="0.062367" fuel_perVeh="0.069852" electricity_perVeh="0"/>
        <edge id=":1105984398_0" sampledSeconds="10.87" CO_abs="560.693860" CO2_abs="38784.298570" HC_abs="3.460908" PMx_abs="0.661988" NOx_abs="15.766026" fuel_abs="16.671710" electricity_abs="0"
            CO_normed="19.709124" CO2_normed="1363.318913" HC_normed="0.121655" PMx_normed="0.023270" NOx_normed="0.554196" fuel_normed="0.586032" electricity_normed="0"
            traveltime="1.18" CO_perVeh="61.112490" CO2_perVeh="4227.271283" HC_perVeh="0.377220" PMx_perVeh="0.072153" NOx_perVeh="1.718409" fuel_perVeh="1.817123" electricity_perVeh="0"/>
        <edge id=":1105984398_1" sampledSeconds="647.13" CO_abs="12120.352518" CO2_abs="1406385.086186" HC_abs="87.498192" PMx_abs="20.323193" NOx_abs="533.079374" fuel_abs="604.544819" electricity_abs="0"
            CO_normed="412.401876" CO2_normed="47853.051042" HC_normed="2.977176" PMx_normed="0.691508" NOx_normed="18.138328" fuel_normed="20.569981" electricity_normed="0"
            traveltime="0.95" CO_perVeh="17.850893" CO2_perVeh="2071.328396" HC_perVeh="0.128868" PMx_perVeh="0.029932" NOx_perVeh="0.785121" fuel_perVeh="0.890376" electricity_perVeh="0"/>
        <edge id=":1106006327_0" sampledSeconds="68.73" CO_abs="9285.448374" CO2_abs="297839.879144" HC_abs="49.289281" PMx_abs="6.219789" NOx_abs="130.408717" fuel_abs="128.030932" electricity_abs="0"
            CO_normed="445.386426" CO2_normed="14286.207184" HC_normed="2.364213" PMx_normed="0.298339" NOx_normed="6.255193" fuel_normed="6.141140" electricity_normed="0"
            traveltime="2.13" CO_perVeh="287.845326" CO2_perVeh="9232.921623" HC_perVeh="1.527949" PMx_perVeh="0.192811" NOx_perVeh="4.042620" fuel_perVeh="3.968910" electricity_perVeh="0"/>
        <edge id=":1106006327_1" sampledSeconds="681.77" CO_abs="92207.235056" CO2_abs="3084116.963433" HC_abs="492.539443" PMx_abs="64.319726" NOx_abs="1349.667068" fuel_abs="1325.750629" electricity_abs="0"
            CO_normed="3856.906498" CO2_normed="129004.527122" HC_normed="20.602272" PMx_normed="2.690409" NOx_normed="56.454786" fuel_normed="55.454393" electricity_normed="0"
            traveltime="2.29" CO_perVeh="309.517370" CO2_perVeh="10352.634146" HC_perVeh="1.653336" PMx_perVeh="0.215906" NOx_perVeh="4.530506" fuel_perVeh="4.450224" electricity_perVeh="0"/>
        <edge id=":1106006327_2" sampledSeconds="0.00" CO_abs="0" CO2_abs="0" HC_abs="0" PMx_abs="0" NOx_abs="0" fuel_abs="0" electricity_abs="0"
            CO_normed="0" CO2_normed="0" HC_normed="0" PMx_normed="0" NOx_normed="0" fuel_normed="0" electricity_normed="0"/>
        <edge id=":1106006327_3" sampledSeconds="0.00" CO_abs="0" CO2_abs="0" HC_abs="0" PMx_abs="0" NOx_abs="0" fuel_abs="0" electricity_abs="0"
            CO_normed="0" CO2_normed="0" HC_normed="0" PMx_normed="0" NOx_normed="0" fuel_normed="0" electricity_normed="0"/>
        <edge id=":1107381198_0" sampledSeconds="0.00" CO_abs="0" CO2_abs="0" HC_abs="0" PMx_abs="0" NOx_abs="0" fuel_abs="0" electricity_abs="0"
            CO_normed="0" CO2_normed="0" HC_normed="0" PMx_normed="0" NOx_normed="0" fuel_normed="0" electricity_normed="0"/>
        <edge id=":1107381198_1" sampledSeconds="104.62" CO_abs="4945.898744" CO2_abs="190430.201862" HC_abs="26.890238" PMx_abs="3.240472" NOx_abs="78.614191" fuel_abs="81.859551" electricity_abs="0"
            CO_normed="229.215353" CO2_normed="8825.398228" HC_normed="1.246215" PMx_normed="0.150178" NOx_normed="3.643338" fuel_normed="3.793742" electricity_normed="0"
            traveltime="1.57" CO_perVeh="74.049588" CO2_perVeh="2851.105262" HC_perVeh="0.402598" PMx_perVeh="0.048516" NOx_perVeh="1.177005" fuel_perVeh="1.225594" electricity_perVeh="0"/>
        <edge id=":1110338277_0" sampledSeconds="161.52" CO_abs="2573.560777" CO2_abs="302329.088267" HC_abs="18.639545" PMx_abs="4.237232" NOx_abs="113.811728" fuel_abs="129.958516" electricity_abs="0"
            CO_normed="3906.107728" CO2_normed="458870.059936" HC_normed="28.290791" PMx_normed="6.431200" NOx_normed="172.741547" fuel_normed="197.248873" electricity_normed="0"
            traveltime="0.02" CO_perVeh="0.348780" CO2_perVeh="40.972894" HC_perVeh="0.002526" PMx_perVeh="0.000574" NOx_perVeh="0.015424" fuel_perVeh="0.017613" electricity_perVeh="0"/>
        <edge id=":1110338293_0" sampledSeconds="6834.71" CO_abs="652867.333817" CO2_abs="11384941.129940" HC_abs="3239.152544" PMx_abs="272.335194" NOx_abs="5149.899384" fuel_abs="4894.195600" electricity_abs="0"
            CO_normed="924850.431568" CO2_normed="16127882.606455" HC_normed="4588.576382" PMx_normed="385.789437" NOx_normed="7295.336160" fuel_normed="6933.106740" electricity_normed="0"
            traveltime="0.46" CO_perVeh="43.626870" CO2_perVeh="760.781434" HC_perVeh="0.216451" PMx_perVeh="0.018198" NOx_perVeh="0.344134" fuel_perVeh="0.327047" electricity_perVeh="0"/>
        <edge id=":1110338295_0" sampledSeconds="0.00" CO_abs="0" CO2_abs="0" HC_abs="0" PMx_abs="0" NOx_abs="0" fuel_abs="0" electricity_abs="0"
            CO_normed="0" CO2_normed="0" HC_normed="0" PMx_normed="0" NOx_normed="0" fuel_normed="0" electricity_normed="0"/>
        <edge id=":1110673403_0" sampledSeconds="200.07" CO_abs="3017.435707" CO2_abs="378433.587549" HC_abs="22.383211" PMx_abs="5.144945" NOx_abs="141.083138" fuel_abs="162.672733" electricity_abs="0"
            CO_normed="4274.492796" CO2_normed="536088.189186" HC_normed="31.708007" PMx_normed="7.288318" NOx_normed="199.858063" fuel_normed="230.441837" electricity_normed="0"
            traveltime="0.02" CO_perVeh="0.348742" CO2_perVeh="43.737749" HC_perVeh="0.002587" PMx_perVeh="0.000595" NOx_perVeh="0.016306" fuel_perVeh="0.018801" electricity_perVeh="0"/>
        <edge id=":1110673412_0" sampledSeconds="940.17" CO_abs="166148.600096" CO2_abs="11361049.271746" HC_abs="1034.532828" PMx_abs="249.428606" NOx_abs="4879.939550" fuel_abs="4883.555664" electricity_abs="0"
            CO_normed="243481.802151" CO2_normed="16649004.261307" HC_normed="1516.051999" PMx_normed="365.524154" NOx_normed="7151.287916" fuel_normed="7156.587135" electricity_normed="0"
            traveltime="0.02" CO_perVeh="2.743490" CO2_perVeh="187.596676" HC_perVeh="0.017082" PMx_perVeh="0.004119" NOx_perVeh="0.080579" fuel_perVeh="0.080639" electricity_perVeh="0"/>
        <edge id=":1110673414_0" sampledSeconds="0.00" CO_abs="0" CO2_abs="0" HC_abs="0" PMx_abs="0" NOx_abs="0" fuel_abs="0" electricity_abs="0"
            CO_normed="0" CO2_normed="0" HC_normed="0" PMx_normed="0" NOx_normed="0" fuel_normed="0" electricity_normed="0"/>
        <edge id=":1110673414_1" sampledSeconds="7.88" CO_abs="648.160730" CO2_abs="21812.181834" HC_abs="3.455856" PMx_abs="0.405625" NOx_abs="9.236268" fuel_abs="9.376341" electricity_abs="0"
            CO_normed="30.504421" CO2_normed="1026.547804" HC_normed="0.162643" PMx_normed="0.019090" NOx_normed="0.434687" fuel_normed="0.441279" electricity_normed="0"
            traveltime="1.72" CO_perVeh="141.579376" CO2_perVeh="4764.489646" HC_perVeh="0.754871" PMx_perVeh="0.088602" NOx_perVeh="2.017501" fuel_perVeh="2.048098" electricity_perVeh="0"/>
        <edge id=":1110673417_0" sampledSeconds="29.09" CO_abs="394.184146" CO2_abs="50398.128119" HC_abs="2.903408" PMx_abs="0.652671" NOx_abs="18.557144" fuel_abs="21.664081" electricity_abs="0"
            CO_normed="598.286138" CO2_normed="76493.440320" HC_normed="4.406744" PMx_normed="0.990613" NOx_normed="28.165724" fuel_normed="32.881381" electricity_normed="0"
            traveltime="0.02" CO_perVeh="0.300584" CO2_perVeh="38.430992" HC_perVeh="0.002214" PMx_perVeh="0.000498" NOx_perVeh="0.014151" fuel_perVeh="0.016520" electricity_perVeh="0"/>
        <edge id=":1110673446_0" sampledSeconds="1312.70" CO_abs="13730.975323" CO2_abs="1106077.846942" HC_abs="88.707606" PMx_abs="20.182408" NOx_abs="452.024122" fuel_abs="475.452199" electricity_abs="0"
            CO_normed="19451.269493" CO2_normed="1566867.449333" HC_normed="125.663000" PMx_normed="28.590355" NOx_normed="640.336379" fuel_normed="673.524542" electricity_normed="0"
            traveltime="0.02" CO_perVeh="0.238318" CO2_perVeh="19.197379" HC_perVeh="0.001540" PMx_perVeh="0.000350" NOx_perVeh="0.007845" fuel_perVeh="0.008252" electricity_perVeh="0"/>
        <edge id=":1110673451_0" sampledSeconds="36.56" CO_abs="409.250294" CO2_abs="26587.422187" HC_abs="2.469911" PMx_abs="0.375980" NOx_abs="10.314418" fuel_abs="11.428934" electricity_abs="0"
            CO_normed="644.158965" CO2_normed="41848.537657" HC_normed="3.887633" PMx_normed="0.591791" NOx_normed="16.234868" fuel_normed="17.989114" electricity_normed="0"
            traveltime="0.03" CO_perVeh="0.301527" CO2_perVeh="19.589052" HC_perVeh="0.001820" PMx_perVeh="0.000277" NOx_perVeh="0.007599" fuel_perVeh="0.008421" electricity_perVeh="0"/>
        <edge id=":1110673464_0" sampledSeconds="1030.90" CO_abs="4078.518837" CO2_abs="289088.902029" HC_abs="25.185818" PMx_abs="4.195050" NOx_abs="112.480643" fuel_abs="124.268011" electricity_abs="0"
            CO_normed="122.753984" CO2_normed="8700.907306" HC_normed="0.758035" PMx_normed="0.126261" NOx_normed="3.385407" fuel_normed="3.740180" electricity_normed="0"
            traveltime="1.22" CO_perVeh="4.836553" CO2_perVeh="342.818979" HC_perVeh="0.029867" PMx_perVeh="0.004975" NOx_perVeh="0.133386" fuel_perVeh="0.147364" electricity_perVeh="0"/>
        <edge id=":1110673464_1" sampledSeconds="2611.07" CO_abs="65852.292493" CO2_abs="7882870.570718" HC_abs="487.778741" PMx_abs="141.479790" NOx_abs="2999.391065" fuel_abs="3388.482293" electricity_abs="0"
            CO_normed="1942.114079" CO2_normed="232481.411697" HC_normed="14.385558" PMx_normed="4.172518" NOx_normed="88.457962" fuel_normed="99.933031" electricity_normed="0"
            traveltime="0.72" CO_perVeh="18.151187" CO2_perVeh="2172.793930" HC_perVeh="0.134449" PMx_perVeh="0.038997" NOx_perVeh="0.826737" fuel_perVeh="0.933984" electricity_perVeh="0"/>
        <edge id=":1110673479_0" sampledSeconds="135.17" CO_abs="6339.813816" CO2_abs="438179.778006" HC_abs="39.154217" PMx_abs="7.625888" NOx_abs="178.963586" fuel_abs="188.354521" electricity_abs="0"
            CO_normed="8980.966331" CO2_normed="620724.511401" HC_normed="55.465778" PMx_normed="10.802816" NOx_normed="253.519423" fuel_normed="266.822600" electricity_normed="0"
            traveltime="0.03" CO_perVeh="1.340294" CO2_perVeh="92.635167" HC_perVeh="0.008278" PMx_perVeh="0.001612" NOx_perVeh="0.037835" fuel_perVeh="0.039820" electricity_perVeh="0"/>
        <edge id=":1110673511_0" sampledSeconds="63.58" CO_abs="1185.433221" CO2_abs="126554.354203" HC_abs="8.297121" PMx_abs="1.765958" NOx_abs="47.839447" fuel_abs="54.400457" electricity_abs="0"
            CO_normed="1679.282099" CO2_normed="179276.620286" HC_normed="11.753683" PMx_normed="2.501652" NOx_normed="67.769255" fuel_normed="77.063567" electricity_normed="0"
            traveltime="0.02" CO_perVeh="0.454334" CO2_perVeh="48.503745" HC_perVeh="0.003180" PMx_perVeh="0.000677" NOx_perVeh="0.018335" fuel_perVeh="0.020850" electricity_perVeh="0"/>
        <edge id=":1110673517_0" sampledSeconds="181.53" CO_abs="8625.664772" CO2_abs="611684.322331" HC_abs="53.636891" PMx_abs="10.587757" NOx_abs="249.092878" fuel_abs="262.936548" electricity_abs="0"
            CO_normed="12219.097776" CO2_normed="866510.667922" HC_normed="75.981902" PMx_normed="14.998593" NOx_normed="352.864424" fuel_normed="372.475337" electricity_normed="0"
            traveltime="0.03" CO_perVeh="1.320659" CO2_perVeh="93.653821" HC_perVeh="0.008212" PMx_perVeh="0.001621" NOx_perVeh="0.038138" fuel_perVeh="0.040258" electricity_perVeh="0"/>
        <edge id=":1110673534_0" sampledSeconds="658.85" CO_abs="4610.592950" CO2_abs="401244.874500" HC_abs="30.163060" PMx_abs="5.385683" NOx_abs="152.133142" fuel_abs="172.479371" electricity_abs="0"
            CO_normed="126.576664" CO2_normed="11015.554422" HC_normed="0.828080" PMx_normed="0.147856" NOx_normed="4.176579" fuel_normed="4.735153" electricity_normed="0"
            traveltime="1.45" CO_perVeh="10.138013" CO2_perVeh="882.278207" HC_perVeh="0.066324" PMx_perVeh="0.011842" NOx_perVeh="0.334518" fuel_perVeh="0.379257" electricity_perVeh="0"/>
        <edge id=":1110673534_1" sampledSeconds="264.14" CO_abs="4003.711992" CO2_abs="504241.749830" HC_abs="29.683312" PMx_abs="6.763801" NOx_abs="187.369536" fuel_abs="216.752507" electricity_abs="0"
            CO_normed="106.877819" CO2_normed="13460.573285" HC_normed="0.792387" PMx_normed="0.180558" NOx_normed="5.001770" fuel_normed="5.786139" electricity_normed="0"
            traveltime="1.23" CO_perVeh="18.576219" CO2_perVeh="2339.555219" HC_perVeh="0.137723" PMx_perVeh="0.031382" NOx_perVeh="0.869348" fuel_perVeh="1.005677" electricity_perVeh="0"/>
        <edge id=":1110673549_0" sampledSeconds="651.88" CO_abs="1473.775660" CO2_abs="143346.167507" HC_abs="9.983359" PMx_abs="2.053818" NOx_abs="54.445115" fuel_abs="61.618595" electricity_abs="0"
            CO_normed="39.194256" CO2_normed="3812.212756" HC_normed="0.265502" PMx_normed="0.054620" NOx_normed="1.447938" fuel_normed="1.638713" electricity_normed="0"
            traveltime="1.30" CO_perVeh="2.928041" CO2_perVeh="284.794654" HC_perVeh="0.019835" PMx_perVeh="0.004080" NOx_perVeh="0.108169" fuel_perVeh="0.122421" electricity_perVeh="0"/>
        <edge id=":1110673549_1" sampledSeconds="3196.93" CO_abs="70228.255638" CO2_abs="9219655.032132" HC_abs="540.244629" PMx_abs="162.212758" NOx_abs="3447.213241" fuel_abs="3963.107650" electricity_abs="0"
            CO_normed="1806.631829" CO2_normed="237176.932349" HC_normed="13.897870" PMx_normed="4.172946" NOx_normed="88.680049" fuel_normed="101.951506" electricity_normed="0"
            traveltime="0.81" CO_perVeh="17.714247" CO2_perVeh="2325.548999" HC_perVeh="0.136270" PMx_perVeh="0.040916" NOx_perVeh="0.869519" fuel_perVeh="0.999647" electricity_perVeh="0"/>
        <edge id=":1110673556_0" sampledSeconds="465.09" CO_abs="57755.761020" CO2_abs="2778264.875632" HC_abs="328.993701" PMx_abs="56.222343" NOx_abs="1198.527453" fuel_abs="1194.257465" electricity_abs="0"
            CO_normed="1138.979363" CO2_normed="54789.103330" HC_normed="6.487959" PMx_normed="1.108739" NOx_normed="23.635703" fuel_normed="23.551497" electricity_normed="0"
            traveltime="2.74" CO_perVeh="340.464658" CO2_perVeh="16377.604308" HC_perVeh="1.939386" PMx_perVeh="0.331425" NOx_perVeh="7.065204" fuel_perVeh="7.040033" electricity_perVeh="0"/>
        <edge id=":1110673556_2" sampledSeconds="173.66" CO_abs="17044.466489" CO2_abs="734711.159779" HC_abs="94.854748" PMx_abs="14.115444" NOx_abs="312.900819" fuel_abs="315.823543" electricity_abs="0"
            CO_normed="351.457843" CO2_normed="15149.784799" HC_normed="1.955910" PMx_normed="0.291061" NOx_normed="6.452032" fuel_normed="6.512299" electricity_normed="0"
            traveltime="3.00" CO_perVeh="294.723181" CO2_perVeh="12704.205822" HC_perVeh="1.640174" PMx_perVeh="0.244076" NOx_perVeh="5.410502" fuel_perVeh="5.461040" electricity_perVeh="0"/>
        <edge id=":1110673556_3" sampledSeconds="346.56" CO_abs="34783.620647" CO2_abs="1207566.475990" HC_abs="186.607165" PMx_abs="23.782376" NOx_abs="519.725785" fuel_abs="519.090246" electricity_abs="0"
            CO_normed="1631.602670" CO2_normed="56643.576768" HC_normed="8.753222" PMx_normed="1.115565" NOx_normed="24.378888" fuel_normed="24.349076" electricity_normed="0"
            traveltime="1.82" CO_perVeh="182.557337" CO2_perVeh="6337.756566" HC_perVeh="0.979384" PMx_perVeh="0.124819" NOx_perVeh="2.727714" fuel_perVeh="2.724378" electricity_perVeh="0"/>
        <edge id=":1110673556_4" sampledSeconds="81.14" CO_abs="9283.877452" CO2_abs="356085.515397" HC_abs="50.642065" PMx_abs="7.084401" NOx_abs="153.525475" fuel_abs="153.067685" electricity_abs="0"
            CO_normed="266.045592" CO2_normed="10204.247321" HC_normed="1.451236" PMx_normed="0.203016" NOx_normed="4.399538" fuel_normed="4.386420" electricity_normed="0"
            traveltime="2.56" CO_perVeh="292.985833" CO2_perVeh="11237.547228" HC_perVeh="1.598191" PMx_perVeh="0.223574" NOx_perVeh="4.845043" fuel_perVeh="4.830596" electricity_perVeh="0"/>
        <edge id=":1110673556_5" sampledSeconds="23.10" CO_abs="1429.686330" CO2_abs="59448.165994" HC_abs="7.880182" PMx_abs="1.023196" NOx_abs="24.587618" fuel_abs="25.554659" electricity_abs="0"
            CO_normed="57.104056" CO2_normed="2374.458874" HC_normed="0.314748" PMx_normed="0.040868" NOx_normed="0.982070" fuel_normed="1.020696" electricity_normed="0"
            traveltime="1.60" CO_perVeh="98.842512" CO2_perVeh="4109.996661" HC_perVeh="0.544803" PMx_perVeh="0.070739" NOx_perVeh="1.699885" fuel_perVeh="1.766742" electricity_perVeh="0"/>
        <edge id=":1110673556_6" sampledSeconds="551.54" CO_abs="65090.377460" CO2_abs="3131635.170500" HC_abs="370.697464" PMx_abs="62.930289" NOx_abs="1348.388204" fuel_abs="1346.156908" electricity_abs="0"
            CO_normed="1315.987904" CO2_normed="63314.950138" HC_normed="7.494708" PMx_normed="1.272316" NOx_normed="27.261519" fuel_normed="27.216407" electricity_normed="0"
            traveltime="2.68" CO_perVeh="316.028174" CO2_perVeh="15204.781142" HC_perVeh="1.799818" PMx_perVeh="0.305540" NOx_perVeh="6.546723" fuel_perVeh="6.535889" electricity_perVeh="0"/>
        <edge id=":1110673561_0" sampledSeconds="101.39" CO_abs="9852.715887" CO2_abs="722742.407863" HC_abs="62.215622" PMx_abs="14.386825" NOx_abs="303.944893" fuel_abs="310.672698" electricity_abs="0"
            CO_normed="250.280975" CO2_normed="18359.270317" HC_normed="1.580416" PMx_normed="0.365457" NOx_normed="7.720879" fuel_normed="7.891780" electricity_normed="0"
            traveltime="1.20" CO_perVeh="116.271611" CO2_perVeh="8529.061906" HC_perVeh="0.734205" PMx_perVeh="0.169779" NOx_perVeh="3.586845" fuel_perVeh="3.666239" electricity_perVeh="0"/>
        <edge id=":1110673561_1" sampledSeconds="5186.58" CO_abs="483084.084237" CO2_abs="33511240.388667" HC_abs="3010.312460" PMx_abs="699.744017" NOx_abs="14321.371841" fuel_abs="14404.864462" electricity_abs="0"
            CO_normed="11963.913514" CO2_normed="829929.187991" HC_normed="74.552483" PMx_normed="17.329648" NOx_normed="354.678740" fuel_normed="356.746492" electricity_normed="0"
            traveltime="1.19" CO_perVeh="111.025527" CO2_perVeh="7701.771257" HC_perVeh="0.691850" PMx_perVeh="0.160820" NOx_perVeh="3.291431" fuel_perVeh="3.310620" electricity_perVeh="0"/>
        <edge id=":1110673562_0" sampledSeconds="300.94" CO_abs="7095.609639" CO2_abs="534983.376414" HC_abs="44.526552" PMx_abs="7.393033" NOx_abs="205.535112" fuel_abs="229.968636" electricity_abs="0"
            CO_normed="11168.472261" CO2_normed="842062.529278" HC_normed="70.084685" PMx_normed="11.636615" NOx_normed="323.511764" fuel_normed="361.970071" electricity_normed="0"
            traveltime="0.03" CO_perVeh="0.636061" CO2_perVeh="47.956677" HC_perVeh="0.003991" PMx_perVeh="0.000663" NOx_perVeh="0.018424" fuel_perVeh="0.020615" electricity_perVeh="0"/>
        <edge id=":1110673564_0" sampledSeconds="27.87" CO_abs="479.238425" CO2_abs="55113.931922" HC_abs="3.439084" PMx_abs="0.766950" NOx_abs="20.735842" fuel_abs="23.691167" electricity_abs="0"
            CO_normed="2036.664301" CO2_normed="234222.824838" HC_normed="14.615398" PMx_normed="3.259379" NOx_normed="88.123045" fuel_normed="100.682567" electricity_normed="0"
            traveltime="7.871014e-03" CO_perVeh="0.135359" CO2_perVeh="15.566709" HC_perVeh="0.000971" PMx_perVeh="0.000217" NOx_perVeh="0.005857" fuel_perVeh="0.006691" electricity_perVeh="0"/>
        <edge id=":1110673588_0" sampledSeconds="62.71" CO_abs="1294.676267" CO2_abs="139313.688401" HC_abs="9.093958" PMx_abs="1.937295" NOx_abs="52.644138" fuel_abs="59.885164" electricity_abs="0"
            CO_normed="2200.842669" CO2_normed="236821.758114" HC_normed="15.458977" PMx_normed="3.293241" NOx_normed="89.490684" fuel_normed="101.799831" electricity_normed="0"
            traveltime="0.02" CO_perVeh="0.417638" CO2_perVeh="44.939899" HC_perVeh="0.002934" PMx_perVeh="0.000625" NOx_perVeh="0.016982" fuel_perVeh="0.019318" electricity_perVeh="0"/>
        <edge id=":1110673601_0" sampledSeconds="29.02" CO_abs="452.402664" CO2_abs="55647.580604" HC_abs="3.323388" PMx_abs="0.745026" NOx_abs="20.679308" fuel_abs="23.920585" electricity_abs="0"
            CO_normed="686.649236" CO2_normed="84460.971961" HC_normed="5.044183" PMx_normed="1.130787" NOx_normed="31.386709" fuel_normed="36.306266" electricity_normed="0"
            traveltime="0.02" CO_perVeh="0.344979" CO2_perVeh="42.433951" HC_perVeh="0.002534" PMx_perVeh="0.000568" NOx_perVeh="0.015769" fuel_perVeh="0.018241" electricity_perVeh="0"/>
        <edge id=":1110673617_0" sampledSeconds="857.76" CO_abs="32551.038582" CO2_abs="3299969.552595" HC_abs="227.224901" PMx_abs="62.095603" NOx_abs="1293.918171" fuel_abs="1418.502496" electricity_abs="0"
            CO_normed="46111.729782" CO2_normed="4674729.622375" HC_normed="321.886296" PMx_normed="87.964495" NOx_normed="1832.961640" fuel_normed="2009.447521" electricity_normed="0"
            traveltime="0.02" CO_perVeh="0.577064" CO2_perVeh="58.501743" HC_perVeh="0.004028" PMx_perVeh="0.001101" NOx_perVeh="0.022939" fuel_perVeh="0.025147" electricity_perVeh="0"/>
        <edge id=":1110673621_0" sampledSeconds="26.25" CO_abs="542.391477" CO2_abs="61461.659504" HC_abs="3.871690" PMx_abs="0.847966" NOx_abs="23.104915" fuel_abs="26.419805" electricity_abs="0"
            CO_normed="922.020690" CO2_normed="104479.742281" HC_normed="6.581553" PMx_normed="1.441473" NOx_normed="39.276447" fuel_normed="44.911485" electricity_normed="0"
            traveltime="0.02" CO_perVeh="0.410903" CO2_perVeh="46.561863" HC_perVeh="0.002933" PMx_perVeh="0.000642" NOx_perVeh="0.017504" fuel_perVeh="0.020015" electricity_perVeh="0"/>
        <edge id=":1110673630_0" sampledSeconds="284.50" CO_abs="1200.753896" CO2_abs="113475.332904" HC_abs="8.052464" PMx_abs="1.459736" NOx_abs="42.495102" fuel_abs="48.778598" electricity_abs="0"
            CO_normed="36.397689" CO2_normed="3439.705580" HC_normed="0.244089" PMx_normed="0.044248" NOx_normed="1.288127" fuel_normed="1.478595" electricity_normed="0"
            traveltime="1.28" CO_perVeh="5.402940" CO2_perVeh="510.596200" HC_perVeh="0.036233" PMx_perVeh="0.006568" NOx_perVeh="0.191212" fuel_perVeh="0.219485" electricity_perVeh="0"/>
        <edge id=":1110673630_1" sampledSeconds="338.18" CO_abs="1297.185274" CO2_abs="106379.267335" HC_abs="8.336365" PMx_abs="1.443738" NOx_abs="40.566552" fuel_abs="45.728284" electricity_abs="0"
            CO_normed="47.937126" CO2_normed="3931.216605" HC_normed="0.308068" PMx_normed="0.053353" NOx_normed="1.499126" fuel_normed="1.689876" electricity_normed="0"
            traveltime="1.08" CO_perVeh="4.135171" CO2_perVeh="339.116168" HC_perVeh="0.026575" PMx_perVeh="0.004602" NOx_perVeh="0.129318" fuel_perVeh="0.145773" electricity_perVeh="0"/>
        <edge id=":1110673650_0" sampledSeconds="200.05" CO_abs="2891.894939" CO2_abs="370063.770968" HC_abs="21.585525" PMx_abs="4.975680" NOx_abs="137.506411" fuel_abs="159.074940" electricity_abs="0"
            CO_normed="4096.652021" CO2_normed="524231.525394" HC_normed="30.578008" PMx_normed="7.048537" NOx_normed="194.791280" fuel_normed="225.345210" electricity_normed="0"
            traveltime="0.02" CO_perVeh="0.334233" CO2_perVeh="42.770402" HC_perVeh="0.002495" PMx_perVeh="0.000575" NOx_perVeh="0.015892" fuel_perVeh="0.018385" electricity_perVeh="0"/>
        <edge id=":1110673655_0" sampledSeconds="20.67" CO_abs="269.128872" CO2_abs="38200.585038" HC_abs="2.103768" PMx_abs="0.487884" NOx_abs="13.993573" fuel_abs="16.420854" electricity_abs="0"
            CO_normed="381.247369" CO2_normed="54114.864886" HC_normed="2.980192" PMx_normed="0.691135" NOx_normed="19.823265" fuel_normed="23.261746" electricity_normed="0"
            traveltime="0.02" CO_perVeh="0.307459" CO2_perVeh="43.641186" HC_perVeh="0.002403" PMx_perVeh="0.000557" NOx_perVeh="0.015987" fuel_perVeh="0.018760" electricity_perVeh="0"/>
        <edge id=":1110673663_0" sampledSeconds="110.93" CO_abs="1813.811148" CO2_abs="202758.564140" HC_abs="12.900984" PMx_abs="2.844560" NOx_abs="76.512846" fuel_abs="87.157404" electricity_abs="0"
            CO_normed="47.059357" CO2_normed="5260.573933" HC_normed="0.334716" PMx_normed="0.073802" NOx_normed="1.985127" fuel_normed="2.261300" electricity_normed="0"
            traveltime="1.30" CO_perVeh="21.304068" CO2_perVeh="2381.494988" HC_perVeh="0.151528" PMx_perVeh="0.033411" NOx_perVeh="0.898679" fuel_perVeh="1.023705" electricity_perVeh="0"/>
        <edge id=":1110673663_1" sampledSeconds="170.44" CO_abs="2493.431503" CO2_abs="308558.442973" HC_abs="18.388346" PMx_abs="4.207050" NOx_abs="115.182028" fuel_abs="132.636338" electricity_abs="0"
            CO_normed="64.771203" CO2_normed="8015.340088" HC_normed="0.477669" PMx_normed="0.109285" NOx_normed="2.992053" fuel_normed="3.445459" electricity_normed="0"
            traveltime="1.27" CO_perVeh="18.609022" CO2_perVeh="2302.838834" HC_perVeh="0.137236" PMx_perVeh="0.031398" NOx_perVeh="0.859629" fuel_perVeh="0.989894" electricity_perVeh="0"/>
        <edge id=":1110673666_0" sampledSeconds="271.73" CO_abs="6460.089095" CO2_abs="502599.099776" HC_abs="40.927914" PMx_abs="7.068000" NOx_abs="193.568198" fuel_abs="216.047559" electricity_abs="0"