<?xml version="1.0" encoding="UTF-8"?>

<!-- generated on Tue Nov 10 12:26:25 2020 by Eclipse SUMO sumo Version 1.7.0
<configuration xmlns:xsi="http://www.w3.org/2001/XMLSchema-instance" xsi:noNamespaceSchemaLocation="http://sumo.dlr.de/xsd/sumoConfiguration.xsd">

    <input>
        <net-file value="../dataSets/Porto/8AM9AM_Routing_SaoBento/Porto.net.xml"/>
        <route-files value="../results/Porto/8AM9AM_Routing_SaoBento/inputdata/cost_PMx-length/solution18/Porto.rou.xml"/>
        <additional-files value="moreOutputInfo.xml"/>
    </input>

    <output>
        <emission-output.precision value="6"/>
        <tripinfo-output value="../results/Porto/8AM9AM_Routing_SaoBento/inputdata/cost_PMx-length/solution18/Porto-tripinfo"/>
    </output>

    <processing>
        <collision.action value="warn"/>
        <time-to-teleport value="-1"/>
    </processing>

    <emissions>
        <device.emissions.probability value="1"/>
    </emissions>

    <gui_only>
        <quit-on-end value="true"/>
        <start value="true"/>
    </gui_only>

</configuration>
-->

<meandata xmlns:xsi="http://www.w3.org/2001/XMLSchema-instance" xsi:noNamespaceSchemaLocation="http://sumo.dlr.de/xsd/meandata_file.xsd">
    <interval begin="0.00" end="8561.00" id="emissions-detector">
        <edge id=":1092997347_0" sampledSeconds="621.55" CO_abs="75969.182387" CO2_abs="3255737.583232" HC_abs="422.925072" PMx_abs="65.731707" NOx_abs="1407.729097" fuel_abs="1399.509486" electricity_abs="0"
            CO_normed="72604.373054" CO2_normed="3111535.212442" HC_normed="404.192973" PMx_normed="62.820334" NOx_normed="1345.378288" fuel_normed="1337.522737" electricity_normed="0"
            traveltime="0.07" CO_perVeh="8.240835" CO2_perVeh="353.169471" HC_perVeh="0.045877" PMx_perVeh="0.007130" NOx_perVeh="0.152705" fuel_perVeh="0.151813" electricity_perVeh="0"/>
        <edge id=":1103427051_0" sampledSeconds="19.44" CO_abs="1656.756148" CO2_abs="92185.646669" HC_abs="9.734394" PMx_abs="1.822367" NOx_abs="39.443565" fuel_abs="39.626523" electricity_abs="0"
            CO_normed="2402.362813" CO2_normed="133672.882240" HC_normed="14.115261" PMx_normed="2.642505" NOx_normed="57.194750" fuel_normed="57.460046" electricity_normed="0"
            traveltime="0.03" CO_perVeh="2.576465" CO2_perVeh="143.360347" HC_perVeh="0.015138" PMx_perVeh="0.002834" NOx_perVeh="0.061340" fuel_perVeh="0.061624" electricity_perVeh="0"/>
        <edge id=":1105984386_0" sampledSeconds="10.55" CO_abs="336.182864" CO2_abs="23498.784184" HC_abs="2.064376" PMx_abs="0.315407" NOx_abs="9.000360" fuel_abs="10.101249" electricity_abs="0"
            CO_normed="14.559094" CO2_normed="1017.663426" HC_normed="0.089402" PMx_normed="0.013659" NOx_normed="0.389779" fuel_normed="0.437455" electricity_normed="0"
            traveltime="1.01" CO_perVeh="32.249907" CO2_perVeh="2254.230334" HC_perVeh="0.198035" PMx_perVeh="0.030257" NOx_perVeh="0.863401" fuel_perVeh="0.969009" electricity_perVeh="0"/>
        <edge id=":1105984390_0" sampledSeconds="10.39" CO_abs="21.058668" CO2_abs="1472.807024" HC_abs="0.128927" PMx_abs="0.017651" NOx_abs="0.550270" fuel_abs="0.633108" electricity_abs="0"
            CO_normed="0.705049" CO2_normed="49.309910" HC_normed="0.004316" PMx_normed="0.000591" NOx_normed="0.018423" fuel_normed="0.021197" electricity_normed="0"
            traveltime="1.08" CO_perVeh="2.182858" CO2_perVeh="152.665315" HC_perVeh="0.013364" PMx_perVeh="0.001830" NOx_perVeh="0.057039" fuel_perVeh="0.065625" electricity_perVeh="0"/>
        <edge id=":1105984390_1" sampledSeconds="2397.03" CO_abs="64139.168158" CO2_abs="7509999.375867" HC_abs="471.892985" PMx_abs="136.350553" NOx_abs="2864.084742" fuel_abs="3228.201445" electricity_abs="0"
            CO_normed="2054.171033" CO2_normed="240521.098425" HC_normed="15.113213" PMx_normed="4.366869" NOx_normed="91.727412" fuel_normed="103.388898" electricity_normed="0"
            traveltime="0.65" CO_perVeh="17.325026" CO2_perVeh="2028.572199" HC_perVeh="0.127466" PMx_perVeh="0.036830" NOx_perVeh="0.773636" fuel_perVeh="0.871989" electricity_perVeh="0"/>
        <edge id=":1105984395_0" sampledSeconds="4.17" CO_abs="63.001966" CO2_abs="4818.209234" HC_abs="0.396185" PMx_abs="0.062660" NOx_abs="1.825231" fuel_abs="2.071167" electricity_abs="0"
            CO_normed="28.796803" CO2_normed="2202.296720" HC_normed="0.181087" PMx_normed="0.028640" NOx_normed="0.834272" fuel_normed="0.946684" electricity_normed="0"
            traveltime="0.10" CO_perVeh="1.460363" CO2_perVeh="111.684366" HC_perVeh="0.009183" PMx_perVeh="0.001452" NOx_perVeh="0.042308" fuel_perVeh="0.048009" electricity_perVeh="0"/>
        <edge id=":1105984398_0" sampledSeconds="10.61" CO_abs="612.263656" CO2_abs="42312.422138" HC_abs="3.773199" PMx_abs="0.695942" NOx_abs="17.032334" fuel_abs="18.188339" electricity_abs="0"
            CO_normed="21.295615" CO2_normed="1471.701016" HC_normed="0.131239" PMx_normed="0.024206" NOx_normed="0.592415" fuel_normed="0.632623" electricity_normed="0"
            traveltime="1.17" CO_perVeh="67.772679" CO2_perVeh="4683.645941" HC_perVeh="0.417663" PMx_perVeh="0.077035" NOx_perVeh="1.885343" fuel_perVeh="2.013303" electricity_perVeh="0"/>
        <edge id=":1105984398_1" sampledSeconds="647.22" CO_abs="11108.635657" CO2_abs="1360200.790335" HC_abs="81.728948" PMx_abs="19.080322" NOx_abs="510.885400" fuel_abs="584.692616" electricity_abs="0"
            CO_normed="374.004036" CO2_normed="45795.055343" HC_normed="2.751639" PMx_normed="0.642394" NOx_normed="17.200420" fuel_normed="19.685352" electricity_normed="0"
            traveltime="0.95" CO_perVeh="16.328732" CO2_perVeh="1999.377287" HC_perVeh="0.120134" PMx_perVeh="0.028046" NOx_perVeh="0.750957" fuel_perVeh="0.859447" electricity_perVeh="0"/>
        <edge id=":1106006327_0" sampledSeconds="259.94" CO_abs="34738.122706" CO2_abs="1124038.427637" HC_abs="184.613901" PMx_abs="23.358047" NOx_abs="491.491733" fuel_abs="483.184656" electricity_abs="0"
            CO_normed="1648.734124" CO2_normed="53348.896493" HC_normed="8.762110" PMx_normed="1.108615" NOx_normed="23.327086" fuel_normed="22.932818" electricity_normed="0"
            traveltime="2.09" CO_perVeh="279.188113" CO2_perVeh="9033.826316" HC_perVeh="1.483730" PMx_perVeh="0.187727" NOx_perVeh="3.950088" fuel_perVeh="3.883325" electricity_perVeh="0"/>
        <edge id=":1106006327_1" sampledSeconds="684.99" CO_abs="92698.453110" CO2_abs="3090964.733958" HC_abs="494.934255" PMx_abs="64.487715" NOx_abs="1352.786877" fuel_abs="1328.694450" electricity_abs="0"
            CO_normed="3836.690642" CO2_normed="127931.751505" HC_normed="20.484804" PMx_normed="2.669078" NOx_normed="55.990414" fuel_normed="54.993254" electricity_normed="0"
            traveltime="2.30" CO_perVeh="311.166270" CO2_perVeh="10375.620454" HC_perVeh="1.661374" PMx_perVeh="0.216470" NOx_perVeh="4.540978" fuel_perVeh="4.460106" electricity_perVeh="0"/>
        <edge id=":1106006327_2" sampledSeconds="0.00" CO_abs="0" CO2_abs="0" HC_abs="0" PMx_abs="0" NOx_abs="0" fuel_abs="0" electricity_abs="0"
            CO_normed="0" CO2_normed="0" HC_normed="0" PMx_normed="0" NOx_normed="0" fuel_normed="0" electricity_normed="0"/>
        <edge id=":1106006327_3" sampledSeconds="0.00" CO_abs="0" CO2_abs="0" HC_abs="0" PMx_abs="0" NOx_abs="0" fuel_abs="0" electricity_abs="0"
            CO_normed="0" CO2_normed="0" HC_normed="0" PMx_normed="0" NOx_normed="0" fuel_normed="0" electricity_normed="0"/>
        <edge id=":1107381198_0" sampledSeconds="0.00" CO_abs="0" CO2_abs="0" HC_abs="0" PMx_abs="0" NOx_abs="0" fuel_abs="0" electricity_abs="0"
            CO_normed="0" CO2_normed="0" HC_normed="0" PMx_normed="0" NOx_normed="0" fuel_normed="0" electricity_normed="0"/>
        <edge id=":1107381198_1" sampledSeconds="104.23" CO_abs="4466.600084" CO2_abs="175221.468833" HC_abs="24.375070" PMx_abs="3.052405" NOx_abs="72.790711" fuel_abs="75.321648" electricity_abs="0"
            CO_normed="204.826308" CO2_normed="8035.186930" HC_normed="1.117775" PMx_normed="0.139975" NOx_normed="3.337987" fuel_normed="3.454049" electricity_normed="0"
            traveltime="1.56" CO_perVeh="66.873568" CO2_perVeh="2623.401367" HC_perVeh="0.364942" PMx_perVeh="0.045700" NOx_perVeh="1.089817" fuel_perVeh="1.127709" electricity_perVeh="0"/>
        <edge id=":1110338277_0" sampledSeconds="160.81" CO_abs="2737.370676" CO2_abs="318273.052713" HC_abs="19.764929" PMx_abs="4.467197" NOx_abs="119.956836" fuel_abs="136.812160" electricity_abs="0"
            CO_normed="4111.057801" CO2_normed="477991.134951" HC_normed="29.683508" PMx_normed="6.708958" NOx_normed="180.154442" fuel_normed="205.468226" electricity_normed="0"
            traveltime="0.02" CO_perVeh="0.370754" CO2_perVeh="43.107417" HC_perVeh="0.002677" PMx_perVeh="0.000605" NOx_perVeh="0.016247" fuel_perVeh="0.018530" electricity_perVeh="0"/>
        <edge id=":1110338293_0" sampledSeconds="6539.49" CO_abs="596435.602936" CO2_abs="10492137.717233" HC_abs="2961.198487" PMx_abs="249.720391" NOx_abs="4739.540281" fuel_abs="4510.391633" electricity_abs="0"
            CO_normed="836027.010307" CO2_normed="14706886.182314" HC_normed="4150.727934" PMx_normed="350.034422" NOx_normed="6643.439244" fuel_normed="6322.240346" electricity_normed="0"
            traveltime="0.44" CO_perVeh="39.901943" CO2_perVeh="701.931076" HC_perVeh="0.198106" PMx_perVeh="0.016706" NOx_perVeh="0.317078" fuel_perVeh="0.301748" electricity_perVeh="0"/>
        <edge id=":1110338295_0" sampledSeconds="0.00" CO_abs="0" CO2_abs="0" HC_abs="0" PMx_abs="0" NOx_abs="0" fuel_abs="0" electricity_abs="0"
            CO_normed="0" CO2_normed="0" HC_normed="0" PMx_normed="0" NOx_normed="0" fuel_normed="0" electricity_normed="0"/>
        <edge id=":1110673403_0" sampledSeconds="200.52" CO_abs="3237.516252" CO2_abs="388517.383339" HC_abs="23.637862" PMx_abs="5.443111" NOx_abs="146.085997" fuel_abs="167.007186" electricity_abs="0"
            CO_normed="4538.044039" CO2_normed="544586.917425" HC_normed="33.133319" PMx_normed="7.629638" NOx_normed="204.769532" fuel_normed="234.094876" electricity_normed="0"
            traveltime="0.02" CO_perVeh="0.374179" CO2_perVeh="44.903224" HC_perVeh="0.002732" PMx_perVeh="0.000629" NOx_perVeh="0.016884" fuel_perVeh="0.019302" electricity_perVeh="0"/>
        <edge id=":1110673412_0" sampledSeconds="939.02" CO_abs="166140.777097" CO2_abs="11337068.307957" HC_abs="1033.943148" PMx_abs="249.204336" NOx_abs="4872.193487" fuel_abs="4873.247196" electricity_abs="0"
            CO_normed="240910.785297" CO2_normed="16439203.407854" HC_normed="1499.259002" PMx_normed="361.356275" NOx_normed="7064.875822" fuel_normed="7066.403742" electricity_normed="0"
            traveltime="0.02" CO_perVeh="2.745688" CO2_perVeh="187.359522" HC_perVeh="0.017087" PMx_perVeh="0.004118" NOx_perVeh="0.080519" fuel_perVeh="0.080537" electricity_perVeh="0"/>
        <edge id=":1110673414_0" sampledSeconds="0.00" CO_abs="0" CO2_abs="0" HC_abs="0" PMx_abs="0" NOx_abs="0" fuel_abs="0" electricity_abs="0"
            CO_normed="0" CO2_normed="0" HC_normed="0" PMx_normed="0" NOx_normed="0" fuel_normed="0" electricity_normed="0"/>
        <edge id=":1110673414_1" sampledSeconds="331.81" CO_abs="21361.076401" CO2_abs="834624.705089" HC_abs="116.624953" PMx_abs="15.227713" NOx_abs="351.124279" fuel_abs="358.775313" electricity_abs="0"
            CO_normed="994.748715" CO2_normed="38867.041959" HC_normed="5.431024" PMx_normed="0.709128" NOx_normed="16.351256" fuel_normed="16.707551" electricity_normed="0"
            traveltime="1.54" CO_perVeh="99.275608" CO2_perVeh="3878.918510" HC_perVeh="0.542014" PMx_perVeh="0.070771" NOx_perVeh="1.631850" fuel_perVeh="1.667408" electricity_perVeh="0"/>
        <edge id=":1110673417_0" sampledSeconds="28.90" CO_abs="386.619187" CO2_abs="47623.382409" HC_abs="2.852477" PMx_abs="0.646041" NOx_abs="17.741591" fuel_abs="20.471305" electricity_abs="0"
            CO_normed="580.635220" CO2_normed="71522.092160" HC_normed="4.283928" PMx_normed="0.970241" NOx_normed="26.644804" fuel_normed="30.744363" electricity_normed="0"
            traveltime="0.02" CO_perVeh="0.294816" CO2_perVeh="36.315115" HC_perVeh="0.002175" PMx_perVeh="0.000493" NOx_perVeh="0.013529" fuel_perVeh="0.015610" electricity_perVeh="0"/>
        <edge id=":1110673446_0" sampledSeconds="1313.35" CO_abs="14984.384985" CO2_abs="1198658.611144" HC_abs="96.667812" PMx_abs="22.062002" NOx_abs="491.250593" fuel_abs="515.248216" electricity_abs="0"
            CO_normed="21003.693473" CO2_normed="1680166.257882" HC_normed="135.499794" PMx_normed="30.924427" NOx_normed="688.588614" fuel_normed="722.226211" electricity_normed="0"
            traveltime="0.02" CO_perVeh="0.260167" CO2_perVeh="20.811793" HC_perVeh="0.001678" PMx_perVeh="0.000383" NOx_perVeh="0.008529" fuel_perVeh="0.008946" electricity_perVeh="0"/>
        <edge id=":1110673451_0" sampledSeconds="36.27" CO_abs="402.920076" CO2_abs="27825.536817" HC_abs="2.476772" PMx_abs="0.427652" NOx_abs="11.010192" fuel_abs="11.961079" electricity_abs="0"
            CO_normed="627.528055" CO2_normed="43336.894938" HC_normed="3.857450" PMx_normed="0.666047" NOx_normed="17.147829" fuel_normed="18.628789" electricity_normed="0"
            traveltime="0.03" CO_perVeh="0.296863" CO2_perVeh="20.501269" HC_perVeh="0.001825" PMx_perVeh="0.000315" NOx_perVeh="0.008112" fuel_perVeh="0.008813" electricity_perVeh="0"/>
        <edge id=":1110673464_0" sampledSeconds="1030.13" CO_abs="2838.427418" CO2_abs="212498.238956" HC_abs="17.764833" PMx_abs="2.911112" NOx_abs="81.414976" fuel_abs="91.344824" electricity_abs="0"
            CO_normed="84.531991" CO2_normed="6328.468784" HC_normed="0.529059" PMx_normed="0.086697" NOx_normed="2.424642" fuel_normed="2.720365" electricity_normed="0"
            traveltime="1.22" CO_perVeh="3.365978" CO2_perVeh="251.993172" HC_perVeh="0.021067" PMx_perVeh="0.003452" NOx_perVeh="0.096547" fuel_perVeh="0.108322" electricity_perVeh="0"/>
        <edge id=":1110673464_1" sampledSeconds="2603.03" CO_abs="62108.887206" CO2_abs="7646981.517783" HC_abs="465.318455" PMx_abs="136.321593" NOx_abs="2895.407529" fuel_abs="3287.085270" electricity_abs="0"
            CO_normed="1812.457247" CO2_normed="223153.685293" HC_normed="13.578891" PMx_normed="3.978127" NOx_normed="84.493582" fuel_normed="95.923495" electricity_normed="0"
            traveltime="0.72" CO_perVeh="17.121365" CO2_perVeh="2108.019715" HC_perVeh="0.128273" PMx_perVeh="0.037579" NOx_perVeh="0.798168" fuel_perVeh="0.906141" electricity_perVeh="0"/>
        <edge id=":1110673479_0" sampledSeconds="134.47" CO_abs="6290.068212" CO2_abs="436942.859998" HC_abs="38.893291" PMx_abs="7.567781" NOx_abs="178.175079" fuel_abs="187.822857" electricity_abs="0"
            CO_normed="8816.822631" CO2_normed="612465.169954" HC_normed="54.516936" PMx_normed="10.607800" NOx_normed="249.748972" fuel_normed="263.272314" electricity_normed="0"
            traveltime="0.03" CO_perVeh="1.329777" CO2_perVeh="92.373671" HC_perVeh="0.008222" PMx_perVeh="0.001600" NOx_perVeh="0.037668" fuel_perVeh="0.039707" electricity_perVeh="0"/>
        <edge id=":1110673511_0" sampledSeconds="63.85" CO_abs="1142.677483" CO2_abs="119597.492437" HC_abs="7.962367" PMx_abs="1.706632" NOx_abs="45.490674" fuel_abs="51.409951" electricity_abs="0"
            CO_normed="1601.697208" CO2_normed="167640.451962" HC_normed="11.160893" PMx_normed="2.392195" NOx_normed="63.764523" fuel_normed="72.061606" electricity_normed="0"
            traveltime="0.02" CO_perVeh="0.437947" CO2_perVeh="45.837429" HC_perVeh="0.003052" PMx_perVeh="0.000654" NOx_perVeh="0.017435" fuel_perVeh="0.019704" electricity_perVeh="0"/>
        <edge id=":1110673517_0" sampledSeconds="182.56" CO_abs="7959.635958" CO2_abs="563610.227008" HC_abs="49.494584" PMx_abs="9.855038" NOx_abs="230.143039" fuel_abs="242.271440" electricity_abs="0"
            CO_normed="11157.064770" CO2_normed="790015.503340" HC_normed="69.376826" PMx_normed="13.813860" NOx_normed="322.592742" fuel_normed="339.593188" electricity_normed="0"
            traveltime="0.03" CO_perVeh="1.218685" CO2_perVeh="86.293288" HC_perVeh="0.007578" PMx_perVeh="0.001509" NOx_perVeh="0.035237" fuel_perVeh="0.037094" electricity_perVeh="0"/>
        <edge id=":1110673534_0" sampledSeconds="656.61" CO_abs="4897.571955" CO2_abs="409351.711791" HC_abs="31.686882" PMx_abs="5.706374" NOx_abs="156.783285" fuel_abs="175.964002" electricity_abs="0"
            CO_normed="133.041727" CO2_normed="11119.971091" HC_normed="0.860769" PMx_normed="0.155013" NOx_normed="4.258992" fuel_normed="4.780033" electricity_normed="0"
            traveltime="1.44" CO_perVeh="10.769035" CO2_perVeh="900.103797" HC_perVeh="0.069675" PMx_perVeh="0.012547" NOx_perVeh="0.344743" fuel_perVeh="0.386919" electricity_perVeh="0"/>
        <edge id=":1110673534_1" sampledSeconds="263.83" CO_abs="4237.972242" CO2_abs="532092.831142" HC_abs="31.467067" PMx_abs="7.326135" NOx_abs="198.761049" fuel_abs="228.724275" electricity_abs="0"
            CO_normed="111.941996" CO2_normed="14054.724857" HC_normed="0.831173" PMx_normed="0.193513" NOx_normed="5.250084" fuel_normed="6.041534" electricity_normed="0"
            traveltime="1.22" CO_perVeh="19.663128" CO2_perVeh="2468.777249" HC_perVeh="0.145999" PMx_perVeh="0.033991" NOx_perVeh="0.922201" fuel_perVeh="1.061223" electricity_perVeh="0"/>
        <edge id=":1110673549_0" sampledSeconds="650.65" CO_abs="2113.708713" CO2_abs="196179.109612" HC_abs="14.181622" PMx_abs="2.941712" NOx_abs="75.479036" fuel_abs="84.329175" electricity_abs="0"
            CO_normed="55.621970" CO2_normed="5162.427765" HC_normed="0.373188" PMx_normed="0.077411" NOx_normed="1.986221" fuel_normed="2.219111" electricity_normed="0"
            traveltime="1.29" CO_perVeh="4.199435" CO2_perVeh="389.761113" HC_perVeh="0.028176" PMx_perVeh="0.005844" NOx_perVeh="0.149959" fuel_perVeh="0.167542" electricity_perVeh="0"/>
        <edge id=":1110673549_1" sampledSeconds="3195.84" CO_abs="67306.188857" CO2_abs="8974471.244724" HC_abs="520.481667" PMx_abs="157.109164" NOx_abs="3347.137287" fuel_abs="3857.714913" electricity_abs="0"
            CO_normed="1713.258758" CO2_normed="228442.461499" HC_normed="13.248704" PMx_normed="3.999166" NOx_normed="85.200371" fuel_normed="98.196971" electricity_normed="0"
            traveltime="0.81" CO_perVeh="16.979013" CO2_perVeh="2263.947291" HC_perVeh="0.131299" PMx_perVeh="0.039633" NOx_perVeh="0.844366" fuel_perVeh="0.973167" electricity_perVeh="0"/>
        <edge id=":1110673556_0" sampledSeconds="469.94" CO_abs="57884.937905" CO2_abs="2769572.598012" HC_abs="329.336725" PMx_abs="55.929198" NOx_abs="1194.455726" fuel_abs="1190.521425" electricity_abs="0"
            CO_normed="1129.526179" CO2_normed="54043.501937" HC_normed="6.426446" PMx_normed="1.091363" NOx_normed="23.307773" fuel_normed="23.231002" electricity_normed="0"
            traveltime="2.77" CO_perVeh="341.226143" CO2_perVeh="16326.364168" HC_perVeh="1.941408" PMx_perVeh="0.329697" NOx_perVeh="7.041202" fuel_perVeh="7.018009" electricity_perVeh="0"/>
        <edge id=":1110673556_2" sampledSeconds="176.30" CO_abs="18029.265518" CO2_abs="771640.028383" HC_abs="100.250192" PMx_abs="15.079780" NOx_abs="330.325549" fuel_abs="331.697532" electricity_abs="0"
            CO_normed="367.856172" CO2_normed="15743.988370" HC_normed="2.045433" PMx_normed="0.307677" NOx_normed="6.739725" fuel_normed="6.767718" electricity_normed="0"
            traveltime="3.05" CO_perVeh="311.751764" CO2_perVeh="13342.758730" HC_perVeh="1.733469" PMx_perVeh="0.260751" NOx_perVeh="5.711801" fuel_perVeh="5.735524" electricity_perVeh="0"/>
        <edge id=":1110673556_3" sampledSeconds="190.81" CO_abs="20418.142951" CO2_abs="699686.351096" HC_abs="109.352189" PMx_abs="13.961359" NOx_abs="302.305199" fuel_abs="300.770439" electricity_abs="0"
            CO_normed="947.689450" CO2_normed="32475.302729" HC_normed="5.075482" PMx_normed="0.648004" NOx_normed="14.031220" fuel_normed="13.959985" electricity_normed="0"
            traveltime="1.87" CO_perVeh="199.929075" CO2_perVeh="6851.144359" HC_perVeh="1.070748" PMx_perVeh="0.136706" NOx_perVeh="2.960093" fuel_perVeh="2.945065" electricity_perVeh="0"/>
        <edge id=":1110673556_4" sampledSeconds="25.14" CO_abs="2499.268084" CO2_abs="98637.040892" HC_abs="13.696289" PMx_abs="1.938005" NOx_abs="42.341919" fuel_abs="42.400309" electricity_abs="0"
            CO_normed="70.867922" CO2_normed="2796.899670" HC_normed="0.388365" PMx_normed="0.054953" NOx_normed="1.200625" fuel_normed="1.202281" electricity_normed="0"
            traveltime="2.38" CO_perVeh="236.619929" CO2_perVeh="9338.529855" HC_perVeh="1.296706" PMx_perVeh="0.183482" NOx_perVeh="4.008750" fuel_perVeh="4.014278" electricity_perVeh="0"/>
        <edge id=":1110673556_5" sampledSeconds="21.91" CO_abs="1271.508213" CO2_abs="59346.775219" HC_abs="7.172698" PMx_abs="1.072179" NOx_abs="24.836036" fuel_abs="25.510867" electricity_abs="0"
            CO_normed="50.252254" CO2_normed="2345.489543" HC_normed="0.283478" PMx_normed="0.042374" NOx_normed="0.981564" fuel_normed="1.008235" electricity_normed="0"
            traveltime="1.51" CO_perVeh="87.906741" CO2_perVeh="4102.986929" HC_perVeh="0.495890" PMx_perVeh="0.074126" NOx_perVeh="1.717059" fuel_perVeh="1.763714" electricity_perVeh="0"/>
        <edge id=":1110673556_6" sampledSeconds="212.78" CO_abs="25497.361039" CO2_abs="1293534.540451" HC_abs="146.858095" PMx_abs="26.036100" NOx_abs="556.451550" fuel_abs="556.034369" electricity_abs="0"
            CO_normed="510.082619" CO2_normed="25877.559864" HC_normed="2.937942" PMx_normed="0.520860" NOx_normed="11.131986" fuel_normed="11.123640" electricity_normed="0"
            traveltime="2.48" CO_perVeh="297.108780" CO2_perVeh="15072.950851" HC_perVeh="1.711268" PMx_perVeh="0.303386" NOx_perVeh="6.484069" fuel_perVeh="6.479208" electricity_perVeh="0"/>
        <edge id=":1110673561_0" sampledSeconds="101.24" CO_abs="10074.905860" CO2_abs="716830.792334" HC_abs="63.124433" PMx_abs="14.501534" NOx_abs="303.410001" fuel_abs="308.131434" electricity_abs="0"
            CO_normed="253.234609" CO2_normed="18017.673612" HC_normed="1.586644" PMx_normed="0.364499" NOx_normed="7.626266" fuel_normed="7.744940" electricity_normed="0"
            traveltime="1.19" CO_perVeh="118.893668" CO2_perVeh="8459.299105" HC_perVeh="0.744930" PMx_perVeh="0.171132" NOx_perVeh="3.580532" fuel_perVeh="3.636250" electricity_perVeh="0"/>
        <edge id=":1110673561_1" sampledSeconds="5190.69" CO_abs="485100.229035" CO2_abs="33604118.581390" HC_abs="3021.876003" PMx_abs="701.993573" NOx_abs="14365.322946" fuel_abs="14444.788209" electricity_abs="0"
            CO_normed="11887.545709" CO2_normed="823480.327883" HC_normed="74.052097" PMx_normed="17.202591" NOx_normed="352.027113" fuel_normed="353.974436" electricity_normed="0"
            traveltime="1.19" CO_perVeh="111.488206" CO2_perVeh="7723.069736" HC_perVeh="0.694503" PMx_perVeh="0.161336" NOx_perVeh="3.301512" fuel_perVeh="3.319775" electricity_perVeh="0"/>
        <edge id=":1110673562_0" sampledSeconds="300.75" CO_abs="6896.375106" CO2_abs="522611.168310" HC_abs="43.325649" PMx_abs="7.154869" NOx_abs="200.299580" fuel_abs="224.650380" electricity_abs="0"
            CO_normed="10740.762537" CO2_normed="813941.001144" HC_normed="67.477552" PMx_normed="11.143354" NOx_normed="311.956672" fuel_normed="349.881836" electricity_normed="0"
            traveltime="0.03" CO_perVeh="0.618202" CO2_perVeh="46.847660" HC_perVeh="0.003884" PMx_perVeh="0.000641" NOx_perVeh="0.017955" fuel_perVeh="0.020138" electricity_perVeh="0"/>
        <edge id=":1110673564_0" sampledSeconds="27.85" CO_abs="382.358919" CO2_abs="47355.967315" HC_abs="2.827938" PMx_abs="0.627519" NOx_abs="17.560384" fuel_abs="20.356374" electricity_abs="0"
            CO_normed="1607.863693" CO2_normed="199137.346494" HC_normed="11.891807" PMx_normed="2.638789" NOx_normed="73.843455" fuel_normed="85.600920" electricity_normed="0"
            traveltime="7.866943e-03" CO_perVeh="0.107996" CO2_perVeh="13.375503" HC_perVeh="0.000799" PMx_perVeh="0.000177" NOx_perVeh="0.004960" fuel_perVeh="0.005750" electricity_perVeh="0"/>
        <edge id=":1110673588_0" sampledSeconds="62.95" CO_abs="1282.728856" CO2_abs="134103.158558" HC_abs="8.922586" PMx_abs="1.909182" NOx_abs="50.991095" fuel_abs="57.645334" electricity_abs="0"
            CO_normed="2157.609569" CO2_normed="225567.747137" HC_normed="15.008205" PMx_normed="3.211333" NOx_normed="85.769393" fuel_normed="96.962131" electricity_normed="0"
            traveltime="0.02" CO_perVeh="0.413784" CO2_perVeh="43.259083" HC_perVeh="0.002878" PMx_perVeh="0.000616" NOx_perVeh="0.016449" fuel_perVeh="0.018595" electricity_perVeh="0"/>
        <edge id=":1110673601_0" sampledSeconds="28.72" CO_abs="686.367741" CO2_abs="71107.087470" HC_abs="4.773083" PMx_abs="1.074213" NOx_abs="27.379644" fuel_abs="30.565877" electricity_abs="0"
            CO_normed="1030.805759" CO2_normed="106790.559719" HC_normed="7.168345" PMx_normed="1.613283" NOx_normed="41.119495" fuel_normed="45.904666" electricity_normed="0"
            traveltime="0.02" CO_perVeh="0.523388" CO2_perVeh="54.222567" HC_perVeh="0.003640" PMx_perVeh="0.000819" NOx_perVeh="0.020878" fuel_perVeh="0.023308" electricity_perVeh="0"/>
        <edge id=":1110673617_0" sampledSeconds="852.61" CO_abs="32760.209690" CO2_abs="3298102.381994" HC_abs="228.567914" PMx_abs="62.409994" NOx_abs="1294.542484" fuel_abs="1417.699709" electricity_abs="0"
            CO_normed="45920.163098" CO2_normed="4622967.945792" HC_normed="320.384882" PMx_normed="87.480426" NOx_normed="1814.567201" fuel_normed="1987.197350" electricity_normed="0"
            traveltime="0.02" CO_perVeh="0.580557" CO2_perVeh="58.446975" HC_perVeh="0.004051" PMx_perVeh="0.001106" NOx_perVeh="0.022941" fuel_perVeh="0.025124" electricity_perVeh="0"/>
        <edge id=":1110673621_0" sampledSeconds="26.34" CO_abs="575.020911" CO2_abs="58318.899819" HC_abs="3.950709" PMx_abs="0.843944" NOx_abs="22.276812" fuel_abs="25.068844" electricity_abs="0"
            CO_normed="967.211905" CO2_normed="98095.100736" HC_normed="6.645277" PMx_normed="1.419553" NOx_normed="37.470633" fuel_normed="42.166961" electricity_normed="0"
            traveltime="0.02" CO_perVeh="0.435622" CO2_perVeh="44.180985" HC_perVeh="0.002993" PMx_perVeh="0.000639" NOx_perVeh="0.016876" fuel_perVeh="0.018992" electricity_perVeh="0"/>
        <edge id=":1110673630_0" sampledSeconds="286.91" CO_abs="1176.864631" CO2_abs="108709.734663" HC_abs="7.823034" PMx_abs="1.373953" NOx_abs="40.558267" fuel_abs="46.730112" electricity_abs="0"
            CO_normed="35.298520" CO2_normed="3260.606769" HC_normed="0.234642" PMx_normed="0.041210" NOx_normed="1.216492" fuel_normed="1.401609" electricity_normed="0"
            traveltime="1.29" CO_perVeh="5.295441" CO2_perVeh="489.152287" HC_perVeh="0.035201" PMx_perVeh="0.006182" NOx_perVeh="0.182497" fuel_perVeh="0.210268" electricity_perVeh="0"/>
        <edge id=":1110673630_1" sampledSeconds="338.72" CO_abs="1280.003353" CO2_abs="107811.711195" HC_abs="8.274515" PMx_abs="1.369770" NOx_abs="40.468500" fuel_abs="46.344153" electricity_abs="0"
            CO_normed="46.804895" CO2_normed="3942.267617" HC_normed="0.302568" PMx_normed="0.050087" NOx_normed="1.479780" fuel_normed="1.694631" electricity_normed="0"
            traveltime="1.08" CO_perVeh="4.080399" CO2_perVeh="343.682517" HC_perVeh="0.026378" PMx_perVeh="0.004367" NOx_perVeh="0.129006" fuel_perVeh="0.147736" electricity_perVeh="0"/>
        <edge id=":1110673650_0" sampledSeconds="200.16" CO_abs="2825.986447" CO2_abs="357518.777183" HC_abs="20.996963" PMx_abs="4.837360" NOx_abs="133.103420" fuel_abs="153.682345" electricity_abs="0"
            CO_normed="3961.200486" CO2_normed="501136.003527" HC_normed="29.431556" PMx_normed="6.780554" NOx_normed="186.571783" fuel_normed="215.417374" electricity_normed="0"
            traveltime="0.02" CO_perVeh="0.326666" CO2_perVeh="41.326920" HC_perVeh="0.002427" PMx_perVeh="0.000559" NOx_perVeh="0.015386" fuel_perVeh="0.017765" electricity_perVeh="0"/>
        <edge id=":1110673655_0" sampledSeconds="20.80" CO_abs="254.541424" CO2_abs="32326.569367" HC_abs="1.903315" PMx_abs="0.433226" NOx_abs="12.007402" fuel_abs="13.895845" electricity_abs="0"
            CO_normed="356.792090" CO2_normed="45312.327111" HC_normed="2.667887" PMx_normed="0.607255" NOx_normed="16.830841" fuel_normed="19.477882" electricity_normed="0"
            traveltime="0.02" CO_perVeh="0.290808" CO2_perVeh="36.932399" HC_perVeh="0.002174" PMx_perVeh="0.000495" NOx_perVeh="0.013718" fuel_perVeh="0.015876" electricity_perVeh="0"/>
        <edge id=":1110673663_0" sampledSeconds="110.86" CO_abs="1959.235898" CO2_abs="221953.998709" HC_abs="14.031485" PMx_abs="3.043456" NOx_abs="83.330765" fuel_abs="95.408807" electricity_abs="0"
            CO_normed="50.298014" CO2_normed="5698.060813" HC_normed="0.360220" PMx_normed="0.078132" NOx_normed="2.139289" fuel_normed="2.449360" electricity_normed="0"
            traveltime="1.30" CO_perVeh="23.012221" CO2_perVeh="2606.962504" HC_perVeh="0.164807" PMx_perVeh="0.035747" NOx_perVeh="0.978762" fuel_perVeh="1.120625" electricity_perVeh="0"/>
        <edge id=":1110673663_1" sampledSeconds="169.84" CO_abs="2651.807429" CO2_abs="335589.862478" HC_abs="19.720680" PMx_abs="4.438379" NOx_abs="124.344383" fuel_abs="144.256178" electricity_abs="0"
            CO_normed="68.161115" CO2_normed="8625.882491" HC_normed="0.506893" PMx_normed="0.114083" NOx_normed="3.196104" fuel_normed="3.707910" electricity_normed="0"
            traveltime="1.27" CO_perVeh="19.847987" CO2_perVeh="2511.789882" HC_perVeh="0.147603" PMx_perVeh="0.033220" NOx_perVeh="0.930681" fuel_perVeh="1.079714" electricity_perVeh="0"/>