<?xml version="1.0" encoding="UTF-8"?>

<!-- generated on Tue Nov 10 12:05:48 2020 by Eclipse SUMO sumo Version 1.7.0
<configuration xmlns:xsi="http://www.w3.org/2001/XMLSchema-instance" xsi:noNamespaceSchemaLocation="http://sumo.dlr.de/xsd/sumoConfiguration.xsd">

    <input>
        <net-file value="../dataSets/Porto/8AM9AM_Routing_SaoBento/Porto.net.xml"/>
        <route-files value="../results/Porto/8AM9AM_Routing_SaoBento/inputdata/cost_PMx-length/solution11/Porto.rou.xml"/>
        <additional-files value="moreOutputInfo.xml"/>
    </input>

    <output>
        <emission-output.precision value="6"/>
        <tripinfo-output value="../results/Porto/8AM9AM_Routing_SaoBento/inputdata/cost_PMx-length/solution11/Porto-tripinfo"/>
    </output>

    <processing>
        <collision.action value="warn"/>
        <time-to-teleport value="-1"/>
    </processing>

    <emissions>
        <device.emissions.probability value="1"/>
    </emissions>

    <gui_only>
        <quit-on-end value="true"/>
        <start value="true"/>
    </gui_only>

</configuration>
-->

<meandata xmlns:xsi="http://www.w3.org/2001/XMLSchema-instance" xsi:noNamespaceSchemaLocation="http://sumo.dlr.de/xsd/meandata_file.xsd">
    <interval begin="0.00" end="8471.00" id="emissions-detector">
        <edge id=":1092997347_0" sampledSeconds="620.32" CO_abs="75003.883669" CO2_abs="3228194.451781" HC_abs="417.883999" PMx_abs="65.166990" NOx_abs="1395.921827" fuel_abs="1387.669532" electricity_abs="0"
            CO_normed="72443.411534" CO2_normed="3117990.799200" HC_normed="403.618334" PMx_normed="62.942328" NOx_normed="1348.268042" fuel_normed="1340.297462" electricity_normed="0"
            traveltime="0.07" CO_perVeh="8.157021" CO2_perVeh="351.081162" HC_perVeh="0.045447" PMx_perVeh="0.007087" NOx_perVeh="0.151813" fuel_perVeh="0.150916" electricity_perVeh="0"/>
        <edge id=":1103427051_0" sampledSeconds="18.96" CO_abs="1673.879217" CO2_abs="95136.466168" HC_abs="9.885555" PMx_abs="1.888606" NOx_abs="40.727128" fuel_abs="40.894909" electricity_abs="0"
            CO_normed="2452.979611" CO2_normed="139417.354221" HC_normed="14.486747" PMx_normed="2.767650" NOx_normed="59.683407" fuel_normed="59.929282" electricity_normed="0"
            traveltime="0.03" CO_perVeh="2.603094" CO2_perVeh="147.949245" HC_perVeh="0.015373" PMx_perVeh="0.002937" NOx_perVeh="0.063336" fuel_perVeh="0.063597" electricity_perVeh="0"/>
        <edge id=":1105984386_0" sampledSeconds="10.64" CO_abs="246.996996" CO2_abs="15842.228011" HC_abs="1.488589" PMx_abs="0.238798" NOx_abs="6.253517" fuel_abs="6.809957" electricity_abs="0"
            CO_normed="10.810363" CO2_normed="693.369683" HC_normed="0.065151" PMx_normed="0.010452" NOx_normed="0.273699" fuel_normed="0.298053" electricity_normed="0"
            traveltime="1.02" CO_perVeh="23.694337" CO2_perVeh="1519.739518" HC_perVeh="0.142800" PMx_perVeh="0.022908" NOx_perVeh="0.599898" fuel_perVeh="0.653277" electricity_perVeh="0"/>
        <edge id=":1105984390_0" sampledSeconds="11.01" CO_abs="0" CO2_abs="0" HC_abs="0" PMx_abs="0" NOx_abs="0" fuel_abs="0" electricity_abs="0"
            CO_normed="0" CO2_normed="0" HC_normed="0" PMx_normed="0" NOx_normed="0" fuel_normed="0" electricity_normed="0"
            traveltime="1.14" CO_perVeh="0" CO2_perVeh="0" HC_perVeh="0" PMx_perVeh="0" NOx_perVeh="0" fuel_perVeh="0" electricity_perVeh="0"/>
        <edge id=":1105984390_1" sampledSeconds="2396.96" CO_abs="63252.521996" CO2_abs="7532051.784705" HC_abs="467.841579" PMx_abs="135.953273" NOx_abs="2864.925213" fuel_abs="3237.681220" electricity_abs="0"
            CO_normed="2047.297421" CO2_normed="243790.282252" HC_normed="15.142651" PMx_normed="4.400406" NOx_normed="92.729172" fuel_normed="104.794184" electricity_normed="0"
            traveltime="0.65" CO_perVeh="17.082261" CO2_perVeh="2034.139842" HC_perVeh="0.126347" PMx_perVeh="0.036716" NOx_perVeh="0.773715" fuel_perVeh="0.874383" electricity_perVeh="0"/>
        <edge id=":1105984395_0" sampledSeconds="4.12" CO_abs="44.285942" CO2_abs="3776.845775" HC_abs="0.285733" PMx_abs="0.039533" NOx_abs="1.362907" fuel_abs="1.623535" electricity_abs="0"
            CO_normed="20.457185" CO2_normed="1744.653728" HC_normed="0.131990" PMx_normed="0.018262" NOx_normed="0.629573" fuel_normed="0.749966" electricity_normed="0"
            traveltime="0.10" CO_perVeh="1.026532" CO2_perVeh="87.545934" HC_perVeh="0.006623" PMx_perVeh="0.000916" NOx_perVeh="0.031592" fuel_perVeh="0.037633" electricity_perVeh="0"/>
        <edge id=":1105984398_0" sampledSeconds="10.50" CO_abs="588.489011" CO2_abs="41411.909354" HC_abs="3.647100" PMx_abs="0.694393" NOx_abs="16.739633" fuel_abs="17.801219" electricity_abs="0"
            CO_normed="20.686160" CO2_normed="1455.682875" HC_normed="0.128200" PMx_normed="0.024409" NOx_normed="0.588420" fuel_normed="0.625736" electricity_normed="0"
            traveltime="1.15" CO_perVeh="64.383371" CO2_perVeh="4530.650990" HC_perVeh="0.399009" PMx_perVeh="0.075970" NOx_perVeh="1.831392" fuel_perVeh="1.947534" electricity_perVeh="0"/>
        <edge id=":1105984398_1" sampledSeconds="647.97" CO_abs="11809.390950" CO2_abs="1376610.536186" HC_abs="85.342328" PMx_abs="19.847908" NOx_abs="521.381397" fuel_abs="591.746038" electricity_abs="0"
            CO_normed="401.821232" CO2_normed="46839.955074" HC_normed="2.903821" PMx_normed="0.675336" NOx_normed="17.740298" fuel_normed="20.134495" electricity_normed="0"
            traveltime="0.95" CO_perVeh="17.367647" CO2_perVeh="2024.531634" HC_perVeh="0.125510" PMx_perVeh="0.029190" NOx_perVeh="0.766777" fuel_perVeh="0.870260" electricity_perVeh="0"/>
        <edge id=":1106006327_0" sampledSeconds="66.75" CO_abs="9086.280869" CO2_abs="298172.409687" HC_abs="48.398791" PMx_abs="6.238504" NOx_abs="130.636135" fuel_abs="128.173677" electricity_abs="0"
            CO_normed="435.833144" CO2_normed="14302.157365" HC_normed="2.321500" PMx_normed="0.299237" NOx_normed="6.266101" fuel_normed="6.147987" electricity_normed="0"
            traveltime="2.07" CO_perVeh="281.671210" CO2_perVeh="9243.229942" HC_perVeh="1.500344" PMx_perVeh="0.193391" NOx_perVeh="4.049670" fuel_perVeh="3.973335" electricity_perVeh="0"/>
        <edge id=":1106006327_1" sampledSeconds="682.34" CO_abs="92185.704349" CO2_abs="3080707.925175" HC_abs="492.353357" PMx_abs="64.223247" NOx_abs="1348.034925" fuel_abs="1324.285312" electricity_abs="0"
            CO_normed="3856.005897" CO2_normed="128861.931567" HC_normed="20.594489" PMx_normed="2.686373" NOx_normed="56.386515" fuel_normed="55.393100" electricity_normed="0"
            traveltime="2.29" CO_perVeh="309.445096" CO2_perVeh="10341.190830" HC_perVeh="1.652711" PMx_perVeh="0.215582" NOx_perVeh="4.525027" fuel_perVeh="4.445305" electricity_perVeh="0"/>
        <edge id=":1106006327_2" sampledSeconds="0.00" CO_abs="0" CO2_abs="0" HC_abs="0" PMx_abs="0" NOx_abs="0" fuel_abs="0" electricity_abs="0"
            CO_normed="0" CO2_normed="0" HC_normed="0" PMx_normed="0" NOx_normed="0" fuel_normed="0" electricity_normed="0"/>
        <edge id=":1106006327_3" sampledSeconds="0.00" CO_abs="0" CO2_abs="0" HC_abs="0" PMx_abs="0" NOx_abs="0" fuel_abs="0" electricity_abs="0"
            CO_normed="0" CO2_normed="0" HC_normed="0" PMx_normed="0" NOx_normed="0" fuel_normed="0" electricity_normed="0"/>
        <edge id=":1107381198_0" sampledSeconds="0.00" CO_abs="0" CO2_abs="0" HC_abs="0" PMx_abs="0" NOx_abs="0" fuel_abs="0" electricity_abs="0"
            CO_normed="0" CO2_normed="0" HC_normed="0" PMx_normed="0" NOx_normed="0" fuel_normed="0" electricity_normed="0"/>
        <edge id=":1107381198_1" sampledSeconds="103.00" CO_abs="5103.316637" CO2_abs="200858.915187" HC_abs="27.866683" PMx_abs="3.504701" NOx_abs="83.469275" fuel_abs="86.342277" electricity_abs="0"
            CO_normed="236.510812" CO2_normed="9308.712047" HC_normed="1.291468" PMx_normed="0.162424" NOx_normed="3.868344" fuel_normed="4.001492" electricity_normed="0"
            traveltime="1.54" CO_perVeh="76.406435" CO2_perVeh="3007.243097" HC_perVeh="0.417218" PMx_perVeh="0.052472" NOx_perVeh="1.249695" fuel_perVeh="1.292709" electricity_perVeh="0"/>
        <edge id=":1110338277_0" sampledSeconds="160.27" CO_abs="3062.102163" CO2_abs="358295.684414" HC_abs="22.085472" PMx_abs="5.013196" NOx_abs="134.852463" fuel_abs="154.016203" electricity_abs="0"
            CO_normed="4647.607715" CO2_normed="543815.228380" HC_normed="33.520962" PMx_normed="7.608945" NOx_normed="204.676825" fuel_normed="233.763231" electricity_normed="0"
            traveltime="0.02" CO_perVeh="0.415630" CO2_perVeh="48.632717" HC_perVeh="0.002998" PMx_perVeh="0.000680" NOx_perVeh="0.018304" fuel_perVeh="0.020905" electricity_perVeh="0"/>
        <edge id=":1110338293_0" sampledSeconds="6413.07" CO_abs="578682.866517" CO2_abs="10185985.448969" HC_abs="2873.136083" PMx_abs="242.076462" NOx_abs="4599.511965" fuel_abs="4378.782165" electricity_abs="0"
            CO_normed="819760.878079" CO2_normed="14429444.621370" HC_normed="4070.078267" PMx_normed="342.924985" NOx_normed="6515.658550" fuel_normed="6202.973200" electricity_normed="0"
            traveltime="0.43" CO_perVeh="38.719367" CO2_perVeh="681.538941" HC_perVeh="0.192240" PMx_perVeh="0.016197" NOx_perVeh="0.307751" fuel_perVeh="0.292982" electricity_perVeh="0"/>
        <edge id=":1110338295_0" sampledSeconds="0.00" CO_abs="0" CO2_abs="0" HC_abs="0" PMx_abs="0" NOx_abs="0" fuel_abs="0" electricity_abs="0"
            CO_normed="0" CO2_normed="0" HC_normed="0" PMx_normed="0" NOx_normed="0" fuel_normed="0" electricity_normed="0"/>
        <edge id=":1110673403_0" sampledSeconds="200.65" CO_abs="2767.442538" CO2_abs="355707.158073" HC_abs="20.715158" PMx_abs="4.800480" NOx_abs="132.273567" fuel_abs="152.903599" electricity_abs="0"
            CO_normed="3920.353022" CO2_normed="503893.979091" HC_normed="29.345047" PMx_normed="6.800350" NOx_normed="187.378445" fuel_normed="216.602903" electricity_normed="0"
            traveltime="0.02" CO_perVeh="0.319849" CO2_perVeh="41.111125" HC_perVeh="0.002394" PMx_perVeh="0.000555" NOx_perVeh="0.015288" fuel_perVeh="0.017672" electricity_perVeh="0"/>
        <edge id=":1110673412_0" sampledSeconds="939.26" CO_abs="167605.699994" CO2_abs="11425229.454866" HC_abs="1042.832929" PMx_abs="251.284366" NOx_abs="4911.237013" fuel_abs="4911.143245" electricity_abs="0"
            CO_normed="245617.103374" CO2_normed="16743056.854224" HC_normed="1528.215350" PMx_normed="368.243671" NOx_normed="7197.152657" fuel_normed="7197.015245" electricity_normed="0"
            traveltime="0.02" CO_perVeh="2.766442" CO2_perVeh="188.580874" HC_perVeh="0.017213" PMx_perVeh="0.004148" NOx_perVeh="0.081063" fuel_perVeh="0.081062" electricity_perVeh="0"/>
        <edge id=":1110673414_0" sampledSeconds="0.00" CO_abs="0" CO2_abs="0" HC_abs="0" PMx_abs="0" NOx_abs="0" fuel_abs="0" electricity_abs="0"
            CO_normed="0" CO2_normed="0" HC_normed="0" PMx_normed="0" NOx_normed="0" fuel_normed="0" electricity_normed="0"/>
        <edge id=":1110673414_1" sampledSeconds="333.31" CO_abs="22020.940304" CO2_abs="857749.378817" HC_abs="120.215375" PMx_abs="15.919005" NOx_abs="362.625618" fuel_abs="368.715427" electricity_abs="0"
            CO_normed="1036.372614" CO2_normed="40368.301882" HC_normed="5.657702" PMx_normed="0.749197" NOx_normed="17.066268" fuel_normed="17.352873" electricity_normed="0"
            traveltime="1.55" CO_perVeh="102.342325" CO2_perVeh="3986.390437" HC_perVeh="0.558701" PMx_perVeh="0.073984" NOx_perVeh="1.685303" fuel_perVeh="1.713605" electricity_perVeh="0"/>
        <edge id=":1110673417_0" sampledSeconds="29.03" CO_abs="431.468688" CO2_abs="54652.006806" HC_abs="3.197703" PMx_abs="0.718764" NOx_abs="20.223656" fuel_abs="23.492637" electricity_abs="0"
            CO_normed="654.875996" CO2_normed="82949.906615" HC_normed="4.853420" PMx_normed="1.090928" NOx_normed="30.695129" fuel_normed="35.656734" electricity_normed="0"
            traveltime="0.02" CO_perVeh="0.329016" CO2_perVeh="41.674778" HC_perVeh="0.002438" PMx_perVeh="0.000548" NOx_perVeh="0.015422" fuel_perVeh="0.017914" electricity_perVeh="0"/>
        <edge id=":1110673446_0" sampledSeconds="1312.52" CO_abs="14183.879394" CO2_abs="1149984.979897" HC_abs="91.884661" PMx_abs="21.053983" NOx_abs="470.116164" fuel_abs="494.325720" electricity_abs="0"
            CO_normed="20092.852405" CO2_normed="1629066.197470" HC_normed="130.163609" PMx_normed="29.825025" NOx_normed="665.965526" fuel_normed="700.260730" electricity_normed="0"
            traveltime="0.02" CO_perVeh="0.246269" CO2_perVeh="19.966735" HC_perVeh="0.001595" PMx_perVeh="0.000366" NOx_perVeh="0.008162" fuel_perVeh="0.008583" electricity_perVeh="0"/>
        <edge id=":1110673451_0" sampledSeconds="36.54" CO_abs="393.765872" CO2_abs="27570.020270" HC_abs="2.429860" PMx_abs="0.424787" NOx_abs="10.896356" fuel_abs="11.851239" electricity_abs="0"
            CO_normed="619.786522" CO2_normed="43395.144643" HC_normed="3.824594" PMx_normed="0.668613" NOx_normed="17.150838" fuel_normed="18.653821" electricity_normed="0"
            traveltime="0.03" CO_perVeh="0.290118" CO2_perVeh="20.313010" HC_perVeh="0.001790" PMx_perVeh="0.000313" NOx_perVeh="0.008028" fuel_perVeh="0.008732" electricity_perVeh="0"/>
        <edge id=":1110673464_0" sampledSeconds="1034.21" CO_abs="3967.615490" CO2_abs="288038.992777" HC_abs="24.622745" PMx_abs="4.127016" NOx_abs="111.621656" fuel_abs="123.816701" electricity_abs="0"
            CO_normed="119.416049" CO2_normed="8669.307466" HC_normed="0.741088" PMx_normed="0.124214" NOx_normed="3.359554" fuel_normed="3.726596" electricity_normed="0"
            traveltime="1.23" CO_perVeh="4.705037" CO2_perVeh="341.573933" HC_perVeh="0.029199" PMx_perVeh="0.004894" NOx_perVeh="0.132368" fuel_perVeh="0.146829" electricity_perVeh="0"/>
        <edge id=":1110673464_1" sampledSeconds="2612.09" CO_abs="61368.172107" CO2_abs="7561868.961885" HC_abs="459.203457" PMx_abs="134.397321" NOx_abs="2863.120865" fuel_abs="3250.499500" electricity_abs="0"
            CO_normed="1809.868519" CO2_normed="223014.440686" HC_normed="13.542816" PMx_normed="3.963642" NOx_normed="84.439085" fuel_normed="95.863646" electricity_normed="0"
            traveltime="0.72" CO_perVeh="16.914832" CO2_perVeh="2084.268374" HC_perVeh="0.126570" PMx_perVeh="0.037044" NOx_perVeh="0.789158" fuel_perVeh="0.895931" electricity_perVeh="0"/>
        <edge id=":1110673479_0" sampledSeconds="134.82" CO_abs="6353.527238" CO2_abs="434598.628002" HC_abs="39.152438" PMx_abs="7.679159" NOx_abs="178.278085" fuel_abs="186.815016" electricity_abs="0"
            CO_normed="9000.392734" CO2_normed="615651.462168" HC_normed="55.463258" PMx_normed="10.878280" NOx_normed="252.548343" fuel_normed="264.641741" electricity_normed="0"
            traveltime="0.03" CO_perVeh="1.343193" CO2_perVeh="91.878079" HC_perVeh="0.008277" PMx_perVeh="0.001623" NOx_perVeh="0.037690" fuel_perVeh="0.039494" electricity_perVeh="0"/>
        <edge id=":1110673511_0" sampledSeconds="63.73" CO_abs="1367.327318" CO2_abs="138249.359841" HC_abs="9.422163" PMx_abs="1.991942" NOx_abs="52.787027" fuel_abs="59.427611" electricity_abs="0"
            CO_normed="1936.952876" CO2_normed="195843.739593" HC_normed="13.347416" PMx_normed="2.821781" NOx_normed="74.777987" fuel_normed="84.185023" electricity_normed="0"
            traveltime="0.02" CO_perVeh="0.524048" CO2_perVeh="52.986021" HC_perVeh="0.003611" PMx_perVeh="0.000763" NOx_perVeh="0.020231" fuel_perVeh="0.022776" electricity_perVeh="0"/>
        <edge id=":1110673517_0" sampledSeconds="181.71" CO_abs="8573.290352" CO2_abs="594166.669257" HC_abs="53.037565" PMx_abs="10.621031" NOx_abs="244.349645" fuel_abs="255.406098" electricity_abs="0"
            CO_normed="12144.904289" CO2_normed="841695.199042" HC_normed="75.132898" PMx_normed="15.045729" NOx_normed="346.145171" fuel_normed="361.807718" electricity_normed="0"
            traveltime="0.03" CO_perVeh="1.312649" CO2_perVeh="90.972323" HC_perVeh="0.008121" PMx_perVeh="0.001626" NOx_perVeh="0.037412" fuel_perVeh="0.039105" electricity_perVeh="0"/>
        <edge id=":1110673534_0" sampledSeconds="658.84" CO_abs="4836.479518" CO2_abs="407293.539106" HC_abs="31.321400" PMx_abs="5.472541" NOx_abs="154.604839" fuel_abs="175.079564" electricity_abs="0"
            CO_normed="132.778028" CO2_normed="11181.611108" HC_normed="0.859880" PMx_normed="0.150240" NOx_normed="4.244436" fuel_normed="4.806537" electricity_normed="0"
            traveltime="1.45" CO_perVeh="10.634699" CO2_perVeh="895.577864" HC_perVeh="0.068871" PMx_perVeh="0.012033" NOx_perVeh="0.339953" fuel_perVeh="0.384974" electricity_perVeh="0"/>
        <edge id=":1110673534_1" sampledSeconds="263.70" CO_abs="3996.644937" CO2_abs="496698.599349" HC_abs="29.558844" PMx_abs="6.815598" NOx_abs="185.549224" fuel_abs="213.509843" electricity_abs="0"
            CO_normed="106.689167" CO2_normed="13259.211279" HC_normed="0.789064" PMx_normed="0.181940" NOx_normed="4.953178" fuel_normed="5.699577" electricity_normed="0"
            traveltime="1.22" CO_perVeh="18.543430" CO2_perVeh="2304.556893" HC_perVeh="0.137146" PMx_perVeh="0.031623" NOx_perVeh="0.860902" fuel_perVeh="0.990632" electricity_perVeh="0"/>
        <edge id=":1110673549_0" sampledSeconds="654.00" CO_abs="1755.786871" CO2_abs="150145.468946" HC_abs="11.430046" PMx_abs="2.145424" NOx_abs="57.378799" fuel_abs="64.541488" electricity_abs="0"
            CO_normed="46.694189" CO2_normed="3993.036451" HC_normed="0.303976" PMx_normed="0.057056" NOx_normed="1.525958" fuel_normed="1.716445" electricity_normed="0"
            traveltime="1.30" CO_perVeh="3.488333" CO2_perVeh="298.303551" HC_perVeh="0.022709" PMx_perVeh="0.004262" NOx_perVeh="0.113998" fuel_perVeh="0.128229" electricity_perVeh="0"/>
        <edge id=":1110673549_1" sampledSeconds="3196.71" CO_abs="69316.437648" CO2_abs="9021375.491337" HC_abs="531.053689" PMx_abs="159.064021" NOx_abs="3377.572438" fuel_abs="3877.876047" electricity_abs="0"
            CO_normed="1783.175182" CO2_normed="232076.163061" HC_normed="13.661431" PMx_normed="4.091944" NOx_normed="86.888530" fuel_normed="99.758911" electricity_normed="0"
            traveltime="0.81" CO_perVeh="17.480876" CO2_perVeh="2275.095893" HC_perVeh="0.133926" PMx_perVeh="0.040114" NOx_perVeh="0.851788" fuel_perVeh="0.977960" electricity_perVeh="0"/>
        <edge id=":1110673556_0" sampledSeconds="467.46" CO_abs="57879.355500" CO2_abs="2780354.065313" HC_abs="329.592896" PMx_abs="56.237261" NOx_abs="1199.615622" fuel_abs="1195.155591" electricity_abs="0"
            CO_normed="1141.416723" CO2_normed="54830.303443" HC_normed="6.499776" PMx_normed="1.109034" NOx_normed="23.657163" fuel_normed="23.569208" electricity_normed="0"
            traveltime="2.76" CO_perVeh="341.193236" CO2_perVeh="16389.919881" HC_perVeh="1.942918" PMx_perVeh="0.331513" NOx_perVeh="7.071619" fuel_perVeh="7.045327" electricity_perVeh="0"/>
        <edge id=":1110673556_2" sampledSeconds="177.85" CO_abs="17984.159180" CO2_abs="764573.374264" HC_abs="99.843226" PMx_abs="14.781331" NOx_abs="326.311459" fuel_abs="328.660200" electricity_abs="0"
            CO_normed="370.834358" CO2_normed="15765.545316" HC_normed="2.058773" PMx_normed="0.304792" NOx_normed="6.728560" fuel_normed="6.776992" electricity_normed="0"
            traveltime="3.08" CO_perVeh="310.971811" CO2_perVeh="13220.566182" HC_perVeh="1.726432" PMx_perVeh="0.255590" NOx_perVeh="5.642391" fuel_perVeh="5.683004" electricity_perVeh="0"/>
        <edge id=":1110673556_3" sampledSeconds="193.61" CO_abs="21193.536259" CO2_abs="729149.601953" HC_abs="113.594913" PMx_abs="14.651974" NOx_abs="315.705342" fuel_abs="313.435419" electricity_abs="0"
            CO_normed="994.129700" CO2_normed="34202.375004" HC_normed="5.328421" PMx_normed="0.687283" NOx_normed="14.808857" fuel_normed="14.702382" electricity_normed="0"
            traveltime="1.87" CO_perVeh="204.469735" CO2_perVeh="7034.646030" HC_perVeh="1.095934" PMx_perVeh="0.141358" NOx_perVeh="3.045843" fuel_perVeh="3.023944" electricity_perVeh="0"/>
        <edge id=":1110673556_4" sampledSeconds="20.90" CO_abs="2296.655370" CO2_abs="96611.932533" HC_abs="12.727704" PMx_abs="1.880257" NOx_abs="41.330414" fuel_abs="41.529692" electricity_abs="0"
            CO_normed="65.814638" CO2_normed="2768.582296" HC_normed="0.364734" PMx_normed="0.053882" NOx_normed="1.184395" fuel_normed="1.190105" electricity_normed="0"
            traveltime="2.26" CO_perVeh="248.499921" CO2_perVeh="10453.487228" HC_perVeh="1.377148" PMx_perVeh="0.203445" NOx_perVeh="4.471983" fuel_perVeh="4.493545" electricity_perVeh="0"/>
        <edge id=":1110673556_5" sampledSeconds="21.83" CO_abs="1323.801577" CO2_abs="60574.936165" HC_abs="7.426140" PMx_abs="1.029474" NOx_abs="24.929351" fuel_abs="26.038927" electricity_abs="0"
            CO_normed="52.874842" CO2_normed="2419.463954" HC_normed="0.296612" PMx_normed="0.041119" NOx_normed="0.995720" fuel_normed="1.040038" electricity_normed="0"
            traveltime="1.51" CO_perVeh="91.522084" CO2_perVeh="4187.896821" HC_perVeh="0.513412" PMx_perVeh="0.071173" NOx_perVeh="1.723511" fuel_perVeh="1.800222" electricity_perVeh="0"/>
        <edge id=":1110673556_6" sampledSeconds="206.81" CO_abs="25278.019367" CO2_abs="1305247.432810" HC_abs="146.179624" PMx_abs="26.390205" NOx_abs="561.910696" fuel_abs="561.068703" electricity_abs="0"
            CO_normed="511.067365" CO2_normed="26389.305148" HC_normed="2.955439" PMx_normed="0.533553" NOx_normed="11.360630" fuel_normed="11.343606" electricity_normed="0"
            traveltime="2.41" CO_perVeh="294.552895" CO2_perVeh="15209.435688" HC_perVeh="1.703363" PMx_perVeh="0.307513" NOx_perVeh="6.547682" fuel_perVeh="6.537870" electricity_perVeh="0"/>
        <edge id=":1110673561_0" sampledSeconds="100.02" CO_abs="10900.347696" CO2_abs="759195.274141" HC_abs="67.964647" PMx_abs="15.655844" NOx_abs="323.574156" fuel_abs="326.341621" electricity_abs="0"
            CO_normed="276.893161" CO2_normed="19285.254484" HC_normed="1.726454" PMx_normed="0.397693" NOx_normed="8.219506" fuel_normed="8.289806" electricity_normed="0"
            traveltime="1.18" CO_perVeh="128.634683" CO2_perVeh="8959.241110" HC_perVeh="0.802049" PMx_perVeh="0.184754" NOx_perVeh="3.818489" fuel_perVeh="3.851148" electricity_perVeh="0"/>
        <edge id=":1110673561_1" sampledSeconds="5187.83" CO_abs="485371.147607" CO2_abs="33651755.242258" HC_abs="3024.352837" PMx_abs="703.006638" NOx_abs="14384.019864" fuel_abs="14465.264720" electricity_abs="0"
            CO_normed="12020.554230" CO2_normed="833409.136121" HC_normed="74.900203" PMx_normed="17.410449" NOx_normed="356.230261" fuel_normed="358.242347" electricity_normed="0"
            traveltime="1.19" CO_perVeh="111.504930" CO2_perVeh="7730.860464" HC_perVeh="0.694788" PMx_perVeh="0.161503" NOx_perVeh="3.304459" fuel_perVeh="3.323124" electricity_perVeh="0"/>
        <edge id=":1110673562_0" sampledSeconds="301.10" CO_abs="6582.035681" CO2_abs="509813.582426" HC_abs="41.583788" PMx_abs="6.845309" NOx_abs="194.333073" fuel_abs="219.149293" electricity_abs="0"
            CO_normed="10360.108103" CO2_normed="802445.334949" HC_normed="65.452781" PMx_normed="10.774500" NOx_normed="305.879783" fuel_normed="344.940452" electricity_normed="0"
            traveltime="0.03" CO_perVeh="0.590023" CO2_perVeh="45.700421" HC_perVeh="0.003728" PMx_perVeh="0.000614" NOx_perVeh="0.017420" fuel_perVeh="0.019645" electricity_perVeh="0"/>
        <edge id=":1110673564_0" sampledSeconds="27.83" CO_abs="489.435147" CO2_abs="55860.711786" HC_abs="3.511378" PMx_abs="0.793836" NOx_abs="21.119973" fuel_abs="24.012156" electricity_abs="0"
            CO_normed="2079.998262" CO2_normed="237396.484985" HC_normed="14.922633" PMx_normed="3.373639" NOx_normed="89.755521" fuel_normed="102.046703" electricity_normed="0"
            traveltime="7.861434e-03" CO_perVeh="0.138239" CO2_perVeh="15.777634" HC_perVeh="0.000992" PMx_perVeh="0.000224" NOx_perVeh="0.005965" fuel_perVeh="0.006782" electricity_perVeh="0"/>
        <edge id=":1110673588_0" sampledSeconds="63.23" CO_abs="1126.402513" CO2_abs="116425.208610" HC_abs="7.801983" PMx_abs="1.631942" NOx_abs="44.163236" fuel_abs="50.046368" electricity_abs="0"
            CO_normed="1914.791192" CO2_normed="197913.233854" HC_normed="13.262726" PMx_normed="2.774166" NOx_normed="75.073852" fuel_normed="85.074690" electricity_normed="0"
            traveltime="0.02" CO_perVeh="0.363356" CO2_perVeh="37.556519" HC_perVeh="0.002517" PMx_perVeh="0.000526" NOx_perVeh="0.014246" fuel_perVeh="0.016144" electricity_perVeh="0"/>
        <edge id=":1110673601_0" sampledSeconds="29.04" CO_abs="521.739284" CO2_abs="57573.891439" HC_abs="3.701621" PMx_abs="0.811524" NOx_abs="21.761316" fuel_abs="24.748602" electricity_abs="0"
            CO_normed="791.887204" CO2_normed="87384.694496" HC_normed="5.618259" PMx_normed="1.231718" NOx_normed="33.028964" fuel_normed="37.563016" electricity_normed="0"
            traveltime="0.02" CO_perVeh="0.397851" CO2_perVeh="43.902863" HC_perVeh="0.002823" PMx_perVeh="0.000619" NOx_perVeh="0.016594" fuel_perVeh="0.018872" electricity_perVeh="0"/>
        <edge id=":1110673617_0" sampledSeconds="853.41" CO_abs="32472.711938" CO2_abs="3267986.699377" HC_abs="226.110339" PMx_abs="61.755737" NOx_abs="1283.637375" fuel_abs="1404.754302" electricity_abs="0"
            CO_normed="46000.772430" CO2_normed="4629422.782733" HC_normed="320.307410" PMx_normed="87.483041" NOx_normed="1818.397887" fuel_normed="1989.971860" electricity_normed="0"
            traveltime="0.02" CO_perVeh="0.575390" CO2_perVeh="57.906033" HC_perVeh="0.004006" PMx_perVeh="0.001094" NOx_perVeh="0.022745" fuel_perVeh="0.024891" electricity_perVeh="0"/>
        <edge id=":1110673621_0" sampledSeconds="26.16" CO_abs="710.488018" CO2_abs="62149.831297" HC_abs="4.693846" PMx_abs="1.024841" NOx_abs="24.691631" fuel_abs="26.715482" electricity_abs="0"
            CO_normed="1207.770919" CO2_normed="105649.577461" HC_normed="7.979150" PMx_normed="1.742145" NOx_normed="41.973732" fuel_normed="45.414111" electricity_normed="0"
            traveltime="0.02" CO_perVeh="0.538248" CO2_perVeh="47.083206" HC_perVeh="0.003556" PMx_perVeh="0.000776" NOx_perVeh="0.018706" fuel_perVeh="0.020239" electricity_perVeh="0"/>
        <edge id=":1110673630_0" sampledSeconds="286.03" CO_abs="1452.182398" CO2_abs="128968.401419" HC_abs="9.551546" PMx_abs="1.683463" NOx_abs="48.571916" fuel_abs="55.438486" electricity_abs="0"
            CO_normed="44.019081" CO2_normed="3909.337110" HC_normed="0.289530" PMx_normed="0.051030" NOx_normed="1.472330" fuel_normed="1.680472" electricity_normed="0"
            traveltime="1.29" CO_perVeh="6.534266" CO2_perVeh="580.308551" HC_perVeh="0.042978" PMx_perVeh="0.007575" NOx_perVeh="0.218555" fuel_perVeh="0.249452" electricity_perVeh="0"/>
        <edge id=":1110673630_1" sampledSeconds="335.94" CO_abs="1153.159710" CO2_abs="94412.792055" HC_abs="7.409577" PMx_abs="1.294299" NOx_abs="36.095018" fuel_abs="40.584346" electricity_abs="0"
            CO_normed="42.614700" CO2_normed="3488.998798" HC_normed="0.273819" PMx_normed="0.047830" NOx_normed="1.333881" fuel_normed="1.499783" electricity_normed="0"
            traveltime="1.07" CO_perVeh="3.676046" CO2_perVeh="300.969399" HC_perVeh="0.023620" PMx_perVeh="0.004126" NOx_perVeh="0.115064" fuel_perVeh="0.129375" electricity_perVeh="0"/>
        <edge id=":1110673650_0" sampledSeconds="200.11" CO_abs="2954.075258" CO2_abs="379165.901666" HC_abs="22.113685" PMx_abs="5.094960" NOx_abs="140.906936" fuel_abs="162.987565" electricity_abs="0"
            CO_normed="4184.736524" CO2_normed="537125.583755" HC_normed="31.326197" PMx_normed="7.217509" NOx_normed="199.608456" fuel_normed="230.887827" electricity_normed="0"
            traveltime="0.02" CO_perVeh="0.341419" CO2_perVeh="43.822387" HC_perVeh="0.002556" PMx_perVeh="0.000589" NOx_perVeh="0.016285" fuel_perVeh="0.018837" electricity_perVeh="0"/>
        <edge id=":1110673655_0" sampledSeconds="20.78" CO_abs="295.649241" CO2_abs="37788.383963" HC_abs="2.189488" PMx_abs="0.496892" NOx_abs="13.975167" fuel_abs="16.243660" electricity_abs="0"
            CO_normed="418.816065" CO2_normed="53530.941750" HC_normed="3.101623" PMx_normed="0.703896" NOx_normed="19.797191" fuel_normed="23.010733" electricity_normed="0"
            traveltime="0.02" CO_perVeh="0.337756" CO2_perVeh="43.170279" HC_perVeh="0.002501" PMx_perVeh="0.000568" NOx_perVeh="0.015966" fuel_perVeh="0.018557" electricity_perVeh="0"/>
        <edge id=":1110673663_0" sampledSeconds="111.24" CO_abs="1988.956092" CO2_abs="213569.083346" HC_abs="13.896129" PMx_abs="3.077381" NOx_abs="81.242920" fuel_abs="91.804312" electricity_abs="0"
            CO_normed="51.603495" CO2_normed="5541.053013" HC_normed="0.360535" PMx_normed="0.079843" NOx_normed="2.107849" fuel_normed="2.381864" electricity_normed="0"
            traveltime="1.31" CO_perVeh="23.361228" CO2_perVeh="2508.469636" HC_perVeh="0.163217" PMx_perVeh="0.036145" NOx_perVeh="0.954236" fuel_perVeh="1.078285" electricity_perVeh="0"/>
        <edge id=":1110673663_1" sampledSeconds="169.40" CO_abs="2656.263367" CO2_abs="323165.882747" HC_abs="19.490582" PMx_abs="4.422287" NOx_abs="120.857642" fuel_abs="138.915471" electricity_abs="0"
            CO_normed="69.001043" CO2_normed="8394.793641" HC_normed="0.506302" PMx_normed="0.114877" NOx_normed="3.139487" fuel_normed="3.608570" electricity_normed="0"
            traveltime="1.27" CO_perVeh="19.876688" CO2_perVeh="2418.234355" HC_perVeh="0.145847" PMx_perVeh="0.033092" NOx_perVeh="0.904372" fuel_perVeh="1.039498" electricity_perVeh="0"/>
        <edge id=":1110673666_0" sampledSeconds="274.37" CO_abs="6587.374583" CO2_abs="527265.682889" HC_abs="42.039953" PMx_abs="7.198214" NOx_abs="201.439042" fuel_abs="226.650944" electricity_abs="0"