<?xml version="1.0" encoding="UTF-8"?>

<!-- generated on Tue Nov 10 11:34:32 2020 by Eclipse SUMO sumo Version 1.7.0
<configuration xmlns:xsi="http://www.w3.org/2001/XMLSchema-instance" xsi:noNamespaceSchemaLocation="http://sumo.dlr.de/xsd/sumoConfiguration.xsd">

    <input>
        <net-file value="../dataSets/Porto/8AM9AM_Routing_SaoBento/Porto.net.xml"/>
        <route-files value="../results/Porto/8AM9AM_Routing_SaoBento/inputdata/cost_PMx-length/solution1/Porto.rou.xml"/>
        <additional-files value="moreOutputInfo.xml"/>
    </input>

    <output>
        <emission-output.precision value="6"/>
        <tripinfo-output value="../results/Porto/8AM9AM_Routing_SaoBento/inputdata/cost_PMx-length/solution1/Porto-tripinfo"/>
    </output>

    <processing>
        <collision.action value="warn"/>
        <time-to-teleport value="-1"/>
    </processing>

    <emissions>
        <device.emissions.probability value="1"/>
    </emissions>

    <gui_only>
        <quit-on-end value="true"/>
        <start value="true"/>
    </gui_only>

</configuration>
-->

<meandata xmlns:xsi="http://www.w3.org/2001/XMLSchema-instance" xsi:noNamespaceSchemaLocation="http://sumo.dlr.de/xsd/meandata_file.xsd">
    <interval begin="0.00" end="8561.00" id="emissions-detector">
        <edge id=":1092997347_0" sampledSeconds="622.33" CO_abs="74864.370499" CO2_abs="3214560.121313" HC_abs="416.910286" PMx_abs="64.825406" NOx_abs="1389.447411" fuel_abs="1381.808956" electricity_abs="0"
            CO_normed="71548.495236" CO2_normed="3072181.573076" HC_normed="398.444593" PMx_normed="61.954175" NOx_normed="1327.906330" fuel_normed="1320.606196" electricity_normed="0"
            traveltime="0.07" CO_perVeh="8.139724" CO2_perVeh="349.507141" HC_perVeh="0.045329" PMx_perVeh="0.007048" NOx_perVeh="0.151069" fuel_perVeh="0.150239" electricity_perVeh="0"/>
        <edge id=":1103427051_0" sampledSeconds="19.39" CO_abs="1548.924128" CO2_abs="87518.859249" HC_abs="9.126619" PMx_abs="1.693651" NOx_abs="37.183174" fuel_abs="37.620516" electricity_abs="0"
            CO_normed="2246.002062" CO2_normed="126905.853448" HC_normed="13.233963" PMx_normed="2.455862" NOx_normed="53.917093" fuel_normed="54.551256" electricity_normed="0"
            traveltime="0.03" CO_perVeh="2.408773" CO2_perVeh="136.102902" HC_perVeh="0.014193" PMx_perVeh="0.002634" NOx_perVeh="0.057825" fuel_perVeh="0.058505" electricity_perVeh="0"/>
        <edge id=":1105984386_0" sampledSeconds="39.58" CO_abs="994.940347" CO2_abs="73919.254838" HC_abs="6.214684" PMx_abs="1.006190" NOx_abs="28.324715" fuel_abs="31.775058" electricity_abs="0"
            CO_normed="43.087948" CO2_normed="3201.226136" HC_normed="0.269140" PMx_normed="0.043575" NOx_normed="1.226660" fuel_normed="1.376085" electricity_normed="0"
            traveltime="0.98" CO_perVeh="24.744815" CO2_perVeh="1838.420072" HC_perVeh="0.154563" PMx_perVeh="0.025025" NOx_perVeh="0.704454" fuel_perVeh="0.790266" electricity_perVeh="0"/>
        <edge id=":1105984390_0" sampledSeconds="39.60" CO_abs="53.644388" CO2_abs="6536.474973" HC_abs="0.392384" PMx_abs="0.075417" NOx_abs="2.367533" fuel_abs="2.809777" electricity_abs="0"
            CO_normed="1.796026" CO2_normed="218.842651" HC_normed="0.013137" PMx_normed="0.002525" NOx_normed="0.079266" fuel_normed="0.094072" electricity_normed="0"
            traveltime="1.06" CO_perVeh="1.441628" CO2_perVeh="175.659811" HC_perVeh="0.010545" PMx_perVeh="0.002027" NOx_perVeh="0.063625" fuel_perVeh="0.075509" electricity_perVeh="0"/>
        <edge id=":1105984390_1" sampledSeconds="2395.42" CO_abs="61533.689807" CO2_abs="7398593.470501" HC_abs="457.026932" PMx_abs="133.209877" NOx_abs="2809.768682" fuel_abs="3180.313926" electricity_abs="0"
            CO_normed="1970.725951" CO2_normed="236953.125994" HC_normed="14.637101" PMx_normed="4.266283" NOx_normed="89.987844" fuel_normed="101.855215" electricity_normed="0"
            traveltime="0.65" CO_perVeh="16.617603" CO2_perVeh="1998.041896" HC_perVeh="0.123423" PMx_perVeh="0.035974" NOx_perVeh="0.758798" fuel_perVeh="0.858866" electricity_perVeh="0"/>
        <edge id=":1105984395_0" sampledSeconds="15.41" CO_abs="464.499859" CO2_abs="34718.250310" HC_abs="2.904192" PMx_abs="0.461799" NOx_abs="13.230814" fuel_abs="14.924061" electricity_abs="0"
            CO_normed="212.312597" CO2_normed="15868.943225" HC_normed="1.327442" PMx_normed="0.211078" NOx_normed="6.047512" fuel_normed="6.821458" electricity_normed="0"
            traveltime="0.09" CO_perVeh="2.791429" CO2_perVeh="208.640605" HC_perVeh="0.017453" PMx_perVeh="0.002775" NOx_perVeh="0.079511" fuel_perVeh="0.089687" electricity_perVeh="0"/>
        <edge id=":1105984398_0" sampledSeconds="40.01" CO_abs="2591.219726" CO2_abs="178496.914252" HC_abs="15.995712" PMx_abs="3.142188" NOx_abs="73.139001" fuel_abs="76.728050" electricity_abs="0"
            CO_normed="90.127213" CO2_normed="6208.438959" HC_normed="0.556359" PMx_normed="0.109291" NOx_normed="2.543904" fuel_normed="2.668738" electricity_normed="0"
            traveltime="1.13" CO_perVeh="72.876858" CO2_perVeh="5020.143263" HC_perVeh="0.449872" PMx_perVeh="0.088373" NOx_perVeh="2.057001" fuel_perVeh="2.157941" electricity_perVeh="0"/>
        <edge id=":1105984398_1" sampledSeconds="644.12" CO_abs="10767.940234" CO2_abs="1274545.248914" HC_abs="78.368255" PMx_abs="18.151361" NOx_abs="481.083720" fuel_abs="547.872782" electricity_abs="0"
            CO_normed="362.533548" CO2_normed="42911.216216" HC_normed="2.638492" PMx_normed="0.611118" NOx_normed="16.197061" fuel_normed="18.445706" electricity_normed="0"
            traveltime="0.95" CO_perVeh="15.959879" CO2_perVeh="1889.088070" HC_perVeh="0.116155" PMx_perVeh="0.026903" NOx_perVeh="0.713046" fuel_perVeh="0.812039" electricity_perVeh="0"/>
        <edge id=":1106006327_0" sampledSeconds="68.80" CO_abs="9192.061253" CO2_abs="293183.211998" HC_abs="48.747597" PMx_abs="6.095893" NOx_abs="128.207578" fuel_abs="126.029278" electricity_abs="0"
            CO_normed="436.271850" CO2_normed="13915.005436" HC_normed="2.313649" PMx_normed="0.289322" NOx_normed="6.084963" fuel_normed="5.981577" electricity_normed="0"
            traveltime="2.13" CO_perVeh="284.950361" CO2_perVeh="9088.566734" HC_perVeh="1.511157" PMx_perVeh="0.188970" NOx_perVeh="3.974386" fuel_perVeh="3.906859" electricity_perVeh="0"/>
        <edge id=":1106006327_1" sampledSeconds="683.55" CO_abs="92439.165650" CO2_abs="3086094.540013" HC_abs="493.637738" PMx_abs="64.364299" NOx_abs="1350.537816" fuel_abs="1326.600863" electricity_abs="0"
            CO_normed="3825.959009" CO2_normed="127730.179343" HC_normed="20.431142" PMx_normed="2.663970" NOx_normed="55.897328" fuel_normed="54.906602" electricity_normed="0"
            traveltime="2.29" CO_perVeh="310.295904" CO2_perVeh="10359.272392" HC_perVeh="1.657022" PMx_perVeh="0.216055" NOx_perVeh="4.533429" fuel_perVeh="4.453078" electricity_perVeh="0"/>
        <edge id=":1106006327_2" sampledSeconds="0.00" CO_abs="0" CO2_abs="0" HC_abs="0" PMx_abs="0" NOx_abs="0" fuel_abs="0" electricity_abs="0"
            CO_normed="0" CO2_normed="0" HC_normed="0" PMx_normed="0" NOx_normed="0" fuel_normed="0" electricity_normed="0"/>
        <edge id=":1106006327_3" sampledSeconds="0.00" CO_abs="0" CO2_abs="0" HC_abs="0" PMx_abs="0" NOx_abs="0" fuel_abs="0" electricity_abs="0"
            CO_normed="0" CO2_normed="0" HC_normed="0" PMx_normed="0" NOx_normed="0" fuel_normed="0" electricity_normed="0"/>
        <edge id=":1107381198_0" sampledSeconds="0.00" CO_abs="0" CO2_abs="0" HC_abs="0" PMx_abs="0" NOx_abs="0" fuel_abs="0" electricity_abs="0"
            CO_normed="0" CO2_normed="0" HC_normed="0" PMx_normed="0" NOx_normed="0" fuel_normed="0" electricity_normed="0"/>
        <edge id=":1107381198_1" sampledSeconds="105.59" CO_abs="4893.228001" CO2_abs="192769.699068" HC_abs="26.732726" PMx_abs="3.409621" NOx_abs="80.400871" fuel_abs="82.864930" electricity_abs="0"
            CO_normed="224.390321" CO2_normed="8839.901736" HC_normed="1.225891" PMx_normed="0.156356" NOx_normed="3.686968" fuel_normed="3.799964" electricity_normed="0"
            traveltime="1.58" CO_perVeh="73.261006" CO2_perVeh="2886.132021" HC_perVeh="0.400240" PMx_perVeh="0.051049" NOx_perVeh="1.203755" fuel_perVeh="1.240647" electricity_perVeh="0"/>
        <edge id=":1110338277_0" sampledSeconds="160.47" CO_abs="2881.191607" CO2_abs="326537.763833" HC_abs="20.572844" PMx_abs="4.672611" NOx_abs="123.688106" fuel_abs="140.364723" electricity_abs="0"
            CO_normed="4327.051991" CO2_normed="490403.303102" HC_normed="30.896857" PMx_normed="7.017455" NOx_normed="185.758165" fuel_normed="210.803562" electricity_normed="0"
            traveltime="0.02" CO_perVeh="0.390230" CO2_perVeh="44.226405" HC_perVeh="0.002786" PMx_perVeh="0.000633" NOx_perVeh="0.016752" fuel_perVeh="0.019011" electricity_perVeh="0"/>
        <edge id=":1110338293_0" sampledSeconds="6602.36" CO_abs="615166.287995" CO2_abs="10763460.911247" HC_abs="3052.818533" PMx_abs="256.571386" NOx_abs="4863.923807" fuel_abs="4627.031166" electricity_abs="0"
            CO_normed="862281.912854" CO2_normed="15087201.370747" HC_normed="4279.152249" PMx_normed="359.637499" NOx_normed="6817.788306" fuel_normed="6485.734609" electricity_normed="0"
            traveltime="0.44" CO_perVeh="41.219087" CO2_perVeh="721.203428" HC_perVeh="0.204553" PMx_perVeh="0.017192" NOx_perVeh="0.325906" fuel_perVeh="0.310033" electricity_perVeh="0"/>
        <edge id=":1110338295_0" sampledSeconds="0.00" CO_abs="0" CO2_abs="0" HC_abs="0" PMx_abs="0" NOx_abs="0" fuel_abs="0" electricity_abs="0"
            CO_normed="0" CO2_normed="0" HC_normed="0" PMx_normed="0" NOx_normed="0" fuel_normed="0" electricity_normed="0"/>
        <edge id=":1110673403_0" sampledSeconds="208.81" CO_abs="3570.888544" CO2_abs="423973.949668" HC_abs="25.949796" PMx_abs="5.951214" NOx_abs="159.530783" fuel_abs="182.248472" electricity_abs="0"
            CO_normed="5005.333785" CO2_normed="594286.578205" HC_normed="36.373970" PMx_normed="8.341850" NOx_normed="223.615161" fuel_normed="255.458668" electricity_normed="0"
            traveltime="0.02" CO_perVeh="0.397251" CO2_perVeh="47.165864" HC_perVeh="0.002887" PMx_perVeh="0.000662" NOx_perVeh="0.017747" fuel_perVeh="0.020275" electricity_perVeh="0"/>
        <edge id=":1110673412_0" sampledSeconds="938.97" CO_abs="167425.697349" CO2_abs="11425032.142699" HC_abs="1041.948243" PMx_abs="251.151243" NOx_abs="4909.934402" fuel_abs="4911.058507" electricity_abs="0"
            CO_normed="242773.971159" CO2_normed="16566754.493601" HC_normed="1510.866710" PMx_normed="364.179368" NOx_normed="7119.601661" fuel_normed="7121.231657" electricity_normed="0"
            traveltime="0.02" CO_perVeh="2.764372" CO2_perVeh="188.639162" HC_perVeh="0.017204" PMx_perVeh="0.004147" NOx_perVeh="0.081068" fuel_perVeh="0.081087" electricity_perVeh="0"/>
        <edge id=":1110673414_0" sampledSeconds="0.00" CO_abs="0" CO2_abs="0" HC_abs="0" PMx_abs="0" NOx_abs="0" fuel_abs="0" electricity_abs="0"
            CO_normed="0" CO2_normed="0" HC_normed="0" PMx_normed="0" NOx_normed="0" fuel_normed="0" electricity_normed="0"/>
        <edge id=":1110673414_1" sampledSeconds="391.78" CO_abs="26716.586147" CO2_abs="1047199.169323" HC_abs="145.990533" PMx_abs="19.348775" NOx_abs="442.144700" fuel_abs="450.153027" electricity_abs="0"
            CO_normed="1244.145624" CO2_normed="48766.270404" HC_normed="6.798529" PMx_normed="0.901039" NOx_normed="20.589921" fuel_normed="20.962855" electricity_normed="0"
            traveltime="1.56" CO_perVeh="106.104927" CO2_perVeh="4158.951708" HC_perVeh="0.579801" PMx_perVeh="0.076844" NOx_perVeh="1.755978" fuel_perVeh="1.787783" electricity_perVeh="0"/>
        <edge id=":1110673417_0" sampledSeconds="29.39" CO_abs="450.379744" CO2_abs="52583.085331" HC_abs="3.255671" PMx_abs="0.706918" NOx_abs="19.630426" fuel_abs="22.603296" electricity_abs="0"
            CO_normed="676.392560" CO2_normed="78970.709026" HC_normed="4.889455" PMx_normed="1.061669" NOx_normed="29.481508" fuel_normed="33.946245" electricity_normed="0"
            traveltime="0.02" CO_perVeh="0.343436" CO2_perVeh="40.097127" HC_perVeh="0.002483" PMx_perVeh="0.000539" NOx_perVeh="0.014969" fuel_perVeh="0.017236" electricity_perVeh="0"/>
        <edge id=":1110673446_0" sampledSeconds="1311.35" CO_abs="13345.669292" CO2_abs="1079185.052901" HC_abs="86.291650" PMx_abs="19.743227" NOx_abs="441.168254" fuel_abs="463.892110" electricity_abs="0"
            CO_normed="18706.696824" CO2_normed="1512699.525151" HC_normed="120.955472" PMx_normed="27.674189" NOx_normed="618.387927" fuel_normed="650.240079" electricity_normed="0"
            traveltime="0.02" CO_perVeh="0.231746" CO2_perVeh="18.739899" HC_perVeh="0.001498" PMx_perVeh="0.000343" NOx_perVeh="0.007661" fuel_perVeh="0.008055" electricity_perVeh="0"/>
        <edge id=":1110673451_0" sampledSeconds="36.48" CO_abs="448.682892" CO2_abs="30992.185951" HC_abs="2.755997" PMx_abs="0.464687" NOx_abs="12.187055" fuel_abs="13.322312" electricity_abs="0"
            CO_normed="698.801374" CO2_normed="48268.794068" HC_normed="4.292328" PMx_normed="0.723726" NOx_normed="18.980735" fuel_normed="20.748842" electricity_normed="0"
            traveltime="0.03" CO_perVeh="0.330580" CO2_perVeh="22.834389" HC_perVeh="0.002031" PMx_perVeh="0.000342" NOx_perVeh="0.008979" fuel_perVeh="0.009816" electricity_perVeh="0"/>
        <edge id=":1110673464_0" sampledSeconds="1033.14" CO_abs="3653.886537" CO2_abs="267018.072632" HC_abs="22.742690" PMx_abs="3.746822" NOx_abs="102.975788" fuel_abs="114.780736" electricity_abs="0"
            CO_normed="108.817405" CO2_normed="7952.139019" HC_normed="0.677306" PMx_normed="0.111585" NOx_normed="3.066750" fuel_normed="3.418317" electricity_normed="0"
            traveltime="1.23" CO_perVeh="4.333003" CO2_perVeh="316.646403" HC_perVeh="0.026970" PMx_perVeh="0.004443" NOx_perVeh="0.122115" fuel_perVeh="0.136114" electricity_perVeh="0"/>
        <edge id=":1110673464_1" sampledSeconds="2620.32" CO_abs="62648.070695" CO2_abs="7567108.294749" HC_abs="465.980745" PMx_abs="135.748176" NOx_abs="2873.436743" fuel_abs="3252.750882" electricity_abs="0"
            CO_normed="1828.191662" CO2_normed="220822.830428" HC_normed="13.598218" PMx_normed="3.961394" NOx_normed="83.852432" fuel_normed="94.921551" electricity_normed="0"
            traveltime="0.72" CO_perVeh="17.153999" CO2_perVeh="2071.989815" HC_perVeh="0.127593" PMx_perVeh="0.037170" NOx_perVeh="0.786791" fuel_perVeh="0.890653" electricity_perVeh="0"/>
        <edge id=":1110673479_0" sampledSeconds="135.12" CO_abs="6479.663514" CO2_abs="441033.113474" HC_abs="39.871114" PMx_abs="7.765392" NOx_abs="180.789406" fuel_abs="189.580985" electricity_abs="0"
            CO_normed="9082.579391" CO2_normed="618198.500373" HC_normed="55.887556" PMx_normed="10.884792" NOx_normed="253.413488" fuel_normed="265.736692" electricity_normed="0"
            traveltime="0.03" CO_perVeh="1.369859" CO2_perVeh="93.238388" HC_perVeh="0.008429" PMx_perVeh="0.001642" NOx_perVeh="0.038221" fuel_perVeh="0.040079" electricity_perVeh="0"/>
        <edge id=":1110673511_0" sampledSeconds="63.35" CO_abs="1106.092128" CO2_abs="128977.299566" HC_abs="7.980940" PMx_abs="1.683093" NOx_abs="47.890495" fuel_abs="55.442084" electricity_abs="0"
            CO_normed="1550.415317" CO2_normed="180788.178343" HC_normed="11.186927" PMx_normed="2.359201" NOx_normed="67.128366" fuel_normed="77.713469" electricity_normed="0"
            traveltime="0.02" CO_perVeh="0.423925" CO2_perVeh="49.432373" HC_perVeh="0.003059" PMx_perVeh="0.000645" NOx_perVeh="0.018355" fuel_perVeh="0.021249" electricity_perVeh="0"/>
        <edge id=":1110673517_0" sampledSeconds="182.26" CO_abs="8068.524678" CO2_abs="577905.753197" HC_abs="50.291566" PMx_abs="9.902373" NOx_abs="234.583671" fuel_abs="248.416702" electricity_abs="0"
            CO_normed="11309.694677" CO2_normed="810053.619713" HC_normed="70.493960" PMx_normed="13.880210" NOx_normed="328.817201" fuel_normed="348.207035" electricity_normed="0"
            traveltime="0.03" CO_perVeh="1.235356" CO2_perVeh="88.482049" HC_perVeh="0.007700" PMx_perVeh="0.001516" NOx_perVeh="0.035917" fuel_perVeh="0.038035" electricity_perVeh="0"/>
        <edge id=":1110673534_0" sampledSeconds="660.48" CO_abs="4744.694052" CO2_abs="381029.580990" HC_abs="30.334022" PMx_abs="5.325486" NOx_abs="146.313434" fuel_abs="163.789553" electricity_abs="0"
            CO_normed="128.888824" CO2_normed="10350.605124" HC_normed="0.824019" PMx_normed="0.144666" NOx_normed="3.974580" fuel_normed="4.449316" electricity_normed="0"
            traveltime="1.45" CO_perVeh="10.432876" CO2_perVeh="837.827330" HC_perVeh="0.066700" PMx_perVeh="0.011710" NOx_perVeh="0.321721" fuel_perVeh="0.360149" electricity_perVeh="0"/>
        <edge id=":1110673534_1" sampledSeconds="297.55" CO_abs="4906.245514" CO2_abs="574037.700690" HC_abs="35.500636" PMx_abs="8.046199" NOx_abs="216.158356" fuel_abs="246.754595" electricity_abs="0"
            CO_normed="129.593798" CO2_normed="15162.658598" HC_normed="0.937715" PMx_normed="0.212533" NOx_normed="5.709617" fuel_normed="6.517787" electricity_normed="0"
            traveltime="1.23" CO_perVeh="20.316033" CO2_perVeh="2377.004800" HC_perVeh="0.147003" PMx_perVeh="0.033318" NOx_perVeh="0.895080" fuel_perVeh="1.021774" electricity_perVeh="0"/>
        <edge id=":1110673549_0" sampledSeconds="648.59" CO_abs="1273.412060" CO2_abs="117895.137126" HC_abs="8.454405" PMx_abs="1.739286" NOx_abs="45.173761" fuel_abs="50.678209" electricity_abs="0"
            CO_normed="33.509673" CO2_normed="3102.395206" HC_normed="0.222477" PMx_normed="0.045769" NOx_normed="1.188742" fuel_normed="1.333590" electricity_normed="0"
            traveltime="1.29" CO_perVeh="2.529966" CO2_perVeh="234.229526" HC_perVeh="0.016797" PMx_perVeh="0.003456" NOx_perVeh="0.089749" fuel_perVeh="0.100686" electricity_perVeh="0"/>
        <edge id=":1110673549_1" sampledSeconds="3194.58" CO_abs="70454.127017" CO2_abs="9228526.907389" HC_abs="540.898748" PMx_abs="162.334481" NOx_abs="3451.038869" fuel_abs="3966.921269" electricity_abs="0"
            CO_normed="1793.388575" CO2_normed="234909.371845" HC_normed="13.768415" PMx_normed="4.132175" NOx_normed="87.845155" fuel_normed="100.976786" electricity_normed="0"
            traveltime="0.81" CO_perVeh="17.771197" CO2_perVeh="2327.783710" HC_perVeh="0.136435" PMx_perVeh="0.040947" NOx_perVeh="0.870483" fuel_perVeh="1.000608" electricity_perVeh="0"/>
        <edge id=":1110673556_0" sampledSeconds="468.55" CO_abs="58290.075672" CO2_abs="2790324.041051" HC_abs="331.724737" PMx_abs="56.594280" NOx_abs="1204.850943" fuel_abs="1199.441202" electricity_abs="0"
            CO_normed="1137.431754" CO2_normed="54448.431078" HC_normed="6.473044" PMx_normed="1.104341" NOx_normed="23.510618" fuel_normed="23.405056" electricity_normed="0"
            traveltime="2.76" CO_perVeh="343.614391" CO2_perVeh="16448.691929" HC_perVeh="1.955485" PMx_perVeh="0.333618" NOx_perVeh="7.102480" fuel_perVeh="7.070591" electricity_perVeh="0"/>
        <edge id=":1110673556_2" sampledSeconds="175.50" CO_abs="17140.282337" CO2_abs="732211.581745" HC_abs="95.282223" PMx_abs="14.357002" NOx_abs="313.795166" fuel_abs="314.748752" electricity_abs="0"
            CO_normed="349.717998" CO2_normed="14939.518692" HC_normed="1.944070" PMx_normed="0.292930" NOx_normed="6.402451" fuel_normed="6.421907" electricity_normed="0"
            traveltime="3.03" CO_perVeh="296.379974" CO2_perVeh="12660.984546" HC_perVeh="1.647566" PMx_perVeh="0.248253" NOx_perVeh="5.425967" fuel_perVeh="5.442456" electricity_perVeh="0"/>
        <edge id=":1110673556_3" sampledSeconds="194.26" CO_abs="21733.163923" CO2_abs="749737.146216" HC_abs="116.536234" PMx_abs="15.062781" NOx_abs="324.577718" fuel_abs="322.285227" electricity_abs="0"
            CO_normed="1008.724947" CO2_normed="34798.364656" HC_normed="5.408923" PMx_normed="0.699125" NOx_normed="15.064978" fuel_normed="14.958574" electricity_normed="0"
            traveltime="1.87" CO_perVeh="209.675922" CO2_perVeh="7233.269311" HC_perVeh="1.124311" PMx_perVeh="0.145322" NOx_perVeh="3.131442" fuel_perVeh="3.109324" electricity_perVeh="0"/>
        <edge id=":1110673556_4" sampledSeconds="22.00" CO_abs="2097.143910" CO2_abs="83800.360585" HC_abs="11.521578" PMx_abs="1.668415" NOx_abs="36.135958" fuel_abs="36.022526" electricity_abs="0"
            CO_normed="59.465502" CO2_normed="2376.198624" HC_normed="0.326700" PMx_normed="0.047309" NOx_normed="1.024652" fuel_normed="1.021436" electricity_normed="0"
            traveltime="2.38" CO_perVeh="226.912624" CO2_perVeh="9067.265048" HC_perVeh="1.246644" PMx_perVeh="0.180524" NOx_perVeh="3.909939" fuel_perVeh="3.897666" electricity_perVeh="0"/>
        <edge id=":1110673556_5" sampledSeconds="23.44" CO_abs="1331.003636" CO2_abs="55784.756048" HC_abs="7.354818" PMx_abs="1.001671" NOx_abs="23.335312" fuel_abs="23.979817" electricity_abs="0"
            CO_normed="52.603618" CO2_normed="2204.712244" HC_normed="0.290675" PMx_normed="0.039588" NOx_normed="0.922253" fuel_normed="0.947725" electricity_normed="0"
            traveltime="1.62" CO_perVeh="92.020004" CO2_perVeh="3856.723875" HC_perVeh="0.508481" PMx_perVeh="0.069251" NOx_perVeh="1.613305" fuel_perVeh="1.657864" electricity_perVeh="0"/>
        <edge id=":1110673556_6" sampledSeconds="214.85" CO_abs="25644.565931" CO2_abs="1296074.041649" HC_abs="147.572880" PMx_abs="26.031625" NOx_abs="557.330141" fuel_abs="557.126144" electricity_abs="0"
            CO_normed="513.027499" CO2_normed="25928.363373" HC_normed="2.952241" PMx_normed="0.520771" NOx_normed="11.149562" fuel_normed="11.145481" electricity_normed="0"
            traveltime="2.50" CO_perVeh="298.824090" CO2_perVeh="15102.542467" HC_perVeh="1.719598" PMx_perVeh="0.303334" NOx_perVeh="6.494307" fuel_perVeh="6.491929" electricity_perVeh="0"/>
        <edge id=":1110673561_0" sampledSeconds="100.24" CO_abs="10257.749620" CO2_abs="725141.035832" HC_abs="64.156291" PMx_abs="14.797930" NOx_abs="307.795270" fuel_abs="311.703464" electricity_abs="0"
            CO_normed="257.830421" CO2_normed="18226.553108" HC_normed="1.612580" PMx_normed="0.371949" NOx_normed="7.736491" fuel_normed="7.834724" electricity_normed="0"
            traveltime="1.18" CO_perVeh="121.051402" CO2_perVeh="8557.368045" HC_perVeh="0.757107" PMx_perVeh="0.174630" NOx_perVeh="3.632283" fuel_perVeh="3.678403" electricity_perVeh="0"/>
        <edge id=":1110673561_1" sampledSeconds="5186.66" CO_abs="480616.560124" CO2_abs="33311569.901499" HC_abs="2994.308825" PMx_abs="695.998551" NOx_abs="14239.637371" fuel_abs="14319.035374" electricity_abs="0"
            CO_normed="11777.671881" CO2_normed="816311.323219" HC_normed="73.376554" PMx_normed="17.055681" NOx_normed="348.947145" fuel_normed="350.892820" electricity_normed="0"
            traveltime="1.19" CO_perVeh="110.436816" CO2_perVeh="7654.383996" HC_perVeh="0.688037" PMx_perVeh="0.159928" NOx_perVeh="3.272006" fuel_perVeh="3.290250" electricity_perVeh="0"/>
        <edge id=":1110673562_0" sampledSeconds="302.25" CO_abs="6474.673646" CO2_abs="494970.964437" HC_abs="40.772628" PMx_abs="6.750698" NOx_abs="189.472303" fuel_abs="212.768920" electricity_abs="0"
            CO_normed="10083.983407" CO2_normed="770892.753084" HC_normed="63.501348" PMx_normed="10.513877" NOx_normed="295.093724" fuel_normed="331.377052" electricity_normed="0"
            traveltime="0.03" CO_perVeh="0.580399" CO2_perVeh="44.369907" HC_perVeh="0.003655" PMx_perVeh="0.000605" NOx_perVeh="0.016985" fuel_perVeh="0.019073" electricity_perVeh="0"/>
        <edge id=":1110673564_0" sampledSeconds="28.15" CO_abs="403.785725" CO2_abs="51359.932524" HC_abs="2.993545" PMx_abs="0.660800" NOx_abs="18.906849" fuel_abs="22.077532" electricity_abs="0"
            CO_normed="1697.965904" CO2_normed="215974.485558" HC_normed="12.588206" PMx_normed="2.778740" NOx_normed="79.505498" fuel_normed="92.838587" electricity_normed="0"
            traveltime="7.951220e-03" CO_perVeh="0.114048" CO2_perVeh="14.506407" HC_perVeh="0.000846" PMx_perVeh="0.000187" NOx_perVeh="0.005340" fuel_perVeh="0.006236" electricity_perVeh="0"/>
        <edge id=":1110673588_0" sampledSeconds="62.74" CO_abs="1160.988559" CO2_abs="126350.830799" HC_abs="8.173148" PMx_abs="1.747919" NOx_abs="47.616692" fuel_abs="54.312978" electricity_abs="0"
            CO_normed="1952.836731" CO2_normed="212527.971441" HC_normed="13.747616" PMx_normed="2.940080" NOx_normed="80.093490" fuel_normed="91.356954" electricity_normed="0"
            traveltime="0.02" CO_perVeh="0.374512" CO2_perVeh="40.758333" HC_perVeh="0.002636" PMx_perVeh="0.000564" NOx_perVeh="0.015360" fuel_perVeh="0.017520" electricity_perVeh="0"/>
        <edge id=":1110673601_0" sampledSeconds="29.24" CO_abs="400.778350" CO2_abs="49913.435461" HC_abs="2.963373" PMx_abs="0.656945" NOx_abs="18.487428" fuel_abs="21.455727" electricity_abs="0"
            CO_normed="601.899836" CO2_normed="74961.356175" HC_normed="4.450474" PMx_normed="0.986617" NOx_normed="27.764923" fuel_normed="32.222795" electricity_normed="0"
            traveltime="0.02" CO_perVeh="0.305613" CO2_perVeh="38.061390" HC_perVeh="0.002260" PMx_perVeh="0.000501" NOx_perVeh="0.014098" fuel_perVeh="0.016361" electricity_perVeh="0"/>
        <edge id=":1110673617_0" sampledSeconds="857.79" CO_abs="33006.144899" CO2_abs="3330328.370847" HC_abs="230.190728" PMx_abs="62.875667" NOx_abs="1307.007915" fuel_abs="1431.552186" electricity_abs="0"
            CO_normed="46264.891810" CO2_normed="4668139.288653" HC_normed="322.659589" PMx_normed="88.133163" NOx_normed="1832.040062" fuel_normed="2006.614442" electricity_normed="0"
            traveltime="0.02" CO_perVeh="0.581572" CO2_perVeh="58.680788" HC_perVeh="0.004056" PMx_perVeh="0.001108" NOx_perVeh="0.023030" fuel_perVeh="0.025224" electricity_perVeh="0"/>
        <edge id=":1110673621_0" sampledSeconds="26.05" CO_abs="714.567637" CO2_abs="60538.494442" HC_abs="4.665057" PMx_abs="1.038874" NOx_abs="24.308209" fuel_abs="26.022793" electricity_abs="0"
            CO_normed="1201.935986" CO2_normed="101828.562080" HC_normed="7.846843" PMx_normed="1.747435" NOx_normed="40.887538" fuel_normed="43.771548" electricity_normed="0"
            traveltime="0.02" CO_perVeh="0.541339" CO2_perVeh="45.862496" HC_perVeh="0.003534" PMx_perVeh="0.000787" NOx_perVeh="0.018415" fuel_perVeh="0.019714" electricity_perVeh="0"/>
        <edge id=":1110673630_0" sampledSeconds="285.88" CO_abs="1475.023754" CO2_abs="133169.457013" HC_abs="9.745580" PMx_abs="1.704127" NOx_abs="49.924434" fuel_abs="57.244389" electricity_abs="0"
            CO_normed="44.241415" CO2_normed="3994.244253" HC_normed="0.292306" PMx_normed="0.051113" NOx_normed="1.497418" fuel_normed="1.716971" electricity_normed="0"
            traveltime="1.29" CO_perVeh="6.637044" CO2_perVeh="599.211696" HC_perVeh="0.043851" PMx_perVeh="0.007668" NOx_perVeh="0.224641" fuel_perVeh="0.257578" electricity_perVeh="0"/>
        <edge id=":1110673630_1" sampledSeconds="338.36" CO_abs="1199.471971" CO2_abs="98959.754653" HC_abs="7.706397" PMx_abs="1.260683" NOx_abs="37.199783" fuel_abs="42.539046" electricity_abs="0"
            CO_normed="43.860166" CO2_normed="3618.584956" HC_normed="0.281794" PMx_normed="0.046098" NOx_normed="1.360256" fuel_normed="1.555492" electricity_normed="0"
            traveltime="1.08" CO_perVeh="3.823681" CO2_perVeh="315.464221" HC_perVeh="0.024566" PMx_perVeh="0.004019" NOx_perVeh="0.118586" fuel_perVeh="0.135606" electricity_perVeh="0"/>
        <edge id=":1110673650_0" sampledSeconds="207.60" CO_abs="3153.258174" CO2_abs="392388.655770" HC_abs="23.328097" PMx_abs="5.375236" NOx_abs="146.532314" fuel_abs="168.671393" electricity_abs="0"
            CO_normed="4419.939036" CO2_normed="550013.300928" HC_normed="32.699120" PMx_normed="7.534498" NOx_normed="205.395137" fuel_normed="236.427604" electricity_normed="0"
            traveltime="0.02" CO_perVeh="0.352183" CO2_perVeh="43.825365" HC_perVeh="0.002605" PMx_perVeh="0.000600" NOx_perVeh="0.016366" fuel_perVeh="0.018839" electricity_perVeh="0"/>
        <edge id=":1110673655_0" sampledSeconds="20.81" CO_abs="321.241887" CO2_abs="38097.459586" HC_abs="2.329949" PMx_abs="0.528772" NOx_abs="14.306904" fuel_abs="16.376495" electricity_abs="0"
            CO_normed="450.286490" CO2_normed="53401.415142" HC_normed="3.265903" PMx_normed="0.741182" NOx_normed="20.054064" fuel_normed="22.955021" electricity_normed="0"
            traveltime="0.02" CO_perVeh="0.366994" CO2_perVeh="43.523373" HC_perVeh="0.002662" PMx_perVeh="0.000604" NOx_perVeh="0.016345" fuel_perVeh="0.018709" electricity_perVeh="0"/>
        <edge id=":1110673663_0" sampledSeconds="110.69" CO_abs="1647.484622" CO2_abs="198495.343918" HC_abs="12.038776" PMx_abs="2.721793" NOx_abs="74.332296" fuel_abs="85.324828" electricity_abs="0"
            CO_normed="42.294654" CO2_normed="5095.824122" HC_normed="0.309063" PMx_normed="0.069875" NOx_normed="1.908278" fuel_normed="2.190481" electricity_normed="0"
            traveltime="1.30" CO_perVeh="19.350484" CO2_perVeh="2331.421455" HC_perVeh="0.141401" PMx_perVeh="0.031969" NOx_perVeh="0.873068" fuel_perVeh="1.002180" electricity_perVeh="0"/>
        <edge id=":1110673663_1" sampledSeconds="171.35" CO_abs="2656.308237" CO2_abs="332979.174422" HC_abs="19.659236" PMx_abs="4.428607" NOx_abs="123.637360" fuel_abs="143.133920" electricity_abs="0"
            CO_normed="68.276802" CO2_normed="8558.778294" HC_normed="0.505314" PMx_normed="0.113831" NOx_normed="3.177931" fuel_normed="3.679063" electricity_normed="0"
            traveltime="1.28" CO_perVeh="19.825860" CO2_perVeh="2485.253228" HC_perVeh="0.146730" PMx_perVeh="0.033054" NOx_perVeh="0.922791" fuel_perVeh="1.068307" electricity_perVeh="0"/>