<?xml version="1.0" encoding="UTF-8"?>

<!-- generated on Tue Nov 10 12:29:09 2020 by Eclipse SUMO sumo Version 1.7.0
<configuration xmlns:xsi="http://www.w3.org/2001/XMLSchema-instance" xsi:noNamespaceSchemaLocation="http://sumo.dlr.de/xsd/sumoConfiguration.xsd">

    <input>
        <net-file value="../dataSets/Porto/8AM9AM_Routing_SaoBento/Porto.net.xml"/>
        <route-files value="../results/Porto/8AM9AM_Routing_SaoBento/inputdata/cost_PMx-length/solution19/Porto.rou.xml"/>
        <additional-files value="moreOutputInfo.xml"/>
    </input>

    <output>
        <emission-output.precision value="6"/>
        <tripinfo-output value="../results/Porto/8AM9AM_Routing_SaoBento/inputdata/cost_PMx-length/solution19/Porto-tripinfo"/>
    </output>

    <processing>
        <collision.action value="warn"/>
        <time-to-teleport value="-1"/>
    </processing>

    <emissions>
        <device.emissions.probability value="1"/>
    </emissions>

    <gui_only>
        <quit-on-end value="true"/>
        <start value="true"/>
    </gui_only>

</configuration>
-->

<meandata xmlns:xsi="http://www.w3.org/2001/XMLSchema-instance" xsi:noNamespaceSchemaLocation="http://sumo.dlr.de/xsd/meandata_file.xsd">
    <interval begin="0.00" end="8561.00" id="emissions-detector">
        <edge id=":1092997347_0" sampledSeconds="606.51" CO_abs="73164.774718" CO2_abs="3086837.046243" HC_abs="406.143017" PMx_abs="62.441738" NOx_abs="1335.872616" fuel_abs="1326.906746" electricity_abs="0"
            CO_normed="69924.177556" CO2_normed="2950115.578701" HC_normed="388.154225" PMx_normed="59.676083" NOx_normed="1276.704457" fuel_normed="1268.135701" electricity_normed="0"
            traveltime="0.07" CO_perVeh="8.394131" CO2_perVeh="354.150112" HC_perVeh="0.046596" PMx_perVeh="0.007164" NOx_perVeh="0.153263" fuel_perVeh="0.152235" electricity_perVeh="0"/>
        <edge id=":1103427051_0" sampledSeconds="19.34" CO_abs="1510.609929" CO2_abs="83638.537605" HC_abs="8.869389" PMx_abs="1.674005" NOx_abs="35.932433" fuel_abs="35.952473" electricity_abs="0"
            CO_normed="2190.444939" CO2_normed="121279.231551" HC_normed="12.860969" PMx_normed="2.427375" NOx_normed="52.103468" fuel_normed="52.132527" electricity_normed="0"
            traveltime="0.03" CO_perVeh="2.349190" CO2_perVeh="130.068511" HC_perVeh="0.013793" PMx_perVeh="0.002603" NOx_perVeh="0.055879" fuel_perVeh="0.055911" electricity_perVeh="0"/>
        <edge id=":1105984386_0" sampledSeconds="10.66" CO_abs="157.937497" CO2_abs="11961.480973" HC_abs="0.988696" PMx_abs="0.146629" NOx_abs="4.477525" fuel_abs="5.141805" electricity_abs="0"
            CO_normed="6.839810" CO2_normed="518.016660" HC_normed="0.042818" PMx_normed="0.006350" NOx_normed="0.193908" fuel_normed="0.222676" electricity_normed="0"
            traveltime="1.02" CO_perVeh="15.150890" CO2_perVeh="1147.460781" HC_perVeh="0.094845" PMx_perVeh="0.014066" NOx_perVeh="0.429527" fuel_perVeh="0.493252" electricity_perVeh="0"/>
        <edge id=":1105984390_0" sampledSeconds="10.53" CO_abs="0.026970" CO2_abs="5.864144" HC_abs="0.000250" PMx_abs="0.000035" NOx_abs="0.001895" fuel_abs="0.002521" electricity_abs="0"
            CO_normed="0.000903" CO2_normed="0.196333" HC_normed="0.000008" PMx_normed="0.000001" NOx_normed="0.000063" fuel_normed="0.000084" electricity_normed="0"
            traveltime="1.09" CO_perVeh="0.002796" CO2_perVeh="0.607854" HC_perVeh="0.000026" PMx_perVeh="0.000004" NOx_perVeh="0.000196" fuel_perVeh="0.000261" electricity_perVeh="0"/>
        <edge id=":1105984390_1" sampledSeconds="2397.81" CO_abs="65218.300425" CO2_abs="7595260.285673" HC_abs="478.807923" PMx_abs="138.036320" NOx_abs="2900.794263" fuel_abs="3264.850912" electricity_abs="0"
            CO_normed="2088.732165" CO2_normed="243251.730833" HC_normed="15.334676" PMx_normed="4.420859" NOx_normed="92.903100" fuel_normed="104.562662" electricity_normed="0"
            traveltime="0.65" CO_perVeh="17.614727" CO2_perVeh="2051.394129" HC_perVeh="0.129321" PMx_perVeh="0.037282" NOx_perVeh="0.783472" fuel_perVeh="0.881799" electricity_perVeh="0"/>
        <edge id=":1105984395_0" sampledSeconds="4.23" CO_abs="56.136915" CO2_abs="3782.094442" HC_abs="0.343446" PMx_abs="0.061245" NOx_abs="1.517016" fuel_abs="1.625767" electricity_abs="0"
            CO_normed="25.658940" CO2_normed="1728.711598" HC_normed="0.156981" PMx_normed="0.027994" NOx_normed="0.693395" fuel_normed="0.743102" electricity_normed="0"
            traveltime="0.10" CO_perVeh="1.301234" CO2_perVeh="87.667596" HC_perVeh="0.007961" PMx_perVeh="0.001420" NOx_perVeh="0.035164" fuel_perVeh="0.037685" electricity_perVeh="0"/>
        <edge id=":1105984398_0" sampledSeconds="10.74" CO_abs="760.749463" CO2_abs="50695.850726" HC_abs="4.659877" PMx_abs="0.918926" NOx_abs="20.973272" fuel_abs="21.791916" electricity_abs="0"
            CO_normed="26.460214" CO2_normed="1763.291517" HC_normed="0.162079" PMx_normed="0.031962" NOx_normed="0.729488" fuel_normed="0.757961" electricity_normed="0"
            traveltime="1.14" CO_perVeh="80.898588" CO2_perVeh="5391.029407" HC_perVeh="0.495534" PMx_perVeh="0.097719" NOx_perVeh="2.230311" fuel_perVeh="2.317366" electricity_perVeh="0"/>
        <edge id=":1105984398_1" sampledSeconds="644.65" CO_abs="11993.534145" CO2_abs="1405337.156665" HC_abs="86.844922" PMx_abs="20.165731" NOx_abs="531.493050" fuel_abs="604.094498" electricity_abs="0"
            CO_normed="403.796678" CO2_normed="47314.700390" HC_normed="2.923883" PMx_normed="0.678937" NOx_normed="17.894236" fuel_normed="20.338571" electricity_normed="0"
            traveltime="0.95" CO_perVeh="17.740774" CO2_perVeh="2078.767502" HC_perVeh="0.128461" PMx_perVeh="0.029829" NOx_perVeh="0.786182" fuel_perVeh="0.893573" electricity_perVeh="0"/>
        <edge id=":1106006327_0" sampledSeconds="406.85" CO_abs="54885.886922" CO2_abs="1784972.116515" HC_abs="291.935395" PMx_abs="37.228021" NOx_abs="781.303268" fuel_abs="767.296405" electricity_abs="0"
            CO_normed="2604.983449" CO2_normed="84718.004603" HC_normed="13.855782" PMx_normed="1.766909" NOx_normed="37.082066" fuel_normed="36.417275" electricity_normed="0"
            traveltime="2.09" CO_perVeh="281.340981" CO2_perVeh="9149.634518" HC_perVeh="1.496439" PMx_perVeh="0.190828" NOx_perVeh="4.004903" fuel_perVeh="3.933104" electricity_perVeh="0"/>
        <edge id=":1106006327_1" sampledSeconds="682.04" CO_abs="92170.464596" CO2_abs="3081225.452345" HC_abs="492.298588" PMx_abs="64.240745" NOx_abs="1348.291663" fuel_abs="1324.507743" electricity_abs="0"
            CO_normed="3814.837757" CO2_normed="127528.652970" HC_normed="20.375716" PMx_normed="2.658856" NOx_normed="55.804362" fuel_normed="54.819970" electricity_normed="0"
            traveltime="2.29" CO_perVeh="309.393940" CO2_perVeh="10342.928043" HC_perVeh="1.652527" PMx_perVeh="0.215641" NOx_perVeh="4.525889" fuel_perVeh="4.446052" electricity_perVeh="0"/>
        <edge id=":1106006327_2" sampledSeconds="0.00" CO_abs="0" CO2_abs="0" HC_abs="0" PMx_abs="0" NOx_abs="0" fuel_abs="0" electricity_abs="0"
            CO_normed="0" CO2_normed="0" HC_normed="0" PMx_normed="0" NOx_normed="0" fuel_normed="0" electricity_normed="0"/>
        <edge id=":1106006327_3" sampledSeconds="0.00" CO_abs="0" CO2_abs="0" HC_abs="0" PMx_abs="0" NOx_abs="0" fuel_abs="0" electricity_abs="0"
            CO_normed="0" CO2_normed="0" HC_normed="0" PMx_normed="0" NOx_normed="0" fuel_normed="0" electricity_normed="0"/>
        <edge id=":1107381198_0" sampledSeconds="0.00" CO_abs="0" CO2_abs="0" HC_abs="0" PMx_abs="0" NOx_abs="0" fuel_abs="0" electricity_abs="0"
            CO_normed="0" CO2_normed="0" HC_normed="0" PMx_normed="0" NOx_normed="0" fuel_normed="0" electricity_normed="0"/>
        <edge id=":1107381198_1" sampledSeconds="103.76" CO_abs="4264.060125" CO2_abs="169773.313862" HC_abs="23.333494" PMx_abs="2.978940" NOx_abs="70.658819" fuel_abs="72.979588" electricity_abs="0"
            CO_normed="195.538369" CO2_normed="7785.349146" HC_normed="1.070011" PMx_normed="0.136606" NOx_normed="3.240224" fuel_normed="3.346648" electricity_normed="0"
            traveltime="1.55" CO_perVeh="63.841451" CO2_perVeh="2541.843791" HC_perVeh="0.349349" PMx_perVeh="0.044601" NOx_perVeh="1.057903" fuel_perVeh="1.092649" electricity_perVeh="0"/>
        <edge id=":1110338277_0" sampledSeconds="160.77" CO_abs="2727.941465" CO2_abs="310771.020824" HC_abs="19.582753" PMx_abs="4.419389" NOx_abs="117.606761" fuel_abs="133.587306" electricity_abs="0"
            CO_normed="4096.896756" CO2_normed="466724.379230" HC_normed="29.409911" PMx_normed="6.637159" NOx_normed="176.625035" fuel_normed="200.625053" electricity_normed="0"
            traveltime="0.02" CO_perVeh="0.369473" CO2_perVeh="42.090951" HC_perVeh="0.002652" PMx_perVeh="0.000599" NOx_perVeh="0.015929" fuel_perVeh="0.018093" electricity_perVeh="0"/>
        <edge id=":1110338293_0" sampledSeconds="6145.48" CO_abs="560235.459471" CO2_abs="9891307.626536" HC_abs="2782.298933" PMx_abs="235.009157" NOx_abs="4465.270159" fuel_abs="4252.103891" electricity_abs="0"
            CO_normed="785285.073432" CO2_normed="13864699.394747" HC_normed="3899.963461" PMx_normed="329.413606" NOx_normed="6258.993331" fuel_normed="5960.197020" electricity_normed="0"
            traveltime="0.41" CO_perVeh="37.461510" CO2_perVeh="661.406407" HC_perVeh="0.186045" PMx_perVeh="0.015714" NOx_perVeh="0.298581" fuel_perVeh="0.284327" electricity_perVeh="0"/>
        <edge id=":1110338295_0" sampledSeconds="0.00" CO_abs="0" CO2_abs="0" HC_abs="0" PMx_abs="0" NOx_abs="0" fuel_abs="0" electricity_abs="0"
            CO_normed="0" CO2_normed="0" HC_normed="0" PMx_normed="0" NOx_normed="0" fuel_normed="0" electricity_normed="0"/>
        <edge id=":1110673403_0" sampledSeconds="200.54" CO_abs="3002.022769" CO2_abs="374690.780779" HC_abs="22.156273" PMx_abs="5.097202" NOx_abs="139.682648" fuel_abs="161.063854" electricity_abs="0"
            CO_normed="4207.951551" CO2_normed="525206.093839" HC_normed="31.056568" PMx_normed="7.144776" NOx_normed="195.793924" fuel_normed="225.764076" electricity_normed="0"
            traveltime="0.02" CO_perVeh="0.346962" CO2_perVeh="43.305228" HC_perVeh="0.002561" PMx_perVeh="0.000589" NOx_perVeh="0.016144" fuel_perVeh="0.018615" electricity_perVeh="0"/>
        <edge id=":1110673412_0" sampledSeconds="939.57" CO_abs="168909.732085" CO2_abs="11494862.340548" HC_abs="1050.496700" PMx_abs="253.001467" NOx_abs="4942.978491" fuel_abs="4941.074887" electricity_abs="0"
            CO_normed="244925.881003" CO2_normed="16668011.079100" HC_normed="1523.262316" PMx_normed="366.862267" NOx_normed="7167.516915" fuel_normed="7164.756612" electricity_normed="0"
            traveltime="0.02" CO_perVeh="2.787051" CO2_perVeh="189.667981" HC_perVeh="0.017333" PMx_perVeh="0.004175" NOx_perVeh="0.081560" fuel_perVeh="0.081529" electricity_perVeh="0"/>
        <edge id=":1110673414_0" sampledSeconds="0.00" CO_abs="0" CO2_abs="0" HC_abs="0" PMx_abs="0" NOx_abs="0" fuel_abs="0" electricity_abs="0"
            CO_normed="0" CO2_normed="0" HC_normed="0" PMx_normed="0" NOx_normed="0" fuel_normed="0" electricity_normed="0"/>
        <edge id=":1110673414_1" sampledSeconds="238.29" CO_abs="16593.198197" CO2_abs="645922.874379" HC_abs="90.566543" PMx_abs="11.941523" NOx_abs="272.729832" fuel_abs="277.658960" electricity_abs="0"
            CO_normed="772.716799" CO2_normed="30079.521140" HC_normed="4.217529" PMx_normed="0.556096" NOx_normed="12.700561" fuel_normed="12.930102" electricity_normed="0"
            traveltime="1.55" CO_perVeh="107.658236" CO2_perVeh="4190.808573" HC_perVeh="0.587604" PMx_perVeh="0.077478" NOx_perVeh="1.769497" fuel_perVeh="1.801478" electricity_perVeh="0"/>
        <edge id=":1110673417_0" sampledSeconds="29.01" CO_abs="430.080793" CO2_abs="50245.719960" HC_abs="3.108260" PMx_abs="0.675173" NOx_abs="18.753883" fuel_abs="21.598559" electricity_abs="0"
            CO_normed="645.907043" CO2_normed="75460.390082" HC_normed="4.668070" PMx_normed="1.013994" NOx_normed="28.165092" fuel_normed="32.437304" electricity_normed="0"
            traveltime="0.02" CO_perVeh="0.327957" CO2_perVeh="38.314773" HC_perVeh="0.002370" PMx_perVeh="0.000515" NOx_perVeh="0.014301" fuel_perVeh="0.016470" electricity_perVeh="0"/>
        <edge id=":1110673446_0" sampledSeconds="1314.37" CO_abs="12858.250547" CO2_abs="1081101.610025" HC_abs="84.084224" PMx_abs="19.391057" NOx_abs="438.631210" fuel_abs="464.716192" electricity_abs="0"
            CO_normed="18023.479332" CO2_normed="1515385.973637" HC_normed="117.861311" PMx_normed="27.180549" NOx_normed="614.831740" fuel_normed="651.395199" electricity_normed="0"
            traveltime="0.02" CO_perVeh="0.223081" CO2_perVeh="18.756317" HC_perVeh="0.001459" PMx_perVeh="0.000336" NOx_perVeh="0.007610" fuel_perVeh="0.008062" electricity_perVeh="0"/>
        <edge id=":1110673451_0" sampledSeconds="36.23" CO_abs="405.396042" CO2_abs="26438.498735" HC_abs="2.453547" PMx_abs="0.398523" NOx_abs="10.430515" fuel_abs="11.364877" electricity_abs="0"
            CO_normed="631.384249" CO2_normed="41176.651847" HC_normed="3.821277" PMx_normed="0.620680" NOx_normed="16.245010" fuel_normed="17.700232" electricity_normed="0"
            traveltime="0.03" CO_perVeh="0.298687" CO2_perVeh="19.479328" HC_perVeh="0.001808" PMx_perVeh="0.000294" NOx_perVeh="0.007685" fuel_perVeh="0.008373" electricity_perVeh="0"/>
        <edge id=":1110673464_0" sampledSeconds="1028.42" CO_abs="3433.128378" CO2_abs="251883.014199" HC_abs="21.429174" PMx_abs="3.753321" NOx_abs="98.487244" fuel_abs="108.274419" electricity_abs="0"
            CO_normed="102.242945" CO2_normed="7501.397661" HC_normed="0.638188" PMx_normed="0.111779" NOx_normed="2.933076" fuel_normed="3.224550" electricity_normed="0"
            traveltime="1.22" CO_perVeh="4.071210" CO2_perVeh="298.698016" HC_perVeh="0.025412" PMx_perVeh="0.004451" NOx_perVeh="0.116792" fuel_perVeh="0.128398" electricity_perVeh="0"/>
        <edge id=":1110673464_1" sampledSeconds="2604.78" CO_abs="66245.265668" CO2_abs="7971241.543174" HC_abs="491.616030" PMx_abs="142.957295" NOx_abs="3029.683348" fuel_abs="3426.469024" electricity_abs="0"
            CO_normed="1933.164757" CO2_normed="232616.218907" HC_normed="14.346305" PMx_normed="4.171770" NOx_normed="88.412010" fuel_normed="99.990982" electricity_normed="0"
            traveltime="0.72" CO_perVeh="18.265945" CO2_perVeh="2197.927056" HC_perVeh="0.135554" PMx_perVeh="0.039418" NOx_perVeh="0.835381" fuel_perVeh="0.944787" electricity_perVeh="0"/>
        <edge id=":1110673479_0" sampledSeconds="134.50" CO_abs="6223.721579" CO2_abs="436671.386447" HC_abs="38.565387" PMx_abs="7.444742" NOx_abs="177.200700" fuel_abs="187.706300" electricity_abs="0"
            CO_normed="8723.824197" CO2_normed="612084.644010" HC_normed="54.057312" PMx_normed="10.435335" NOx_normed="248.383180" fuel_normed="263.108935" electricity_normed="0"
            traveltime="0.03" CO_perVeh="1.315758" CO2_perVeh="92.316762" HC_perVeh="0.008153" PMx_perVeh="0.001574" NOx_perVeh="0.037462" fuel_perVeh="0.039683" electricity_perVeh="0"/>
        <edge id=":1110673511_0" sampledSeconds="63.46" CO_abs="1020.149795" CO2_abs="114403.477643" HC_abs="7.257231" PMx_abs="1.584517" NOx_abs="43.094726" fuel_abs="49.177280" electricity_abs="0"
            CO_normed="1429.949484" CO2_normed="160359.973334" HC_normed="10.172500" PMx_normed="2.221026" NOx_normed="60.406111" fuel_normed="68.932059" electricity_normed="0"
            traveltime="0.02" CO_perVeh="0.390987" CO2_perVeh="43.846750" HC_perVeh="0.002781" PMx_perVeh="0.000607" NOx_perVeh="0.016517" fuel_perVeh="0.018848" electricity_perVeh="0"/>
        <edge id=":1110673517_0" sampledSeconds="182.61" CO_abs="8098.940282" CO2_abs="571274.212093" HC_abs="50.306114" PMx_abs="9.984122" NOx_abs="233.311571" fuel_abs="245.565880" electricity_abs="0"
            CO_normed="11352.328394" CO2_normed="800758.152682" HC_normed="70.514352" PMx_normed="13.994798" NOx_normed="327.034091" fuel_normed="344.211022" electricity_normed="0"
            traveltime="0.03" CO_perVeh="1.240017" CO2_perVeh="87.466981" HC_perVeh="0.007702" PMx_perVeh="0.001529" NOx_perVeh="0.035722" fuel_perVeh="0.037598" electricity_perVeh="0"/>
        <edge id=":1110673534_0" sampledSeconds="659.42" CO_abs="3987.008427" CO2_abs="342949.625793" HC_abs="25.956738" PMx_abs="4.434285" NOx_abs="128.987322" fuel_abs="147.420832" electricity_abs="0"
            CO_normed="108.306420" CO2_normed="9316.169481" HC_normed="0.705110" PMx_normed="0.120457" NOx_normed="3.503919" fuel_normed="4.004662" electricity_normed="0"
            traveltime="1.45" CO_perVeh="8.766838" CO2_perVeh="754.095177" HC_perVeh="0.057075" PMx_perVeh="0.009750" NOx_perVeh="0.283624" fuel_perVeh="0.324156" electricity_perVeh="0"/>
        <edge id=":1110673534_1" sampledSeconds="264.66" CO_abs="4122.666897" CO2_abs="498457.281650" HC_abs="30.127949" PMx_abs="6.832207" NOx_abs="186.422791" fuel_abs="214.265899" electricity_abs="0"
            CO_normed="108.896316" CO2_normed="13166.273884" HC_normed="0.795801" PMx_normed="0.180466" NOx_normed="4.924180" fuel_normed="5.659629" electricity_normed="0"
            traveltime="1.23" CO_perVeh="19.128192" CO2_perVeh="2312.723053" HC_perVeh="0.139787" PMx_perVeh="0.031700" NOx_perVeh="0.864957" fuel_perVeh="0.994143" electricity_perVeh="0"/>
        <edge id=":1110673549_0" sampledSeconds="649.31" CO_abs="1181.186972" CO2_abs="138322.399685" HC_abs="8.443817" PMx_abs="1.845434" NOx_abs="51.150004" fuel_abs="59.459124" electricity_abs="0"
            CO_normed="31.082782" CO2_normed="3639.935965" HC_normed="0.222198" PMx_normed="0.048562" NOx_normed="1.346006" fuel_normed="1.564659" electricity_normed="0"
            traveltime="1.29" CO_perVeh="2.346737" CO2_perVeh="274.813626" HC_perVeh="0.016776" PMx_perVeh="0.003666" NOx_perVeh="0.101623" fuel_perVeh="0.118131" electricity_perVeh="0"/>
        <edge id=":1110673549_1" sampledSeconds="3199.65" CO_abs="67288.867831" CO2_abs="8932694.173692" HC_abs="519.408076" PMx_abs="156.596455" NOx_abs="3333.489525" fuel_abs="3839.756721" electricity_abs="0"
            CO_normed="1712.817856" CO2_normed="227379.038744" HC_normed="13.221376" PMx_normed="3.986116" NOx_normed="84.852971" fuel_normed="97.739850" electricity_normed="0"
            traveltime="0.81" CO_perVeh="16.973565" CO2_perVeh="2253.265159" HC_perVeh="0.131020" PMx_perVeh="0.039501" NOx_perVeh="0.840870" fuel_perVeh="0.968576" electricity_perVeh="0"/>
        <edge id=":1110673556_0" sampledSeconds="468.84" CO_abs="57676.564704" CO2_abs="2764736.710526" HC_abs="328.273602" PMx_abs="55.800982" NOx_abs="1191.965098" fuel_abs="1188.442660" electricity_abs="0"
            CO_normed="1125.460130" CO2_normed="53949.137812" HC_normed="6.405701" PMx_normed="1.088861" NOx_normed="23.259173" fuel_normed="23.190439" electricity_normed="0"
            traveltime="2.76" CO_perVeh="339.997803" CO2_perVeh="16297.857076" HC_perVeh="1.935141" PMx_perVeh="0.328941" NOx_perVeh="7.026520" fuel_perVeh="7.005755" electricity_perVeh="0"/>
        <edge id=":1110673556_2" sampledSeconds="174.70" CO_abs="17516.105585" CO2_abs="752406.588064" HC_abs="97.405633" PMx_abs="14.404856" NOx_abs="320.136127" fuel_abs="323.430241" electricity_abs="0"
            CO_normed="357.386025" CO2_normed="15351.563081" HC_normed="1.987395" PMx_normed="0.293906" NOx_normed="6.531827" fuel_normed="6.599038" electricity_normed="0"
            traveltime="3.02" CO_perVeh="302.878495" CO2_perVeh="13010.185063" HC_perVeh="1.684283" PMx_perVeh="0.249081" NOx_perVeh="5.535611" fuel_perVeh="5.592571" electricity_perVeh="0"/>
        <edge id=":1110673556_3" sampledSeconds="351.84" CO_abs="35284.537776" CO2_abs="1221854.030960" HC_abs="189.245113" PMx_abs="24.200703" NOx_abs="526.796622" fuel_abs="525.231825" electricity_abs="0"
            CO_normed="1637.699584" CO2_normed="56711.238519" HC_normed="8.783639" PMx_normed="1.123254" NOx_normed="24.450784" fuel_normed="24.378155" electricity_normed="0"
            traveltime="1.83" CO_perVeh="183.716603" CO2_perVeh="6361.848166" HC_perVeh="0.985346" PMx_perVeh="0.126006" NOx_perVeh="2.742881" fuel_perVeh="2.734733" electricity_perVeh="0"/>
        <edge id=":1110673556_4" sampledSeconds="76.61" CO_abs="8560.910312" CO2_abs="330405.444036" HC_abs="46.755493" PMx_abs="6.608547" NOx_abs="142.644598" fuel_abs="142.028698" electricity_abs="0"
            CO_normed="242.748637" CO2_normed="9368.801709" HC_normed="1.325774" PMx_normed="0.187388" NOx_normed="4.044755" fuel_normed="4.027291" electricity_normed="0"
            traveltime="2.52" CO_perVeh="281.916552" CO2_perVeh="10880.474164" HC_perVeh="1.539690" PMx_perVeh="0.217624" NOx_perVeh="4.697383" fuel_perVeh="4.677101" electricity_perVeh="0"/>
        <edge id=":1110673556_5" sampledSeconds="22.34" CO_abs="1215.575294" CO2_abs="55604.750444" HC_abs="6.824809" PMx_abs="0.977482" NOx_abs="23.097246" fuel_abs="23.902379" electricity_abs="0"
            CO_normed="48.041686" CO2_normed="2197.598104" HC_normed="0.269729" PMx_normed="0.038632" NOx_normed="0.912844" fuel_normed="0.944664" electricity_normed="0"
            traveltime="1.54" CO_perVeh="84.039773" CO2_perVeh="3844.279043" HC_perVeh="0.471839" PMx_perVeh="0.067579" NOx_perVeh="1.596847" fuel_perVeh="1.652510" electricity_perVeh="0"/>
        <edge id=":1110673556_6" sampledSeconds="212.82" CO_abs="25414.370953" CO2_abs="1291096.952143" HC_abs="146.411578" PMx_abs="25.924523" NOx_abs="554.977262" fuel_abs="554.986624" electricity_abs="0"
            CO_normed="508.422377" CO2_normed="25828.795153" HC_normed="2.929009" PMx_normed="0.518628" NOx_normed="11.102492" fuel_normed="11.102680" electricity_normed="0"
            traveltime="2.48" CO_perVeh="296.141736" CO2_perVeh="15044.546779" HC_perVeh="1.706065" PMx_perVeh="0.302086" NOx_perVeh="6.466890" fuel_perVeh="6.466999" electricity_perVeh="0"/>
        <edge id=":1110673561_0" sampledSeconds="102.83" CO_abs="9378.196680" CO2_abs="670637.506571" HC_abs="58.853580" PMx_abs="13.549787" NOx_abs="283.724119" fuel_abs="288.275130" electricity_abs="0"
            CO_normed="235.722696" CO2_normed="16856.596891" HC_normed="1.479296" PMx_normed="0.340576" NOx_normed="7.131458" fuel_normed="7.245848" electricity_normed="0"
            traveltime="1.21" CO_perVeh="110.671823" CO2_perVeh="7914.173498" HC_perVeh="0.694529" PMx_perVeh="0.159901" NOx_perVeh="3.348220" fuel_perVeh="3.401926" electricity_perVeh="0"/>
        <edge id=":1110673561_1" sampledSeconds="5194.87" CO_abs="479909.602572" CO2_abs="33313015.283730" HC_abs="2990.993479" PMx_abs="695.355142" NOx_abs="14234.756901" fuel_abs="14319.657192" electricity_abs="0"
            CO_normed="11760.347647" CO2_normed="816346.742801" HC_normed="73.295310" PMx_normed="17.039914" NOx_normed="348.827548" fuel_normed="350.908058" electricity_normed="0"
            traveltime="1.19" CO_perVeh="110.262529" CO2_perVeh="7653.894211" HC_perVeh="0.687201" PMx_perVeh="0.159763" NOx_perVeh="3.270533" fuel_perVeh="3.290040" electricity_perVeh="0"/>
        <edge id=":1110673562_0" sampledSeconds="301.41" CO_abs="6691.001416" CO2_abs="505201.653545" HC_abs="42.004495" PMx_abs="6.981609" NOx_abs="194.088119" fuel_abs="217.166619" electricity_abs="0"
            CO_normed="10420.903190" CO2_normed="786826.544477" HC_normed="65.419920" PMx_normed="10.873511" NOx_normed="302.282629" fuel_normed="338.226249" electricity_normed="0"
            traveltime="0.03" CO_perVeh="0.599792" CO2_perVeh="45.287098" HC_perVeh="0.003765" PMx_perVeh="0.000626" NOx_perVeh="0.017398" fuel_perVeh="0.019467" electricity_perVeh="0"/>
        <edge id=":1110673564_0" sampledSeconds="27.47" CO_abs="541.670845" CO2_abs="58962.859432" HC_abs="3.837996" PMx_abs="0.870743" NOx_abs="22.523114" fuel_abs="25.345610" electricity_abs="0"
            CO_normed="2277.788858" CO2_normed="247945.676853" HC_normed="16.139220" PMx_normed="3.661576" NOx_normed="94.712312" fuel_normed="106.581235" electricity_normed="0"
            traveltime="7.757977e-03" CO_perVeh="0.152993" CO2_perVeh="16.653823" HC_perVeh="0.001084" PMx_perVeh="0.000246" NOx_perVeh="0.006362" fuel_perVeh="0.007159" electricity_perVeh="0"/>
        <edge id=":1110673588_0" sampledSeconds="63.18" CO_abs="1244.057122" CO2_abs="131007.453568" HC_abs="8.673648" PMx_abs="1.861385" NOx_abs="49.766302" fuel_abs="56.314620" electricity_abs="0"
            CO_normed="2092.561916" CO2_normed="220360.627425" HC_normed="14.589479" PMx_normed="3.130936" NOx_normed="83.709234" fuel_normed="94.723809" electricity_normed="0"
            traveltime="0.02" CO_perVeh="0.401309" CO2_perVeh="42.260469" HC_perVeh="0.002798" PMx_perVeh="0.000600" NOx_perVeh="0.016054" fuel_perVeh="0.018166" electricity_perVeh="0"/>
        <edge id=":1110673601_0" sampledSeconds="28.77" CO_abs="529.483740" CO2_abs="60319.071923" HC_abs="3.805054" PMx_abs="0.864528" NOx_abs="22.846155" fuel_abs="25.928608" electricity_abs="0"
            CO_normed="795.193095" CO2_normed="90588.824287" HC_normed="5.714534" PMx_normed="1.298372" NOx_normed="34.310978" fuel_normed="38.940290" electricity_normed="0"
            traveltime="0.02" CO_perVeh="0.403757" CO2_perVeh="45.996188" HC_perVeh="0.002902" PMx_perVeh="0.000659" NOx_perVeh="0.017421" fuel_perVeh="0.019772" electricity_perVeh="0"/>
        <edge id=":1110673617_0" sampledSeconds="856.64" CO_abs="32906.793710" CO2_abs="3275104.595112" HC_abs="228.016046" PMx_abs="61.970103" NOx_abs="1288.393273" fuel_abs="1407.813948" electricity_abs="0"
            CO_normed="46125.630712" CO2_normed="4590731.823542" HC_normed="319.611324" PMx_normed="86.863828" NOx_normed="1805.947819" fuel_normed="1973.340424" electricity_normed="0"
            traveltime="0.02" CO_perVeh="0.582784" CO2_perVeh="58.002592" HC_perVeh="0.004038" PMx_perVeh="0.001097" NOx_perVeh="0.022818" fuel_perVeh="0.024933" electricity_perVeh="0"/>
        <edge id=":1110673621_0" sampledSeconds="26.09" CO_abs="631.632401" CO2_abs="63891.233036" HC_abs="4.365033" PMx_abs="0.976360" NOx_abs="24.726633" fuel_abs="27.464083" electricity_abs="0"
            CO_normed="1062.435063" CO2_normed="107468.024263" HC_normed="7.342188" PMx_normed="1.642283" NOx_normed="41.591347" fuel_normed="46.195865" electricity_normed="0"
            traveltime="0.02" CO_perVeh="0.478509" CO2_perVeh="48.402449" HC_perVeh="0.003307" PMx_perVeh="0.000740" NOx_perVeh="0.018732" fuel_perVeh="0.020806" electricity_perVeh="0"/>
        <edge id=":1110673630_0" sampledSeconds="284.88" CO_abs="1370.326360" CO2_abs="124867.605009" HC_abs="9.088971" PMx_abs="1.645578" NOx_abs="47.085369" fuel_abs="53.675664" electricity_abs="0"
            CO_normed="41.101153" CO2_normed="3745.241025" HC_normed="0.272612" PMx_normed="0.049357" NOx_normed="1.412264" fuel_normed="1.609932" electricity_normed="0"
            traveltime="1.28" CO_perVeh="6.165945" CO2_perVeh="561.856533" HC_perVeh="0.040897" PMx_perVeh="0.007404" NOx_perVeh="0.211866" fuel_perVeh="0.241520" electricity_perVeh="0"/>
        <edge id=":1110673630_1" sampledSeconds="338.40" CO_abs="1508.096226" CO2_abs="126989.383932" HC_abs="9.754748" PMx_abs="1.645601" NOx_abs="47.853994" fuel_abs="54.587858" electricity_abs="0"
            CO_normed="55.145390" CO2_normed="4643.522772" HC_normed="0.356694" PMx_normed="0.060173" NOx_normed="1.749840" fuel_normed="1.996072" electricity_normed="0"
            traveltime="1.08" CO_perVeh="4.807514" CO2_perVeh="404.817163" HC_perVeh="0.031096" PMx_perVeh="0.005246" NOx_perVeh="0.152549" fuel_perVeh="0.174015" electricity_perVeh="0"/>
        <edge id=":1110673650_0" sampledSeconds="200.03" CO_abs="3109.536298" CO2_abs="385806.464932" HC_abs="22.933925" PMx_abs="5.249789" NOx_abs="143.929020" fuel_abs="165.842032" electricity_abs="0"
            CO_normed="4358.653846" CO2_normed="540787.008432" HC_normed="32.146607" PMx_normed="7.358657" NOx_normed="201.746085" fuel_normed="232.461673" electricity_normed="0"
            traveltime="0.02" CO_perVeh="0.359387" CO2_perVeh="44.589875" HC_perVeh="0.002651" PMx_perVeh="0.000607" NOx_perVeh="0.016635" fuel_perVeh="0.019167" electricity_perVeh="0"/>
        <edge id=":1110673655_0" sampledSeconds="20.69" CO_abs="337.395183" CO2_abs="42840.497781" HC_abs="2.499059" PMx_abs="0.546009" NOx_abs="15.765659" fuel_abs="18.415381" electricity_abs="0"
            CO_normed="472.928652" CO2_normed="60049.757431" HC_normed="3.502945" PMx_normed="0.765344" NOx_normed="22.098810" fuel_normed="25.812940" electricity_normed="0"
            traveltime="0.02" CO_perVeh="0.385448" CO2_perVeh="48.941924" HC_perVeh="0.002855" PMx_perVeh="0.000624" NOx_perVeh="0.018011" fuel_perVeh="0.021038" electricity_perVeh="0"/>
        <edge id=":1110673663_0" sampledSeconds="111.15" CO_abs="2028.279431" CO2_abs="226477.298163" HC_abs="14.420246" PMx_abs="3.102705" NOx_abs="85.134037" fuel_abs="97.353197" electricity_abs="0"
            CO_normed="52.070517" CO2_normed="5814.184133" HC_normed="0.370200" PMx_normed="0.079653" NOx_normed="2.185583" fuel_normed="2.499277" electricity_normed="0"
            traveltime="1.31" CO_perVeh="23.823099" CO2_perVeh="2660.082709" HC_perVeh="0.169373" PMx_perVeh="0.036443" NOx_perVeh="0.999939" fuel_perVeh="1.143459" electricity_perVeh="0"/>
        <edge id=":1110673663_1" sampledSeconds="169.52" CO_abs="2817.714922" CO2_abs="336197.292382" HC_abs="20.547754" PMx_abs="4.691524" NOx_abs="126.396623" fuel_abs="144.517029" electricity_abs="0"
            CO_normed="72.425542" CO2_normed="8641.495653" HC_normed="0.528152" PMx_normed="0.120589" NOx_normed="3.248854" fuel_normed="3.714614" electricity_normed="0"
            traveltime="1.27" CO_perVeh="21.111890" CO2_perVeh="2518.977414" HC_perVeh="0.153955" PMx_perVeh="0.035152" NOx_perVeh="0.947034" fuel_perVeh="1.082802" electricity_perVeh="0"/>