<?xml version="1.0" encoding="UTF-8"?>

<!-- generated on Fri Oct  2 15:39:21 2020 by Eclipse SUMO Version 1.1.0
<configuration xmlns:xsi="http://www.w3.org/2001/XMLSchema-instance" xsi:noNamespaceSchemaLocation="http://sumo.dlr.de/xsd/sumoConfiguration.xsd">

    <input>
        <net-file value="../dataSets/Angeja_Estarreja/angeja_estarreja.net.xml"/>
        <route-files value="../results/angeja_estarreja/cost_nox-length/solution1/angeja_estarreja.rou.xml"/>
        <additional-files value="moreOutputInfo.xml"/>
    </input>

    <output>
        <emission-output.precision value="6"/>
        <tripinfo-output value="../results/angeja_estarreja/cost_nox-length/solution1/angeja_estarreja-tripinfo"/>
    </output>

    <processing>
        <collision.action value="warn"/>
        <time-to-teleport value="-1"/>
    </processing>

    <emissions>
        <device.emissions.probability value="1"/>
    </emissions>

    <gui_only>
        <quit-on-end value="true"/>
        <start value="true"/>
    </gui_only>

</configuration>
-->

<meandata xmlns:xsi="http://www.w3.org/2001/XMLSchema-instance" xsi:noNamespaceSchemaLocation="http://sumo.dlr.de/xsd/meandata_file.xsd">
    <interval begin="0.00" end="19079.00" id="emissions-detector">
        <edge id=":10_0" sampledSeconds="381.04" CO_abs="38694.632289" CO2_abs="2134682.598214" HC_abs="226.864423" PMx_abs="41.949752" NOx_abs="911.354624" fuel_abs="917.606118" electricity_abs="0"
            CO_normed="417.453212" CO2_normed="23029.812019" HC_normed="2.447504" PMx_normed="0.452571" NOx_normed="9.832059" fuel_normed="9.899503" electricity_normed="0"
            traveltime="1.90" CO_perVeh="192.596994" CO2_perVeh="10625.077081" HC_perVeh="1.129185" PMx_perVeh="0.208799" NOx_perVeh="4.536137" fuel_perVeh="4.567253" electricity_perVeh="0"/>
        <edge id=":10_1" sampledSeconds="0.00" CO_abs="0" CO2_abs="0" HC_abs="0" PMx_abs="0" NOx_abs="0" fuel_abs="0" electricity_abs="0"
            CO_normed="0" CO2_normed="0" HC_normed="0" PMx_normed="0" NOx_normed="0" fuel_normed="0" electricity_normed="0"/>
        <edge id=":100_0" sampledSeconds="0.00" CO_abs="0" CO2_abs="0" HC_abs="0" PMx_abs="0" NOx_abs="0" fuel_abs="0" electricity_abs="0"
            CO_normed="0" CO2_normed="0" HC_normed="0" PMx_normed="0" NOx_normed="0" fuel_normed="0" electricity_normed="0"/>
        <edge id=":100_1" sampledSeconds="911.38" CO_abs="21762.578976" CO2_abs="2706062.291694" HC_abs="164.857372" PMx_abs="49.138511" NOx_abs="1012.977565" fuel_abs="1163.211984" electricity_abs="0"
            CO_normed="138.916177" CO2_normed="17273.496351" HC_normed="1.052327" PMx_normed="0.313664" NOx_normed="6.466098" fuel_normed="7.425083" electricity_normed="0"
            traveltime="1.37" CO_perVeh="32.724893" CO2_perVeh="4069.168411" HC_perVeh="0.247900" PMx_perVeh="0.073891" NOx_perVeh="1.523238" fuel_perVeh="1.749149" electricity_perVeh="0"/>
        <edge id=":101_0" sampledSeconds="438.70" CO_abs="9915.512904" CO2_abs="1284436.771167" HC_abs="76.316754" PMx_abs="23.056361" NOx_abs="477.572094" fuel_abs="552.120624" electricity_abs="0"
            CO_normed="229.002393" CO2_normed="29664.536458" HC_normed="1.762563" PMx_normed="0.532495" NOx_normed="11.029702" fuel_normed="12.751428" electricity_normed="0"
            traveltime="0.38" CO_perVeh="8.565716" CO2_perVeh="1109.586571" HC_perVeh="0.065928" PMx_perVeh="0.019918" NOx_perVeh="0.412560" fuel_perVeh="0.476961" electricity_perVeh="0"/>
        <edge id=":102_0" sampledSeconds="341.40" CO_abs="8354.126765" CO2_abs="1069007.161631" HC_abs="64.035016" PMx_abs="19.255801" NOx_abs="398.482631" fuel_abs="459.517223" electricity_abs="0"
            CO_normed="194.609006" CO2_normed="24902.473613" HC_normed="1.491693" PMx_normed="0.448563" NOx_normed="9.282635" fuel_normed="10.704433" electricity_normed="0"
            traveltime="0.38" CO_perVeh="9.190271" CO2_perVeh="1176.001522" HC_perVeh="0.070444" PMx_perVeh="0.021183" NOx_perVeh="0.438366" fuel_perVeh="0.505509" electricity_perVeh="0"/>
        <edge id=":103_0" sampledSeconds="434.21" CO_abs="10518.981731" CO2_abs="1321612.652160" HC_abs="80.016835" PMx_abs="23.929656" NOx_abs="493.912455" fuel_abs="568.100675" electricity_abs="0"
            CO_normed="246.561188" CO2_normed="30978.130147" HC_normed="1.875566" PMx_normed="0.560903" NOx_normed="11.577132" fuel_normed="13.316078" electricity_normed="0"
            traveltime="0.37" CO_perVeh="9.037505" CO2_perVeh="1135.478766" HC_perVeh="0.068747" PMx_perVeh="0.020559" NOx_perVeh="0.424351" fuel_perVeh="0.488090" electricity_perVeh="0"/>
        <edge id=":104_0" sampledSeconds="341.05" CO_abs="8673.598543" CO2_abs="1032114.340768" HC_abs="64.565235" PMx_abs="18.978136" NOx_abs="389.105002" fuel_abs="443.658412" electricity_abs="0"
            CO_normed="202.300841" CO2_normed="24072.776492" HC_normed="1.505903" PMx_normed="0.442641" NOx_normed="9.075388" fuel_normed="10.347778" electricity_normed="0"
            traveltime="0.38" CO_perVeh="9.537368" CO2_perVeh="1134.898520" HC_perVeh="0.070995" PMx_perVeh="0.020868" NOx_perVeh="0.427854" fuel_perVeh="0.487841" electricity_perVeh="0"/>
        <edge id=":105_0" sampledSeconds="168.67" CO_abs="4170.829023" CO2_abs="508844.293890" HC_abs="31.363340" PMx_abs="9.291472" NOx_abs="191.062753" fuel_abs="218.728771" electricity_abs="0"
            CO_normed="3577.227814" CO2_normed="436424.497664" HC_normed="26.899643" PMx_normed="7.969090" NOx_normed="163.870298" fuel_normed="187.598830" electricity_normed="0"
            traveltime="0.01" CO_perVeh="0.252219" CO2_perVeh="30.770894" HC_perVeh="0.001897" PMx_perVeh="0.000562" NOx_perVeh="0.011554" fuel_perVeh="0.013227" electricity_perVeh="0"/>
        <edge id=":106_0" sampledSeconds="134.51" CO_abs="3138.424195" CO2_abs="395269.815618" HC_abs="23.872941" PMx_abs="7.147848" NOx_abs="147.645248" fuel_abs="169.908373" electricity_abs="0"
            CO_normed="1910.279179" CO2_normed="240590.707944" HC_normed="14.530854" PMx_normed="4.350714" NOx_normed="89.867917" fuel_normed="103.418916" electricity_normed="0"
            traveltime="0.01" CO_perVeh="0.335561" CO2_perVeh="42.262296" HC_perVeh="0.002552" PMx_perVeh="0.000764" NOx_perVeh="0.015786" fuel_perVeh="0.018167" electricity_perVeh="0"/>
        <edge id=":107_0" sampledSeconds="438.81" CO_abs="11015.484146" CO2_abs="1381419.930021" HC_abs="83.674374" PMx_abs="25.006656" NOx_abs="516.555742" fuel_abs="593.809064" electricity_abs="0"
            CO_normed="254.406631" CO2_normed="31904.397942" HC_normed="1.932490" PMx_normed="0.577538" NOx_normed="11.930044" fuel_normed="13.714237" electricity_normed="0"
            traveltime="0.38" CO_perVeh="9.515948" CO2_perVeh="1193.367426" HC_perVeh="0.072284" PMx_perVeh="0.021603" NOx_perVeh="0.446237" fuel_perVeh="0.512974" electricity_perVeh="0"/>
        <edge id=":108_0" sampledSeconds="92.03" CO_abs="8331.593749" CO2_abs="605951.932386" HC_abs="52.517494" PMx_abs="12.181386" NOx_abs="255.595579" fuel_abs="260.469890" electricity_abs="0"
            CO_normed="130.680068" CO2_normed="9504.284768" HC_normed="0.823731" PMx_normed="0.191064" NOx_normed="4.008987" fuel_normed="4.085440" electricity_normed="0"
            traveltime="0.85" CO_perVeh="76.722382" CO2_perVeh="5579.973916" HC_perVeh="0.483613" PMx_perVeh="0.112174" NOx_perVeh="2.353680" fuel_perVeh="2.398565" electricity_perVeh="0"/>
        <edge id=":108_1" sampledSeconds="402.65" CO_abs="8936.021744" CO2_abs="1120022.614807" HC_abs="67.896972" PMx_abs="20.295472" NOx_abs="418.595685" fuel_abs="481.446362" electricity_abs="0"
            CO_normed="130.707768" CO2_normed="16382.643254" HC_normed="0.993133" PMx_normed="0.296863" NOx_normed="6.122826" fuel_normed="7.042147" electricity_normed="0"
            traveltime="0.60" CO_perVeh="13.274682" CO2_perVeh="1663.821338" HC_perVeh="0.100863" PMx_perVeh="0.030149" NOx_perVeh="0.621834" fuel_perVeh="0.715200" electricity_perVeh="0"/>
        <edge id=":109_0" sampledSeconds="308.46" CO_abs="262.926865" CO2_abs="32009.972924" HC_abs="1.932161" PMx_abs="0.487008" NOx_abs="11.987349" fuel_abs="13.759700" electricity_abs="0"
            CO_normed="3.953103" CO2_normed="481.269649" HC_normed="0.029050" PMx_normed="0.007322" NOx_normed="0.180230" fuel_normed="0.206877" electricity_normed="0"
            traveltime="0.86" CO_perVeh="0.730789" CO2_perVeh="88.969761" HC_perVeh="0.005370" PMx_perVeh="0.001354" NOx_perVeh="0.033318" fuel_perVeh="0.038244" electricity_perVeh="0"/>
        <edge id=":109_1" sampledSeconds="524.50" CO_abs="12077.266137" CO2_abs="1522837.880297" HC_abs="91.998388" PMx_abs="27.545668" NOx_abs="568.749367" fuel_abs="654.598197" electricity_abs="0"
            CO_normed="118.443290" CO2_normed="14934.665377" HC_normed="0.902240" PMx_normed="0.270144" NOx_normed="5.577798" fuel_normed="6.419728" electricity_normed="0"
            traveltime="0.89" CO_perVeh="20.564708" CO2_perVeh="2593.030254" HC_perVeh="0.156651" PMx_perVeh="0.046904" NOx_perVeh="0.968445" fuel_perVeh="1.114625" electricity_perVeh="0"/>
        <edge id=":11_0" sampledSeconds="268.78" CO_abs="16080.043582" CO2_abs="1156104.108152" HC_abs="100.520986" PMx_abs="20.762790" NOx_abs="474.989772" fuel_abs="496.957720" electricity_abs="0"
            CO_normed="166.253672" CO2_normed="11953.111437" HC_normed="1.039300" PMx_normed="0.214669" NOx_normed="4.910981" fuel_normed="5.138111" electricity_normed="0"
            traveltime="1.59" CO_perVeh="95.217707" CO2_perVeh="6845.851011" HC_perVeh="0.595233" PMx_perVeh="0.122947" NOx_perVeh="2.812644" fuel_perVeh="2.942727" electricity_perVeh="0"/>
        <edge id=":11_1" sampledSeconds="50.80" CO_abs="1104.919188" CO2_abs="90364.768502" HC_abs="7.102674" PMx_abs="1.265918" NOx_abs="34.714637" fuel_abs="38.844220" electricity_abs="0"
            CO_normed="11.712710" CO2_normed="957.912920" HC_normed="0.075292" PMx_normed="0.013419" NOx_normed="0.367993" fuel_normed="0.411769" electricity_normed="0"
            traveltime="1.67" CO_perVeh="36.340653" CO2_perVeh="2972.085882" HC_perVeh="0.233606" PMx_perVeh="0.041636" NOx_perVeh="1.141760" fuel_perVeh="1.277582" electricity_perVeh="0"/>
        <edge id=":110_0" sampledSeconds="94.07" CO_abs="0" CO2_abs="0" HC_abs="0" PMx_abs="0" NOx_abs="0" fuel_abs="0" electricity_abs="0"
            CO_normed="0" CO2_normed="0" HC_normed="0" PMx_normed="0" NOx_normed="0" fuel_normed="0" electricity_normed="0"
            traveltime="0.92" CO_perVeh="0" CO2_perVeh="0" HC_perVeh="0" PMx_perVeh="0" NOx_perVeh="0" fuel_perVeh="0" electricity_perVeh="0"/>
        <edge id=":110_1" sampledSeconds="443.88" CO_abs="11056.352475" CO2_abs="1301562.333700" HC_abs="82.034382" PMx_abs="24.018647" NOx_abs="491.696897" fuel_abs="559.481628" electricity_abs="0"
            CO_normed="141.919291" CO2_normed="16706.848329" HC_normed="1.052993" PMx_normed="0.308303" NOx_normed="6.311419" fuel_normed="7.181504" electricity_normed="0"
            traveltime="0.68" CO_perVeh="16.984186" CO2_perVeh="1999.391468" HC_perVeh="0.126017" PMx_perVeh="0.036896" NOx_perVeh="0.755319" fuel_perVeh="0.859446" electricity_perVeh="0"/>
        <edge id=":111_0" sampledSeconds="340.62" CO_abs="8428.166150" CO2_abs="1057415.268895" HC_abs="64.062043" PMx_abs="19.156486" NOx_abs="395.107504" fuel_abs="454.534340" electricity_abs="0"
            CO_normed="194.651576" CO2_normed="24421.391928" HC_normed="1.479536" PMx_normed="0.442426" NOx_normed="9.125152" fuel_normed="10.497637" electricity_normed="0"
            traveltime="0.38" CO_perVeh="9.366658" CO2_perVeh="1175.160350" HC_perVeh="0.071195" PMx_perVeh="0.021290" NOx_perVeh="0.439103" fuel_perVeh="0.505148" electricity_perVeh="0"/>
        <edge id=":114_0" sampledSeconds="107.64" CO_abs="10276.458234" CO2_abs="744808.316908" HC_abs="64.716061" PMx_abs="15.047157" NOx_abs="314.698934" fuel_abs="320.157549" electricity_abs="0"
            CO_normed="136.553240" CO2_normed="9896.988507" HC_normed="0.859945" PMx_normed="0.199946" NOx_normed="4.181709" fuel_normed="4.254243" electricity_normed="0"
            traveltime="1.00" CO_perVeh="95.068704" CO2_perVeh="6890.307893" HC_perVeh="0.598696" PMx_perVeh="0.139203" NOx_perVeh="2.911316" fuel_perVeh="2.961815" electricity_perVeh="0"/>
        <edge id=":114_1" sampledSeconds="415.97" CO_abs="10646.554598" CO2_abs="1282888.889135" HC_abs="79.627253" PMx_abs="23.493938" NOx_abs="482.771216" fuel_abs="551.454896" electricity_abs="0"
            CO_normed="140.580068" CO2_normed="16939.621718" HC_normed="1.051420" PMx_normed="0.310220" NOx_normed="6.374645" fuel_normed="7.281564" electricity_normed="0"
            traveltime="0.66" CO_perVeh="16.964984" CO2_perVeh="2044.247246" HC_perVeh="0.126884" PMx_perVeh="0.037437" NOx_perVeh="0.769282" fuel_perVeh="0.878728" electricity_perVeh="0"/>
        <edge id=":115_0" sampledSeconds="80.59" CO_abs="146.336638" CO2_abs="16755.493069" HC_abs="1.053658" PMx_abs="0.233616" NOx_abs="6.320243" fuel_abs="7.202483" electricity_abs="0"
            CO_normed="3.306842" CO2_normed="378.632274" HC_normed="0.023810" PMx_normed="0.005279" NOx_normed="0.142822" fuel_normed="0.162758" electricity_normed="0"
            traveltime="0.63" CO_perVeh="1.151551" CO2_perVeh="131.852198" HC_perVeh="0.008291" PMx_perVeh="0.001838" NOx_perVeh="0.049735" fuel_perVeh="0.056678" electricity_perVeh="0"/>
        <edge id=":115_1" sampledSeconds="72.39" CO_abs="1031.838233" CO2_abs="172430.898845" HC_abs="8.622654" PMx_abs="2.483674" NOx_abs="63.386359" fuel_abs="74.120480" electricity_abs="0"
            CO_normed="20.823173" CO2_normed="3479.768673" HC_normed="0.174011" PMx_normed="0.050122" NOx_normed="1.279178" fuel_normed="1.495800" electricity_normed="0"
            traveltime="0.59" CO_perVeh="8.447323" CO2_perVeh="1411.635500" HC_perVeh="0.070591" PMx_perVeh="0.020333" NOx_perVeh="0.518923" fuel_perVeh="0.606800" electricity_perVeh="0"/>
        <edge id=":116_0" sampledSeconds="74.50" CO_abs="70.422487" CO2_abs="9846.344426" HC_abs="0.542116" PMx_abs="0.129131" NOx_abs="3.630413" fuel_abs="4.232531" electricity_abs="0"
            CO_normed="1.776465" CO2_normed="248.382114" HC_normed="0.013675" PMx_normed="0.003257" NOx_normed="0.091580" fuel_normed="0.106769" electricity_normed="0"
            traveltime="0.56" CO_perVeh="0.531743" CO2_perVeh="74.347290" HC_perVeh="0.004093" PMx_perVeh="0.000975" NOx_perVeh="0.027412" fuel_perVeh="0.031959" electricity_perVeh="0"/>
        <edge id=":117_0" sampledSeconds="239.60" CO_abs="13152.513564" CO2_abs="1111651.633697" HC_abs="86.193921" PMx_abs="20.192781" NOx_abs="452.090001" fuel_abs="477.847862" electricity_abs="0"
            CO_normed="297.213940" CO2_normed="25120.549077" HC_normed="1.947767" PMx_normed="0.456306" NOx_normed="10.216104" fuel_normed="10.798168" electricity_normed="0"
            traveltime="0.60" CO_perVeh="33.131029" CO2_perVeh="2800.237583" HC_perVeh="0.217121" PMx_perVeh="0.050865" NOx_perVeh="1.138809" fuel_perVeh="1.203693" electricity_perVeh="0"/>
        <edge id=":117_1" sampledSeconds="76.02" CO_abs="4988.786003" CO2_abs="390583.852733" HC_abs="32.041841" PMx_abs="7.418560" NOx_abs="161.500975" fuel_abs="167.893786" electricity_abs="0"
            CO_normed="106.244889" CO2_normed="8318.163564" HC_normed="0.682387" PMx_normed="0.157991" NOx_normed="3.439445" fuel_normed="3.575591" electricity_normed="0"
            traveltime="0.64" CO_perVeh="42.177394" CO2_perVeh="3302.167939" HC_perVeh="0.270896" PMx_perVeh="0.062720" NOx_perVeh="1.365400" fuel_perVeh="1.419448" electricity_perVeh="0"/>
        <edge id=":118_0" sampledSeconds="898.81" CO_abs="12273.475899" CO2_abs="1981542.760424" HC_abs="100.176679" PMx_abs="28.843478" NOx_abs="730.566190" fuel_abs="851.778031" electricity_abs="0"
            CO_normed="37.238648" CO2_normed="6012.149682" HC_normed="0.303944" PMx_normed="0.087513" NOx_normed="2.216593" fuel_normed="2.584359" electricity_normed="0"
            traveltime="3.92" CO_perVeh="53.533162" CO2_perVeh="8642.885796" HC_perVeh="0.436940" PMx_perVeh="0.125806" NOx_perVeh="3.186507" fuel_perVeh="3.715196" electricity_perVeh="0"/>
        <edge id=":118_4" sampledSeconds="282.97" CO_abs="3876.509833" CO2_abs="639319.907141" HC_abs="31.782522" PMx_abs="9.183319" NOx_abs="234.553376" fuel_abs="274.815620" electricity_abs="0"
            CO_normed="11.784361" CO2_normed="1943.494765" HC_normed="0.096617" PMx_normed="0.027917" NOx_normed="0.713028" fuel_normed="0.835423" electricity_normed="0"
            traveltime="3.92" CO_perVeh="53.745408" CO2_perVeh="8863.774506" HC_perVeh="0.440645" PMx_perVeh="0.127321" NOx_perVeh="3.251937" fuel_perVeh="3.810148" electricity_perVeh="0"/>
        <edge id=":118_5" sampledSeconds="239.29" CO_abs="3797.662560" CO2_abs="557761.163575" HC_abs="29.965174" PMx_abs="8.519813" NOx_abs="208.691771" fuel_abs="239.756639" electricity_abs="0"
            CO_normed="11.659253" CO2_normed="1712.389705" HC_normed="0.091996" PMx_normed="0.026157" NOx_normed="0.640707" fuel_normed="0.736080" electricity_normed="0"
            traveltime="3.83" CO_perVeh="60.779531" CO2_perVeh="8926.665186" HC_perVeh="0.479576" PMx_perVeh="0.136355" NOx_perVeh="3.339999" fuel_perVeh="3.837175" electricity_perVeh="0"/>
        <edge id=":119_0" sampledSeconds="139.44" CO_abs="2232.054878" CO2_abs="314316.159144" HC_abs="17.319385" PMx_abs="4.812856" NOx_abs="118.144556" fuel_abs="135.110510" electricity_abs="0"
            CO_normed="47.859603" CO2_normed="6739.550463" HC_normed="0.371361" PMx_normed="0.103197" NOx_normed="2.533249" fuel_normed="2.897032" electricity_normed="0"
            traveltime="0.56" CO_perVeh="8.948149" CO2_perVeh="1260.071159" HC_perVeh="0.069432" PMx_perVeh="0.019294" NOx_perVeh="0.473633" fuel_perVeh="0.541648" electricity_perVeh="0"/>
        <edge id=":12_0" sampledSeconds="599.14" CO_abs="53903.125694" CO2_abs="3061802.330094" HC_abs="318.119310" PMx_abs="59.793083" NOx_abs="1303.364261" fuel_abs="1316.133446" electricity_abs="0"
            CO_normed="505.011626" CO2_normed="28685.642112" HC_normed="2.980420" PMx_normed="0.560194" NOx_normed="12.211056" fuel_normed="12.330689" electricity_normed="0"
            traveltime="2.12" CO_perVeh="190.569577" CO2_perVeh="10824.722458" HC_perVeh="1.124682" PMx_perVeh="0.211393" NOx_perVeh="4.607925" fuel_perVeh="4.653070" electricity_perVeh="0"/>
        <edge id=":12_1" sampledSeconds="56.13" CO_abs="1053.527649" CO2_abs="98754.563531" HC_abs="7.035948" PMx_abs="1.214683" NOx_abs="36.660691" fuel_abs="42.450805" electricity_abs="0"
            CO_normed="9.860576" CO2_normed="924.301247" HC_normed="0.065854" PMx_normed="0.011369" NOx_normed="0.343129" fuel_normed="0.397322" electricity_normed="0"
            traveltime="1.89" CO_perVeh="35.526424" CO2_perVeh="3330.141845" HC_perVeh="0.237262" PMx_perVeh="0.040961" NOx_perVeh="1.236250" fuel_perVeh="1.431500" electricity_perVeh="0"/>
        <edge id=":120_0" sampledSeconds="39.00" CO_abs="632.612220" CO2_abs="87373.948124" HC_abs="4.864389" PMx_abs="1.353839" NOx_abs="32.910015" fuel_abs="37.558155" electricity_abs="0"
            CO_normed="497.362718" CO2_normed="68693.811094" HC_normed="3.824405" PMx_normed="1.064394" NOx_normed="25.874009" fuel_normed="29.528399" electricity_normed="0"
            traveltime="0.02" CO_perVeh="0.243410" CO2_perVeh="33.618834" HC_perVeh="0.001872" PMx_perVeh="0.000521" NOx_perVeh="0.012663" fuel_perVeh="0.014451" electricity_perVeh="0"/>
        <edge id=":121_0" sampledSeconds="371.72" CO_abs="52883.026207" CO2_abs="1421639.896110" HC_abs="274.182707" PMx_abs="30.668475" NOx_abs="628.643999" fuel_abs="611.119040" electricity_abs="0"
            CO_normed="30237.734705" CO2_normed="812872.732672" HC_normed="156.773629" PMx_normed="17.535782" NOx_normed="359.449370" fuel_normed="349.428857" electricity_normed="0"
            traveltime="0.11" CO_perVeh="16.222086" CO2_perVeh="436.093892" HC_perVeh="0.084107" PMx_perVeh="0.009408" NOx_perVeh="0.192839" fuel_perVeh="0.187463" electricity_perVeh="0"/>
        <edge id=":122_0" sampledSeconds="134.20" CO_abs="916.875218" CO2_abs="92922.380229" HC_abs="6.365104" PMx_abs="1.653151" NOx_abs="36.861864" fuel_abs="39.943020" electricity_abs="0"
            CO_normed="20.187210" CO2_normed="2045.909395" HC_normed="0.140143" PMx_normed="0.036398" NOx_normed="0.811602" fuel_normed="0.879442" electricity_normed="0"
            traveltime="0.54" CO_perVeh="3.665962" CO2_perVeh="371.533553" HC_perVeh="0.025450" PMx_perVeh="0.006610" NOx_perVeh="0.147386" fuel_perVeh="0.159705" electricity_perVeh="0"/>
        <edge id=":123_0" sampledSeconds="313.86" CO_abs="40389.418459" CO2_abs="2457237.304681" HC_abs="242.929589" PMx_abs="50.552124" NOx_abs="1055.210797" fuel_abs="1056.252065" electricity_abs="0"
            CO_normed="154.022725" CO2_normed="9370.533158" HC_normed="0.926398" PMx_normed="0.192778" NOx_normed="4.023986" fuel_normed="4.027957" electricity_normed="0"
            traveltime="4.27" CO_perVeh="550.025575" CO2_perVeh="33462.808171" HC_perVeh="3.308230" PMx_perVeh="0.688422" NOx_perVeh="14.369925" fuel_perVeh="14.384105" electricity_perVeh="0"/>
        <edge id=":123_1" sampledSeconds="0.00" CO_abs="0" CO2_abs="0" HC_abs="0" PMx_abs="0" NOx_abs="0" fuel_abs="0" electricity_abs="0"
            CO_normed="0" CO2_normed="0" HC_normed="0" PMx_normed="0" NOx_normed="0" fuel_normed="0" electricity_normed="0"/>
        <edge id=":123_2" sampledSeconds="263.13" CO_abs="34963.330182" CO2_abs="2160492.952426" HC_abs="211.142361" PMx_abs="44.564267" NOx_abs="927.997711" fuel_abs="928.694873" electricity_abs="0"
            CO_normed="134.609274" CO2_normed="8317.925844" HC_normed="0.812901" PMx_normed="0.171573" NOx_normed="3.572803" fuel_normed="3.575487" electricity_normed="0"
            traveltime="4.14" CO_perVeh="549.554861" CO2_perVeh="33958.704659" HC_perVeh="3.318743" PMx_perVeh="0.700463" NOx_perVeh="14.586301" fuel_perVeh="14.597259" electricity_perVeh="0"/>
        <edge id=":123_3" sampledSeconds="470.12" CO_abs="24010.038150" CO2_abs="2177203.098641" HC_abs="161.212520" PMx_abs="41.257685" NOx_abs="879.866691" fuel_abs="935.876955" electricity_abs="0"
            CO_normed="94.581071" CO2_normed="8576.504565" HC_normed="0.635053" PMx_normed="0.162524" NOx_normed="3.465998" fuel_normed="3.686635" electricity_normed="0"
            traveltime="2.81" CO_perVeh="143.709805" CO2_perVeh="13031.442548" HC_perVeh="0.964922" PMx_perVeh="0.246944" NOx_perVeh="5.266359" fuel_perVeh="5.601603" electricity_perVeh="0"/>
        <edge id=":123_5" sampledSeconds="0.00" CO_abs="0" CO2_abs="0" HC_abs="0" PMx_abs="0" NOx_abs="0" fuel_abs="0" electricity_abs="0"
            CO_normed="0" CO2_normed="0" HC_normed="0" PMx_normed="0" NOx_normed="0" fuel_normed="0" electricity_normed="0"/>
        <edge id=":123_6" sampledSeconds="194.82" CO_abs="9466.756202" CO2_abs="900563.453594" HC_abs="64.316094" PMx_abs="16.654060" NOx_abs="360.673076" fuel_abs="387.110024" electricity_abs="0"
            CO_normed="36.020852" CO2_normed="3426.629134" HC_normed="0.244722" PMx_normed="0.063368" NOx_normed="1.372355" fuel_normed="1.472947" electricity_normed="0"
            traveltime="2.91" CO_perVeh="141.626927" CO2_perVeh="13472.833967" HC_perVeh="0.962198" PMx_perVeh="0.249152" NOx_perVeh="5.395831" fuel_perVeh="5.791340" electricity_perVeh="0"/>
        <edge id=":124_0" sampledSeconds="118.74" CO_abs="3947.603256" CO2_abs="353944.132547" HC_abs="26.273036" PMx_abs="6.743272" NOx_abs="143.143699" fuel_abs="152.143863" electricity_abs="0"
            CO_normed="92.415613" CO2_normed="8286.031276" HC_normed="0.615067" PMx_normed="0.157864" NOx_normed="3.351075" fuel_normed="3.561773" electricity_normed="0"
            traveltime="0.46" CO_perVeh="15.350034" CO2_perVeh="1376.291891" HC_perVeh="0.102161" PMx_perVeh="0.026221" NOx_perVeh="0.556606" fuel_perVeh="0.591603" electricity_perVeh="0"/>
        <edge id=":125_0" sampledSeconds="141.28" CO_abs="5545.540955" CO2_abs="547387.849737" HC_abs="38.168492" PMx_abs="10.282946" NOx_abs="216.838357" fuel_abs="235.296305" electricity_abs="0"
            CO_normed="348.794441" CO2_normed="34428.713228" HC_normed="2.400660" PMx_normed="0.646760" NOx_normed="13.638347" fuel_normed="14.799285" electricity_normed="0"
            traveltime="0.16" CO_perVeh="6.351068" CO2_perVeh="626.899618" HC_perVeh="0.043713" PMx_perVeh="0.011777" NOx_perVeh="0.248336" fuel_perVeh="0.269475" electricity_perVeh="0"/>
        <edge id=":125_3" sampledSeconds="0.00" CO_abs="0" CO2_abs="0" HC_abs="0" PMx_abs="0" NOx_abs="0" fuel_abs="0" electricity_abs="0"
            CO_normed="0" CO2_normed="0" HC_normed="0" PMx_normed="0" NOx_normed="0" fuel_normed="0" electricity_normed="0"/>
        <edge id=":126_0" sampledSeconds="27.09" CO_abs="308.713222" CO2_abs="22425.967261" HC_abs="1.920800" PMx_abs="0.328387" NOx_abs="8.752259" fuel_abs="9.640034" electricity_abs="0"
            CO_normed="10.165939" CO2_normed="738.488020" HC_normed="0.063252" PMx_normed="0.010814" NOx_normed="0.288212" fuel_normed="0.317447" electricity_normed="0"
            traveltime="0.56" CO_perVeh="6.372200" CO2_perVeh="462.898057" HC_perVeh="0.039648" PMx_perVeh="0.006778" NOx_perVeh="0.180657" fuel_perVeh="0.198982" electricity_perVeh="0"/>
        <edge id=":126_1" sampledSeconds="80.88" CO_abs="1386.616647" CO2_abs="199351.549273" HC_abs="10.931018" PMx_abs="3.289013" NOx_abs="74.452834" fuel_abs="85.692171" electricity_abs="0"
            CO_normed="40.627251" CO2_normed="5840.911696" HC_normed="0.320274" PMx_normed="0.096367" NOx_normed="2.181435" fuel_normed="2.510742" electricity_normed="0"
            traveltime="0.35" CO_perVeh="6.000128" CO2_perVeh="862.628406" HC_perVeh="0.047300" PMx_perVeh="0.014232" NOx_perVeh="0.322170" fuel_perVeh="0.370805" electricity_perVeh="0"/>
        <edge id=":127_0" sampledSeconds="234.28" CO_abs="5201.696802" CO2_abs="700784.211313" HC_abs="39.926801" PMx_abs="11.803069" NOx_abs="263.640615" fuel_abs="301.235153" electricity_abs="0"
            CO_normed="120.282312" CO2_normed="16204.701766" HC_normed="0.923254" PMx_normed="0.272930" NOx_normed="6.096338" fuel_normed="6.965662" electricity_normed="0"
            traveltime="0.44" CO_perVeh="9.727299" CO2_perVeh="1310.483402" HC_perVeh="0.074664" PMx_perVeh="0.022072" NOx_perVeh="0.493014" fuel_perVeh="0.563317" electricity_perVeh="0"/>
        <edge id=":128_0" sampledSeconds="229.30" CO_abs="414.222068" CO2_abs="45581.864382" HC_abs="2.957485" PMx_abs="0.778681" NOx_abs="17.742186" fuel_abs="19.593561" electricity_abs="0"
            CO_normed="6.401245" CO2_normed="704.406433" HC_normed="0.045704" PMx_normed="0.012033" NOx_normed="0.274182" fuel_normed="0.302792" electricity_normed="0"
            traveltime="0.75" CO_perVeh="1.361692" CO2_perVeh="149.843458" HC_perVeh="0.009722" PMx_perVeh="0.002560" NOx_perVeh="0.058325" fuel_perVeh="0.064411" electricity_perVeh="0"/>
        <edge id=":128_1" sampledSeconds="142.11" CO_abs="161.274073" CO2_abs="21482.864057" HC_abs="1.229859" PMx_abs="0.286310" NOx_abs="7.963236" fuel_abs="9.234585" electricity_abs="0"
            CO_normed="2.574506" CO2_normed="342.942727" HC_normed="0.019633" PMx_normed="0.004571" NOx_normed="0.127122" fuel_normed="0.147417" electricity_normed="0"
            traveltime="0.85" CO_perVeh="0.966750" CO2_perVeh="128.777975" HC_perVeh="0.007372" PMx_perVeh="0.001716" NOx_perVeh="0.047735" fuel_perVeh="0.055356" electricity_perVeh="0"/>
        <edge id=":129_0" sampledSeconds="105.03" CO_abs="5636.100507" CO2_abs="506093.684062" HC_abs="37.651123" PMx_abs="9.526606" NOx_abs="205.010005" fuel_abs="217.545854" electricity_abs="0"
            CO_normed="131.292707" CO2_normed="11789.429543" HC_normed="0.877081" PMx_normed="0.221922" NOx_normed="4.775699" fuel_normed="5.067721" electricity_normed="0"
            traveltime="0.50" CO_perVeh="26.712260" CO2_perVeh="2398.627600" HC_perVeh="0.178447" PMx_perVeh="0.045151" NOx_perVeh="0.971644" fuel_perVeh="1.031057" electricity_perVeh="0"/>
        <edge id=":13_0" sampledSeconds="60.17" CO_abs="4896.939290" CO2_abs="353775.026570" HC_abs="30.739625" PMx_abs="6.772916" NOx_abs="147.726868" fuel_abs="152.071518" electricity_abs="0"
            CO_normed="34.619679" CO2_normed="2501.067951" HC_normed="0.217319" PMx_normed="0.047882" NOx_normed="1.044378" fuel_normed="1.075093" electricity_normed="0"
            traveltime="2.13" CO_perVeh="173.212613" CO2_perVeh="12513.591310" HC_perVeh="1.087310" PMx_perVeh="0.239569" NOx_perVeh="5.225337" fuel_perVeh="5.379014" electricity_perVeh="0"/>
        <edge id=":13_1" sampledSeconds="544.89" CO_abs="12266.861187" CO2_abs="924095.479349" HC_abs="76.994745" PMx_abs="12.957547" NOx_abs="356.274647" fuel_abs="397.232579" electricity_abs="0"
            CO_normed="122.208206" CO2_normed="9206.271190" HC_normed="0.767058" PMx_normed="0.129089" NOx_normed="3.549375" fuel_normed="3.957417" electricity_normed="0"
            traveltime="1.90" CO_perVeh="42.826530" CO2_perVeh="3226.237072" HC_perVeh="0.268807" PMx_perVeh="0.045238" NOx_perVeh="1.243840" fuel_perVeh="1.386833" electricity_perVeh="0"/>
        <edge id=":132_0" sampledSeconds="41.04" CO_abs="534.480495" CO2_abs="95324.128323" HC_abs="4.483237" PMx_abs="1.326874" NOx_abs="34.667858" fuel_abs="40.975688" electricity_abs="0"
            CO_normed="1008.506622" CO2_normed="179866.272845" HC_normed="8.459381" PMx_normed="2.503666" NOx_normed="65.414480" fuel_normed="77.316671" electricity_normed="0"
            traveltime="6.362612e-03" CO_perVeh="0.082859" CO2_perVeh="14.777789" HC_perVeh="0.000695" PMx_perVeh="0.000206" NOx_perVeh="0.005374" fuel_perVeh="0.006352" electricity_perVeh="0"/>
        <edge id=":133_0" sampledSeconds="44.79" CO_abs="673.131407" CO2_abs="89432.854043" HC_abs="5.110014" PMx_abs="1.215989" NOx_abs="33.260562" fuel_abs="38.443409" electricity_abs="0"