<?xml version="1.0" encoding="UTF-8"?>

<!-- generated on Mon Nov  9 20:30:40 2020 by Eclipse SUMO sumo Version 1.7.0
<configuration xmlns:xsi="http://www.w3.org/2001/XMLSchema-instance" xsi:noNamespaceSchemaLocation="http://sumo.dlr.de/xsd/sumoConfiguration.xsd">

    <input>
        <net-file value="../dataSets/Angeja_Estarreja/angeja_estarreja.net.xml"/>
        <route-files value="../results/angeja_estarreja/cost_hc-length/solution8/angeja_estarreja.rou.xml"/>
        <additional-files value="moreOutputInfo.xml"/>
    </input>

    <output>
        <emission-output.precision value="6"/>
        <tripinfo-output value="../results/angeja_estarreja/cost_hc-length/solution8/angeja_estarreja-tripinfo"/>
    </output>

    <processing>
        <collision.action value="warn"/>
        <time-to-teleport value="-1"/>
    </processing>

    <emissions>
        <device.emissions.probability value="1"/>
    </emissions>

    <gui_only>
        <quit-on-end value="true"/>
        <start value="true"/>
    </gui_only>

</configuration>
-->

<meandata xmlns:xsi="http://www.w3.org/2001/XMLSchema-instance" xsi:noNamespaceSchemaLocation="http://sumo.dlr.de/xsd/meandata_file.xsd">
    <interval begin="0.00" end="19078.00" id="emissions-detector">
        <edge id=":10_0" sampledSeconds="381.17" CO_abs="37921.223008" CO2_abs="2100574.538274" HC_abs="222.531062" PMx_abs="41.233914" NOx_abs="896.367142" fuel_abs="902.944514" electricity_abs="0"
            CO_normed="409.130807" CO2_normed="22663.028441" HC_normed="2.400880" PMx_normed="0.444871" NOx_normed="9.670875" fuel_normed="9.741838" electricity_normed="0"
            traveltime="1.89" CO_perVeh="188.179884" CO2_perVeh="10423.869317" HC_perVeh="1.104286" PMx_perVeh="0.204619" NOx_perVeh="4.448123" fuel_perVeh="4.480762" electricity_perVeh="0"/>
        <edge id=":10_1" sampledSeconds="0.00" CO_abs="0" CO2_abs="0" HC_abs="0" PMx_abs="0" NOx_abs="0" fuel_abs="0" electricity_abs="0"
            CO_normed="0" CO2_normed="0" HC_normed="0" PMx_normed="0" NOx_normed="0" fuel_normed="0" electricity_normed="0"/>
        <edge id=":100_0" sampledSeconds="0.00" CO_abs="0" CO2_abs="0" HC_abs="0" PMx_abs="0" NOx_abs="0" fuel_abs="0" electricity_abs="0"
            CO_normed="0" CO2_normed="0" HC_normed="0" PMx_normed="0" NOx_normed="0" fuel_normed="0" electricity_normed="0"/>
        <edge id=":100_1" sampledSeconds="911.59" CO_abs="20620.125941" CO2_abs="2675315.864177" HC_abs="158.843125" PMx_abs="48.009899" NOx_abs="994.461735" fuel_abs="1149.995952" electricity_abs="0"
            CO_normed="131.630503" CO2_normed="17078.129069" HC_normed="1.013990" PMx_normed="0.306476" NOx_normed="6.348240" fuel_normed="7.341107" electricity_normed="0"
            traveltime="1.37" CO_perVeh="31.004191" CO2_perVeh="4022.575041" HC_perVeh="0.238835" PMx_perVeh="0.072187" NOx_perVeh="1.495262" fuel_perVeh="1.729121" electricity_perVeh="0"/>
        <edge id=":101_0" sampledSeconds="438.43" CO_abs="10564.306056" CO2_abs="1342454.898245" HC_abs="80.716580" PMx_abs="24.226902" NOx_abs="500.816399" fuel_abs="577.059857" electricity_abs="0"
            CO_normed="243.999297" CO2_normed="31006.111442" HC_normed="1.864277" PMx_normed="0.559558" NOx_normed="11.567144" fuel_normed="13.328107" electricity_normed="0"
            traveltime="0.38" CO_perVeh="9.126214" CO2_perVeh="1159.709960" HC_perVeh="0.069729" PMx_perVeh="0.020929" NOx_perVeh="0.432642" fuel_perVeh="0.498506" electricity_perVeh="0"/>
        <edge id=":102_0" sampledSeconds="341.41" CO_abs="7905.321374" CO2_abs="994195.803664" HC_abs="60.107170" PMx_abs="17.989358" NOx_abs="371.396807" fuel_abs="427.359196" electricity_abs="0"
            CO_normed="184.163758" CO2_normed="23160.960354" HC_normed="1.400267" PMx_normed="0.419083" NOx_normed="8.652125" fuel_normed="9.955835" electricity_normed="0"
            traveltime="0.38" CO_perVeh="8.696559" CO2_perVeh="1093.704061" HC_perVeh="0.066123" PMx_perVeh="0.019790" NOx_perVeh="0.408570" fuel_perVeh="0.470133" electricity_perVeh="0"/>
        <edge id=":103_0" sampledSeconds="434.35" CO_abs="10594.258582" CO2_abs="1322636.496411" HC_abs="80.409474" PMx_abs="23.995744" NOx_abs="494.789583" fuel_abs="568.540748" electricity_abs="0"
            CO_normed="248.338667" CO2_normed="31003.753711" HC_normed="1.884868" PMx_normed="0.562481" NOx_normed="11.598300" fuel_normed="13.327091" electricity_normed="0"
            traveltime="0.37" CO_perVeh="9.102180" CO2_perVeh="1136.358414" HC_perVeh="0.069085" PMx_perVeh="0.020616" NOx_perVeh="0.425104" fuel_perVeh="0.488468" electricity_perVeh="0"/>
        <edge id=":104_0" sampledSeconds="340.97" CO_abs="8424.260664" CO2_abs="1042766.625676" HC_abs="63.701985" PMx_abs="18.963588" NOx_abs="390.525673" fuel_abs="448.237504" electricity_abs="0"
            CO_normed="196.495646" CO2_normed="24322.502549" HC_normed="1.485847" PMx_normed="0.442325" NOx_normed="9.109000" fuel_normed="10.455127" electricity_normed="0"
            traveltime="0.37" CO_perVeh="9.263192" CO2_perVeh="1146.610723" HC_perVeh="0.070046" PMx_perVeh="0.020852" NOx_perVeh="0.429416" fuel_perVeh="0.492875" electricity_perVeh="0"/>
        <edge id=":105_0" sampledSeconds="168.60" CO_abs="3793.690432" CO2_abs="485197.128594" HC_abs="29.064670" PMx_abs="8.743478" NOx_abs="180.765738" fuel_abs="208.564032" electricity_abs="0"
            CO_normed="3253.934936" CO2_normed="416164.659660" HC_normed="24.929432" PMx_normed="7.499481" NOx_normed="155.046902" fuel_normed="178.890134" electricity_normed="0"
            traveltime="0.01" CO_perVeh="0.229413" CO2_perVeh="29.340900" HC_perVeh="0.001758" PMx_perVeh="0.000529" NOx_perVeh="0.010931" fuel_perVeh="0.012612" electricity_perVeh="0"/>
        <edge id=":106_0" sampledSeconds="134.49" CO_abs="3309.648889" CO2_abs="409918.260536" HC_abs="25.024217" PMx_abs="7.450649" NOx_abs="153.533689" fuel_abs="176.205042" electricity_abs="0"
            CO_normed="2014.604899" CO2_normed="249519.922953" HC_normed="15.232404" PMx_normed="4.535259" NOx_normed="93.456959" fuel_normed="107.257160" electricity_normed="0"
            traveltime="0.01" CO_perVeh="0.353867" CO2_perVeh="43.828435" HC_perVeh="0.002676" PMx_perVeh="0.000797" NOx_perVeh="0.016416" fuel_perVeh="0.018840" electricity_perVeh="0"/>
        <edge id=":107_0" sampledSeconds="438.85" CO_abs="10995.953362" CO2_abs="1374062.100633" HC_abs="83.459331" PMx_abs="24.906420" NOx_abs="514.164454" fuel_abs="590.646248" electricity_abs="0"
            CO_normed="253.968871" CO2_normed="31736.129591" HC_normed="1.927625" PMx_normed="0.575253" NOx_normed="11.875438" fuel_normed="13.641906" electricity_normed="0"
            traveltime="0.38" CO_perVeh="9.499079" CO2_perVeh="1187.011586" HC_perVeh="0.072098" PMx_perVeh="0.021516" NOx_perVeh="0.444171" fuel_perVeh="0.510242" electricity_perVeh="0"/>
        <edge id=":108_0" sampledSeconds="93.27" CO_abs="6996.222280" CO2_abs="524630.249403" HC_abs="44.404736" PMx_abs="10.310064" NOx_abs="219.522845" fuel_abs="225.513763" electricity_abs="0"
            CO_normed="109.740675" CO2_normed="8229.195060" HC_normed="0.696520" PMx_normed="0.161721" NOx_normed="3.443370" fuel_normed="3.537342" electricity_normed="0"
            traveltime="0.86" CO_perVeh="64.872615" CO2_perVeh="4864.644809" HC_perVeh="0.411744" PMx_perVeh="0.095600" NOx_perVeh="2.035530" fuel_perVeh="2.091081" electricity_perVeh="0"/>
        <edge id=":108_1" sampledSeconds="403.34" CO_abs="9418.873691" CO2_abs="1171322.754557" HC_abs="71.338603" PMx_abs="21.267023" NOx_abs="438.427645" fuel_abs="503.497897" electricity_abs="0"
            CO_normed="137.777696" CO2_normed="17133.911768" HC_normed="1.043529" PMx_normed="0.311090" NOx_normed="6.413246" fuel_normed="7.365082" electricity_normed="0"
            traveltime="0.60" CO_perVeh="13.991970" CO2_perVeh="1740.028966" HC_perVeh="0.105975" PMx_perVeh="0.031593" NOx_perVeh="0.651295" fuel_perVeh="0.747959" electricity_perVeh="0"/>
        <edge id=":109_0" sampledSeconds="307.47" CO_abs="81.016348" CO2_abs="16320.003854" HC_abs="0.721402" PMx_abs="0.188394" NOx_abs="5.700333" fuel_abs="7.015309" electricity_abs="0"
            CO_normed="1.218144" CO2_normed="245.383969" HC_normed="0.010847" PMx_normed="0.002833" NOx_normed="0.085709" fuel_normed="0.105481" electricity_normed="0"
            traveltime="0.85" CO_perVeh="0.225180" CO2_perVeh="45.360452" HC_perVeh="0.002005" PMx_perVeh="0.000524" NOx_perVeh="0.015844" fuel_perVeh="0.019499" electricity_perVeh="0"/>
        <edge id=":109_1" sampledSeconds="524.28" CO_abs="12821.439232" CO2_abs="1614230.620941" HC_abs="97.578306" PMx_abs="29.210840" NOx_abs="602.879658" fuel_abs="693.883747" electricity_abs="0"
            CO_normed="125.748081" CO2_normed="15831.795446" HC_normed="0.957013" PMx_normed="0.286489" NOx_normed="5.912828" fuel_normed="6.805363" electricity_normed="0"
            traveltime="0.89" CO_perVeh="21.831858" CO2_perVeh="2748.650326" HC_perVeh="0.166153" PMx_perVeh="0.049739" NOx_perVeh="1.026560" fuel_perVeh="1.181519" electricity_perVeh="0"/>
        <edge id=":11_0" sampledSeconds="271.07" CO_abs="16177.246073" CO2_abs="1173635.874283" HC_abs="101.368191" PMx_abs="20.981084" NOx_abs="481.392205" fuel_abs="504.493887" electricity_abs="0"
            CO_normed="167.267428" CO2_normed="12135.010698" HC_normed="1.048114" PMx_normed="0.216938" NOx_normed="4.977438" fuel_normed="5.216302" electricity_normed="0"
            traveltime="1.59" CO_perVeh="95.083652" CO2_perVeh="6898.181870" HC_perVeh="0.595803" PMx_perVeh="0.123319" NOx_perVeh="2.829439" fuel_perVeh="2.965222" electricity_perVeh="0"/>
        <edge id=":11_1" sampledSeconds="50.96" CO_abs="979.893933" CO2_abs="80543.417089" HC_abs="6.308336" PMx_abs="1.126964" NOx_abs="30.918853" fuel_abs="34.622411" electricity_abs="0"
            CO_normed="10.387923" CO2_normed="853.846308" HC_normed="0.066875" PMx_normed="0.011947" NOx_normed="0.327773" fuel_normed="0.367035" electricity_normed="0"
            traveltime="1.68" CO_perVeh="32.228588" CO2_perVeh="2649.062868" HC_perVeh="0.207480" PMx_perVeh="0.037066" NOx_perVeh="1.016917" fuel_perVeh="1.138727" electricity_perVeh="0"/>
        <edge id=":110_0" sampledSeconds="95.01" CO_abs="3.293609" CO2_abs="945.282093" HC_abs="0.037038" PMx_abs="0.012143" NOx_abs="0.334104" fuel_abs="0.406336" electricity_abs="0"
            CO_normed="0.042715" CO2_normed="12.259368" HC_normed="0.000480" PMx_normed="0.000157" NOx_normed="0.004333" fuel_normed="0.005270" electricity_normed="0"
            traveltime="0.93" CO_perVeh="0.032247" CO2_perVeh="9.254999" HC_perVeh="0.000363" PMx_perVeh="0.000119" NOx_perVeh="0.003271" fuel_perVeh="0.003978" electricity_perVeh="0"/>
        <edge id=":110_1" sampledSeconds="443.93" CO_abs="10958.424643" CO2_abs="1364186.904172" HC_abs="83.022041" PMx_abs="24.757155" NOx_abs="510.596128" fuel_abs="586.401345" electricity_abs="0"
            CO_normed="140.669663" CO2_normed="17511.614885" HC_normed="1.065726" PMx_normed="0.317799" NOx_normed="6.554353" fuel_normed="7.527440" electricity_normed="0"
            traveltime="0.68" CO_perVeh="16.833745" CO2_perVeh="2095.590893" HC_perVeh="0.127534" PMx_perVeh="0.038031" NOx_perVeh="0.784350" fuel_perVeh="0.900798" electricity_perVeh="0"/>
        <edge id=":111_0" sampledSeconds="340.94" CO_abs="8001.179012" CO2_abs="1005404.274666" HC_abs="60.924635" PMx_abs="18.215793" NOx_abs="375.712267" fuel_abs="432.177196" electricity_abs="0"
            CO_normed="184.799838" CO2_normed="23221.396134" HC_normed="1.407150" PMx_normed="0.420722" NOx_normed="8.677667" fuel_normed="9.981813" electricity_normed="0"
            traveltime="0.38" CO_perVeh="8.892092" CO2_perVeh="1117.353774" HC_perVeh="0.067708" PMx_perVeh="0.020244" NOx_perVeh="0.417547" fuel_perVeh="0.480299" electricity_perVeh="0"/>
        <edge id=":114_0" sampledSeconds="107.22" CO_abs="10822.530997" CO2_abs="773086.918614" HC_abs="67.919085" PMx_abs="15.756604" NOx_abs="327.741168" fuel_abs="332.313075" electricity_abs="0"
            CO_normed="143.816975" CO2_normed="10273.292100" HC_normed="0.902554" PMx_normed="0.209384" NOx_normed="4.355242" fuel_normed="4.415997" electricity_normed="0"
            traveltime="0.99" CO_perVeh="100.120486" CO2_perVeh="7151.916508" HC_perVeh="0.628327" PMx_perVeh="0.145766" NOx_perVeh="3.031971" fuel_perVeh="3.074267" electricity_perVeh="0"/>
        <edge id=":114_1" sampledSeconds="415.67" CO_abs="10309.305395" CO2_abs="1258764.405729" HC_abs="77.529845" PMx_abs="22.973068" NOx_abs="472.629653" fuel_abs="541.084957" electricity_abs="0"
            CO_normed="136.134071" CO2_normed="16621.946545" HC_normed="1.023779" PMx_normed="0.303359" NOx_normed="6.241061" fuel_normed="7.145011" electricity_normed="0"
            traveltime="0.66" CO_perVeh="16.427587" CO2_perVeh="2005.805563" HC_perVeh="0.123542" PMx_perVeh="0.036607" NOx_perVeh="0.753122" fuel_perVeh="0.862204" electricity_perVeh="0"/>
        <edge id=":115_0" sampledSeconds="79.91" CO_abs="67.837147" CO2_abs="11955.652303" HC_abs="0.577195" PMx_abs="0.137654" NOx_abs="4.258902" fuel_abs="5.139252" electricity_abs="0"
            CO_normed="1.533030" CO2_normed="270.182028" HC_normed="0.013044" PMx_normed="0.003111" NOx_normed="0.096246" fuel_normed="0.116140" electricity_normed="0"
            traveltime="0.63" CO_perVeh="0.533824" CO2_perVeh="94.081328" HC_perVeh="0.004542" PMx_perVeh="0.001083" NOx_perVeh="0.033514" fuel_perVeh="0.040442" electricity_perVeh="0"/>
        <edge id=":115_1" sampledSeconds="72.33" CO_abs="1075.169416" CO2_abs="162378.302867" HC_abs="8.601200" PMx_abs="2.437086" NOx_abs="60.497882" fuel_abs="69.799230" electricity_abs="0"
            CO_normed="21.698762" CO2_normed="3277.072454" HC_normed="0.173587" PMx_normed="0.049185" NOx_normed="1.220951" fuel_normed="1.408668" electricity_normed="0"
            traveltime="0.59" CO_perVeh="8.802061" CO2_perVeh="1329.338177" HC_perVeh="0.070415" PMx_perVeh="0.019952" NOx_perVeh="0.495276" fuel_perVeh="0.571424" electricity_perVeh="0"/>
        <edge id=":116_0" sampledSeconds="75.06" CO_abs="113.806012" CO2_abs="17583.550502" HC_abs="0.917103" PMx_abs="0.210278" NOx_abs="6.343171" fuel_abs="7.558456" electricity_abs="0"
            CO_normed="2.871000" CO2_normed="443.582732" HC_normed="0.023136" PMx_normed="0.005305" NOx_normed="0.160020" fuel_normed="0.190678" electricity_normed="0"
            traveltime="0.57" CO_perVeh="0.859321" CO2_perVeh="132.769003" HC_perVeh="0.006925" PMx_perVeh="0.001588" NOx_perVeh="0.047896" fuel_perVeh="0.057072" electricity_perVeh="0"/>
        <edge id=":117_0" sampledSeconds="238.57" CO_abs="13488.873768" CO2_abs="1122912.694535" HC_abs="88.035009" PMx_abs="20.524704" NOx_abs="457.854749" fuel_abs="482.688421" electricity_abs="0"
            CO_normed="304.830818" CO2_normed="25376.350980" HC_normed="1.989475" PMx_normed="0.463831" NOx_normed="10.346916" fuel_normed="10.908124" electricity_normed="0"
            traveltime="0.60" CO_perVeh="34.023865" CO2_perVeh="2832.395818" HC_perVeh="0.222056" PMx_perVeh="0.051771" NOx_perVeh="1.154877" fuel_perVeh="1.217516" electricity_perVeh="0"/>
        <edge id=":117_1" sampledSeconds="76.20" CO_abs="4524.268871" CO2_abs="368685.400262" HC_abs="29.391480" PMx_abs="6.832698" NOx_abs="151.116641" fuel_abs="158.480790" electricity_abs="0"
            CO_normed="96.357238" CO2_normed="7852.209434" HC_normed="0.625976" PMx_normed="0.145522" NOx_normed="3.218461" fuel_normed="3.375301" electricity_normed="0"
            traveltime="0.64" CO_perVeh="38.250649" CO2_perVeh="3117.068499" HC_perVeh="0.248492" PMx_perVeh="0.057767" NOx_perVeh="1.277623" fuel_perVeh="1.339883" electricity_perVeh="0"/>
        <edge id=":118_0" sampledSeconds="898.44" CO_abs="12235.042029" CO2_abs="1944155.472953" HC_abs="99.047699" PMx_abs="28.467292" NOx_abs="717.964021" fuel_abs="835.706753" electricity_abs="0"
            CO_normed="37.123983" CO2_normed="5899.023031" HC_normed="0.300534" PMx_normed="0.086376" NOx_normed="2.178471" fuel_normed="2.535730" electricity_normed="0"
            traveltime="3.92" CO_perVeh="53.374186" CO2_perVeh="8481.189972" HC_perVeh="0.432086" PMx_perVeh="0.124186" NOx_perVeh="3.132049" fuel_perVeh="3.645690" electricity_perVeh="0"/>
        <edge id=":118_4" sampledSeconds="281.92" CO_abs="4127.991897" CO2_abs="637252.365553" HC_abs="33.369971" PMx_abs="9.457619" NOx_abs="236.359712" fuel_abs="273.926658" electricity_abs="0"
            CO_normed="12.549509" CO2_normed="1937.311102" HC_normed="0.101448" PMx_normed="0.028752" NOx_normed="0.718557" fuel_normed="0.832765" electricity_normed="0"
            traveltime="3.91" CO_perVeh="57.232051" CO2_perVeh="8835.109322" HC_perVeh="0.462654" PMx_perVeh="0.131124" NOx_perVeh="3.276981" fuel_perVeh="3.797823" electricity_perVeh="0"/>
        <edge id=":118_5" sampledSeconds="238.34" CO_abs="3268.444561" CO2_abs="530753.189048" HC_abs="26.627231" PMx_abs="7.816137" NOx_abs="195.829380" fuel_abs="228.147303" electricity_abs="0"
            CO_normed="10.035020" CO2_normed="1629.557587" HC_normed="0.081753" PMx_normed="0.023998" NOx_normed="0.601250" fuel_normed="0.700475" electricity_normed="0"
            traveltime="3.81" CO_perVeh="52.309684" CO2_perVeh="8494.417188" HC_perVeh="0.426154" PMx_perVeh="0.125093" NOx_perVeh="3.134143" fuel_perVeh="3.651374" electricity_perVeh="0"/>
        <edge id=":119_0" sampledSeconds="139.22" CO_abs="1876.712094" CO2_abs="307344.718598" HC_abs="15.449362" PMx_abs="4.484112" NOx_abs="113.287256" fuel_abs="132.113946" electricity_abs="0"
            CO_normed="40.242471" CO2_normed="6590.414631" HC_normed="0.331282" PMx_normed="0.096153" NOx_normed="2.429227" fuel_normed="2.832929" electricity_normed="0"
            traveltime="0.56" CO_perVeh="7.523641" CO2_perVeh="1232.128945" HC_perVeh="0.061936" PMx_perVeh="0.017977" NOx_perVeh="0.454163" fuel_perVeh="0.529638" electricity_perVeh="0"/>
        <edge id=":12_0" sampledSeconds="589.93" CO_abs="54686.333132" CO2_abs="3115257.492160" HC_abs="322.963930" PMx_abs="60.847299" NOx_abs="1326.006135" fuel_abs="1339.111325" electricity_abs="0"
            CO_normed="512.376254" CO2_normed="29187.986672" HC_normed="3.025967" PMx_normed="0.570101" NOx_normed="12.423836" fuel_normed="12.546624" electricity_normed="0"
            traveltime="2.11" CO_perVeh="195.818889" CO2_perVeh="11155.003932" HC_perVeh="1.156458" PMx_perVeh="0.217880" NOx_perVeh="4.748116" fuel_perVeh="4.795043" electricity_perVeh="0"/>
        <edge id=":12_1" sampledSeconds="56.11" CO_abs="1162.807238" CO2_abs="102806.336931" HC_abs="7.647312" PMx_abs="1.392703" NOx_abs="39.046215" fuel_abs="44.192362" electricity_abs="0"
            CO_normed="10.883958" CO2_normed="962.274581" HC_normed="0.071579" PMx_normed="0.013036" NOx_normed="0.365475" fuel_normed="0.413644" electricity_normed="0"
            traveltime="1.89" CO_perVeh="39.211485" CO2_perVeh="3466.773305" HC_perVeh="0.257878" PMx_perVeh="0.046964" NOx_perVeh="1.316693" fuel_perVeh="1.490228" electricity_perVeh="0"/>
        <edge id=":120_0" sampledSeconds="39.00" CO_abs="570.675013" CO2_abs="86481.491097" HC_abs="4.542735" PMx_abs="1.297183" NOx_abs="32.141856" fuel_abs="37.174559" electricity_abs="0"
            CO_normed="448.690911" CO2_normed="67995.721064" HC_normed="3.571707" PMx_normed="1.019905" NOx_normed="25.271404" fuel_normed="29.228346" electricity_normed="0"
            traveltime="0.02" CO_perVeh="0.219578" CO2_perVeh="33.275443" HC_perVeh="0.001748" PMx_perVeh="0.000499" NOx_perVeh="0.012367" fuel_perVeh="0.014304" electricity_perVeh="0"/>
        <edge id=":121_0" sampledSeconds="372.03" CO_abs="53097.157638" CO2_abs="1434593.312593" HC_abs="275.476199" PMx_abs="30.979631" NOx_abs="634.577520" fuel_abs="616.687036" electricity_abs="0"
            CO_normed="30361.763271" CO2_normed="820322.301323" HC_normed="157.521485" PMx_normed="17.714625" NOx_normed="362.861089" fuel_normed="352.631038" electricity_normed="0"
            traveltime="0.11" CO_perVeh="16.193544" CO2_perVeh="437.521527" HC_perVeh="0.084015" PMx_perVeh="0.009448" NOx_perVeh="0.193533" fuel_perVeh="0.188077" electricity_perVeh="0"/>
        <edge id=":122_0" sampledSeconds="135.03" CO_abs="866.869894" CO2_abs="94080.718803" HC_abs="6.157903" PMx_abs="1.612939" NOx_abs="36.843319" fuel_abs="40.440986" electricity_abs="0"
            CO_normed="19.087223" CO2_normed="2071.521577" HC_normed="0.135588" PMx_normed="0.035515" NOx_normed="0.811237" fuel_normed="0.890452" electricity_normed="0"
            traveltime="0.54" CO_perVeh="3.455925" CO2_perVeh="375.068865" HC_perVeh="0.024550" PMx_perVeh="0.006430" NOx_perVeh="0.146882" fuel_perVeh="0.161225" electricity_perVeh="0"/>
        <edge id=":123_0" sampledSeconds="310.72" CO_abs="40015.927300" CO2_abs="2457129.126037" HC_abs="241.214309" PMx_abs="50.491666" NOx_abs="1054.393114" fuel_abs="1056.205372" electricity_abs="0"
            CO_normed="152.606436" CO2_normed="9370.611773" HC_normed="0.919905" PMx_normed="0.192557" NOx_normed="4.021078" fuel_normed="4.027990" electricity_normed="0"
            traveltime="4.23" CO_perVeh="544.939350" CO2_perVeh="33461.334987" HC_perVeh="3.284871" PMx_perVeh="0.687599" NOx_perVeh="14.358790" fuel_perVeh="14.383469" electricity_perVeh="0"/>
        <edge id=":123_1" sampledSeconds="0.00" CO_abs="0" CO2_abs="0" HC_abs="0" PMx_abs="0" NOx_abs="0" fuel_abs="0" electricity_abs="0"
            CO_normed="0" CO2_normed="0" HC_normed="0" PMx_normed="0" NOx_normed="0" fuel_normed="0" electricity_normed="0"/>
        <edge id=":123_2" sampledSeconds="261.01" CO_abs="34196.409630" CO2_abs="2130073.139889" HC_abs="206.897715" PMx_abs="43.838426" NOx_abs="914.142385" fuel_abs="915.618747" electricity_abs="0"
            CO_normed="131.663521" CO2_normed="8201.239029" HC_normed="0.796601" PMx_normed="0.168787" NOx_normed="3.519644" fuel_normed="3.525329" electricity_normed="0"
            traveltime="4.10" CO_perVeh="537.499370" CO2_perVeh="33480.502292" HC_perVeh="3.252020" PMx_perVeh="0.689053" NOx_perVeh="14.368495" fuel_perVeh="14.391701" electricity_perVeh="0"/>
        <edge id=":123_3" sampledSeconds="469.30" CO_abs="23299.781377" CO2_abs="2167985.456850" HC_abs="157.422186" PMx_abs="40.648714" NOx_abs="871.609151" fuel_abs="931.914992" electricity_abs="0"
            CO_normed="91.788017" CO2_normed="8540.641796" HC_normed="0.620155" PMx_normed="0.160133" NOx_normed="3.433649" fuel_normed="3.671220" electricity_normed="0"
            traveltime="2.81" CO_perVeh="139.458630" CO2_perVeh="12976.271228" HC_perVeh="0.942236" PMx_perVeh="0.243299" NOx_perVeh="5.216934" fuel_perVeh="5.577889" electricity_perVeh="0"/>
        <edge id=":123_5" sampledSeconds="0.00" CO_abs="0" CO2_abs="0" HC_abs="0" PMx_abs="0" NOx_abs="0" fuel_abs="0" electricity_abs="0"
            CO_normed="0" CO2_normed="0" HC_normed="0" PMx_normed="0" NOx_normed="0" fuel_normed="0" electricity_normed="0"/>
        <edge id=":123_6" sampledSeconds="194.86" CO_abs="9031.317523" CO2_abs="846452.470534" HC_abs="61.154712" PMx_abs="15.814931" NOx_abs="340.012684" fuel_abs="363.850132" electricity_abs="0"
            CO_normed="34.365816" CO2_normed="3220.906553" HC_normed="0.232705" PMx_normed="0.060179" NOx_normed="1.293810" fuel_normed="1.384516" electricity_normed="0"
            traveltime="2.92" CO_perVeh="135.112569" CO2_perVeh="12663.309344" HC_perVeh="0.914902" PMx_perVeh="0.236598" NOx_perVeh="5.086743" fuel_perVeh="5.443361" electricity_perVeh="0"/>
        <edge id=":124_0" sampledSeconds="118.68" CO_abs="4094.969596" CO2_abs="363887.189201" HC_abs="27.216721" PMx_abs="6.945218" NOx_abs="147.569411" fuel_abs="156.417899" electricity_abs="0"
            CO_normed="95.870567" CO2_normed="8519.250351" HC_normed="0.637192" PMx_normed="0.162600" NOx_normed="3.454864" fuel_normed="3.662023" electricity_normed="0"
            traveltime="0.46" CO_perVeh="15.904557" CO2_perVeh="1413.310755" HC_perVeh="0.105708" PMx_perVeh="0.026975" NOx_perVeh="0.573149" fuel_perVeh="0.607515" electricity_perVeh="0"/>
        <edge id=":125_0" sampledSeconds="141.51" CO_abs="5450.733612" CO2_abs="533396.890626" HC_abs="37.469379" PMx_abs="10.070066" NOx_abs="211.740267" fuel_abs="229.282211" electricity_abs="0"
            CO_normed="342.849373" CO2_normed="33550.491076" HC_normed="2.356812" PMx_normed="0.633404" NOx_normed="13.318394" fuel_normed="14.421777" electricity_normed="0"
            traveltime="0.16" CO_perVeh="6.242494" CO2_perVeh="610.876811" HC_perVeh="0.042912" PMx_perVeh="0.011533" NOx_perVeh="0.242497" fuel_perVeh="0.262587" electricity_perVeh="0"/>
        <edge id=":125_3" sampledSeconds="0.00" CO_abs="0" CO2_abs="0" HC_abs="0" PMx_abs="0" NOx_abs="0" fuel_abs="0" electricity_abs="0"
            CO_normed="0" CO2_normed="0" HC_normed="0" PMx_normed="0" NOx_normed="0" fuel_normed="0" electricity_normed="0"/>
        <edge id=":126_0" sampledSeconds="27.28" CO_abs="170.945515" CO2_abs="13060.027921" HC_abs="1.083337" PMx_abs="0.214444" NOx_abs="5.231680" fuel_abs="5.613947" electricity_abs="0"
            CO_normed="5.629538" CO2_normed="430.089797" HC_normed="0.035676" PMx_normed="0.007062" NOx_normed="0.172288" fuel_normed="0.184877" electricity_normed="0"
            traveltime="0.56" CO_perVeh="3.518505" CO2_perVeh="268.809457" HC_perVeh="0.022298" PMx_perVeh="0.004414" NOx_perVeh="0.107682" fuel_perVeh="0.115550" electricity_perVeh="0"/>
        <edge id=":126_1" sampledSeconds="81.12" CO_abs="1022.612586" CO2_abs="169237.765829" HC_abs="8.386403" PMx_abs="2.641553" NOx_abs="61.942439" fuel_abs="72.747720" electricity_abs="0"
            CO_normed="29.963664" CO2_normed="4958.851151" HC_normed="0.245731" PMx_normed="0.077400" NOx_normed="1.814981" fuel_normed="2.131588" electricity_normed="0"
            traveltime="0.35" CO_perVeh="4.425020" CO2_perVeh="732.320891" HC_perVeh="0.036289" PMx_perVeh="0.011430" NOx_perVeh="0.268036" fuel_perVeh="0.314792" electricity_perVeh="0"/>
        <edge id=":127_0" sampledSeconds="235.09" CO_abs="5039.110815" CO2_abs="665783.499707" HC_abs="38.253126" PMx_abs="11.238378" NOx_abs="251.021528" fuel_abs="286.189926" electricity_abs="0"
            CO_normed="116.528836" CO2_normed="15396.163884" HC_normed="0.884599" PMx_normed="0.259886" NOx_normed="5.804843" fuel_normed="6.618108" electricity_normed="0"
            traveltime="0.44" CO_perVeh="9.423259" CO2_perVeh="1245.031226" HC_perVeh="0.071534" PMx_perVeh="0.021016" NOx_perVeh="0.469416" fuel_perVeh="0.535182" electricity_perVeh="0"/>
        <edge id=":128_0" sampledSeconds="229.22" CO_abs="301.727173" CO2_abs="37442.111079" HC_abs="2.242564" PMx_abs="0.613793" NOx_abs="14.290397" fuel_abs="16.094670" electricity_abs="0"
            CO_normed="4.663032" CO2_normed="578.647818" HC_normed="0.034658" PMx_normed="0.009486" NOx_normed="0.220850" fuel_normed="0.248735" electricity_normed="0"
            traveltime="0.75" CO_perVeh="0.991887" CO2_perVeh="123.085848" HC_perVeh="0.007372" PMx_perVeh="0.002018" NOx_perVeh="0.046978" fuel_perVeh="0.052909" electricity_perVeh="0"/>
        <edge id=":128_1" sampledSeconds="142.90" CO_abs="140.811273" CO2_abs="18372.649017" HC_abs="1.053803" PMx_abs="0.245438" NOx_abs="6.817627" fuel_abs="7.897632" electricity_abs="0"
            CO_normed="2.247965" CO2_normed="293.308034" HC_normed="0.016823" PMx_normed="0.003918" NOx_normed="0.108839" fuel_normed="0.126081" electricity_normed="0"
            traveltime="0.86" CO_perVeh="0.844084" CO2_perVeh="110.133587" HC_perVeh="0.006317" PMx_perVeh="0.001471" NOx_perVeh="0.040868" fuel_perVeh="0.047342" electricity_perVeh="0"/>
        <edge id=":129_0" sampledSeconds="104.55" CO_abs="5772.527052" CO2_abs="511848.506604" HC_abs="38.393874" PMx_abs="9.705063" NOx_abs="207.829271" fuel_abs="220.019528" electricity_abs="0"
            CO_normed="134.477806" CO2_normed="11924.112861" HC_normed="0.894430" PMx_normed="0.226091" NOx_normed="4.841627" fuel_normed="5.125614" electricity_normed="0"
            traveltime="0.50" CO_perVeh="27.358869" CO2_perVeh="2425.903968" HC_perVeh="0.181968" PMx_perVeh="0.045997" NOx_perVeh="0.985006" fuel_perVeh="1.042782" electricity_perVeh="0"/>
        <edge id=":13_0" sampledSeconds="60.53" CO_abs="5147.954237" CO2_abs="359921.271211" HC_abs="32.053936" PMx_abs="7.062103" NOx_abs="151.623794" fuel_abs="154.713361" electricity_abs="0"
            CO_normed="36.396176" CO2_normed="2544.653165" HC_normed="0.226622" PMx_normed="0.049929" NOx_normed="1.071984" fuel_normed="1.093828" electricity_normed="0"
            traveltime="2.14" CO_perVeh="182.091416" CO2_perVeh="12730.993862" HC_perVeh="1.133799" PMx_perVeh="0.249798" NOx_perVeh="5.363177" fuel_perVeh="5.472460" electricity_perVeh="0"/>
        <edge id=":13_1" sampledSeconds="530.20" CO_abs="13706.769666" CO2_abs="1040287.890049" HC_abs="86.369078" PMx_abs="15.382284" NOx_abs="405.991142" fuel_abs="447.177881" electricity_abs="0"
            CO_normed="136.560405" CO2_normed="10364.377541" HC_normed="0.860494" PMx_normed="0.153254" NOx_normed="4.044886" fuel_normed="4.455229" electricity_normed="0"
            traveltime="1.85" CO_perVeh="47.853592" CO2_perVeh="3631.892409" HC_perVeh="0.301535" PMx_perVeh="0.053703" NOx_perVeh="1.417412" fuel_perVeh="1.561204" electricity_perVeh="0"/>
        <edge id=":132_0" sampledSeconds="41.01" CO_abs="600.838566" CO2_abs="89669.747883" HC_abs="4.770907" PMx_abs="1.355077" NOx_abs="33.473609" fuel_abs="38.545036" electricity_abs="0"
            CO_normed="1133.776516" CO2_normed="169205.940024" HC_normed="9.002655" PMx_normed="2.557016" NOx_normed="63.164373" fuel_normed="72.734108" electricity_normed="0"
            traveltime="6.356991e-03" CO_perVeh="0.093146" CO2_perVeh="13.901209" HC_perVeh="0.000740" PMx_perVeh="0.000210" NOx_perVeh="0.005189" fuel_perVeh="0.005976" electricity_perVeh="0"/>