<?xml version="1.0" encoding="UTF-8"?>

<!-- generated on Mon Nov  9 22:00:04 2020 by Eclipse SUMO sumo Version 1.7.0
<configuration xmlns:xsi="http://www.w3.org/2001/XMLSchema-instance" xsi:noNamespaceSchemaLocation="http://sumo.dlr.de/xsd/sumoConfiguration.xsd">

    <input>
        <net-file value="../dataSets/Porto/6AM7AM_Routing_SaoBento/Porto.net.xml"/>
        <route-files value="../results/Porto/6AM7AM_Routing_SaoBento/cost_PMx-ttime/solution9/Porto.rou.xml"/>
        <additional-files value="moreOutputInfo.xml"/>
    </input>

    <output>
        <emission-output.precision value="6"/>
        <tripinfo-output value="../results/Porto/6AM7AM_Routing_SaoBento/cost_PMx-ttime/solution9/Porto-tripinfo"/>
    </output>

    <processing>
        <collision.action value="warn"/>
        <time-to-teleport value="-1"/>
    </processing>

    <emissions>
        <device.emissions.probability value="1"/>
    </emissions>

    <gui_only>
        <quit-on-end value="true"/>
        <start value="true"/>
    </gui_only>

</configuration>
-->

<meandata xmlns:xsi="http://www.w3.org/2001/XMLSchema-instance" xsi:noNamespaceSchemaLocation="http://sumo.dlr.de/xsd/meandata_file.xsd">
    <interval begin="0.00" end="4700.00" id="emissions-detector">
        <edge id=":1092997347_0" sampledSeconds="285.78" CO_abs="36734.195259" CO2_abs="1455407.345145" HC_abs="201.659496" PMx_abs="29.714491" NOx_abs="632.059436" fuel_abs="625.622367" electricity_abs="0"
            CO_normed="63947.341844" CO2_normed="2533591.123077" HC_normed="351.051347" PMx_normed="51.727354" NOx_normed="1100.296890" fuel_normed="1089.091162" electricity_normed="0"
            traveltime="0.08" CO_perVeh="9.672904" CO2_perVeh="383.240059" HC_perVeh="0.053101" PMx_perVeh="0.007824" NOx_perVeh="0.166435" fuel_perVeh="0.164740" electricity_perVeh="0"/>
        <edge id=":1103427051_0" sampledSeconds="10.80" CO_abs="883.389877" CO2_abs="50548.779075" HC_abs="5.223320" PMx_abs="0.992357" NOx_abs="21.562578" fuel_abs="21.728670" electricity_abs="0"
            CO_normed="2333.238120" CO2_normed="133511.081930" HC_normed="13.796002" PMx_normed="2.621045" NOx_normed="56.951783" fuel_normed="57.390472" electricity_normed="0"
            traveltime="0.03" CO_perVeh="2.420475" CO2_perVeh="138.502891" HC_perVeh="0.014312" PMx_perVeh="0.002719" NOx_perVeh="0.059081" fuel_perVeh="0.059536" electricity_perVeh="0"/>
        <edge id=":1105984386_0" sampledSeconds="23.05" CO_abs="295.292131" CO2_abs="25028.632874" HC_abs="1.912939" PMx_abs="0.320207" NOx_abs="9.409393" fuel_abs="10.758852" electricity_abs="0"
            CO_normed="23.293636" CO2_normed="1974.342712" HC_normed="0.150899" PMx_normed="0.025259" NOx_normed="0.742245" fuel_normed="0.848694" electricity_normed="0"
            traveltime="0.97" CO_perVeh="12.393182" CO2_perVeh="1050.432336" HC_perVeh="0.080285" PMx_perVeh="0.013439" NOx_perVeh="0.394905" fuel_perVeh="0.451541" electricity_perVeh="0"/>
        <edge id=":1105984390_0" sampledSeconds="23.25" CO_abs="72.245927" CO2_abs="4977.148678" HC_abs="0.444288" PMx_abs="0.079020" NOx_abs="1.986621" fuel_abs="2.139472" electricity_abs="0"
            CO_normed="4.405836" CO2_normed="303.525804" HC_normed="0.027094" PMx_normed="0.004819" NOx_normed="0.121152" fuel_normed="0.130473" electricity_normed="0"
            traveltime="1.05" CO_perVeh="3.276317" CO2_perVeh="225.711249" HC_perVeh="0.020148" PMx_perVeh="0.003584" NOx_perVeh="0.090092" fuel_perVeh="0.097024" electricity_perVeh="0"/>
        <edge id=":1105984390_1" sampledSeconds="646.09" CO_abs="14992.083855" CO2_abs="1942628.808600" HC_abs="114.564749" PMx_abs="34.369029" NOx_abs="726.611519" fuel_abs="835.047136" electricity_abs="0"
            CO_normed="874.584788" CO2_normed="113326.047398" HC_normed="6.683300" PMx_normed="2.004967" NOx_normed="42.387929" fuel_normed="48.713676" electricity_normed="0"
            traveltime="0.64" CO_perVeh="14.760867" CO2_perVeh="1912.668384" HC_perVeh="0.112798" PMx_perVeh="0.033839" NOx_perVeh="0.715405" fuel_perVeh="0.822169" electricity_perVeh="0"/>
        <edge id=":1105984395_0" sampledSeconds="8.94" CO_abs="172.232146" CO2_abs="14051.147524" HC_abs="1.105058" PMx_abs="0.190266" NOx_abs="5.356242" fuel_abs="6.040040" electricity_abs="0"
            CO_normed="143.394016" CO2_normed="11698.457698" HC_normed="0.920030" PMx_normed="0.158409" NOx_normed="4.459406" fuel_normed="5.028710" electricity_normed="0"
            traveltime="0.09" CO_perVeh="1.746622" CO2_perVeh="142.494000" HC_perVeh="0.011206" PMx_perVeh="0.001930" NOx_perVeh="0.054318" fuel_perVeh="0.061253" electricity_perVeh="0"/>
        <edge id=":1105984398_0" sampledSeconds="24.07" CO_abs="1551.138153" CO2_abs="108583.698358" HC_abs="9.616757" PMx_abs="1.908864" NOx_abs="44.442292" fuel_abs="46.675389" electricity_abs="0"
            CO_normed="98.271780" CO2_normed="6879.279765" HC_normed="0.609266" PMx_normed="0.120935" NOx_normed="2.815625" fuel_normed="2.957102" electricity_normed="0"
            traveltime="1.11" CO_perVeh="71.563132" CO2_perVeh="5009.605028" HC_perVeh="0.443678" PMx_perVeh="0.088067" NOx_perVeh="2.050384" fuel_perVeh="2.153410" electricity_perVeh="0"/>
        <edge id=":1105984398_1" sampledSeconds="449.83" CO_abs="7878.918694" CO2_abs="908979.075887" HC_abs="56.633574" PMx_abs="13.046036" NOx_abs="344.068751" fuel_abs="390.731386" electricity_abs="0"
            CO_normed="483.179860" CO2_normed="55743.738364" HC_normed="3.473091" PMx_normed="0.800057" NOx_normed="21.100242" fuel_normed="23.961859" electricity_normed="0"
            traveltime="0.96" CO_perVeh="16.732118" CO2_perVeh="1930.359467" HC_perVeh="0.120270" PMx_perVeh="0.027705" NOx_perVeh="0.730684" fuel_perVeh="0.829779" electricity_perVeh="0"/>
        <edge id=":1106006327_0" sampledSeconds="37.83" CO_abs="5156.316551" CO2_abs="170201.869972" HC_abs="27.490031" PMx_abs="3.561873" NOx_abs="74.574436" fuel_abs="73.163682" electricity_abs="0"
            CO_normed="445.769646" CO2_normed="14714.152344" HC_normed="2.376546" PMx_normed="0.307928" NOx_normed="6.447048" fuel_normed="6.325087" electricity_normed="0"
            traveltime="2.05" CO_perVeh="279.726700" CO2_perVeh="9233.336811" HC_perVeh="1.491316" PMx_perVeh="0.193229" NOx_perVeh="4.045613" fuel_perVeh="3.969080" electricity_perVeh="0"/>
        <edge id=":1106006327_1" sampledSeconds="163.77" CO_abs="22270.247054" CO2_abs="738129.747664" HC_abs="118.803006" PMx_abs="15.434012" NOx_abs="323.236031" fuel_abs="317.295468" electricity_abs="0"
            CO_normed="1678.943068" CO2_normed="55647.241824" HC_normed="8.956501" PMx_normed="1.163563" NOx_normed="24.368607" fuel_normed="23.920751" electricity_normed="0"
            traveltime="2.32" CO_perVeh="316.154860" CO2_perVeh="10478.703102" HC_perVeh="1.686562" PMx_perVeh="0.219106" NOx_perVeh="4.588752" fuel_perVeh="4.504418" electricity_perVeh="0"/>
        <edge id=":1106006327_2" sampledSeconds="0.00" CO_abs="0" CO2_abs="0" HC_abs="0" PMx_abs="0" NOx_abs="0" fuel_abs="0" electricity_abs="0"
            CO_normed="0" CO2_normed="0" HC_normed="0" PMx_normed="0" NOx_normed="0" fuel_normed="0" electricity_normed="0"/>
        <edge id=":1106006327_3" sampledSeconds="0.00" CO_abs="0" CO2_abs="0" HC_abs="0" PMx_abs="0" NOx_abs="0" fuel_abs="0" electricity_abs="0"
            CO_normed="0" CO2_normed="0" HC_normed="0" PMx_normed="0" NOx_normed="0" fuel_normed="0" electricity_normed="0"/>
        <edge id=":1107381198_0" sampledSeconds="0.00" CO_abs="0" CO2_abs="0" HC_abs="0" PMx_abs="0" NOx_abs="0" fuel_abs="0" electricity_abs="0"
            CO_normed="0" CO2_normed="0" HC_normed="0" PMx_normed="0" NOx_normed="0" fuel_normed="0" electricity_normed="0"/>
        <edge id=":1107381198_1" sampledSeconds="34.79" CO_abs="1557.122279" CO2_abs="66277.429924" HC_abs="8.619383" PMx_abs="1.142805" NOx_abs="27.425336" fuel_abs="28.490282" electricity_abs="0"
            CO_normed="130.064275" CO2_normed="5536.062269" HC_normed="0.719965" PMx_normed="0.095457" NOx_normed="2.290800" fuel_normed="2.379754" electricity_normed="0"
            traveltime="1.43" CO_perVeh="64.111042" CO2_perVeh="2728.825577" HC_perVeh="0.354884" PMx_perVeh="0.047052" NOx_perVeh="1.129177" fuel_perVeh="1.173024" electricity_perVeh="0"/>
        <edge id=":1110338277_0" sampledSeconds="97.05" CO_abs="1355.303420" CO2_abs="167070.627386" HC_abs="9.975185" PMx_abs="2.228240" NOx_abs="62.123705" fuel_abs="71.816732" electricity_abs="0"
            CO_normed="3707.516954" CO2_normed="457032.111391" HC_normed="27.287740" PMx_normed="6.095489" NOx_normed="169.943267" fuel_normed="196.459144" electricity_normed="0"
            traveltime="0.02" CO_perVeh="0.305443" CO2_perVeh="37.652446" HC_perVeh="0.002248" PMx_perVeh="0.000502" NOx_perVeh="0.014001" fuel_perVeh="0.016185" electricity_perVeh="0"/>
        <edge id=":1110338293_0" sampledSeconds="124.70" CO_abs="5826.241702" CO2_abs="404772.659723" HC_abs="36.029168" PMx_abs="7.025814" NOx_abs="165.173404" fuel_abs="173.994252" electricity_abs="0"
            CO_normed="14875.510729" CO2_normed="1033462.109930" HC_normed="91.989365" PMx_normed="17.938248" NOx_normed="421.719329" fuel_normed="444.240643" electricity_normed="0"
            traveltime="0.03" CO_perVeh="1.336348" CO2_perVeh="92.841500" HC_perVeh="0.008264" PMx_perVeh="0.001611" NOx_perVeh="0.037885" fuel_perVeh="0.039909" electricity_perVeh="0"/>
        <edge id=":1110338295_0" sampledSeconds="0.00" CO_abs="0" CO2_abs="0" HC_abs="0" PMx_abs="0" NOx_abs="0" fuel_abs="0" electricity_abs="0"
            CO_normed="0" CO2_normed="0" HC_normed="0" PMx_normed="0" NOx_normed="0" fuel_normed="0" electricity_normed="0"/>
        <edge id=":1110673403_0" sampledSeconds="143.62" CO_abs="2349.863666" CO2_abs="289305.940962" HC_abs="17.299826" PMx_abs="3.956099" NOx_abs="108.065296" fuel_abs="124.360488" electricity_abs="0"
            CO_normed="5999.651913" CO2_normed="738653.466286" HC_normed="44.169769" PMx_normed="10.100679" NOx_normed="275.911394" fuel_normed="317.516140" electricity_normed="0"
            traveltime="0.02" CO_perVeh="0.377289" CO2_perVeh="46.450296" HC_perVeh="0.002778" PMx_perVeh="0.000635" NOx_perVeh="0.017351" fuel_perVeh="0.019967" electricity_perVeh="0"/>
        <edge id=":1110673412_0" sampledSeconds="252.88" CO_abs="45463.423143" CO2_abs="3097199.316667" HC_abs="282.821687" PMx_abs="68.108969" NOx_abs="1331.685468" fuel_abs="1331.333394" electricity_abs="0"
            CO_normed="120079.474186" CO2_normed="8180423.727074" HC_normed="746.997852" PMx_normed="179.891628" NOx_normed="3517.291037" fuel_normed="3516.361128" electricity_normed="0"
            traveltime="0.02" CO_perVeh="2.795093" CO2_perVeh="190.415944" HC_perVeh="0.017388" PMx_perVeh="0.004187" NOx_perVeh="0.081872" fuel_perVeh="0.081850" electricity_perVeh="0"/>
        <edge id=":1110673414_0" sampledSeconds="0.00" CO_abs="0" CO2_abs="0" HC_abs="0" PMx_abs="0" NOx_abs="0" fuel_abs="0" electricity_abs="0"
            CO_normed="0" CO2_normed="0" HC_normed="0" PMx_normed="0" NOx_normed="0" fuel_normed="0" electricity_normed="0"/>
        <edge id=":1110673414_1" sampledSeconds="183.65" CO_abs="11930.398825" CO2_abs="458277.614849" HC_abs="64.997668" PMx_abs="8.624503" NOx_abs="194.548222" fuel_abs="196.996923" electricity_abs="0"
            CO_normed="1011.979825" CO2_normed="38872.774286" HC_normed="5.513339" PMx_normed="0.731562" NOx_normed="16.502288" fuel_normed="16.709996" electricity_normed="0"
            traveltime="1.60" CO_perVeh="104.239479" CO2_perVeh="4004.109204" HC_perVeh="0.567904" PMx_perVeh="0.075355" NOx_perVeh="1.699826" fuel_perVeh="1.721221" electricity_perVeh="0"/>
        <edge id=":1110673417_0" sampledSeconds="29.65" CO_abs="508.697089" CO2_abs="56065.993799" HC_abs="3.606719" PMx_abs="0.819056" NOx_abs="21.348159" fuel_abs="24.100378" electricity_abs="0"
            CO_normed="1391.572585" CO2_normed="153372.019510" HC_normed="9.866406" PMx_normed="2.240580" NOx_normed="58.399220" fuel_normed="65.928086" electricity_normed="0"
            traveltime="0.02" CO_perVeh="0.377562" CO2_perVeh="41.612931" HC_perVeh="0.002677" PMx_perVeh="0.000608" NOx_perVeh="0.015845" fuel_perVeh="0.017888" electricity_perVeh="0"/>
        <edge id=":1110673446_0" sampledSeconds="333.55" CO_abs="3549.456925" CO2_abs="287367.094180" HC_abs="22.989321" PMx_abs="5.267019" NOx_abs="117.559134" fuel_abs="123.525906" electricity_abs="0"
            CO_normed="9062.443214" CO2_normed="733703.219183" HC_normed="58.696140" PMx_normed="13.447708" NOx_normed="300.150980" fuel_normed="315.385291" electricity_normed="0"
            traveltime="0.02" CO_perVeh="0.242320" CO2_perVeh="19.618443" HC_perVeh="0.001569" PMx_perVeh="0.000360" NOx_perVeh="0.008026" fuel_perVeh="0.008433" electricity_perVeh="0"/>
        <edge id=":1110673451_0" sampledSeconds="37.39" CO_abs="333.363888" CO2_abs="24438.371081" HC_abs="2.078090" PMx_abs="0.351150" NOx_abs="9.492826" fuel_abs="10.505095" electricity_abs="0"
            CO_normed="945.713158" CO2_normed="69328.712287" HC_normed="5.895290" PMx_normed="0.996170" NOx_normed="26.930002" fuel_normed="29.801688" electricity_normed="0"
            traveltime="0.03" CO_perVeh="0.239066" CO2_perVeh="17.525525" HC_perVeh="0.001490" PMx_perVeh="0.000252" NOx_perVeh="0.006808" fuel_perVeh="0.007534" electricity_perVeh="0"/>
        <edge id=":1110673464_0" sampledSeconds="323.70" CO_abs="547.884786" CO2_abs="43568.482665" HC_abs="3.467995" PMx_abs="0.481974" NOx_abs="15.926556" fuel_abs="18.728565" electricity_abs="0"
            CO_normed="29.720710" CO2_normed="2363.428027" HC_normed="0.188126" PMx_normed="0.026145" NOx_normed="0.863956" fuel_normed="1.015955" electricity_normed="0"
            traveltime="1.17" CO_perVeh="1.980533" CO2_perVeh="157.494464" HC_perVeh="0.012536" PMx_perVeh="0.001742" NOx_perVeh="0.057572" fuel_perVeh="0.067701" electricity_perVeh="0"/>
        <edge id=":1110673464_1" sampledSeconds="709.36" CO_abs="17064.336021" CO2_abs="2141273.912198" HC_abs="129.079217" PMx_abs="38.234528" NOx_abs="806.169269" fuel_abs="920.435244" electricity_abs="0"
            CO_normed="907.047554" CO2_normed="113818.507891" HC_normed="6.861151" PMx_normed="2.032340" NOx_normed="42.851586" fuel_normed="48.925346" electricity_normed="0"
            traveltime="0.70" CO_perVeh="16.829127" CO2_perVeh="2111.759331" HC_perVeh="0.127300" PMx_perVeh="0.037708" NOx_perVeh="0.795057" fuel_perVeh="0.907748" electricity_perVeh="0"/>
        <edge id=":1110673479_0" sampledSeconds="133.65" CO_abs="7187.779425" CO2_abs="493197.073182" HC_abs="44.337638" PMx_abs="8.751003" NOx_abs="202.518573" fuel_abs="212.003863" electricity_abs="0"
            CO_normed="18351.777256" CO2_normed="1259226.569826" HC_normed="113.202479" PMx_normed="22.342985" NOx_normed="517.068697" fuel_normed="541.286458" electricity_normed="0"
            traveltime="0.03" CO_perVeh="1.514180" CO2_perVeh="103.897068" HC_perVeh="0.009340" PMx_perVeh="0.001843" NOx_perVeh="0.042663" fuel_perVeh="0.044661" electricity_perVeh="0"/>
        <edge id=":1110673511_0" sampledSeconds="11.59" CO_abs="204.986286" CO2_abs="24635.466452" HC_abs="1.501355" PMx_abs="0.338062" NOx_abs="9.221428" fuel_abs="10.589756" electricity_abs="0"
            CO_normed="523.369242" CO2_normed="62899.063281" HC_normed="3.833247" PMx_normed="0.863138" NOx_normed="23.544073" fuel_normed="27.037675" electricity_normed="0"
            traveltime="0.02" CO_perVeh="0.405913" CO2_perVeh="48.783102" HC_perVeh="0.002973" PMx_perVeh="0.000669" NOx_perVeh="0.018260" fuel_perVeh="0.020970" electricity_perVeh="0"/>
        <edge id=":1110673517_0" sampledSeconds="17.04" CO_abs="790.959063" CO2_abs="59028.539264" HC_abs="4.990438" PMx_abs="1.025159" NOx_abs="23.985767" fuel_abs="25.373775" electricity_abs="0"
            CO_normed="2019.469948" CO2_normed="150711.164078" HC_normed="12.741543" PMx_normed="2.617426" NOx_normed="61.240255" fuel_normed="64.784106" electricity_normed="0"
            traveltime="0.03" CO_perVeh="1.269937" CO2_perVeh="94.774213" HC_perVeh="0.008012" PMx_perVeh="0.001646" NOx_perVeh="0.038511" fuel_perVeh="0.040739" electricity_perVeh="0"/>
        <edge id=":1110673534_0" sampledSeconds="476.45" CO_abs="2655.604405" CO2_abs="232373.255845" HC_abs="17.389684" PMx_abs="3.056552" NOx_abs="87.760587" fuel_abs="99.888189" electricity_abs="0"
            CO_normed="131.400515" CO2_normed="11497.934480" HC_normed="0.860449" PMx_normed="0.151240" NOx_normed="4.342434" fuel_normed="4.942513" electricity_normed="0"
            traveltime="1.44" CO_perVeh="8.000272" CO2_perVeh="700.047486" HC_perVeh="0.052388" PMx_perVeh="0.009208" NOx_perVeh="0.264387" fuel_perVeh="0.300923" electricity_perVeh="0"/>
        <edge id=":1110673534_1" sampledSeconds="183.68" CO_abs="2580.601078" CO2_abs="364190.433392" HC_abs="19.954295" PMx_abs="4.593317" NOx_abs="133.006348" fuel_abs="156.550504" electricity_abs="0"
            CO_normed="124.160214" CO2_normed="17522.259706" HC_normed="0.960059" PMx_normed="0.220998" NOx_normed="6.399322" fuel_normed="7.532100" electricity_normed="0"
            traveltime="1.22" CO_perVeh="17.134265" CO2_perVeh="2418.093731" HC_perVeh="0.132489" PMx_perVeh="0.030498" NOx_perVeh="0.883114" fuel_perVeh="1.039439" electricity_perVeh="0"/>
        <edge id=":1110673549_0" sampledSeconds="60.04" CO_abs="122.030329" CO2_abs="10114.296653" HC_abs="0.792645" PMx_abs="0.165023" NOx_abs="3.997964" fuel_abs="4.347701" electricity_abs="0"
            CO_normed="5.849189" CO2_normed="484.801054" HC_normed="0.037993" PMx_normed="0.007910" NOx_normed="0.191631" fuel_normed="0.208395" electricity_normed="0"
            traveltime="1.25" CO_perVeh="2.542398" CO2_perVeh="210.722755" HC_perVeh="0.016514" PMx_perVeh="0.003438" NOx_perVeh="0.083294" fuel_perVeh="0.090581" electricity_perVeh="0"/>
        <edge id=":1110673549_1" sampledSeconds="639.20" CO_abs="14442.491522" CO2_abs="1860525.963964" HC_abs="110.113385" PMx_abs="32.905139" NOx_abs="697.246266" fuel_abs="799.754832" electricity_abs="0"
            CO_normed="669.632805" CO2_normed="86264.147523" HC_normed="5.105458" PMx_normed="1.525662" NOx_normed="32.328146" fuel_normed="37.081003" electricity_normed="0"
            traveltime="0.80" CO_perVeh="18.180236" CO2_perVeh="2342.033615" HC_perVeh="0.138611" PMx_perVeh="0.041421" NOx_perVeh="0.877695" fuel_perVeh="1.006733" electricity_perVeh="0"/>
        <edge id=":1110673556_0" sampledSeconds="419.73" CO_abs="51753.698765" CO2_abs="2591862.050277" HC_abs="297.269842" PMx_abs="52.238789" NOx_abs="1116.047232" fuel_abs="1114.129424" electricity_abs="0"
            CO_normed="1839.495637" CO2_normed="92123.250047" HC_normed="10.565942" PMx_normed="1.856737" NOx_normed="39.667967" fuel_normed="39.599802" electricity_normed="0"
            traveltime="2.61" CO_perVeh="321.261726" CO2_perVeh="16089.015780" HC_perVeh="1.845306" PMx_perVeh="0.324273" NOx_perVeh="6.927877" fuel_perVeh="6.915972" electricity_perVeh="0"/>
        <edge id=":1110673556_2" sampledSeconds="249.56" CO_abs="23626.027918" CO2_abs="1012029.215933" HC_abs="131.332707" PMx_abs="19.481681" NOx_abs="431.409799" fuel_abs="435.031763" electricity_abs="0"
            CO_normed="878.046192" CO2_normed="37611.417483" HC_normed="4.880896" PMx_normed="0.724024" NOx_normed="16.033069" fuel_normed="16.167677" electricity_normed="0"
            traveltime="3.03" CO_perVeh="286.579191" CO2_perVeh="12275.720456" HC_perVeh="1.593041" PMx_perVeh="0.236309" NOx_perVeh="5.232918" fuel_perVeh="5.276852" electricity_perVeh="0"/>
        <edge id=":1110673556_3" sampledSeconds="417.95" CO_abs="35772.183804" CO2_abs="1289092.917168" HC_abs="192.911265" PMx_abs="24.642190" NOx_abs="550.011162" fuel_abs="554.135562" electricity_abs="0"
            CO_normed="3024.279313" CO2_normed="108983.478977" HC_normed="16.309252" PMx_normed="2.083319" NOx_normed="46.499464" fuel_normed="46.848152" electricity_normed="0"
            traveltime="1.72" CO_perVeh="147.598807" CO2_perVeh="5318.897449" HC_perVeh="0.795967" PMx_perVeh="0.101676" NOx_perVeh="2.269389" fuel_perVeh="2.286406" electricity_perVeh="0"/>
        <edge id=":1110673556_4" sampledSeconds="193.06" CO_abs="20077.177559" CO2_abs="796522.182206" HC_abs="110.090155" PMx_abs="15.477944" NOx_abs="340.985605" fuel_abs="342.394715" electricity_abs="0"
            CO_normed="1036.969903" CO2_normed="41139.723332" HC_normed="5.686067" PMx_normed="0.799423" NOx_normed="17.611629" fuel_normed="17.684409" electricity_normed="0"
            traveltime="2.44" CO_perVeh="253.442750" CO2_perVeh="10054.838238" HC_perVeh="1.389715" PMx_perVeh="0.195385" NOx_perVeh="4.304406" fuel_perVeh="4.322194" electricity_perVeh="0"/>
        <edge id=":1110673556_5" sampledSeconds="25.27" CO_abs="2186.336620" CO2_abs="87446.094426" HC_abs="12.008258" PMx_abs="1.712524" NOx_abs="37.512789" fuel_abs="37.589729" electricity_abs="0"
            CO_normed="157.391054" CO2_normed="6295.111581" HC_normed="0.864456" PMx_normed="0.123282" NOx_normed="2.700489" fuel_normed="2.706028" electricity_normed="0"
            traveltime="1.75" CO_perVeh="151.154137" CO2_perVeh="6045.655911" HC_perVeh="0.830201" PMx_perVeh="0.118397" NOx_perVeh="2.593477" fuel_perVeh="2.598796" electricity_perVeh="0"/>
        <edge id=":1110673556_6" sampledSeconds="305.92" CO_abs="36654.512269" CO2_abs="1888407.423416" HC_abs="211.852303" PMx_abs="38.145336" NOx_abs="813.066079" fuel_abs="811.743732" electricity_abs="0"
            CO_normed="1335.670629" CO2_normed="68812.546554" HC_normed="7.719783" PMx_normed="1.389995" NOx_normed="29.627689" fuel_normed="29.579503" electricity_normed="0"
            traveltime="2.42" CO_perVeh="290.274251" CO2_perVeh="14954.667707" HC_perVeh="1.677700" PMx_perVeh="0.302080" NOx_perVeh="6.438829" fuel_perVeh="6.428357" electricity_perVeh="0"/>
        <edge id=":1110673561_0" sampledSeconds="100.44" CO_abs="10254.618461" CO2_abs="720183.848134" HC_abs="64.056519" PMx_abs="14.795724" NOx_abs="306.283138" fuel_abs="309.572520" electricity_abs="0"
            CO_normed="469.492013" CO2_normed="32972.515335" HC_normed="2.932730" PMx_normed="0.677400" NOx_normed="14.022705" fuel_normed="14.173304" electricity_normed="0"
            traveltime="1.19" CO_perVeh="121.014451" CO2_perVeh="8498.868418" HC_perVeh="0.755929" PMx_perVeh="0.174604" NOx_perVeh="3.614438" fuel_perVeh="3.653256" electricity_perVeh="0"/>
        <edge id=":1110673561_1" sampledSeconds="1314.98" CO_abs="121371.574945" CO2_abs="8422843.410039" HC_abs="756.476220" PMx_abs="175.855309" NOx_abs="3599.793181" fuel_abs="3620.573733" electricity_abs="0"
            CO_normed="5417.567696" CO2_normed="375963.848090" HC_normed="33.766235" PMx_normed="7.849515" NOx_normed="160.681142" fuel_normed="161.608707" electricity_normed="0"
            traveltime="1.19" CO_perVeh="110.043474" CO2_perVeh="7636.705309" HC_perVeh="0.685871" PMx_perVeh="0.159442" NOx_perVeh="3.263810" fuel_perVeh="3.282651" electricity_perVeh="0"/>
        <edge id=":1110673562_0" sampledSeconds="104.53" CO_abs="2271.268199" CO2_abs="180419.525928" HC_abs="14.452990" PMx_abs="2.412213" NOx_abs="68.613921" fuel_abs="77.555405" electricity_abs="0"
            CO_normed="6443.314039" CO2_normed="511828.442348" HC_normed="41.001391" PMx_normed="6.843156" NOx_normed="194.649420" fuel_normed="220.015335" electricity_normed="0"
            traveltime="0.03" CO_perVeh="0.578957" CO2_perVeh="45.989759" HC_perVeh="0.003684" PMx_perVeh="0.000615" NOx_perVeh="0.017490" fuel_perVeh="0.019769" electricity_perVeh="0"/>
        <edge id=":1110673564_0" sampledSeconds="28.50" CO_abs="511.617486" CO2_abs="58717.636400" HC_abs="3.680891" PMx_abs="0.840334" NOx_abs="22.230021" fuel_abs="25.240217" electricity_abs="0"
            CO_normed="3918.772234" CO2_normed="449752.108596" HC_normed="28.194055" PMx_normed="6.436603" NOx_normed="170.272505" fuel_normed="193.329320" electricity_normed="0"
            traveltime="7.835261e-03" CO_perVeh="0.140651" CO2_perVeh="16.142306" HC_perVeh="0.001012" PMx_perVeh="0.000231" NOx_perVeh="0.006111" fuel_perVeh="0.006939" electricity_perVeh="0"/>
        <edge id=":1110673588_0" sampledSeconds="11.52" CO_abs="112.359031" CO2_abs="16297.511183" HC_abs="0.888913" PMx_abs="0.219538" NOx_abs="6.023291" fuel_abs="7.005610" electricity_abs="0"
            CO_normed="344.248947" CO2_normed="49932.800219" HC_normed="2.723477" PMx_normed="0.672626" NOx_normed="18.454338" fuel_normed="21.463996" electricity_normed="0"
            traveltime="0.02" CO_perVeh="0.187265" CO2_perVeh="27.162519" HC_perVeh="0.001482" PMx_perVeh="0.000366" NOx_perVeh="0.010039" fuel_perVeh="0.011676" electricity_perVeh="0"/>
        <edge id=":1110673601_0" sampledSeconds="29.81" CO_abs="495.533760" CO2_abs="54556.177528" HC_abs="3.517726" PMx_abs="0.773167" NOx_abs="20.677948" fuel_abs="23.451406" electricity_abs="0"
            CO_normed="1355.563476" CO2_normed="149241.823024" HC_normed="9.622957" PMx_normed="2.115045" NOx_normed="56.565816" fuel_normed="64.152781" electricity_normed="0"
            traveltime="0.02" CO_perVeh="0.367792" CO2_perVeh="40.492325" HC_perVeh="0.002611" PMx_perVeh="0.000574" NOx_perVeh="0.015347" fuel_perVeh="0.017406" electricity_perVeh="0"/>
        <edge id=":1110673617_0" sampledSeconds="238.35" CO_abs="5517.451385" CO2_abs="690096.777347" HC_abs="41.575681" PMx_abs="12.322242" NOx_abs="259.739955" fuel_abs="296.640891" electricity_abs="0"
            CO_normed="14087.109920" CO2_normed="1761949.218757" HC_normed="106.150675" PMx_normed="31.461043" NOx_normed="663.165842" fuel_normed="757.380999" electricity_normed="0"
            traveltime="0.01" CO_perVeh="0.338250" CO2_perVeh="42.306731" HC_perVeh="0.002549" PMx_perVeh="0.000755" NOx_perVeh="0.015923" fuel_perVeh="0.018186" electricity_perVeh="0"/>
        <edge id=":1110673621_0" sampledSeconds="25.88" CO_abs="480.182294" CO2_abs="49695.425946" HC_abs="3.327477" PMx_abs="0.735084" NOx_abs="19.059099" fuel_abs="21.361946" electricity_abs="0"
            CO_normed="1471.196815" CO2_normed="152258.326303" HC_normed="10.194824" PMx_normed="2.252172" NOx_normed="58.393834" fuel_normed="65.449365" electricity_normed="0"
            traveltime="0.02" CO_perVeh="0.363774" CO2_perVeh="37.648050" HC_perVeh="0.002521" PMx_perVeh="0.000557" NOx_perVeh="0.014439" fuel_perVeh="0.016183" electricity_perVeh="0"/>
        <edge id=":1110673630_0" sampledSeconds="54.05" CO_abs="158.906001" CO2_abs="14746.344948" HC_abs="1.055066" PMx_abs="0.167677" NOx_abs="5.393130" fuel_abs="6.338910" electricity_abs="0"
            CO_normed="8.681543" CO2_normed="805.639995" HC_normed="0.057642" PMx_normed="0.009161" NOx_normed="0.294644" fuel_normed="0.346315" electricity_normed="0"
            traveltime="1.26" CO_perVeh="3.709147" CO2_perVeh="344.205774" HC_perVeh="0.024627" PMx_perVeh="0.003914" NOx_perVeh="0.125885" fuel_perVeh="0.147961" electricity_perVeh="0"/>
        <edge id=":1110673630_1" sampledSeconds="7.45" CO_abs="7.693690" CO2_abs="800.788877" HC_abs="0.052982" PMx_abs="0.008607" NOx_abs="0.288647" fuel_abs="0.344230" electricity_abs="0"
            CO_normed="0.512438" CO2_normed="53.336539" HC_normed="0.003529" PMx_normed="0.000573" NOx_normed="0.019225" fuel_normed="0.022927" electricity_normed="0"
            traveltime="1.05" CO_perVeh="1.088953" CO2_perVeh="113.342426" HC_perVeh="0.007499" PMx_perVeh="0.001218" NOx_perVeh="0.040855" fuel_perVeh="0.048722" electricity_perVeh="0"/>
        <edge id=":1110673650_0" sampledSeconds="143.27" CO_abs="2186.571526" CO2_abs="284814.420807" HC_abs="16.455431" PMx_abs="3.838521" NOx_abs="105.804221" fuel_abs="122.429773" electricity_abs="0"
            CO_normed="5582.735811" CO2_normed="727185.755253" HC_normed="42.013867" PMx_normed="9.800479" NOx_normed="270.138435" fuel_normed="312.586656" electricity_normed="0"
            traveltime="0.02" CO_perVeh="0.351712" CO2_perVeh="45.812678" HC_perVeh="0.002647" PMx_perVeh="0.000617" NOx_perVeh="0.017019" fuel_perVeh="0.019693" electricity_perVeh="0"/>
        <edge id=":1110673655_0" sampledSeconds="45.07" CO_abs="796.556692" CO2_abs="83493.758808" HC_abs="5.545679" PMx_abs="1.213090" NOx_abs="31.887831" fuel_abs="35.890433" electricity_abs="0"
            CO_normed="2033.761766" CO2_normed="213175.554404" HC_normed="14.159180" PMx_normed="3.097251" NOx_normed="81.415739" fuel_normed="91.635149" electricity_normed="0"
            traveltime="0.02" CO_perVeh="0.426311" CO2_perVeh="44.685267" HC_perVeh="0.002968" PMx_perVeh="0.000649" NOx_perVeh="0.017066" fuel_perVeh="0.019208" electricity_perVeh="0"/>
        <edge id=":1110673663_0" sampledSeconds="107.90" CO_abs="1875.174684" CO2_abs="234999.567910" HC_abs="13.856793" PMx_abs="3.228066" NOx_abs="87.757690" fuel_abs="101.016409" electricity_abs="0"
            CO_normed="87.686448" CO2_normed="10988.990784" HC_normed="0.647968" PMx_normed="0.150950" NOx_normed="4.103703" fuel_normed="4.723704" electricity_normed="0"
            traveltime="1.27" CO_perVeh="22.024811" CO2_perVeh="2760.180787" HC_perVeh="0.162755" PMx_perVeh="0.037915" NOx_perVeh="1.030755" fuel_perVeh="1.186485" electricity_perVeh="0"/>
        <edge id=":1110673663_1" sampledSeconds="154.72" CO_abs="2453.079824" CO2_abs="320084.999418" HC_abs="18.454100" PMx_abs="4.314200" NOx_abs="118.771613" fuel_abs="137.591122" electricity_abs="0"
            CO_normed="114.850535" CO2_normed="14986.032330" HC_normed="0.864001" PMx_normed="0.201986" NOx_normed="5.560758" fuel_normed="6.441867" electricity_normed="0"
            traveltime="1.25" CO_perVeh="19.820521" CO2_perVeh="2586.239317" HC_perVeh="0.149106" PMx_perVeh="0.034858" NOx_perVeh="0.959657" fuel_perVeh="1.111716" electricity_perVeh="0"/>
        <edge id=":1110673666_0" sampledSeconds="191.76" CO_abs="3947.409096" CO2_abs="325144.777042" HC_abs="25.350316" PMx_abs="4.144536" NOx_abs="122.200551" fuel_abs="139.767417" electricity_abs="0"