<?xml version="1.0" encoding="UTF-8"?>

<!-- generated on Mon Nov  9 22:29:05 2020 by Eclipse SUMO sumo Version 1.7.0
<configuration xmlns:xsi="http://www.w3.org/2001/XMLSchema-instance" xsi:noNamespaceSchemaLocation="http://sumo.dlr.de/xsd/sumoConfiguration.xsd">

    <input>
        <net-file value="../dataSets/Porto/6AM7AM_Routing_SaoBento/Porto.net.xml"/>
        <route-files value="../results/Porto/6AM7AM_Routing_SaoBento/cost_co-length/solution1/Porto.rou.xml"/>
        <additional-files value="moreOutputInfo.xml"/>
    </input>

    <output>
        <emission-output.precision value="6"/>
        <tripinfo-output value="../results/Porto/6AM7AM_Routing_SaoBento/cost_co-length/solution1/Porto-tripinfo"/>
    </output>

    <processing>
        <collision.action value="warn"/>
        <time-to-teleport value="-1"/>
    </processing>

    <emissions>
        <device.emissions.probability value="1"/>
    </emissions>

    <gui_only>
        <quit-on-end value="true"/>
        <start value="true"/>
    </gui_only>

</configuration>
-->

<meandata xmlns:xsi="http://www.w3.org/2001/XMLSchema-instance" xsi:noNamespaceSchemaLocation="http://sumo.dlr.de/xsd/meandata_file.xsd">
    <interval begin="0.00" end="4705.00" id="emissions-detector">
        <edge id=":1092997347_0" sampledSeconds="287.03" CO_abs="36619.767900" CO2_abs="1441717.005770" HC_abs="200.805549" PMx_abs="29.417848" NOx_abs="625.939148" fuel_abs="619.737660" electricity_abs="0"
            CO_normed="63680.400174" CO2_normed="2507091.691997" HC_normed="349.193303" PMx_normed="51.156532" NOx_normed="1088.484654" fuel_normed="1077.700500" electricity_normed="0"
            traveltime="0.08" CO_perVeh="9.666858" CO2_perVeh="380.583359" HC_perVeh="0.053008" PMx_perVeh="0.007766" NOx_perVeh="0.165235" fuel_perVeh="0.163598" electricity_perVeh="0"/>
        <edge id=":1103427051_0" sampledSeconds="10.97" CO_abs="884.597253" CO2_abs="49401.982899" HC_abs="5.203439" PMx_abs="0.984467" NOx_abs="21.188251" fuel_abs="21.235708" electricity_abs="0"
            CO_normed="2333.944162" CO2_normed="130343.463253" HC_normed="13.728887" PMx_normed="2.597443" NOx_normed="55.903626" fuel_normed="56.028837" electricity_normed="0"
            traveltime="0.03" CO_perVeh="2.423783" CO2_perVeh="135.360686" HC_perVeh="0.014257" PMx_perVeh="0.002697" NOx_perVeh="0.058055" fuel_perVeh="0.058186" electricity_perVeh="0"/>
        <edge id=":1105984386_0" sampledSeconds="23.13" CO_abs="351.892785" CO2_abs="30260.195205" HC_abs="2.284010" PMx_abs="0.358007" NOx_abs="11.187252" fuel_abs="13.007741" electricity_abs="0"
            CO_normed="27.728987" CO2_normed="2384.489247" HC_normed="0.179979" PMx_normed="0.028211" NOx_normed="0.881550" fuel_normed="1.025004" electricity_normed="0"
            traveltime="0.97" CO_perVeh="14.768668" CO2_perVeh="1269.996955" HC_perVeh="0.095858" PMx_perVeh="0.015025" NOx_perVeh="0.469520" fuel_perVeh="0.545925" electricity_perVeh="0"/>
        <edge id=":1105984390_0" sampledSeconds="22.75" CO_abs="17.614445" CO2_abs="1723.262256" HC_abs="0.119712" PMx_abs="0.023161" NOx_abs="0.649967" fuel_abs="0.740761" electricity_abs="0"
            CO_normed="1.073056" CO2_normed="104.979526" HC_normed="0.007293" PMx_normed="0.001411" NOx_normed="0.039595" fuel_normed="0.045126" electricity_normed="0"
            traveltime="1.03" CO_perVeh="0.798806" CO2_perVeh="78.149097" HC_perVeh="0.005429" PMx_perVeh="0.001050" NOx_perVeh="0.029476" fuel_perVeh="0.033593" electricity_perVeh="0"/>
        <edge id=":1105984390_1" sampledSeconds="647.00" CO_abs="14338.555951" CO2_abs="1835993.082981" HC_abs="108.983367" PMx_abs="32.534128" NOx_abs="688.601213" fuel_abs="789.209219" electricity_abs="0"
            CO_normed="835.571392" CO2_normed="106991.478151" HC_normed="6.350945" PMx_normed="1.895908" NOx_normed="40.127854" fuel_normed="45.990729" electricity_normed="0"
            traveltime="0.64" CO_perVeh="14.114558" CO2_perVeh="1807.311103" HC_perVeh="0.107281" PMx_perVeh="0.032026" NOx_perVeh="0.677844" fuel_perVeh="0.776880" electricity_perVeh="0"/>
        <edge id=":1105984395_0" sampledSeconds="9.03" CO_abs="150.513067" CO2_abs="12526.883321" HC_abs="0.967639" PMx_abs="0.149876" NOx_abs="4.647854" fuel_abs="5.384846" electricity_abs="0"
            CO_normed="125.178358" CO2_normed="10418.329242" HC_normed="0.804763" PMx_normed="0.124649" NOx_normed="3.865516" fuel_normed="4.478456" electricity_normed="0"
            traveltime="0.09" CO_perVeh="1.526367" CO2_perVeh="127.036295" HC_perVeh="0.009813" PMx_perVeh="0.001520" NOx_perVeh="0.047134" fuel_perVeh="0.054608" electricity_perVeh="0"/>
        <edge id=":1105984398_0" sampledSeconds="22.32" CO_abs="1263.611335" CO2_abs="92675.562001" HC_abs="7.924762" PMx_abs="1.569947" NOx_abs="37.484050" fuel_abs="39.837222" electricity_abs="0"
            CO_normed="79.970550" CO2_normed="5865.186152" HC_normed="0.501537" PMx_normed="0.099358" NOx_normed="2.372264" fuel_normed="2.521190" electricity_normed="0"
            traveltime="1.10" CO_perVeh="62.414288" CO2_perVeh="4577.577827" HC_perVeh="0.391432" PMx_perVeh="0.077545" NOx_perVeh="1.851471" fuel_perVeh="1.967703" electricity_perVeh="0"/>
        <edge id=":1105984398_1" sampledSeconds="451.28" CO_abs="7563.537225" CO2_abs="884002.426587" HC_abs="54.684127" PMx_abs="12.642707" NOx_abs="334.198220" fuel_abs="379.994997" electricity_abs="0"
            CO_normed="463.345963" CO2_normed="54154.417872" HC_normed="3.349976" PMx_normed="0.774498" NOx_normed="20.473145" fuel_normed="23.278678" electricity_normed="0"
            traveltime="0.95" CO_perVeh="15.977948" CO2_perVeh="1867.452251" HC_perVeh="0.115520" PMx_perVeh="0.026708" NOx_perVeh="0.705993" fuel_perVeh="0.802738" electricity_perVeh="0"/>
        <edge id=":1106006327_0" sampledSeconds="306.43" CO_abs="41346.547632" CO2_abs="1338365.287536" HC_abs="219.768449" PMx_abs="27.922259" NOx_abs="585.853044" fuel_abs="575.316073" electricity_abs="0"
            CO_normed="3570.659221" CO2_normed="115580.299406" HC_normed="18.979051" PMx_normed="2.411347" NOx_normed="50.593863" fuel_normed="49.683898" electricity_normed="0"
            traveltime="2.10" CO_perVeh="283.329140" CO2_perVeh="9171.210370" HC_perVeh="1.505974" PMx_perVeh="0.191339" NOx_perVeh="4.014585" fuel_perVeh="3.942380" electricity_perVeh="0"/>
        <edge id=":1106006327_1" sampledSeconds="158.96" CO_abs="21585.860638" CO2_abs="730132.608198" HC_abs="115.506350" PMx_abs="15.242831" NOx_abs="319.629945" fuel_abs="313.857437" electricity_abs="0"
            CO_normed="1625.618129" CO2_normed="54985.845798" HC_normed="8.698713" PMx_normed="1.147928" NOx_normed="24.071138" fuel_normed="23.636414" electricity_normed="0"
            traveltime="2.26" CO_perVeh="306.439113" CO2_perVeh="10365.173401" HC_perVeh="1.639762" PMx_perVeh="0.216392" NOx_perVeh="4.537559" fuel_perVeh="4.455611" electricity_perVeh="0"/>
        <edge id=":1106006327_2" sampledSeconds="0.00" CO_abs="0" CO2_abs="0" HC_abs="0" PMx_abs="0" NOx_abs="0" fuel_abs="0" electricity_abs="0"
            CO_normed="0" CO2_normed="0" HC_normed="0" PMx_normed="0" NOx_normed="0" fuel_normed="0" electricity_normed="0"/>
        <edge id=":1106006327_3" sampledSeconds="0.00" CO_abs="0" CO2_abs="0" HC_abs="0" PMx_abs="0" NOx_abs="0" fuel_abs="0" electricity_abs="0"
            CO_normed="0" CO2_normed="0" HC_normed="0" PMx_normed="0" NOx_normed="0" fuel_normed="0" electricity_normed="0"/>
        <edge id=":1107381198_0" sampledSeconds="0.00" CO_abs="0" CO2_abs="0" HC_abs="0" PMx_abs="0" NOx_abs="0" fuel_abs="0" electricity_abs="0"
            CO_normed="0" CO2_normed="0" HC_normed="0" PMx_normed="0" NOx_normed="0" fuel_normed="0" electricity_normed="0"/>
        <edge id=":1107381198_1" sampledSeconds="36.32" CO_abs="1559.340164" CO2_abs="63328.605987" HC_abs="8.552747" PMx_abs="1.059338" NOx_abs="26.009219" fuel_abs="27.222798" electricity_abs="0"
            CO_normed="130.111116" CO2_normed="5284.129660" HC_normed="0.713640" PMx_normed="0.088391" NOx_normed="2.170205" fuel_normed="2.271466" electricity_normed="0"
            traveltime="1.50" CO_perVeh="64.202359" CO2_perVeh="2607.414318" HC_perVeh="0.352140" PMx_perVeh="0.043616" NOx_perVeh="1.070872" fuel_perVeh="1.120838" electricity_perVeh="0"/>
        <edge id=":1110338277_0" sampledSeconds="96.75" CO_abs="1663.136365" CO2_abs="192532.357655" HC_abs="12.016610" PMx_abs="2.748642" NOx_abs="72.848948" fuel_abs="82.761480" electricity_abs="0"
            CO_normed="4544.778287" CO2_normed="526124.554090" HC_normed="32.837251" PMx_normed="7.511090" NOx_normed="199.071059" fuel_normed="226.158590" electricity_normed="0"
            traveltime="0.02" CO_perVeh="0.374823" CO2_perVeh="43.391286" HC_perVeh="0.002708" PMx_perVeh="0.000619" NOx_perVeh="0.016418" fuel_perVeh="0.018652" electricity_perVeh="0"/>
        <edge id=":1110338293_0" sampledSeconds="123.14" CO_abs="6620.342647" CO2_abs="453143.467881" HC_abs="40.795351" PMx_abs="7.965885" NOx_abs="185.649366" fuel_abs="194.786690" electricity_abs="0"
            CO_normed="16885.039694" CO2_normed="1155732.542948" HC_normed="104.047654" PMx_normed="20.316817" NOx_normed="473.494663" fuel_normed="496.799210" electricity_normed="0"
            traveltime="0.03" CO_perVeh="1.518498" CO2_perVeh="103.936826" HC_perVeh="0.009357" PMx_perVeh="0.001827" NOx_perVeh="0.042582" fuel_perVeh="0.044678" electricity_perVeh="0"/>
        <edge id=":1110338295_0" sampledSeconds="0.00" CO_abs="0" CO2_abs="0" HC_abs="0" PMx_abs="0" NOx_abs="0" fuel_abs="0" electricity_abs="0"
            CO_normed="0" CO2_normed="0" HC_normed="0" PMx_normed="0" NOx_normed="0" fuel_normed="0" electricity_normed="0"/>
        <edge id=":1110673403_0" sampledSeconds="143.75" CO_abs="2308.376825" CO2_abs="278486.123079" HC_abs="16.867181" PMx_abs="3.842701" NOx_abs="104.373307" fuel_abs="119.709476" electricity_abs="0"
            CO_normed="5887.464803" CO2_normed="710272.790000" HC_normed="43.019378" PMx_normed="9.800726" NOx_normed="266.201846" fuel_normed="305.316411" electricity_normed="0"
            traveltime="0.02" CO_perVeh="0.370625" CO2_perVeh="44.712784" HC_perVeh="0.002708" PMx_perVeh="0.000617" NOx_perVeh="0.016758" fuel_perVeh="0.019220" electricity_perVeh="0"/>
        <edge id=":1110673412_0" sampledSeconds="252.92" CO_abs="45231.098308" CO2_abs="3080958.142740" HC_abs="281.368081" PMx_abs="67.756290" NOx_abs="1324.647093" fuel_abs="1324.352120" electricity_abs="0"
            CO_normed="119338.893992" CO2_normed="8128879.265539" HC_normed="742.368786" PMx_normed="178.769939" NOx_normed="3494.982985" fuel_normed="3494.204722" electricity_normed="0"
            traveltime="0.02" CO_perVeh="2.780561" CO2_perVeh="189.400500" HC_perVeh="0.017297" PMx_perVeh="0.004165" NOx_perVeh="0.081432" fuel_perVeh="0.081414" electricity_perVeh="0"/>
        <edge id=":1110673414_0" sampledSeconds="0.00" CO_abs="0" CO2_abs="0" HC_abs="0" PMx_abs="0" NOx_abs="0" fuel_abs="0" electricity_abs="0"
            CO_normed="0" CO2_normed="0" HC_normed="0" PMx_normed="0" NOx_normed="0" fuel_normed="0" electricity_normed="0"/>
        <edge id=":1110673414_1" sampledSeconds="182.78" CO_abs="11087.018235" CO2_abs="421602.501501" HC_abs="60.275148" PMx_abs="7.807372" NOx_abs="178.170734" fuel_abs="181.231910" electricity_abs="0"
            CO_normed="939.441810" CO2_normed="35723.853665" HC_normed="5.107324" PMx_normed="0.661546" NOx_normed="15.097029" fuel_normed="15.356413" electricity_normed="0"
            traveltime="1.60" CO_perVeh="96.870609" CO2_perVeh="3683.667720" HC_perVeh="0.526642" PMx_perVeh="0.068215" NOx_perVeh="1.556731" fuel_perVeh="1.583478" electricity_perVeh="0"/>
        <edge id=":1110673417_0" sampledSeconds="30.03" CO_abs="453.987543" CO2_abs="55569.376380" HC_abs="3.326373" PMx_abs="0.729234" NOx_abs="20.598627" fuel_abs="23.886988" electricity_abs="0"
            CO_normed="1240.591434" CO2_normed="151851.946992" HC_normed="9.089830" PMx_normed="1.992744" NOx_normed="56.288945" fuel_normed="65.274904" electricity_normed="0"
            traveltime="0.02" CO_perVeh="0.336956" CO2_perVeh="41.244335" HC_perVeh="0.002469" PMx_perVeh="0.000541" NOx_perVeh="0.015289" fuel_perVeh="0.017729" electricity_perVeh="0"/>
        <edge id=":1110673446_0" sampledSeconds="334.11" CO_abs="3405.706259" CO2_abs="277935.650131" HC_abs="22.090559" PMx_abs="5.016677" NOx_abs="113.168466" fuel_abs="119.471859" electricity_abs="0"
            CO_normed="8686.179618" CO2_normed="708868.820738" HC_normed="56.341491" PMx_normed="12.794926" NOx_normed="288.633708" fuel_normed="304.710372" electricity_normed="0"
            traveltime="0.02" CO_perVeh="0.232432" CO2_perVeh="18.968496" HC_perVeh="0.001508" PMx_perVeh="0.000342" NOx_perVeh="0.007723" fuel_perVeh="0.008154" electricity_perVeh="0"/>
        <edge id=":1110673451_0" sampledSeconds="37.55" CO_abs="271.710440" CO2_abs="18914.744094" HC_abs="1.672932" PMx_abs="0.286334" NOx_abs="7.455060" fuel_abs="8.130693" electricity_abs="0"
            CO_normed="769.990621" CO2_normed="53601.825274" HC_normed="4.740862" PMx_normed="0.811432" NOx_normed="21.126632" fuel_normed="23.041283" electricity_normed="0"
            traveltime="0.03" CO_perVeh="0.194852" CO2_perVeh="13.564358" HC_perVeh="0.001200" PMx_perVeh="0.000205" NOx_perVeh="0.005346" fuel_perVeh="0.005831" electricity_perVeh="0"/>
        <edge id=":1110673464_0" sampledSeconds="322.90" CO_abs="482.371993" CO2_abs="37365.223429" HC_abs="3.044693" PMx_abs="0.484998" NOx_abs="14.113075" fuel_abs="16.061903" electricity_abs="0"
            CO_normed="26.139078" CO2_normed="2024.770291" HC_normed="0.164988" PMx_normed="0.026281" NOx_normed="0.764768" fuel_normed="0.870373" electricity_normed="0"
            traveltime="1.17" CO_perVeh="1.743711" CO2_perVeh="135.070353" HC_perVeh="0.011006" PMx_perVeh="0.001753" NOx_perVeh="0.051017" fuel_perVeh="0.058062" electricity_perVeh="0"/>
        <edge id=":1110673464_1" sampledSeconds="709.67" CO_abs="16281.463972" CO2_abs="2071566.440860" HC_abs="123.601826" PMx_abs="36.795414" NOx_abs="778.143193" fuel_abs="890.471322" electricity_abs="0"
            CO_normed="864.514625" CO2_normed="109996.219521" HC_normed="6.563021" PMx_normed="1.953766" NOx_normed="41.317917" fuel_normed="47.282326" electricity_normed="0"
            traveltime="0.70" CO_perVeh="16.075193" CO2_perVeh="2045.321576" HC_perVeh="0.122036" PMx_perVeh="0.036329" NOx_perVeh="0.768285" fuel_perVeh="0.879190" electricity_perVeh="0"/>
        <edge id=":1110673479_0" sampledSeconds="133.83" CO_abs="6870.497614" CO2_abs="472047.085942" HC_abs="42.416736" PMx_abs="8.484718" NOx_abs="194.516216" fuel_abs="202.912236" electricity_abs="0"
            CO_normed="17523.054489" CO2_normed="1203945.808991" HC_normed="108.182961" PMx_normed="21.640088" NOx_normed="496.109372" fuel_normed="517.523237" electricity_normed="0"
            traveltime="0.03" CO_perVeh="1.447341" CO2_perVeh="99.441604" HC_perVeh="0.008936" PMx_perVeh="0.001787" NOx_perVeh="0.040977" fuel_perVeh="0.042746" electricity_perVeh="0"/>
        <edge id=":1110673511_0" sampledSeconds="11.76" CO_abs="213.891588" CO2_abs="24642.669352" HC_abs="1.532953" PMx_abs="0.337350" NOx_abs="9.250589" fuel_abs="10.592856" electricity_abs="0"
            CO_normed="545.525835" CO2_normed="62850.591332" HC_normed="3.909763" PMx_normed="0.860404" NOx_normed="23.593425" fuel_normed="27.016849" electricity_normed="0"
            traveltime="0.02" CO_perVeh="0.423548" CO2_perVeh="48.797365" HC_perVeh="0.003036" PMx_perVeh="0.000668" NOx_perVeh="0.018318" fuel_perVeh="0.020976" electricity_perVeh="0"/>
        <edge id=":1110673517_0" sampledSeconds="17.00" CO_abs="702.548210" CO2_abs="52528.712009" HC_abs="4.429874" PMx_abs="0.887223" NOx_abs="21.200358" fuel_abs="22.579820" electricity_abs="0"
            CO_normed="1791.833906" CO2_normed="133973.335625" HC_normed="11.298296" PMx_normed="2.262843" NOx_normed="54.071051" fuel_normed="57.589339" electricity_normed="0"
            traveltime="0.03" CO_perVeh="1.127987" CO2_perVeh="84.338312" HC_perVeh="0.007112" PMx_perVeh="0.001424" NOx_perVeh="0.034039" fuel_perVeh="0.036253" electricity_perVeh="0"/>
        <edge id=":1110673534_0" sampledSeconds="477.20" CO_abs="2706.506716" CO2_abs="231024.014412" HC_abs="17.594639" PMx_abs="3.073775" NOx_abs="87.529169" fuel_abs="99.308201" electricity_abs="0"
            CO_normed="133.776869" CO2_normed="11419.025500" HC_normed="0.869666" PMx_normed="0.151930" NOx_normed="4.326381" fuel_normed="4.908593" electricity_normed="0"
            traveltime="1.44" CO_perVeh="8.153620" CO2_perVeh="695.982762" HC_perVeh="0.053006" PMx_perVeh="0.009260" NOx_perVeh="0.263690" fuel_perVeh="0.299176" electricity_perVeh="0"/>
        <edge id=":1110673534_1" sampledSeconds="184.31" CO_abs="2484.321811" CO2_abs="329407.893751" HC_abs="18.808991" PMx_abs="4.384974" NOx_abs="121.935691" fuel_abs="141.598689" electricity_abs="0"
            CO_normed="119.400917" CO2_normed="15831.928205" HC_normed="0.903994" PMx_normed="0.210750" NOx_normed="5.860446" fuel_normed="6.805484" electricity_normed="0"
            traveltime="1.22" CO_perVeh="16.495005" CO2_perVeh="2187.150155" HC_perVeh="0.124885" PMx_perVeh="0.029115" NOx_perVeh="0.809609" fuel_perVeh="0.940164" electricity_perVeh="0"/>
        <edge id=":1110673549_0" sampledSeconds="60.19" CO_abs="123.023466" CO2_abs="17394.504840" HC_abs="0.965587" PMx_abs="0.245813" NOx_abs="6.463597" fuel_abs="7.477150" electricity_abs="0"
            CO_normed="5.890526" CO2_normed="832.871821" HC_normed="0.046234" PMx_normed="0.011770" NOx_normed="0.309486" fuel_normed="0.358016" electricity_normed="0"
            traveltime="1.25" CO_perVeh="2.563089" CO2_perVeh="362.399691" HC_perVeh="0.020117" PMx_perVeh="0.005121" NOx_perVeh="0.134664" fuel_perVeh="0.155780" electricity_perVeh="0"/>
        <edge id=":1110673549_1" sampledSeconds="638.89" CO_abs="13672.778740" CO2_abs="1798775.050845" HC_abs="105.438332" PMx_abs="31.678267" NOx_abs="672.387617" fuel_abs="773.211048" electricity_abs="0"
            CO_normed="633.271023" CO2_normed="83312.407632" HC_normed="4.883502" PMx_normed="1.467217" NOx_normed="31.142433" fuel_normed="35.812190" electricity_normed="0"
            traveltime="0.80" CO_perVeh="17.211323" CO2_perVeh="2264.301847" HC_perVeh="0.132726" PMx_perVeh="0.039877" NOx_perVeh="0.846403" fuel_perVeh="0.973320" electricity_perVeh="0"/>
        <edge id=":1110673556_0" sampledSeconds="418.36" CO_abs="51992.257366" CO2_abs="2605814.206150" HC_abs="298.725639" PMx_abs="52.708923" NOx_abs="1123.262742" fuel_abs="1120.126531" electricity_abs="0"
            CO_normed="1846.010948" CO2_normed="92520.728969" HC_normed="10.606402" PMx_normed="1.871457" NOx_normed="39.882002" fuel_normed="39.770649" electricity_normed="0"
            traveltime="2.60" CO_perVeh="322.742582" CO2_perVeh="16175.623961" HC_perVeh="1.854343" PMx_perVeh="0.327191" NOx_perVeh="6.972667" fuel_perVeh="6.953199" electricity_perVeh="0"/>
        <edge id=":1110673556_2" sampledSeconds="252.17" CO_abs="24423.069654" CO2_abs="1037621.201700" HC_abs="135.585153" PMx_abs="20.124299" NOx_abs="443.310566" fuel_abs="446.032695" electricity_abs="0"
            CO_normed="906.703160" CO2_normed="38521.546871" HC_normed="5.033580" PMx_normed="0.747112" NOx_normed="16.457845" fuel_normed="16.558904" electricity_normed="0"
            traveltime="3.06" CO_perVeh="296.247155" CO2_perVeh="12586.146339" HC_perVeh="1.644622" PMx_perVeh="0.244104" NOx_perVeh="5.377272" fuel_perVeh="5.410291" electricity_perVeh="0"/>
        <edge id=":1110673556_3" sampledSeconds="360.20" CO_abs="32192.716420" CO2_abs="1143418.037933" HC_abs="173.222401" PMx_abs="21.947743" NOx_abs="488.458526" fuel_abs="491.515328" electricity_abs="0"
            CO_normed="2718.768937" CO2_normed="96564.993245" HC_normed="14.629138" PMx_normed="1.853551" NOx_normed="41.251749" fuel_normed="41.509905" electricity_normed="0"
            traveltime="1.75" CO_perVeh="156.443807" CO2_perVeh="5556.557204" HC_perVeh="0.841792" PMx_perVeh="0.106657" NOx_perVeh="2.373714" fuel_perVeh="2.388569" electricity_perVeh="0"/>
        <edge id=":1110673556_4" sampledSeconds="187.82" CO_abs="19786.440529" CO2_abs="793470.401686" HC_abs="108.729706" PMx_abs="15.561578" NOx_abs="340.547843" fuel_abs="341.082475" electricity_abs="0"
            CO_normed="1020.867542" CO2_normed="40938.549700" HC_normed="5.609833" PMx_normed="0.802889" NOx_normed="17.570327" fuel_normed="17.597911" electricity_normed="0"
            traveltime="2.41" CO_perVeh="254.006088" CO2_perVeh="10186.082354" HC_perVeh="1.395805" PMx_perVeh="0.199770" NOx_perVeh="4.371743" fuel_perVeh="4.378606" electricity_perVeh="0"/>
        <edge id=":1110673556_5" sampledSeconds="23.54" CO_abs="1887.968066" CO2_abs="79272.776093" HC_abs="10.450286" PMx_abs="1.499352" NOx_abs="33.670966" fuel_abs="34.076332" electricity_abs="0"
            CO_normed="135.767521" CO2_normed="5700.662268" HC_normed="0.751501" PMx_normed="0.107821" NOx_normed="2.421346" fuel_normed="2.450497" electricity_normed="0"
            traveltime="1.63" CO_perVeh="130.526187" CO2_perVeh="5480.586989" HC_perVeh="0.722489" PMx_perVeh="0.103659" NOx_perVeh="2.327869" fuel_perVeh="2.355895" electricity_perVeh="0"/>
        <edge id=":1110673556_6" sampledSeconds="310.60" CO_abs="38281.203482" CO2_abs="1947901.164545" HC_abs="220.673073" PMx_abs="39.400982" NOx_abs="838.919717" fuel_abs="837.317821" electricity_abs="0"
            CO_normed="1393.463970" CO2_normed="70905.035459" HC_normed="8.032662" PMx_normed="1.434225" NOx_normed="30.537295" fuel_normed="30.478985" electricity_normed="0"
            traveltime="2.46" CO_perVeh="303.156337" CO2_perVeh="15425.810278" HC_perVeh="1.747553" PMx_perVeh="0.312024" NOx_perVeh="6.643569" fuel_perVeh="6.630884" electricity_perVeh="0"/>
        <edge id=":1110673561_0" sampledSeconds="101.00" CO_abs="10040.364751" CO2_abs="709712.346297" HC_abs="62.839388" PMx_abs="14.496942" NOx_abs="301.091171" fuel_abs="305.071420" electricity_abs="0"
            CO_normed="459.194230" CO2_normed="32458.563262" HC_normed="2.873948" PMx_normed="0.663015" NOx_normed="13.770349" fuel_normed="13.952385" electricity_normed="0"
            traveltime="1.19" CO_perVeh="118.486049" CO2_perVeh="8375.294533" HC_perVeh="0.741566" PMx_perVeh="0.171078" NOx_perVeh="3.553168" fuel_perVeh="3.600139" electricity_perVeh="0"/>
        <edge id=":1110673561_1" sampledSeconds="1315.82" CO_abs="121204.219482" CO2_abs="8395501.614297" HC_abs="755.030209" PMx_abs="175.366975" NOx_abs="3589.066117" fuel_abs="3608.820834" electricity_abs="0"
            CO_normed="5404.348275" CO2_normed="374345.174274" HC_normed="33.665876" PMx_normed="7.819399" NOx_normed="160.032079" fuel_normed="160.912918" electricity_normed="0"
            traveltime="1.19" CO_perVeh="110.040817" CO2_perVeh="7622.241735" HC_perVeh="0.685489" PMx_perVeh="0.159215" NOx_perVeh="3.258499" fuel_perVeh="3.276434" electricity_perVeh="0"/>
        <edge id=":1110673562_0" sampledSeconds="103.78" CO_abs="2260.012255" CO2_abs="180023.796673" HC_abs="14.391221" PMx_abs="2.398269" NOx_abs="68.408966" fuel_abs="77.385304" electricity_abs="0"
            CO_normed="6404.568912" CO2_normed="510163.079483" HC_normed="40.782772" PMx_normed="6.796370" NOx_normed="193.861753" fuel_normed="219.299481" electricity_normed="0"
            traveltime="0.03" CO_perVeh="0.576087" CO2_perVeh="45.888885" HC_perVeh="0.003668" PMx_perVeh="0.000611" NOx_perVeh="0.017438" fuel_perVeh="0.019726" electricity_perVeh="0"/>
        <edge id=":1110673564_0" sampledSeconds="28.52" CO_abs="598.707492" CO2_abs="63773.251987" HC_abs="4.209454" PMx_abs="0.946238" NOx_abs="24.433622" fuel_abs="27.413391" electricity_abs="0"
            CO_normed="4580.971249" CO2_normed="487956.869616" HC_normed="32.208358" PMx_normed="7.240075" NOx_normed="186.952260" fuel_normed="209.751772" electricity_normed="0"
            traveltime="7.839464e-03" CO_perVeh="0.164593" CO2_perVeh="17.532165" HC_perVeh="0.001157" PMx_perVeh="0.000260" NOx_perVeh="0.006717" fuel_perVeh="0.007536" electricity_perVeh="0"/>
        <edge id=":1110673588_0" sampledSeconds="11.66" CO_abs="163.516510" CO2_abs="18265.619429" HC_abs="1.166957" PMx_abs="0.255887" NOx_abs="6.894363" fuel_abs="7.851625" electricity_abs="0"
            CO_normed="500.454355" CO2_normed="55903.277318" HC_normed="3.571559" PMx_normed="0.783161" NOx_normed="21.100708" fuel_normed="24.030478" electricity_normed="0"
            traveltime="0.02" CO_perVeh="0.272528" CO2_perVeh="30.442699" HC_perVeh="0.001945" PMx_perVeh="0.000426" NOx_perVeh="0.011491" fuel_perVeh="0.013086" electricity_perVeh="0"/>
        <edge id=":1110673601_0" sampledSeconds="29.69" CO_abs="402.652234" CO2_abs="51118.655324" HC_abs="2.989072" PMx_abs="0.659793" NOx_abs="18.842369" fuel_abs="21.973814" electricity_abs="0"
            CO_normed="1100.309734" CO2_normed="139689.660821" HC_normed="8.168104" PMx_normed="1.802988" NOx_normed="51.489698" fuel_normed="60.046858" electricity_normed="0"
            traveltime="0.02" CO_perVeh="0.298854" CO2_perVeh="37.940950" HC_perVeh="0.002219" PMx_perVeh="0.000490" NOx_perVeh="0.013985" fuel_perVeh="0.016309" electricity_perVeh="0"/>
        <edge id=":1110673617_0" sampledSeconds="238.69" CO_abs="5706.034504" CO2_abs="709877.332364" HC_abs="42.931802" PMx_abs="12.681142" NOx_abs="267.689418" fuel_abs="305.143618" electricity_abs="0"
            CO_normed="14553.116695" CO2_normed="1810526.671278" HC_normed="109.496625" PMx_normed="32.342977" NOx_normed="682.736028" fuel_normed="778.262150" electricity_normed="0"
            traveltime="0.01" CO_perVeh="0.349456" CO2_perVeh="43.475195" HC_perVeh="0.002629" PMx_perVeh="0.000777" NOx_perVeh="0.016394" fuel_perVeh="0.018688" electricity_perVeh="0"/>
        <edge id=":1110673621_0" sampledSeconds="25.69" CO_abs="614.824161" CO2_abs="63820.251660" HC_abs="4.286857" PMx_abs="0.963906" NOx_abs="24.586807" fuel_abs="27.433579" electricity_abs="0"
            CO_normed="1881.714754" CO2_normed="195326.593816" HC_normed="13.120243" PMx_normed="2.950106" NOx_normed="75.249740" fuel_normed="83.962496" electricity_normed="0"
            traveltime="0.02" CO_perVeh="0.465780" CO2_perVeh="48.349106" HC_perVeh="0.003248" PMx_perVeh="0.000730" NOx_perVeh="0.018627" fuel_perVeh="0.020783" electricity_perVeh="0"/>
        <edge id=":1110673630_0" sampledSeconds="54.17" CO_abs="497.400237" CO2_abs="41062.589084" HC_abs="3.209677" PMx_abs="0.590894" NOx_abs="15.854044" fuel_abs="17.651148" electricity_abs="0"
            CO_normed="27.145688" CO2_normed="2240.996553" HC_normed="0.175169" PMx_normed="0.032248" NOx_normed="0.865237" fuel_normed="0.963314" electricity_normed="0"
            traveltime="1.26" CO_perVeh="11.610201" CO2_perVeh="958.473460" HC_perVeh="0.074920" PMx_perVeh="0.013793" NOx_perVeh="0.370061" fuel_perVeh="0.412009" electricity_perVeh="0"/>
        <edge id=":1110673630_1" sampledSeconds="7.40" CO_abs="5.059596" CO2_abs="906.818721" HC_abs="0.043535" PMx_abs="0.009535" NOx_abs="0.318864" fuel_abs="0.389806" electricity_abs="0"
            CO_normed="0.336636" CO2_normed="60.334471" HC_normed="0.002897" PMx_normed="0.000634" NOx_normed="0.021215" fuel_normed="0.025935" electricity_normed="0"
            traveltime="1.05" CO_perVeh="0.716128" CO2_perVeh="128.349727" HC_perVeh="0.006162" PMx_perVeh="0.001350" NOx_perVeh="0.045131" fuel_perVeh="0.055173" electricity_perVeh="0"/>
        <edge id=":1110673650_0" sampledSeconds="143.40" CO_abs="2297.758311" CO2_abs="282042.037727" HC_abs="16.867990" PMx_abs="3.895728" NOx_abs="105.583872" fuel_abs="121.237983" electricity_abs="0"
            CO_normed="5860.382514" CO2_normed="719342.072844" HC_normed="43.021440" PMx_normed="9.935970" NOx_normed="269.289366" fuel_normed="309.214833" electricity_normed="0"
            traveltime="0.02" CO_perVeh="0.369100" CO2_perVeh="45.305745" HC_perVeh="0.002710" PMx_perVeh="0.000626" NOx_perVeh="0.016960" fuel_perVeh="0.019475" electricity_perVeh="0"/>
        <edge id=":1110673655_0" sampledSeconds="44.85" CO_abs="860.429327" CO2_abs="94385.800338" HC_abs="6.072687" PMx_abs="1.311967" NOx_abs="35.604161" fuel_abs="40.572523" electricity_abs="0"
            CO_normed="2194.506254" CO2_normed="240728.927537" HC_normed="15.488257" PMx_normed="3.346144" NOx_normed="90.807636" fuel_normed="103.479335" electricity_normed="0"
            traveltime="0.02" CO_perVeh="0.460492" CO2_perVeh="50.514209" HC_perVeh="0.003250" PMx_perVeh="0.000702" NOx_perVeh="0.019055" fuel_perVeh="0.021714" electricity_perVeh="0"/>
        <edge id=":1110673663_0" sampledSeconds="108.53" CO_abs="1959.805246" CO2_abs="215850.019302" HC_abs="13.950715" PMx_abs="3.199329" NOx_abs="82.454454" fuel_abs="92.784656" electricity_abs="0"
            CO_normed="91.546531" CO2_normed="10082.798020" HC_normed="0.651667" PMx_normed="0.149447" NOx_normed="3.851617" fuel_normed="4.334162" electricity_normed="0"
            traveltime="1.27" CO_perVeh="23.018837" CO2_perVeh="2535.260305" HC_perVeh="0.163858" PMx_perVeh="0.037578" NOx_perVeh="0.968466" fuel_perVeh="1.089800" electricity_perVeh="0"/>
        <edge id=":1110673663_1" sampledSeconds="154.22" CO_abs="2666.528394" CO2_abs="310159.832105" HC_abs="19.317837" PMx_abs="4.489819" NOx_abs="117.532839" fuel_abs="133.324451" electricity_abs="0"
            CO_normed="124.711294" CO2_normed="14505.914942" HC_normed="0.903479" PMx_normed="0.209985" NOx_normed="5.496912" fuel_normed="6.235473" electricity_normed="0"
            traveltime="1.25" CO_perVeh="21.548506" CO2_perVeh="2506.435314" HC_perVeh="0.156110" PMx_perVeh="0.036283" NOx_perVeh="0.949796" fuel_perVeh="1.077409" electricity_perVeh="0"/>
        <edge id=":1110673666_0" sampledSeconds="190.68" CO_abs="3927.683933" CO2_abs="316821.974523" HC_abs="25.102483" PMx_abs="4.215761" NOx_abs="120.280330" fuel_abs="136.189552" electricity_abs="0"