<?xml version="1.0" encoding="UTF-8"?>

<!-- generated on Mon Nov  9 21:55:31 2020 by Eclipse SUMO sumo Version 1.7.0
<configuration xmlns:xsi="http://www.w3.org/2001/XMLSchema-instance" xsi:noNamespaceSchemaLocation="http://sumo.dlr.de/xsd/sumoConfiguration.xsd">

    <input>
        <net-file value="../dataSets/Porto/6AM7AM_Routing_SaoBento/Porto.net.xml"/>
        <route-files value="../results/Porto/6AM7AM_Routing_SaoBento/cost_PMx-ttime/solution5/Porto.rou.xml"/>
        <additional-files value="moreOutputInfo.xml"/>
    </input>

    <output>
        <emission-output.precision value="6"/>
        <tripinfo-output value="../results/Porto/6AM7AM_Routing_SaoBento/cost_PMx-ttime/solution5/Porto-tripinfo"/>
    </output>

    <processing>
        <collision.action value="warn"/>
        <time-to-teleport value="-1"/>
    </processing>

    <emissions>
        <device.emissions.probability value="1"/>
    </emissions>

    <gui_only>
        <quit-on-end value="true"/>
        <start value="true"/>
    </gui_only>

</configuration>
-->

<meandata xmlns:xsi="http://www.w3.org/2001/XMLSchema-instance" xsi:noNamespaceSchemaLocation="http://sumo.dlr.de/xsd/meandata_file.xsd">
    <interval begin="0.00" end="4700.00" id="emissions-detector">
        <edge id=":1092997347_0" sampledSeconds="286.47" CO_abs="36633.087586" CO2_abs="1444077.214845" HC_abs="200.927277" PMx_abs="29.476006" NOx_abs="626.898334" fuel_abs="620.752180" electricity_abs="0"
            CO_normed="63771.332355" CO2_normed="2513867.491993" HC_normed="349.776690" PMx_normed="51.312196" NOx_normed="1091.312380" fuel_normed="1080.613079" electricity_normed="0"
            traveltime="0.08" CO_perVeh="9.645016" CO2_perVeh="380.206785" HC_perVeh="0.052902" PMx_perVeh="0.007761" NOx_perVeh="0.165054" fuel_perVeh="0.163436" electricity_perVeh="0"/>
        <edge id=":1103427051_0" sampledSeconds="11.07" CO_abs="860.294143" CO2_abs="48362.748487" HC_abs="5.062125" PMx_abs="0.931192" NOx_abs="20.519773" fuel_abs="20.789033" electricity_abs="0"
            CO_normed="2272.236914" CO2_normed="127737.266731" HC_normed="13.370250" PMx_normed="2.459494" NOx_normed="54.197492" fuel_normed="54.908672" electricity_normed="0"
            traveltime="0.03" CO_perVeh="2.357193" CO2_perVeh="132.513200" HC_perVeh="0.013870" PMx_perVeh="0.002551" NOx_perVeh="0.056224" fuel_perVeh="0.056962" electricity_perVeh="0"/>
        <edge id=":1105984386_0" sampledSeconds="22.82" CO_abs="584.850365" CO2_abs="43216.126088" HC_abs="3.656241" PMx_abs="0.632859" NOx_abs="16.851021" fuel_abs="18.576893" electricity_abs="0"
            CO_normed="46.134963" CO2_normed="3409.033326" HC_normed="0.288417" PMx_normed="0.049922" NOx_normed="1.329265" fuel_normed="1.465408" electricity_normed="0"
            traveltime="0.96" CO_perVeh="24.545717" CO2_perVeh="1813.747339" HC_perVeh="0.153450" PMx_perVeh="0.026561" NOx_perVeh="0.707224" fuel_perVeh="0.779658" electricity_perVeh="0"/>
        <edge id=":1105984390_0" sampledSeconds="23.30" CO_abs="12.588510" CO2_abs="951.842206" HC_abs="0.079027" PMx_abs="0.013022" NOx_abs="0.365263" fuel_abs="0.409160" electricity_abs="0"
            CO_normed="0.767696" CO2_normed="58.047024" HC_normed="0.004819" PMx_normed="0.000794" NOx_normed="0.022275" fuel_normed="0.024952" electricity_normed="0"
            traveltime="1.06" CO_perVeh="0.570883" CO2_perVeh="43.165577" HC_perVeh="0.003584" PMx_perVeh="0.000591" NOx_perVeh="0.016565" fuel_perVeh="0.018555" electricity_perVeh="0"/>
        <edge id=":1105984390_1" sampledSeconds="645.48" CO_abs="15110.999668" CO2_abs="1962880.661724" HC_abs="115.662428" PMx_abs="34.709442" NOx_abs="734.220708" fuel_abs="843.752474" electricity_abs="0"
            CO_normed="881.521914" CO2_normed="114507.468396" HC_normed="6.747334" PMx_normed="2.024825" NOx_normed="42.831822" fuel_normed="49.221515" electricity_normed="0"
            traveltime="0.64" CO_perVeh="14.882685" CO2_perVeh="1933.223145" HC_perVeh="0.113915" PMx_perVeh="0.034185" NOx_perVeh="0.723127" fuel_perVeh="0.831004" electricity_perVeh="0"/>
        <edge id=":1105984395_0" sampledSeconds="9.07" CO_abs="193.654896" CO2_abs="14956.793629" HC_abs="1.223227" PMx_abs="0.205039" NOx_abs="5.732571" fuel_abs="6.429345" electricity_abs="0"
            CO_normed="161.229793" CO2_normed="12452.464631" HC_normed="1.018413" PMx_normed="0.170708" NOx_normed="4.772723" fuel_normed="5.352831" electricity_normed="0"
            traveltime="0.09" CO_perVeh="1.963872" CO2_perVeh="151.678242" HC_perVeh="0.012405" PMx_perVeh="0.002079" NOx_perVeh="0.058135" fuel_perVeh="0.065201" electricity_perVeh="0"/>
        <edge id=":1105984398_0" sampledSeconds="23.85" CO_abs="1619.205103" CO2_abs="110197.131164" HC_abs="9.980452" PMx_abs="2.030058" NOx_abs="45.750459" fuel_abs="47.368825" electricity_abs="0"
            CO_normed="102.584136" CO2_normed="6981.498199" HC_normed="0.632308" PMx_normed="0.128614" NOx_normed="2.898503" fuel_normed="3.001034" electricity_normed="0"
            traveltime="1.11" CO_perVeh="75.454479" CO2_perVeh="5135.153731" HC_perVeh="0.465086" PMx_perVeh="0.094600" NOx_perVeh="2.131958" fuel_perVeh="2.207373" electricity_perVeh="0"/>
        <edge id=":1105984398_1" sampledSeconds="451.38" CO_abs="7693.526024" CO2_abs="903881.605793" HC_abs="55.836391" PMx_abs="12.931412" NOx_abs="341.734907" fuel_abs="388.540189" electricity_abs="0"
            CO_normed="471.810532" CO2_normed="55431.132665" HC_normed="3.424203" PMx_normed="0.793027" NOx_normed="20.957117" fuel_normed="23.827482" electricity_normed="0"
            traveltime="0.96" CO_perVeh="16.292987" CO2_perVeh="1914.197896" HC_perVeh="0.118248" PMx_perVeh="0.027386" NOx_perVeh="0.723710" fuel_perVeh="0.822832" electricity_perVeh="0"/>
        <edge id=":1106006327_0" sampledSeconds="38.87" CO_abs="5251.273081" CO2_abs="169585.972256" HC_abs="27.902723" PMx_abs="3.540098" NOx_abs="74.246366" fuel_abs="72.899041" electricity_abs="0"
            CO_normed="453.978750" CO2_normed="14660.907260" HC_normed="2.412223" PMx_normed="0.306046" NOx_normed="6.418686" fuel_normed="6.302208" electricity_normed="0"
            traveltime="2.11" CO_perVeh="284.878028" CO2_perVeh="9199.924775" HC_perVeh="1.513704" PMx_perVeh="0.192048" NOx_perVeh="4.027815" fuel_perVeh="3.954724" electricity_perVeh="0"/>
        <edge id=":1106006327_1" sampledSeconds="161.49" CO_abs="21868.201779" CO2_abs="730727.373480" HC_abs="116.796755" PMx_abs="15.247684" NOx_abs="319.821497" fuel_abs="314.113345" electricity_abs="0"
            CO_normed="1648.633071" CO2_normed="55089.180443" HC_normed="8.805250" PMx_normed="1.149515" NOx_normed="24.111187" fuel_normed="23.680852" electricity_normed="0"
            traveltime="2.29" CO_perVeh="310.447309" CO2_perVeh="10373.616860" HC_perVeh="1.658080" PMx_perVeh="0.216461" NOx_perVeh="4.540278" fuel_perVeh="4.459244" electricity_perVeh="0"/>
        <edge id=":1106006327_2" sampledSeconds="0.00" CO_abs="0" CO2_abs="0" HC_abs="0" PMx_abs="0" NOx_abs="0" fuel_abs="0" electricity_abs="0"
            CO_normed="0" CO2_normed="0" HC_normed="0" PMx_normed="0" NOx_normed="0" fuel_normed="0" electricity_normed="0"/>
        <edge id=":1106006327_3" sampledSeconds="0.00" CO_abs="0" CO2_abs="0" HC_abs="0" PMx_abs="0" NOx_abs="0" fuel_abs="0" electricity_abs="0"
            CO_normed="0" CO2_normed="0" HC_normed="0" PMx_normed="0" NOx_normed="0" fuel_normed="0" electricity_normed="0"/>
        <edge id=":1107381198_0" sampledSeconds="0.00" CO_abs="0" CO2_abs="0" HC_abs="0" PMx_abs="0" NOx_abs="0" fuel_abs="0" electricity_abs="0"
            CO_normed="0" CO2_normed="0" HC_normed="0" PMx_normed="0" NOx_normed="0" fuel_normed="0" electricity_normed="0"/>
        <edge id=":1107381198_1" sampledSeconds="35.49" CO_abs="1501.246700" CO2_abs="61636.500156" HC_abs="8.258983" PMx_abs="1.077995" NOx_abs="25.617297" fuel_abs="26.495334" electricity_abs="0"
            CO_normed="125.397065" CO2_normed="5148.411809" HC_normed="0.689861" PMx_normed="0.090043" NOx_normed="2.139777" fuel_normed="2.213119" electricity_normed="0"
            traveltime="1.46" CO_perVeh="61.810490" CO2_perVeh="2537.745629" HC_perVeh="0.340045" PMx_perVeh="0.044384" NOx_perVeh="1.054735" fuel_perVeh="1.090886" electricity_perVeh="0"/>
        <edge id=":1110338277_0" sampledSeconds="96.64" CO_abs="1550.373746" CO2_abs="190603.740023" HC_abs="11.421545" PMx_abs="2.585600" NOx_abs="71.133718" fuel_abs="81.932582" electricity_abs="0"
            CO_normed="4241.143987" CO2_normed="521408.407358" HC_normed="31.244347" PMx_normed="7.073069" NOx_normed="194.590719" fuel_normed="224.131684" electricity_normed="0"
            traveltime="0.02" CO_perVeh="0.350337" CO2_perVeh="43.070584" HC_perVeh="0.002581" PMx_perVeh="0.000584" NOx_perVeh="0.016074" fuel_perVeh="0.018514" electricity_perVeh="0"/>
        <edge id=":1110338293_0" sampledSeconds="124.16" CO_abs="6159.815141" CO2_abs="421738.008667" HC_abs="37.959201" PMx_abs="7.408993" NOx_abs="172.763732" fuel_abs="181.286852" electricity_abs="0"
            CO_normed="15727.187593" CO2_normed="1076777.894469" HC_normed="96.917110" PMx_normed="18.916579" NOx_normed="441.098889" fuel_normed="462.860048" electricity_normed="0"
            traveltime="0.03" CO_perVeh="1.412856" CO2_perVeh="96.732599" HC_perVeh="0.008707" PMx_perVeh="0.001699" NOx_perVeh="0.039626" fuel_perVeh="0.041581" electricity_perVeh="0"/>
        <edge id=":1110338295_0" sampledSeconds="0.00" CO_abs="0" CO2_abs="0" HC_abs="0" PMx_abs="0" NOx_abs="0" fuel_abs="0" electricity_abs="0"
            CO_normed="0" CO2_normed="0" HC_normed="0" PMx_normed="0" NOx_normed="0" fuel_normed="0" electricity_normed="0"/>
        <edge id=":1110673403_0" sampledSeconds="143.67" CO_abs="2305.458017" CO2_abs="284612.477311" HC_abs="16.995524" PMx_abs="3.932083" NOx_abs="106.535363" fuel_abs="122.342902" electricity_abs="0"
            CO_normed="5886.275788" CO2_normed="726670.154836" HC_normed="43.392827" PMx_normed="10.039361" NOx_normed="272.005182" fuel_normed="312.364855" electricity_normed="0"
            traveltime="0.02" CO_perVeh="0.370156" CO2_perVeh="45.696411" HC_perVeh="0.002729" PMx_perVeh="0.000631" NOx_perVeh="0.017105" fuel_perVeh="0.019643" electricity_perVeh="0"/>
        <edge id=":1110673412_0" sampledSeconds="252.03" CO_abs="44484.012800" CO2_abs="3040912.260998" HC_abs="276.980203" PMx_abs="66.801748" NOx_abs="1306.233782" fuel_abs="1307.138419" electricity_abs="0"
            CO_normed="117492.623683" CO2_normed="8031756.522079" HC_normed="731.569135" PMx_normed="176.438953" NOx_normed="3450.067216" fuel_normed="3452.456572" electricity_normed="0"
            traveltime="0.02" CO_perVeh="2.737714" CO2_perVeh="187.149242" HC_perVeh="0.017046" PMx_perVeh="0.004111" NOx_perVeh="0.080391" fuel_perVeh="0.080446" electricity_perVeh="0"/>
        <edge id=":1110673414_0" sampledSeconds="0.00" CO_abs="0" CO2_abs="0" HC_abs="0" PMx_abs="0" NOx_abs="0" fuel_abs="0" electricity_abs="0"
            CO_normed="0" CO2_normed="0" HC_normed="0" PMx_normed="0" NOx_normed="0" fuel_normed="0" electricity_normed="0"/>
        <edge id=":1110673414_1" sampledSeconds="14.26" CO_abs="974.132759" CO2_abs="35629.358979" HC_abs="5.257551" PMx_abs="0.636832" NOx_abs="14.907125" fuel_abs="15.315860" electricity_abs="0"
            CO_normed="82.629484" CO2_normed="3022.211831" HC_normed="0.445965" PMx_normed="0.054018" NOx_normed="1.264477" fuel_normed="1.299147" electricity_normed="0"
            traveltime="1.56" CO_perVeh="106.391132" CO2_perVeh="3891.305172" HC_perVeh="0.574210" PMx_perVeh="0.069552" NOx_perVeh="1.628100" fuel_perVeh="1.672741" electricity_perVeh="0"/>
        <edge id=":1110673417_0" sampledSeconds="29.66" CO_abs="587.647378" CO2_abs="66066.952812" HC_abs="4.189725" PMx_abs="0.935827" NOx_abs="24.992944" fuel_abs="28.399396" electricity_abs="0"
            CO_normed="1607.546018" CO2_normed="180730.266050" HC_normed="11.461255" PMx_normed="2.560012" NOx_normed="68.369754" fuel_normed="77.688316" electricity_normed="0"
            traveltime="0.02" CO_perVeh="0.436169" CO2_perVeh="49.036860" HC_perVeh="0.003110" PMx_perVeh="0.000695" NOx_perVeh="0.018551" fuel_perVeh="0.021079" electricity_perVeh="0"/>
        <edge id=":1110673446_0" sampledSeconds="333.12" CO_abs="3125.653938" CO2_abs="243688.854416" HC_abs="20.029757" PMx_abs="4.574659" NOx_abs="100.538450" fuel_abs="104.750555" electricity_abs="0"
            CO_normed="7980.393034" CO2_normed="622184.309147" HC_normed="51.139806" PMx_normed="11.679981" NOx_normed="256.693914" fuel_normed="267.448225" electricity_normed="0"
            traveltime="0.02" CO_perVeh="0.213272" CO2_perVeh="16.627538" HC_perVeh="0.001367" PMx_perVeh="0.000312" NOx_perVeh="0.006860" fuel_perVeh="0.007147" electricity_perVeh="0"/>
        <edge id=":1110673451_0" sampledSeconds="37.35" CO_abs="412.337563" CO2_abs="29452.543900" HC_abs="2.552272" PMx_abs="0.423614" NOx_abs="11.450104" fuel_abs="12.660498" electricity_abs="0"
            CO_normed="1169.751953" CO2_normed="83553.316028" HC_normed="7.240487" PMx_normed="1.201741" NOx_normed="32.482565" fuel_normed="35.916307" electricity_normed="0"
            traveltime="0.03" CO_perVeh="0.295700" CO2_perVeh="21.121346" HC_perVeh="0.001830" PMx_perVeh="0.000304" NOx_perVeh="0.008211" fuel_perVeh="0.009079" electricity_perVeh="0"/>
        <edge id=":1110673464_0" sampledSeconds="321.96" CO_abs="674.379559" CO2_abs="58540.938851" HC_abs="4.400479" PMx_abs="0.752521" NOx_abs="21.913740" fuel_abs="25.164503" electricity_abs="0"
            CO_normed="36.582581" CO2_normed="3175.628049" HC_normed="0.238710" PMx_normed="0.040821" NOx_normed="1.188739" fuel_normed="1.365081" electricity_normed="0"
            traveltime="1.16" CO_perVeh="2.437793" CO2_perVeh="211.617770" HC_perVeh="0.015907" PMx_perVeh="0.002720" NOx_perVeh="0.079215" fuel_perVeh="0.090966" electricity_perVeh="0"/>
        <edge id=":1110673464_1" sampledSeconds="709.17" CO_abs="15723.020344" CO2_abs="2041226.799357" HC_abs="120.319624" PMx_abs="36.042477" NOx_abs="764.193623" fuel_abs="877.429878" electricity_abs="0"
            CO_normed="835.750487" CO2_normed="108500.545981" HC_normed="6.395539" PMx_normed="1.915823" NOx_normed="40.620388" fuel_normed="46.639414" electricity_normed="0"
            traveltime="0.70" CO_perVeh="15.517491" CO2_perVeh="2014.544179" HC_perVeh="0.118747" PMx_perVeh="0.035571" NOx_perVeh="0.754204" fuel_perVeh="0.865960" electricity_perVeh="0"/>
        <edge id=":1110673479_0" sampledSeconds="133.24" CO_abs="6921.181287" CO2_abs="479726.587016" HC_abs="42.797743" PMx_abs="8.450259" NOx_abs="196.531021" fuel_abs="206.213530" electricity_abs="0"
            CO_normed="17671.101158" CO2_normed="1224833.839190" HC_normed="109.270833" PMx_normed="21.575129" NOx_normed="501.781329" fuel_normed="526.502629" electricity_normed="0"
            traveltime="0.03" CO_perVeh="1.458029" CO2_perVeh="101.060122" HC_perVeh="0.009016" PMx_perVeh="0.001780" NOx_perVeh="0.041402" fuel_perVeh="0.043441" electricity_perVeh="0"/>
        <edge id=":1110673511_0" sampledSeconds="11.74" CO_abs="180.883641" CO2_abs="24616.434678" HC_abs="1.376845" PMx_abs="0.312327" NOx_abs="9.020626" fuel_abs="10.581594" electricity_abs="0"
            CO_normed="461.830574" CO2_normed="62850.471519" HC_normed="3.515349" PMx_normed="0.797429" NOx_normed="23.031386" fuel_normed="27.016837" electricity_normed="0"
            traveltime="0.02" CO_perVeh="0.358185" CO2_perVeh="48.745415" HC_perVeh="0.002726" PMx_perVeh="0.000618" NOx_perVeh="0.017863" fuel_perVeh="0.020954" electricity_perVeh="0"/>
        <edge id=":1110673517_0" sampledSeconds="17.12" CO_abs="801.416749" CO2_abs="56660.616618" HC_abs="4.987639" PMx_abs="1.022265" NOx_abs="23.322988" fuel_abs="24.355881" electricity_abs="0"
            CO_normed="2046.170423" CO2_normed="144665.404130" HC_normed="12.734398" PMx_normed="2.610039" NOx_normed="59.548054" fuel_normed="62.185228" electricity_normed="0"
            traveltime="0.03" CO_perVeh="1.286727" CO2_perVeh="90.972357" HC_perVeh="0.008008" PMx_perVeh="0.001641" NOx_perVeh="0.037447" fuel_perVeh="0.039105" electricity_perVeh="0"/>
        <edge id=":1110673534_0" sampledSeconds="475.84" CO_abs="3016.046460" CO2_abs="269173.834471" HC_abs="19.869936" PMx_abs="3.517103" NOx_abs="101.326039" fuel_abs="115.707324" electricity_abs="0"
            CO_normed="149.235352" CO2_normed="13318.843863" HC_normed="0.983173" PMx_normed="0.174028" NOx_normed="5.013659" fuel_normed="5.725251" electricity_normed="0"
            traveltime="1.43" CO_perVeh="9.086139" CO2_perVeh="810.912879" HC_perVeh="0.059860" PMx_perVeh="0.010596" NOx_perVeh="0.305255" fuel_perVeh="0.348580" electricity_perVeh="0"/>
        <edge id=":1110673534_1" sampledSeconds="183.95" CO_abs="3444.441633" CO2_abs="425791.214433" HC_abs="25.432713" PMx_abs="5.901598" NOx_abs="159.417464" fuel_abs="183.029667" electricity_abs="0"
            CO_normed="165.722093" CO2_normed="20486.052229" HC_normed="1.223642" PMx_normed="0.283943" NOx_normed="7.670037" fuel_normed="8.806089" electricity_normed="0"
            traveltime="1.22" CO_perVeh="22.869856" CO2_perVeh="2827.100802" HC_perVeh="0.168864" PMx_perVeh="0.039184" NOx_perVeh="1.058475" fuel_perVeh="1.215251" electricity_perVeh="0"/>
        <edge id=":1110673549_0" sampledSeconds="61.54" CO_abs="52.335893" CO2_abs="4575.848292" HC_abs="0.340636" PMx_abs="0.050004" NOx_abs="1.663972" fuel_abs="1.966994" electricity_abs="0"
            CO_normed="2.508577" CO2_normed="219.330731" HC_normed="0.016327" PMx_normed="0.002397" NOx_normed="0.079758" fuel_normed="0.094282" electricity_normed="0"
            traveltime="1.28" CO_perVeh="1.090374" CO2_perVeh="95.333901" HC_perVeh="0.007097" PMx_perVeh="0.001042" NOx_perVeh="0.034667" fuel_perVeh="0.040981" electricity_perVeh="0"/>
        <edge id=":1110673549_1" sampledSeconds="639.44" CO_abs="13556.745088" CO2_abs="1786091.739452" HC_abs="104.381481" PMx_abs="31.408564" NOx_abs="667.133288" fuel_abs="767.759108" electricity_abs="0"
            CO_normed="628.564761" CO2_normed="82812.970249" HC_normed="4.839696" PMx_normed="1.456273" NOx_normed="30.931944" fuel_normed="35.597506" electricity_normed="0"
            traveltime="0.80" CO_perVeh="17.065276" CO2_perVeh="2248.338193" HC_perVeh="0.131396" PMx_perVeh="0.039537" NOx_perVeh="0.839790" fuel_perVeh="0.966458" electricity_perVeh="0"/>
        <edge id=":1110673556_0" sampledSeconds="411.11" CO_abs="50292.990514" CO2_abs="2556789.116138" HC_abs="289.790386" PMx_abs="51.403076" NOx_abs="1099.638321" fuel_abs="1099.052682" electricity_abs="0"
            CO_normed="1787.577290" CO2_normed="90876.643314" HC_normed="10.300098" PMx_normed="1.827033" NOx_normed="39.084741" fuel_normed="39.063925" electricity_normed="0"
            traveltime="2.55" CO_perVeh="312.196167" CO2_perVeh="15871.391910" HC_perVeh="1.798888" PMx_perVeh="0.319087" NOx_perVeh="6.826058" fuel_perVeh="6.822423" electricity_perVeh="0"/>
        <edge id=":1110673556_2" sampledSeconds="246.65" CO_abs="23703.685702" CO2_abs="1025966.496483" HC_abs="132.021585" PMx_abs="19.741846" NOx_abs="437.155867" fuel_abs="441.022669" electricity_abs="0"
            CO_normed="880.932294" CO2_normed="38129.387586" HC_normed="4.906498" PMx_normed="0.733693" NOx_normed="16.246618" fuel_normed="16.390325" electricity_normed="0"
            traveltime="2.99" CO_perVeh="287.521165" CO2_perVeh="12444.776998" HC_perVeh="1.601397" PMx_perVeh="0.239465" NOx_perVeh="5.302617" fuel_perVeh="5.349520" electricity_perVeh="0"/>
        <edge id=":1110673556_3" sampledSeconds="414.85" CO_abs="34870.196101" CO2_abs="1223537.324889" HC_abs="187.230627" PMx_abs="23.300831" NOx_abs="521.575984" fuel_abs="525.956435" electricity_abs="0"
            CO_normed="2948.022779" CO2_normed="103441.227974" HC_normed="15.828995" PMx_normed="1.969917" NOx_normed="44.095476" fuel_normed="44.465811" electricity_normed="0"
            traveltime="1.77" CO_perVeh="148.548472" CO2_perVeh="5212.319401" HC_perVeh="0.797610" PMx_perVeh="0.099262" NOx_perVeh="2.221935" fuel_perVeh="2.240596" electricity_perVeh="0"/>
        <edge id=":1110673556_4" sampledSeconds="205.24" CO_abs="21519.437149" CO2_abs="865912.232603" HC_abs="118.308541" PMx_abs="16.899722" NOx_abs="371.088496" fuel_abs="372.222503" electricity_abs="0"
            CO_normed="1111.461439" CO2_normed="44723.663037" HC_normed="6.110540" PMx_normed="0.872857" NOx_normed="19.166419" fuel_normed="19.224990" electricity_normed="0"
            traveltime="2.39" CO_perVeh="250.752929" CO2_perVeh="10089.949249" HC_perVeh="1.378578" PMx_perVeh="0.196922" NOx_perVeh="4.324069" fuel_perVeh="4.337283" electricity_perVeh="0"/>
        <edge id=":1110673556_5" sampledSeconds="23.64" CO_abs="1320.708591" CO2_abs="54455.553916" HC_abs="7.284890" PMx_abs="1.021426" NOx_abs="23.059533" fuel_abs="23.408393" electricity_abs="0"
            CO_normed="95.075806" CO2_normed="3920.172654" HC_normed="0.524428" PMx_normed="0.073531" NOx_normed="1.660021" fuel_normed="1.685135" electricity_normed="0"
            traveltime="1.63" CO_perVeh="91.308248" CO2_perVeh="3764.828419" HC_perVeh="0.503647" PMx_perVeh="0.070617" NOx_perVeh="1.594239" fuel_perVeh="1.618358" electricity_perVeh="0"/>
        <edge id=":1110673556_6" sampledSeconds="543.26" CO_abs="63445.573031" CO2_abs="3151820.983638" HC_abs="363.774163" PMx_abs="63.372190" NOx_abs="1356.176416" fuel_abs="1354.832228" electricity_abs="0"
            CO_normed="2311.922413" CO2_normed="114850.654302" HC_normed="13.255734" PMx_normed="2.309248" NOx_normed="49.418336" fuel_normed="49.369355" electricity_normed="0"
            traveltime="2.58" CO_perVeh="301.029677" CO2_perVeh="14954.418508" HC_perVeh="1.725996" PMx_perVeh="0.300681" NOx_perVeh="6.434639" fuel_perVeh="6.428261" electricity_perVeh="0"/>
        <edge id=":1110673561_0" sampledSeconds="99.58" CO_abs="10282.053867" CO2_abs="727409.402671" HC_abs="64.363610" PMx_abs="14.879551" NOx_abs="308.847463" fuel_abs="312.678487" electricity_abs="0"
            CO_normed="470.748101" CO2_normed="33303.326291" HC_normed="2.946789" PMx_normed="0.681237" NOx_normed="14.140108" fuel_normed="14.315506" electricity_normed="0"
            traveltime="1.18" CO_perVeh="121.338215" CO2_perVeh="8584.136975" HC_perVeh="0.759553" PMx_perVeh="0.175593" NOx_perVeh="3.644700" fuel_perVeh="3.689910" electricity_perVeh="0"/>
        <edge id=":1110673561_1" sampledSeconds="1312.31" CO_abs="122126.702504" CO2_abs="8408254.477715" HC_abs="759.699408" PMx_abs="176.622690" NOx_abs="3601.380697" fuel_abs="3614.301745" electricity_abs="0"
            CO_normed="5451.273732" CO2_normed="375312.653372" HC_normed="33.910106" PMx_normed="7.883768" NOx_normed="160.752003" fuel_normed="161.328749" electricity_normed="0"
            traveltime="1.19" CO_perVeh="110.640174" CO2_perVeh="7617.422903" HC_perVeh="0.688246" PMx_perVeh="0.160011" NOx_perVeh="3.262656" fuel_perVeh="3.274362" electricity_perVeh="0"/>
        <edge id=":1110673562_0" sampledSeconds="104.55" CO_abs="2202.311440" CO2_abs="174415.291375" HC_abs="13.999416" PMx_abs="2.320323" NOx_abs="66.277499" fuel_abs="74.974437" electricity_abs="0"
            CO_normed="6247.692027" CO2_normed="494795.152838" HC_normed="39.714655" PMx_normed="6.582477" NOx_normed="188.021273" fuel_normed="212.693439" electricity_normed="0"
            traveltime="0.03" CO_perVeh="0.561380" CO2_perVeh="44.459308" HC_perVeh="0.003569" PMx_perVeh="0.000591" NOx_perVeh="0.016894" fuel_perVeh="0.019111" electricity_perVeh="0"/>
        <edge id=":1110673564_0" sampledSeconds="28.58" CO_abs="451.603977" CO2_abs="53939.237596" HC_abs="3.295198" PMx_abs="0.742925" NOx_abs="20.212012" fuel_abs="23.186217" electricity_abs="0"
            CO_normed="3459.094292" CO2_normed="413151.607118" HC_normed="25.239813" PMx_normed="5.690491" NOx_normed="154.815410" fuel_normed="177.596559" electricity_normed="0"
            traveltime="7.855913e-03" CO_perVeh="0.124152" CO2_perVeh="14.828656" HC_perVeh="0.000906" PMx_perVeh="0.000204" NOx_perVeh="0.005557" fuel_perVeh="0.006374" electricity_perVeh="0"/>
        <edge id=":1110673588_0" sampledSeconds="11.88" CO_abs="156.874589" CO2_abs="18396.261800" HC_abs="1.136441" PMx_abs="0.267125" NOx_abs="6.977089" fuel_abs="7.907763" electricity_abs="0"
            CO_normed="480.637039" CO2_normed="56363.014878" HC_normed="3.481861" PMx_normed="0.818427" NOx_normed="21.376614" fuel_normed="24.228041" electricity_normed="0"
            traveltime="0.02" CO_perVeh="0.261458" CO2_perVeh="30.660436" HC_perVeh="0.001894" PMx_perVeh="0.000445" NOx_perVeh="0.011628" fuel_perVeh="0.013180" electricity_perVeh="0"/>
        <edge id=":1110673601_0" sampledSeconds="29.43" CO_abs="590.453830" CO2_abs="63138.275228" HC_abs="4.156872" PMx_abs="0.942497" NOx_abs="24.219661" fuel_abs="27.140432" electricity_abs="0"
            CO_normed="1615.223243" CO2_normed="172718.686033" HC_normed="11.371382" PMx_normed="2.578259" NOx_normed="66.254391" fuel_normed="74.244342" electricity_normed="0"
            traveltime="0.02" CO_perVeh="0.438243" CO2_perVeh="46.862073" HC_perVeh="0.003085" PMx_perVeh="0.000700" NOx_perVeh="0.017976" fuel_perVeh="0.020144" electricity_perVeh="0"/>
        <edge id=":1110673617_0" sampledSeconds="238.09" CO_abs="5924.220865" CO2_abs="721354.180303" HC_abs="44.261655" PMx_abs="12.980080" NOx_abs="272.906561" fuel_abs="310.076932" electricity_abs="0"
            CO_normed="15125.670293" CO2_normed="1841755.353965" HC_normed="113.008481" PMx_normed="33.140630" NOx_normed="696.782708" fuel_normed="791.685783" electricity_normed="0"
            traveltime="0.01" CO_perVeh="0.363058" CO2_perVeh="44.207285" HC_perVeh="0.002713" PMx_perVeh="0.000795" NOx_perVeh="0.016725" fuel_perVeh="0.019003" electricity_perVeh="0"/>
        <edge id=":1110673621_0" sampledSeconds="25.83" CO_abs="523.870562" CO2_abs="52091.957696" HC_abs="3.599425" PMx_abs="0.794545" NOx_abs="20.166583" fuel_abs="22.392093" electricity_abs="0"
            CO_normed="1605.050234" CO2_normed="159600.891665" HC_normed="11.028027" PMx_normed="2.434352" NOx_normed="61.786977" fuel_normed="68.605560" electricity_normed="0"
            traveltime="0.02" CO_perVeh="0.396872" CO2_perVeh="39.463604" HC_perVeh="0.002727" PMx_perVeh="0.000602" NOx_perVeh="0.015278" fuel_perVeh="0.016964" electricity_perVeh="0"/>
        <edge id=":1110673630_0" sampledSeconds="54.24" CO_abs="297.093034" CO2_abs="27297.855729" HC_abs="1.978460" PMx_abs="0.371861" NOx_abs="10.364716" fuel_abs="11.734253" electricity_abs="0"
            CO_normed="16.231143" CO2_normed="1491.369178" HC_normed="0.108090" PMx_normed="0.020316" NOx_normed="0.566258" fuel_normed="0.641080" electricity_normed="0"
            traveltime="1.27" CO_perVeh="6.934677" CO2_perVeh="637.180237" HC_perVeh="0.046181" PMx_perVeh="0.008680" NOx_perVeh="0.241931" fuel_perVeh="0.273898" electricity_perVeh="0"/>
        <edge id=":1110673630_1" sampledSeconds="7.38" CO_abs="54.577909" CO2_abs="4380.927994" HC_abs="0.347726" PMx_abs="0.055462" NOx_abs="1.647875" fuel_abs="1.883196" electricity_abs="0"
            CO_normed="3.635161" CO2_normed="291.791689" HC_normed="0.023160" PMx_normed="0.003694" NOx_normed="0.109757" fuel_normed="0.125430" electricity_normed="0"
            traveltime="1.04" CO_perVeh="7.724873" CO2_perVeh="620.069808" HC_perVeh="0.049217" PMx_perVeh="0.007850" NOx_perVeh="0.233238" fuel_perVeh="0.266545" electricity_perVeh="0"/>
        <edge id=":1110673650_0" sampledSeconds="143.11" CO_abs="2316.933748" CO2_abs="286609.548230" HC_abs="17.098836" PMx_abs="3.935608" NOx_abs="107.168416" fuel_abs="123.201389" electricity_abs="0"
            CO_normed="5915.575526" CO2_normed="731769.059310" HC_normed="43.656604" PMx_normed="10.048362" NOx_normed="273.621488" fuel_normed="314.556737" electricity_normed="0"
            traveltime="0.02" CO_perVeh="0.372510" CO2_perVeh="46.080221" HC_perVeh="0.002749" PMx_perVeh="0.000633" NOx_perVeh="0.017230" fuel_perVeh="0.019808" electricity_perVeh="0"/>
        <edge id=":1110673655_0" sampledSeconds="45.09" CO_abs="851.161016" CO2_abs="89534.717236" HC_abs="5.922778" PMx_abs="1.277265" NOx_abs="34.058783" fuel_abs="38.487216" electricity_abs="0"
            CO_normed="2173.177063" CO2_normed="228599.278050" HC_normed="15.121986" PMx_normed="3.261103" NOx_normed="86.958595" fuel_normed="98.265233" electricity_normed="0"
            traveltime="0.02" CO_perVeh="0.455532" CO2_perVeh="47.917965" HC_perVeh="0.003170" PMx_perVeh="0.000684" NOx_perVeh="0.018228" fuel_perVeh="0.020598" electricity_perVeh="0"/>
        <edge id=":1110673663_0" sampledSeconds="108.51" CO_abs="1662.221010" CO2_abs="207364.616503" HC_abs="12.193576" PMx_abs="2.793665" NOx_abs="77.130650" fuel_abs="89.137382" electricity_abs="0"
            CO_normed="77.728361" CO2_normed="9696.732125" HC_normed="0.570193" PMx_normed="0.130637" NOx_normed="3.606764" fuel_normed="4.168220" electricity_normed="0"
            traveltime="1.27" CO_perVeh="19.523675" CO2_perVeh="2435.608321" HC_perVeh="0.143220" PMx_perVeh="0.032813" NOx_perVeh="0.905941" fuel_perVeh="1.046966" electricity_perVeh="0"/>
        <edge id=":1110673663_1" sampledSeconds="153.85" CO_abs="2276.569337" CO2_abs="296948.046438" HC_abs="17.090729" PMx_abs="4.021094" NOx_abs="110.355849" fuel_abs="127.645476" electricity_abs="0"
            CO_normed="106.586506" CO2_normed="13902.785299" HC_normed="0.800169" PMx_normed="0.188263" NOx_normed="5.166741" fuel_normed="5.976223" electricity_normed="0"
            traveltime="1.24" CO_perVeh="18.420874" CO2_perVeh="2402.756824" HC_perVeh="0.138290" PMx_perVeh="0.032537" NOx_perVeh="0.892945" fuel_perVeh="1.032844" electricity_perVeh="0"/>
        <edge id=":1110673666_0" sampledSeconds="192.23" CO_abs="3767.679947" CO2_abs="306464.521154" HC_abs="24.134010" PMx_abs="4.053521" NOx_abs="116.202870" fuel_abs="131.737291" electricity_abs="0"