<?xml version="1.0" encoding="UTF-8"?>

<!-- generated on Tue Nov 10 04:50:52 2020 by Eclipse SUMO sumo Version 1.7.0
<configuration xmlns:xsi="http://www.w3.org/2001/XMLSchema-instance" xsi:noNamespaceSchemaLocation="http://sumo.dlr.de/xsd/sumoConfiguration.xsd">

    <input>
        <net-file value="../dataSets/Porto/8AM9AM_Routing_SaoBento/Porto.net.xml"/>
        <route-files value="../results/Porto/8AM9AM_Routing_SaoBento/cost_PMx-ttime/solution5/Porto.rou.xml"/>
        <additional-files value="moreOutputInfo.xml"/>
    </input>

    <output>
        <emission-output.precision value="6"/>
        <tripinfo-output value="../results/Porto/8AM9AM_Routing_SaoBento/cost_PMx-ttime/solution5/Porto-tripinfo"/>
    </output>

    <processing>
        <collision.action value="warn"/>
        <time-to-teleport value="-1"/>
    </processing>

    <emissions>
        <device.emissions.probability value="1"/>
    </emissions>

    <gui_only>
        <quit-on-end value="true"/>
        <start value="true"/>
    </gui_only>

</configuration>
-->

<meandata xmlns:xsi="http://www.w3.org/2001/XMLSchema-instance" xsi:noNamespaceSchemaLocation="http://sumo.dlr.de/xsd/meandata_file.xsd">
    <interval begin="0.00" end="8562.00" id="emissions-detector">
        <edge id=":1092997347_0" sampledSeconds="589.03" CO_abs="71917.460575" CO2_abs="3087177.302977" HC_abs="400.504572" PMx_abs="62.393227" NOx_abs="1335.302206" fuel_abs="1327.052056" electricity_abs="0"
            CO_normed="68724.081584" CO2_normed="2950096.167717" HC_normed="382.720812" PMx_normed="59.622756" NOx_normed="1276.010262" fuel_normed="1268.126447" electricity_normed="0"
            traveltime="0.07" CO_perVeh="8.248265" CO2_perVeh="354.070580" HC_perVeh="0.045934" PMx_perVeh="0.007156" NOx_perVeh="0.153147" fuel_perVeh="0.152201" electricity_perVeh="0"/>
        <edge id=":1103427051_0" sampledSeconds="19.29" CO_abs="1718.812164" CO2_abs="97078.885747" HC_abs="10.132208" PMx_abs="1.907845" NOx_abs="41.440942" fuel_abs="41.729907" electricity_abs="0"
            CO_normed="2492.055429" CO2_normed="140751.833962" HC_normed="14.690391" PMx_normed="2.766128" NOx_normed="60.084008" fuel_normed="60.502970" electricity_normed="0"
            traveltime="0.03" CO_perVeh="2.672970" CO2_perVeh="150.969953" HC_perVeh="0.015757" PMx_perVeh="0.002967" NOx_perVeh="0.064446" fuel_perVeh="0.064895" electricity_perVeh="0"/>
        <edge id=":1105984386_0" sampledSeconds="10.52" CO_abs="145.096381" CO2_abs="11424.047268" HC_abs="0.917367" PMx_abs="0.134784" NOx_abs="4.236337" fuel_abs="4.910786" electricity_abs="0"
            CO_normed="6.282965" CO2_normed="494.684199" HC_normed="0.039724" PMx_normed="0.005836" NOx_normed="0.183442" fuel_normed="0.212647" electricity_normed="0"
            traveltime="1.01" CO_perVeh="13.919046" CO2_perVeh="1095.904949" HC_perVeh="0.088003" PMx_perVeh="0.012930" NOx_perVeh="0.406390" fuel_perVeh="0.471090" electricity_perVeh="0"/>
        <edge id=":1105984390_0" sampledSeconds="10.97" CO_abs="50.991169" CO2_abs="3190.210738" HC_abs="0.305034" PMx_abs="0.046239" NOx_abs="1.249805" fuel_abs="1.371351" electricity_abs="0"
            CO_normed="1.706996" CO2_normed="106.796498" HC_normed="0.010211" PMx_normed="0.001548" NOx_normed="0.041839" fuel_normed="0.045908" electricity_normed="0"
            traveltime="1.14" CO_perVeh="5.285542" CO2_perVeh="330.684550" HC_perVeh="0.031619" PMx_perVeh="0.004793" NOx_perVeh="0.129550" fuel_perVeh="0.142149" electricity_perVeh="0"/>
        <edge id=":1105984390_1" sampledSeconds="2397.07" CO_abs="64331.821278" CO2_abs="7540012.801046" HC_abs="473.196887" PMx_abs="136.779302" NOx_abs="2876.104056" fuel_abs="3241.102766" electricity_abs="0"
            CO_normed="2060.100455" CO2_normed="241454.127830" HC_normed="15.153203" PMx_normed="4.380089" NOx_normed="92.101594" fuel_normed="103.789962" electricity_normed="0"
            traveltime="0.65" CO_perVeh="17.368545" CO2_perVeh="2035.680716" HC_perVeh="0.127755" PMx_perVeh="0.036928" NOx_perVeh="0.776501" fuel_perVeh="0.875045" electricity_perVeh="0"/>
        <edge id=":1105984395_0" sampledSeconds="4.02" CO_abs="152.997405" CO2_abs="10045.945302" HC_abs="0.927879" PMx_abs="0.153124" NOx_abs="3.975358" fuel_abs="4.318355" electricity_abs="0"
            CO_normed="69.923557" CO2_normed="4591.242787" HC_normed="0.424064" PMx_normed="0.069981" NOx_normed="1.816836" fuel_normed="1.973594" electricity_normed="0"
            traveltime="0.09" CO_perVeh="3.546425" CO2_perVeh="232.861418" HC_perVeh="0.021508" PMx_perVeh="0.003549" NOx_perVeh="0.092147" fuel_perVeh="0.100098" electricity_perVeh="0"/>
        <edge id=":1105984398_0" sampledSeconds="11.56" CO_abs="566.956481" CO2_abs="35035.361290" HC_abs="3.412869" PMx_abs="0.670718" NOx_abs="14.777349" fuel_abs="15.060136" electricity_abs="0"
            CO_normed="19.717448" CO2_normed="1218.449620" HC_normed="0.118692" PMx_normed="0.023326" NOx_normed="0.513922" fuel_normed="0.523757" electricity_normed="0"
            traveltime="1.26" CO_perVeh="61.567655" CO2_perVeh="3804.604258" HC_perVeh="0.370615" PMx_perVeh="0.072835" NOx_perVeh="1.604721" fuel_perVeh="1.635429" electricity_perVeh="0"/>
        <edge id=":1105984398_1" sampledSeconds="643.79" CO_abs="12101.653031" CO2_abs="1386083.710543" HC_abs="86.935963" PMx_abs="20.167873" NOx_abs="526.395434" fuel_abs="595.818030" electricity_abs="0"
            CO_normed="407.389223" CO2_normed="46661.027565" HC_normed="2.926606" PMx_normed="0.678930" NOx_normed="17.720540" fuel_normed="20.057578" electricity_normed="0"
            traveltime="0.95" CO_perVeh="17.897013" CO2_perVeh="2049.865211" HC_perVeh="0.128569" PMx_perVeh="0.029826" NOx_perVeh="0.778481" fuel_perVeh="0.881149" electricity_perVeh="0"/>
        <edge id=":1106006327_0" sampledSeconds="68.19" CO_abs="9227.064816" CO2_abs="297598.108571" HC_abs="49.019789" PMx_abs="6.217015" NOx_abs="130.314174" fuel_abs="127.926956" electricity_abs="0"
            CO_normed="437.882034" CO2_normed="14122.894733" HC_normed="2.326296" PMx_normed="0.295036" NOx_normed="6.184224" fuel_normed="6.070936" electricity_normed="0"
            traveltime="2.11" CO_perVeh="286.035458" CO2_perVeh="9225.426829" HC_perVeh="1.519595" PMx_perVeh="0.192725" NOx_perVeh="4.039689" fuel_perVeh="3.965686" electricity_perVeh="0"/>
        <edge id=":1106006327_1" sampledSeconds="687.19" CO_abs="92734.334272" CO2_abs="3081729.271905" HC_abs="494.858661" PMx_abs="64.233874" NOx_abs="1348.349307" fuel_abs="1324.724818" electricity_abs="0"
            CO_normed="3837.727445" CO2_normed="127534.608365" HC_normed="20.479283" PMx_normed="2.658261" NOx_normed="55.800230" fuel_normed="54.822551" electricity_normed="0"
            traveltime="2.31" CO_perVeh="311.286714" CO2_perVeh="10344.619243" HC_perVeh="1.661121" PMx_perVeh="0.215618" NOx_perVeh="4.526082" fuel_perVeh="4.446781" electricity_perVeh="0"/>
        <edge id=":1106006327_2" sampledSeconds="0.00" CO_abs="0" CO2_abs="0" HC_abs="0" PMx_abs="0" NOx_abs="0" fuel_abs="0" electricity_abs="0"
            CO_normed="0" CO2_normed="0" HC_normed="0" PMx_normed="0" NOx_normed="0" fuel_normed="0" electricity_normed="0"/>
        <edge id=":1106006327_3" sampledSeconds="0.00" CO_abs="0" CO2_abs="0" HC_abs="0" PMx_abs="0" NOx_abs="0" fuel_abs="0" electricity_abs="0"
            CO_normed="0" CO2_normed="0" HC_normed="0" PMx_normed="0" NOx_normed="0" fuel_normed="0" electricity_normed="0"/>
        <edge id=":1107381198_0" sampledSeconds="0.00" CO_abs="0" CO2_abs="0" HC_abs="0" PMx_abs="0" NOx_abs="0" fuel_abs="0" electricity_abs="0"
            CO_normed="0" CO2_normed="0" HC_normed="0" PMx_normed="0" NOx_normed="0" fuel_normed="0" electricity_normed="0"/>
        <edge id=":1107381198_1" sampledSeconds="104.27" CO_abs="5087.124170" CO2_abs="197963.324714" HC_abs="27.715399" PMx_abs="3.408699" NOx_abs="81.991569" fuel_abs="85.097679" electricity_abs="0"
            CO_normed="233.254634" CO2_normed="9077.007214" HC_normed="1.270805" PMx_normed="0.156296" NOx_normed="3.759474" fuel_normed="3.901896" electricity_normed="0"
            traveltime="1.56" CO_perVeh="76.164003" CO2_perVeh="2963.890556" HC_perVeh="0.414953" PMx_perVeh="0.051035" NOx_perVeh="1.227571" fuel_perVeh="1.274075" electricity_perVeh="0"/>
        <edge id=":1110338277_0" sampledSeconds="160.66" CO_abs="2478.954538" CO2_abs="307349.057012" HC_abs="18.319579" PMx_abs="4.180210" NOx_abs="114.669806" fuel_abs="132.116490" electricity_abs="0"
            CO_normed="3722.526586" CO2_normed="461531.269914" HC_normed="27.509628" PMx_normed="6.277219" NOx_normed="172.194123" fuel_normed="198.392967" electricity_normed="0"
            traveltime="0.02" CO_perVeh="0.335751" CO2_perVeh="41.627479" HC_perVeh="0.002481" PMx_perVeh="0.000566" NOx_perVeh="0.015531" fuel_perVeh="0.017894" electricity_perVeh="0"/>
        <edge id=":1110338293_0" sampledSeconds="6801.65" CO_abs="660787.738620" CO2_abs="11499323.408560" HC_abs="3277.925258" PMx_abs="275.399816" NOx_abs="5203.117861" fuel_abs="4943.367356" electricity_abs="0"
            CO_normed="926121.567792" CO2_normed="16116781.231338" HC_normed="4594.148926" PMx_normed="385.984325" NOx_normed="7292.386630" fuel_normed="6928.335468" electricity_normed="0"
            traveltime="0.45" CO_perVeh="44.158637" CO2_perVeh="768.468320" HC_perVeh="0.219055" PMx_perVeh="0.018404" NOx_perVeh="0.347710" fuel_perVeh="0.330352" electricity_perVeh="0"/>
        <edge id=":1110338295_0" sampledSeconds="0.00" CO_abs="0" CO2_abs="0" HC_abs="0" PMx_abs="0" NOx_abs="0" fuel_abs="0" electricity_abs="0"
            CO_normed="0" CO2_normed="0" HC_normed="0" PMx_normed="0" NOx_normed="0" fuel_normed="0" electricity_normed="0"/>
        <edge id=":1110673403_0" sampledSeconds="200.66" CO_abs="3143.967586" CO2_abs="382892.988686" HC_abs="23.091867" PMx_abs="5.293335" NOx_abs="143.449626" fuel_abs="164.589576" electricity_abs="0"
            CO_normed="4406.401662" CO2_normed="536640.488699" HC_normed="32.364215" PMx_normed="7.418830" NOx_normed="201.050632" fuel_normed="230.679153" electricity_normed="0"
            traveltime="0.02" CO_perVeh="0.363366" CO2_perVeh="44.253148" HC_perVeh="0.002669" PMx_perVeh="0.000612" NOx_perVeh="0.016579" fuel_perVeh="0.019023" electricity_perVeh="0"/>
        <edge id=":1110673412_0" sampledSeconds="949.71" CO_abs="169846.438783" CO2_abs="11572442.743694" HC_abs="1056.612585" PMx_abs="254.600825" NOx_abs="4974.666746" fuel_abs="4974.422963" electricity_abs="0"
            CO_normed="246255.378465" CO2_normed="16778545.891347" HC_normed="1531.951650" PMx_normed="369.138281" NOx_normed="7212.623655" fuel_normed="7212.270202" electricity_normed="0"
            traveltime="0.02" CO_perVeh="2.771141" CO2_perVeh="188.811002" HC_perVeh="0.017239" PMx_perVeh="0.004154" NOx_perVeh="0.081165" fuel_perVeh="0.081161" electricity_perVeh="0"/>
        <edge id=":1110673414_0" sampledSeconds="0.00" CO_abs="0" CO2_abs="0" HC_abs="0" PMx_abs="0" NOx_abs="0" fuel_abs="0" electricity_abs="0"
            CO_normed="0" CO2_normed="0" HC_normed="0" PMx_normed="0" NOx_normed="0" fuel_normed="0" electricity_normed="0"/>
        <edge id=":1110673414_1" sampledSeconds="240.34" CO_abs="17407.118957" CO2_abs="674465.514373" HC_abs="94.950053" PMx_abs="12.559083" NOx_abs="285.415164" fuel_abs="289.928338" electricity_abs="0"
            CO_normed="810.525017" CO2_normed="31405.034579" HC_normed="4.421145" PMx_normed="0.584787" NOx_normed="13.289743" fuel_normed="13.499889" electricity_normed="0"
            traveltime="1.56" CO_perVeh="112.939031" CO2_perVeh="4375.995915" HC_perVeh="0.616045" PMx_perVeh="0.081485" NOx_perVeh="1.851801" fuel_perVeh="1.881082" electricity_perVeh="0"/>
        <edge id=":1110673417_0" sampledSeconds="28.78" CO_abs="456.828899" CO2_abs="57397.788436" HC_abs="3.375854" PMx_abs="0.776290" NOx_abs="21.355962" fuel_abs="24.672907" electricity_abs="0"
            CO_normed="685.997947" CO2_normed="86191.493296" HC_normed="5.069357" PMx_normed="1.165718" NOx_normed="32.069219" fuel_normed="37.050116" electricity_normed="0"
            traveltime="0.02" CO_perVeh="0.348354" CO2_perVeh="43.768569" HC_perVeh="0.002574" PMx_perVeh="0.000592" NOx_perVeh="0.016285" fuel_perVeh="0.018814" electricity_perVeh="0"/>
        <edge id=":1110673446_0" sampledSeconds="1325.95" CO_abs="14040.276019" CO2_abs="1128895.383772" HC_abs="90.737643" PMx_abs="20.902856" NOx_abs="463.057650" fuel_abs="485.260001" electricity_abs="0"
            CO_normed="19678.032262" CO2_normed="1582193.950627" HC_normed="127.172590" PMx_normed="29.296224" NOx_normed="648.994604" fuel_normed="680.112125" electricity_normed="0"
            traveltime="0.02" CO_perVeh="0.240858" CO2_perVeh="19.365936" HC_perVeh="0.001557" PMx_perVeh="0.000359" NOx_perVeh="0.007944" fuel_perVeh="0.008325" electricity_perVeh="0"/>
        <edge id=":1110673451_0" sampledSeconds="36.52" CO_abs="345.134449" CO2_abs="24302.976570" HC_abs="2.125914" PMx_abs="0.338288" NOx_abs="9.379417" fuel_abs="10.446921" electricity_abs="0"
            CO_normed="537.467024" CO2_normed="37846.261107" HC_normed="3.310619" PMx_normed="0.526806" NOx_normed="14.606271" fuel_normed="16.268662" electricity_normed="0"
            traveltime="0.03" CO_perVeh="0.254288" CO2_perVeh="17.905921" HC_perVeh="0.001566" PMx_perVeh="0.000249" NOx_perVeh="0.006911" fuel_perVeh="0.007697" electricity_perVeh="0"/>
        <edge id=":1110673464_0" sampledSeconds="1029.31" CO_abs="4302.130182" CO2_abs="315129.656514" HC_abs="26.815056" PMx_abs="4.609486" NOx_abs="122.725987" fuel_abs="135.461747" electricity_abs="0"
            CO_normed="128.107964" CO2_normed="9383.867278" HC_normed="0.798493" PMx_normed="0.137260" NOx_normed="3.654510" fuel_normed="4.033753" electricity_normed="0"
            traveltime="1.22" CO_perVeh="5.101724" CO2_perVeh="373.699669" HC_perVeh="0.031799" PMx_perVeh="0.005466" NOx_perVeh="0.145536" fuel_perVeh="0.160639" electricity_perVeh="0"/>
        <edge id=":1110673464_1" sampledSeconds="2608.28" CO_abs="63729.103905" CO2_abs="7786282.245115" HC_abs="475.918646" PMx_abs="138.904699" NOx_abs="2952.499733" fuel_abs="3346.964109" electricity_abs="0"
            CO_normed="1859.521090" CO2_normed="227192.211429" HC_normed="13.886603" PMx_normed="4.053034" NOx_normed="86.149580" fuel_normed="97.659467" electricity_normed="0"
            traveltime="0.72" CO_perVeh="17.572721" CO2_perVeh="2146.996496" HC_perVeh="0.131230" PMx_perVeh="0.038302" NOx_perVeh="0.814125" fuel_perVeh="0.922895" electricity_perVeh="0"/>
        <edge id=":1110673479_0" sampledSeconds="134.42" CO_abs="6926.658807" CO2_abs="468451.320368" HC_abs="42.586631" PMx_abs="8.442122" NOx_abs="193.307315" fuel_abs="201.366620" electricity_abs="0"
            CO_normed="9708.001131" CO2_normed="656554.057979" HC_normed="59.686939" PMx_normed="11.831986" NOx_normed="270.928261" fuel_normed="282.223714" electricity_normed="0"
            traveltime="0.03" CO_perVeh="1.464358" CO2_perVeh="99.034845" HC_perVeh="0.009003" PMx_perVeh="0.001785" NOx_perVeh="0.040867" fuel_perVeh="0.042571" electricity_perVeh="0"/>
        <edge id=":1110673511_0" sampledSeconds="63.55" CO_abs="1236.495368" CO2_abs="129460.755630" HC_abs="8.592007" PMx_abs="1.843657" NOx_abs="49.210639" fuel_abs="55.649756" electricity_abs="0"
            CO_normed="1732.999815" CO2_normed="181444.646994" HC_normed="12.042056" PMx_normed="2.583963" NOx_normed="68.970763" fuel_normed="77.995453" electricity_normed="0"
            traveltime="0.02" CO_perVeh="0.473904" CO2_perVeh="49.617664" HC_perVeh="0.003293" PMx_perVeh="0.000707" NOx_perVeh="0.018861" fuel_perVeh="0.021329" electricity_perVeh="0"/>
        <edge id=":1110673517_0" sampledSeconds="183.29" CO_abs="7549.308844" CO2_abs="539344.499351" HC_abs="47.027829" PMx_abs="9.274560" NOx_abs="219.210973" fuel_abs="231.840845" electricity_abs="0"
            CO_normed="10580.671121" CO2_normed="755913.804276" HC_normed="65.911463" PMx_normed="12.998683" NOx_normed="307.233318" fuel_normed="324.934611" electricity_normed="0"
            traveltime="0.03" CO_perVeh="1.155860" CO2_perVeh="82.578008" HC_perVeh="0.007200" PMx_perVeh="0.001420" NOx_perVeh="0.033563" fuel_perVeh="0.035497" electricity_perVeh="0"/>
        <edge id=":1110673534_0" sampledSeconds="735.19" CO_abs="5823.752803" CO2_abs="481887.647639" HC_abs="37.565642" PMx_abs="6.730742" NOx_abs="184.815980" fuel_abs="207.144325" electricity_abs="0"
            CO_normed="158.182798" CO2_normed="13088.868816" HC_normed="1.020345" PMx_normed="0.182818" NOx_normed="5.019909" fuel_normed="5.626384" electricity_normed="0"
            traveltime="1.45" CO_perVeh="11.485404" CO2_perVeh="950.362173" HC_perVeh="0.074086" PMx_perVeh="0.013274" NOx_perVeh="0.364488" fuel_perVeh="0.408523" electricity_perVeh="0"/>
        <edge id=":1110673534_1" sampledSeconds="201.02" CO_abs="2820.882907" CO2_abs="365848.098374" HC_abs="21.147667" PMx_abs="4.872367" NOx_abs="135.570863" fuel_abs="157.262842" electricity_abs="0"
            CO_normed="74.502230" CO2_normed="9662.400080" HC_normed="0.558530" PMx_normed="0.128684" NOx_normed="3.580557" fuel_normed="4.153463" electricity_normed="0"
            traveltime="1.23" CO_perVeh="17.243170" CO2_perVeh="2236.314314" HC_perVeh="0.129269" PMx_perVeh="0.029783" NOx_perVeh="0.828702" fuel_perVeh="0.961298" electricity_perVeh="0"/>
        <edge id=":1110673549_0" sampledSeconds="648.23" CO_abs="1587.491411" CO2_abs="142827.766587" HC_abs="10.520334" PMx_abs="2.174576" NOx_abs="55.167712" fuel_abs="61.395654" electricity_abs="0"
            CO_normed="41.769751" CO2_normed="3758.055135" HC_normed="0.276809" PMx_normed="0.057217" NOx_normed="1.451562" fuel_normed="1.615430" electricity_normed="0"
            traveltime="1.29" CO_perVeh="3.153967" CO2_perVeh="283.764715" HC_perVeh="0.020901" PMx_perVeh="0.004320" NOx_perVeh="0.109605" fuel_perVeh="0.121979" electricity_perVeh="0"/>
        <edge id=":1110673549_1" sampledSeconds="3197.29" CO_abs="69730.076839" CO2_abs="9178890.063839" HC_abs="536.608980" PMx_abs="161.238327" NOx_abs="3430.750132" fuel_abs="3945.584778" electricity_abs="0"
            CO_normed="1774.750790" CO2_normed="233618.592244" HC_normed="13.657625" PMx_normed="4.103794" NOx_normed="87.318511" fuel_normed="100.421942" electricity_normed="0"
            traveltime="0.81" CO_perVeh="17.588289" CO2_perVeh="2315.227143" HC_perVeh="0.135351" PMx_perVeh="0.040670" NOx_perVeh="0.865351" fuel_perVeh="0.995210" electricity_perVeh="0"/>
        <edge id=":1110673556_0" sampledSeconds="470.54" CO_abs="58167.485839" CO2_abs="2780065.662243" HC_abs="330.874013" PMx_abs="56.142773" NOx_abs="1198.781333" fuel_abs="1195.032021" electricity_abs="0"
            CO_normed="1134.907054" CO2_normed="54241.920318" HC_normed="6.455690" PMx_normed="1.095403" NOx_normed="23.389448" fuel_normed="23.316295" electricity_normed="0"
            traveltime="2.77" CO_perVeh="342.891736" CO2_perVeh="16388.219772" HC_perVeh="1.950470" PMx_perVeh="0.330956" NOx_perVeh="7.066701" fuel_perVeh="7.044599" electricity_perVeh="0"/>
        <edge id=":1110673556_2" sampledSeconds="175.88" CO_abs="17440.155468" CO2_abs="744686.190021" HC_abs="96.923915" PMx_abs="14.512639" NOx_abs="318.565685" fuel_abs="320.111235" electricity_abs="0"
            CO_normed="355.794834" CO2_normed="15192.267040" HC_normed="1.977335" PMx_normed="0.296071" NOx_normed="6.499026" fuel_normed="6.530557" electricity_normed="0"
            traveltime="3.04" CO_perVeh="301.565209" CO2_perVeh="12876.688348" HC_perVeh="1.675953" PMx_perVeh="0.250944" NOx_perVeh="5.508456" fuel_perVeh="5.535181" electricity_perVeh="0"/>
        <edge id=":1110673556_3" sampledSeconds="343.95" CO_abs="34760.490863" CO2_abs="1193721.656327" HC_abs="186.160697" PMx_abs="23.481753" NOx_abs="513.633896" fuel_abs="513.139205" electricity_abs="0"
            CO_normed="1613.187991" CO2_normed="55399.028960" HC_normed="8.639469" PMx_normed="1.089757" NOx_normed="23.837064" fuel_normed="23.814106" electricity_normed="0"
            traveltime="1.85" CO_perVeh="186.922073" CO2_perVeh="6419.153504" HC_perVeh="1.001066" PMx_perVeh="0.126271" NOx_perVeh="2.762030" fuel_perVeh="2.759370" electricity_perVeh="0"/>
        <edge id=":1110673556_4" sampledSeconds="93.47" CO_abs="10993.879336" CO2_abs="418711.180942" HC_abs="59.915101" PMx_abs="8.421278" NOx_abs="181.135599" fuel_abs="179.988013" electricity_abs="0"
            CO_normed="311.700208" CO2_normed="11871.365717" HC_normed="1.698722" PMx_normed="0.238761" NOx_normed="5.135585" fuel_normed="5.103049" electricity_normed="0"
            traveltime="2.62" CO_perVeh="308.400920" CO2_perVeh="11745.709555" HC_perVeh="1.680742" PMx_perVeh="0.236234" NOx_perVeh="5.081226" fuel_perVeh="5.049034" electricity_perVeh="0"/>
        <edge id=":1110673556_5" sampledSeconds="21.94" CO_abs="1350.747615" CO2_abs="61967.585440" HC_abs="7.584444" PMx_abs="1.070323" NOx_abs="25.610989" fuel_abs="26.637547" electricity_abs="0"
            CO_normed="53.377700" CO2_normed="2448.782560" HC_normed="0.299716" PMx_normed="0.042296" NOx_normed="1.012073" fuel_normed="1.052640" electricity_normed="0"
            traveltime="1.52" CO_perVeh="93.385020" CO2_perVeh="4284.178746" HC_perVeh="0.524357" PMx_perVeh="0.073998" NOx_perVeh="1.770636" fuel_perVeh="1.841608" electricity_perVeh="0"/>
        <edge id=":1110673556_6" sampledSeconds="218.69" CO_abs="26965.526612" CO2_abs="1340515.837185" HC_abs="154.664144" PMx_abs="27.108357" NOx_abs="577.754385" fuel_abs="576.229832" electricity_abs="0"
            CO_normed="539.390722" CO2_normed="26814.303137" HC_normed="3.093743" PMx_normed="0.542248" NOx_normed="11.556806" fuel_normed="11.526310" electricity_normed="0"
            traveltime="2.55" CO_perVeh="314.216625" CO2_perVeh="15620.401850" HC_perVeh="1.802229" PMx_perVeh="0.315881" NOx_perVeh="6.732301" fuel_perVeh="6.714536" electricity_perVeh="0"/>
        <edge id=":1110673561_0" sampledSeconds="102.14" CO_abs="10258.060856" CO2_abs="713654.980668" HC_abs="63.934347" PMx_abs="14.700825" NOx_abs="304.113253" fuel_abs="306.766063" electricity_abs="0"
            CO_normed="257.808129" CO2_normed="17935.753949" HC_normed="1.606814" PMx_normed="0.369465" NOx_normed="7.643050" fuel_normed="7.709721" electricity_normed="0"
            traveltime="1.21" CO_perVeh="121.055075" CO2_perVeh="8421.821445" HC_perVeh="0.754487" PMx_perVeh="0.173484" NOx_perVeh="3.588832" fuel_perVeh="3.620137" electricity_perVeh="0"/>
        <edge id=":1110673561_1" sampledSeconds="5235.04" CO_abs="490873.771430" CO2_abs="34001200.279786" HC_abs="3057.937073" PMx_abs="711.272697" NOx_abs="14539.386804" fuel_abs="14615.473194" electricity_abs="0"
            CO_normed="12027.623393" CO2_normed="833113.634643" HC_normed="74.927033" PMx_normed="17.427943" NOx_normed="356.250994" fuel_normed="358.115299" electricity_normed="0"
            traveltime="1.19" CO_perVeh="111.555491" CO2_perVeh="7727.079363" HC_perVeh="0.694944" PMx_perVeh="0.161643" NOx_perVeh="3.304207" fuel_perVeh="3.321498" electricity_perVeh="0"/>
        <edge id=":1110673562_0" sampledSeconds="301.17" CO_abs="6920.409803" CO2_abs="522955.520221" HC_abs="43.445118" PMx_abs="7.176540" NOx_abs="200.536716" fuel_abs="224.798395" electricity_abs="0"
            CO_normed="10776.936546" CO2_normed="814382.185193" HC_normed="67.655715" PMx_normed="11.175801" NOx_normed="312.289521" fuel_normed="350.071471" electricity_normed="0"
            traveltime="0.03" CO_perVeh="0.620357" CO2_perVeh="46.878597" HC_perVeh="0.003894" PMx_perVeh="0.000643" NOx_perVeh="0.017976" fuel_perVeh="0.020151" electricity_perVeh="0"/>
        <edge id=":1110673564_0" sampledSeconds="27.86" CO_abs="447.854242" CO2_abs="56133.911616" HC_abs="3.322849" PMx_abs="0.750105" NOx_abs="20.851098" fuel_abs="24.129635" electricity_abs="0"
            CO_normed="1883.059180" CO2_normed="236022.053045" HC_normed="13.971333" PMx_normed="3.153910" NOx_normed="87.671050" fuel_normed="101.456070" electricity_normed="0"
            traveltime="7.869766e-03" CO_perVeh="0.126495" CO2_perVeh="15.854798" HC_perVeh="0.000939" PMx_perVeh="0.000212" NOx_perVeh="0.005889" fuel_perVeh="0.006815" electricity_perVeh="0"/>
        <edge id=":1110673588_0" sampledSeconds="62.63" CO_abs="1256.002042" CO2_abs="133834.209321" HC_abs="8.800617" PMx_abs="1.939005" NOx_abs="51.019132" fuel_abs="57.529660" electricity_abs="0"
            CO_normed="2112.407078" CO2_normed="225089.069635" HC_normed="14.801318" PMx_normed="3.261116" NOx_normed="85.806528" fuel_normed="96.756261" electricity_normed="0"
            traveltime="0.02" CO_perVeh="0.405162" CO2_perVeh="43.172326" HC_perVeh="0.002839" PMx_perVeh="0.000625" NOx_perVeh="0.016458" fuel_perVeh="0.018558" electricity_perVeh="0"/>
        <edge id=":1110673601_0" sampledSeconds="29.06" CO_abs="402.325894" CO2_abs="46202.669590" HC_abs="2.896462" PMx_abs="0.659344" NOx_abs="17.462538" fuel_abs="19.860569" electricity_abs="0"
            CO_normed="604.153410" CO2_normed="69380.322740" HC_normed="4.349477" PMx_normed="0.990104" NOx_normed="26.222652" fuel_normed="29.823660" electricity_normed="0"
            traveltime="0.02" CO_perVeh="0.306793" CO2_perVeh="35.231753" HC_perVeh="0.002209" PMx_perVeh="0.000503" NOx_perVeh="0.013316" fuel_perVeh="0.015145" electricity_perVeh="0"/>
        <edge id=":1110673617_0" sampledSeconds="855.11" CO_abs="32901.242735" CO2_abs="3303313.929623" HC_abs="229.038946" PMx_abs="62.414726" NOx_abs="1297.781346" fuel_abs="1419.939895" electricity_abs="0"
            CO_normed="46112.463539" CO2_normed="4629732.206899" HC_normed="321.007632" PMx_normed="87.476841" NOx_normed="1818.894669" fuel_normed="1990.104968" electricity_normed="0"
            traveltime="0.02" CO_perVeh="0.583469" CO2_perVeh="58.580762" HC_perVeh="0.004062" PMx_perVeh="0.001107" NOx_perVeh="0.023015" fuel_perVeh="0.025181" electricity_perVeh="0"/>
        <edge id=":1110673621_0" sampledSeconds="26.29" CO_abs="586.753470" CO2_abs="55864.996757" HC_abs="3.973525" PMx_abs="0.867373" NOx_abs="21.771573" fuel_abs="24.013953" electricity_abs="0"
            CO_normed="986.831344" CO2_normed="93956.546753" HC_normed="6.682873" PMx_normed="1.458792" NOx_normed="36.616521" fuel_normed="40.387867" electricity_normed="0"
            traveltime="0.02" CO_perVeh="0.444510" CO2_perVeh="42.321967" HC_perVeh="0.003010" PMx_perVeh="0.000657" NOx_perVeh="0.016494" fuel_perVeh="0.018192" electricity_perVeh="0"/>
        <edge id=":1110673630_0" sampledSeconds="285.70" CO_abs="1170.187493" CO2_abs="110443.927214" HC_abs="7.837903" PMx_abs="1.437800" NOx_abs="41.435177" fuel_abs="47.475492" electricity_abs="0"
            CO_normed="35.094149" CO2_normed="3312.234716" HC_normed="0.235060" PMx_normed="0.043120" NOx_normed="1.242649" fuel_normed="1.423799" electricity_normed="0"
            traveltime="1.29" CO_perVeh="5.265397" CO2_perVeh="496.955492" HC_perVeh="0.035268" PMx_perVeh="0.006470" NOx_perVeh="0.186442" fuel_perVeh="0.213622" electricity_perVeh="0"/>
        <edge id=":1110673630_1" sampledSeconds="337.65" CO_abs="1190.169907" CO2_abs="93463.841659" HC_abs="7.563772" PMx_abs="1.330423" NOx_abs="36.091190" fuel_abs="40.176391" electricity_abs="0"
            CO_normed="43.514941" CO2_normed="3417.220986" HC_normed="0.276546" PMx_normed="0.048643" NOx_normed="1.319565" fuel_normed="1.468928" electricity_normed="0"
            traveltime="1.08" CO_perVeh="3.794027" CO2_perVeh="297.944332" HC_perVeh="0.024112" PMx_perVeh="0.004241" NOx_perVeh="0.115052" fuel_perVeh="0.128074" electricity_perVeh="0"/>
        <edge id=":1110673650_0" sampledSeconds="200.86" CO_abs="2867.796243" CO2_abs="369790.989171" HC_abs="21.497912" PMx_abs="4.985487" NOx_abs="137.453236" fuel_abs="158.957651" electricity_abs="0"
            CO_normed="4019.336009" CO2_normed="518277.490078" HC_normed="30.130220" PMx_normed="6.987367" NOx_normed="192.646442" fuel_normed="222.785776" electricity_normed="0"
            traveltime="0.02" CO_perVeh="0.331448" CO2_perVeh="42.738938" HC_perVeh="0.002485" PMx_perVeh="0.000576" NOx_perVeh="0.015886" fuel_perVeh="0.018372" electricity_perVeh="0"/>
        <edge id=":1110673655_0" sampledSeconds="20.78" CO_abs="431.672393" CO2_abs="48497.810709" HC_abs="3.090310" PMx_abs="0.694063" NOx_abs="18.380552" fuel_abs="20.847156" electricity_abs="0"
            CO_normed="605.006857" CO2_normed="67971.703868" HC_normed="4.331198" PMx_normed="0.972759" NOx_normed="25.761110" fuel_normed="29.218158" electricity_normed="0"
            traveltime="0.02" CO_perVeh="0.493152" CO2_perVeh="55.404963" HC_perVeh="0.003530" PMx_perVeh="0.000793" NOx_perVeh="0.020998" fuel_perVeh="0.023816" electricity_perVeh="0"/>
        <edge id=":1110673663_0" sampledSeconds="110.17" CO_abs="2024.389756" CO2_abs="223347.139894" HC_abs="14.373226" PMx_abs="3.203912" NOx_abs="84.786890" fuel_abs="96.007485" electricity_abs="0"
            CO_normed="51.964591" CO2_normed="5733.156213" HC_normed="0.368950" PMx_normed="0.082242" NOx_normed="2.176417" fuel_normed="2.464441" electricity_normed="0"
            traveltime="1.29" CO_perVeh="23.777413" CO2_perVeh="2623.317523" HC_perVeh="0.168820" PMx_perVeh="0.037631" NOx_perVeh="0.995862" fuel_perVeh="1.127653" electricity_perVeh="0"/>
        <edge id=":1110673663_1" sampledSeconds="170.17" CO_abs="2757.205284" CO2_abs="347752.710432" HC_abs="20.395847" PMx_abs="4.650273" NOx_abs="129.153055" fuel_abs="149.484398" electricity_abs="0"
            CO_normed="70.861947" CO2_normed="8937.468035" HC_normed="0.524186" PMx_normed="0.119515" NOx_normed="3.319316" fuel_normed="3.841845" electricity_normed="0"
            traveltime="1.28" CO_perVeh="20.663120" CO2_perVeh="2606.137493" HC_perVeh="0.152851" PMx_perVeh="0.034850" NOx_perVeh="0.967902" fuel_perVeh="1.120270" electricity_perVeh="0"/>