<?xml version="1.0" encoding="UTF-8"?>

<!-- generated on Mon Nov  9 21:52:03 2020 by Eclipse SUMO sumo Version 1.7.0
<configuration xmlns:xsi="http://www.w3.org/2001/XMLSchema-instance" xsi:noNamespaceSchemaLocation="http://sumo.dlr.de/xsd/sumoConfiguration.xsd">

    <input>
        <net-file value="../dataSets/Porto/6AM7AM_Routing_SaoBento/Porto.net.xml"/>
        <route-files value="../results/Porto/6AM7AM_Routing_SaoBento/cost_PMx-ttime/solution2/Porto.rou.xml"/>
        <additional-files value="moreOutputInfo.xml"/>
    </input>

    <output>
        <emission-output.precision value="6"/>
        <tripinfo-output value="../results/Porto/6AM7AM_Routing_SaoBento/cost_PMx-ttime/solution2/Porto-tripinfo"/>
    </output>

    <processing>
        <collision.action value="warn"/>
        <time-to-teleport value="-1"/>
    </processing>

    <emissions>
        <device.emissions.probability value="1"/>
    </emissions>

    <gui_only>
        <quit-on-end value="true"/>
        <start value="true"/>
    </gui_only>

</configuration>
-->

<meandata xmlns:xsi="http://www.w3.org/2001/XMLSchema-instance" xsi:noNamespaceSchemaLocation="http://sumo.dlr.de/xsd/meandata_file.xsd">
    <interval begin="0.00" end="4704.00" id="emissions-detector">
        <edge id=":1092997347_0" sampledSeconds="285.17" CO_abs="36634.134900" CO2_abs="1449637.437691" HC_abs="201.067019" PMx_abs="29.589868" NOx_abs="629.364143" fuel_abs="623.142176" electricity_abs="0"
            CO_normed="63718.926658" CO2_normed="2521400.923627" HC_normed="349.722319" PMx_normed="51.466608" NOx_normed="1094.673254" fuel_normed="1083.851187" electricity_normed="0"
            traveltime="0.08" CO_perVeh="9.645783" CO2_perVeh="381.690153" HC_perVeh="0.052941" PMx_perVeh="0.007791" NOx_perVeh="0.165712" fuel_perVeh="0.164074" electricity_perVeh="0"/>
        <edge id=":1103427051_0" sampledSeconds="10.97" CO_abs="870.741262" CO2_abs="49419.691519" HC_abs="5.138907" PMx_abs="0.971876" NOx_abs="21.098708" fuel_abs="21.243329" electricity_abs="0"
            CO_normed="2297.874549" CO2_normed="130417.905135" HC_normed="13.561507" PMx_normed="2.564768" NOx_normed="55.679209" fuel_normed="56.060860" electricity_normed="0"
            traveltime="0.03" CO_perVeh="2.385818" CO2_perVeh="135.409208" HC_perVeh="0.014081" PMx_perVeh="0.002663" NOx_perVeh="0.057810" fuel_perVeh="0.058206" electricity_perVeh="0"/>
        <edge id=":1105984386_0" sampledSeconds="23.04" CO_abs="494.358650" CO2_abs="38148.753292" HC_abs="3.114619" PMx_abs="0.486091" NOx_abs="14.392279" fuel_abs="16.398724" electricity_abs="0"
            CO_normed="38.963512" CO2_normed="3006.742993" HC_normed="0.245483" PMx_normed="0.038312" NOx_normed="1.134346" fuel_normed="1.292487" electricity_normed="0"
            traveltime="0.97" CO_perVeh="20.747850" CO2_perVeh="1601.073628" HC_perVeh="0.130718" PMx_perVeh="0.020401" NOx_perVeh="0.604033" fuel_perVeh="0.688242" electricity_perVeh="0"/>
        <edge id=":1105984390_0" sampledSeconds="23.77" CO_abs="0" CO2_abs="0" HC_abs="0" PMx_abs="0" NOx_abs="0" fuel_abs="0" electricity_abs="0"
            CO_normed="0" CO2_normed="0" HC_normed="0" PMx_normed="0" NOx_normed="0" fuel_normed="0" electricity_normed="0"
            traveltime="1.08" CO_perVeh="0" CO2_perVeh="0" HC_perVeh="0" PMx_perVeh="0" NOx_perVeh="0" fuel_perVeh="0" electricity_perVeh="0"/>
        <edge id=":1105984390_1" sampledSeconds="646.15" CO_abs="13827.097772" CO2_abs="1840890.010655" HC_abs="106.863964" PMx_abs="32.295983" NOx_abs="686.532388" fuel_abs="791.314419" electricity_abs="0"
            CO_normed="805.937744" CO2_normed="107299.649346" HC_normed="6.228762" PMx_normed="1.882431" NOx_normed="40.015799" fuel_normed="46.123212" electricity_normed="0"
            traveltime="0.64" CO_perVeh="13.623761" CO2_perVeh="1813.818437" HC_perVeh="0.105292" PMx_perVeh="0.031821" NOx_perVeh="0.676436" fuel_perVeh="0.779678" electricity_perVeh="0"/>
        <edge id=":1105984395_0" sampledSeconds="9.05" CO_abs="167.965525" CO2_abs="13665.711453" HC_abs="1.075981" PMx_abs="0.180955" NOx_abs="5.185903" fuel_abs="5.874362" electricity_abs="0"
            CO_normed="139.722875" CO2_normed="11367.883308" HC_normed="0.895060" PMx_normed="0.150528" NOx_normed="4.313917" fuel_normed="4.886615" electricity_normed="0"
            traveltime="0.09" CO_perVeh="1.703354" CO2_perVeh="138.585257" HC_perVeh="0.010912" PMx_perVeh="0.001835" NOx_perVeh="0.052591" fuel_perVeh="0.059572" electricity_perVeh="0"/>
        <edge id=":1105984398_0" sampledSeconds="22.61" CO_abs="1486.110110" CO2_abs="102326.114227" HC_abs="9.188831" PMx_abs="1.884293" NOx_abs="42.459257" fuel_abs="43.985414" electricity_abs="0"
            CO_normed="94.071891" CO2_normed="6477.320240" HC_normed="0.581660" PMx_normed="0.119277" NOx_normed="2.687703" fuel_normed="2.784310" electricity_normed="0"
            traveltime="1.10" CO_perVeh="72.384361" CO2_perVeh="4984.025294" HC_perVeh="0.447563" PMx_perVeh="0.091779" NOx_perVeh="2.068074" fuel_perVeh="2.142409" electricity_perVeh="0"/>
        <edge id=":1105984398_1" sampledSeconds="452.57" CO_abs="8356.799228" CO2_abs="979171.783346" HC_abs="60.551196" PMx_abs="14.050476" NOx_abs="370.389472" fuel_abs="420.904183" electricity_abs="0"
            CO_normed="512.050409" CO2_normed="59997.290690" HC_normed="3.710184" PMx_normed="0.860922" NOx_normed="22.695063" fuel_normed="25.790276" electricity_normed="0"
            traveltime="0.95" CO_perVeh="17.610154" CO2_perVeh="2063.393552" HC_perVeh="0.127599" PMx_perVeh="0.029608" NOx_perVeh="0.780516" fuel_perVeh="0.886965" electricity_perVeh="0"/>
        <edge id=":1106006327_0" sampledSeconds="38.49" CO_abs="5169.673269" CO2_abs="167687.157120" HC_abs="27.485324" PMx_abs="3.491421" NOx_abs="73.363345" fuel_abs="72.082801" electricity_abs="0"
            CO_normed="446.544312" CO2_normed="14484.425282" HC_normed="2.374118" PMx_normed="0.301581" NOx_normed="6.336955" fuel_normed="6.226344" electricity_normed="0"
            traveltime="2.09" CO_perVeh="280.451293" CO2_perVeh="9096.915332" HC_perVeh="1.491060" PMx_perVeh="0.189407" NOx_perVeh="3.979912" fuel_perVeh="3.910443" electricity_perVeh="0"/>
        <edge id=":1106006327_1" sampledSeconds="162.87" CO_abs="21962.756835" CO2_abs="728521.348610" HC_abs="117.166495" PMx_abs="15.181638" NOx_abs="318.730440" fuel_abs="313.165222" electricity_abs="0"
            CO_normed="1654.353570" CO2_normed="54876.166184" HC_normed="8.825614" PMx_normed="1.143563" NOx_normed="24.008500" fuel_normed="23.589297" electricity_normed="0"
            traveltime="2.31" CO_perVeh="311.789640" CO2_perVeh="10342.299494" HC_perVeh="1.663329" PMx_perVeh="0.215523" NOx_perVeh="4.524789" fuel_perVeh="4.445784" electricity_perVeh="0"/>
        <edge id=":1106006327_2" sampledSeconds="0.00" CO_abs="0" CO2_abs="0" HC_abs="0" PMx_abs="0" NOx_abs="0" fuel_abs="0" electricity_abs="0"
            CO_normed="0" CO2_normed="0" HC_normed="0" PMx_normed="0" NOx_normed="0" fuel_normed="0" electricity_normed="0"/>
        <edge id=":1106006327_3" sampledSeconds="0.00" CO_abs="0" CO2_abs="0" HC_abs="0" PMx_abs="0" NOx_abs="0" fuel_abs="0" electricity_abs="0"
            CO_normed="0" CO2_normed="0" HC_normed="0" PMx_normed="0" NOx_normed="0" fuel_normed="0" electricity_normed="0"/>
        <edge id=":1107381198_0" sampledSeconds="0.00" CO_abs="0" CO2_abs="0" HC_abs="0" PMx_abs="0" NOx_abs="0" fuel_abs="0" electricity_abs="0"
            CO_normed="0" CO2_normed="0" HC_normed="0" PMx_normed="0" NOx_normed="0" fuel_normed="0" electricity_normed="0"/>
        <edge id=":1107381198_1" sampledSeconds="35.39" CO_abs="1348.566898" CO2_abs="57749.527239" HC_abs="7.473500" PMx_abs="0.996691" NOx_abs="23.897069" fuel_abs="24.824436" electricity_abs="0"
            CO_normed="112.548146" CO2_normed="4819.636507" HC_normed="0.623720" PMx_normed="0.083181" NOx_normed="1.994392" fuel_normed="2.071788" electricity_normed="0"
            traveltime="1.46" CO_perVeh="55.524239" CO2_perVeh="2377.708175" HC_perVeh="0.307705" PMx_perVeh="0.041037" NOx_perVeh="0.983909" fuel_perVeh="1.022091" electricity_perVeh="0"/>
        <edge id=":1110338277_0" sampledSeconds="96.88" CO_abs="1581.032839" CO2_abs="193830.014161" HC_abs="11.636662" PMx_abs="2.629014" NOx_abs="72.351207" fuel_abs="83.319426" electricity_abs="0"
            CO_normed="4321.336113" CO2_normed="529783.201971" HC_normed="31.805745" PMx_normed="7.185717" NOx_normed="197.752934" fuel_normed="227.731667" electricity_normed="0"
            traveltime="0.02" CO_perVeh="0.356315" CO2_perVeh="43.683167" HC_perVeh="0.002623" PMx_perVeh="0.000592" NOx_perVeh="0.016306" fuel_perVeh="0.018778" electricity_perVeh="0"/>
        <edge id=":1110338293_0" sampledSeconds="123.35" CO_abs="6303.366419" CO2_abs="431960.989964" HC_abs="38.861381" PMx_abs="7.631089" NOx_abs="177.232072" fuel_abs="185.681197" electricity_abs="0"
            CO_normed="16080.016374" CO2_normed="1101941.300929" HC_normed="99.136175" PMx_normed="19.467065" NOx_normed="452.122632" fuel_normed="473.676524" electricity_normed="0"
            traveltime="0.03" CO_perVeh="1.445782" CO2_perVeh="99.077409" HC_perVeh="0.008914" PMx_perVeh="0.001750" NOx_perVeh="0.040651" fuel_perVeh="0.042589" electricity_perVeh="0"/>
        <edge id=":1110338295_0" sampledSeconds="0.00" CO_abs="0" CO2_abs="0" HC_abs="0" PMx_abs="0" NOx_abs="0" fuel_abs="0" electricity_abs="0"
            CO_normed="0" CO2_normed="0" HC_normed="0" PMx_normed="0" NOx_normed="0" fuel_normed="0" electricity_normed="0"/>
        <edge id=":1110673403_0" sampledSeconds="143.44" CO_abs="2439.153732" CO2_abs="297042.704224" HC_abs="17.871337" PMx_abs="4.130242" NOx_abs="111.421072" fuel_abs="127.686110" electricity_abs="0"
            CO_normed="6222.330949" CO2_normed="757762.000571" HC_normed="45.590146" PMx_normed="10.536332" NOx_normed="284.237429" fuel_normed="325.729871" electricity_normed="0"
            traveltime="0.02" CO_perVeh="0.391622" CO2_perVeh="47.692166" HC_perVeh="0.002869" PMx_perVeh="0.000663" NOx_perVeh="0.017889" fuel_perVeh="0.020501" electricity_perVeh="0"/>
        <edge id=":1110673412_0" sampledSeconds="253.56" CO_abs="44875.545507" CO2_abs="3061440.968286" HC_abs="279.234388" PMx_abs="67.261415" NOx_abs="1315.799262" fuel_abs="1315.962688" electricity_abs="0"
            CO_normed="118425.964569" CO2_normed="8079101.781190" HC_normed="736.895815" PMx_normed="177.501974" NOx_normed="3472.376660" fuel_normed="3472.807938" electricity_normed="0"
            traveltime="0.02" CO_perVeh="2.758949" CO2_perVeh="188.217450" HC_perVeh="0.017167" PMx_perVeh="0.004135" NOx_perVeh="0.080895" fuel_perVeh="0.080905" electricity_perVeh="0"/>
        <edge id=":1110673414_0" sampledSeconds="0.00" CO_abs="0" CO2_abs="0" HC_abs="0" PMx_abs="0" NOx_abs="0" fuel_abs="0" electricity_abs="0"
            CO_normed="0" CO2_normed="0" HC_normed="0" PMx_normed="0" NOx_normed="0" fuel_normed="0" electricity_normed="0"/>
        <edge id=":1110673414_1" sampledSeconds="13.66" CO_abs="995.717074" CO2_abs="41123.395722" HC_abs="5.496062" PMx_abs="0.783443" NOx_abs="17.503759" fuel_abs="17.677379" electricity_abs="0"
            CO_normed="84.388524" CO2_normed="3485.269825" HC_normed="0.465800" PMx_normed="0.066398" NOx_normed="1.483470" fuel_normed="1.498185" electricity_normed="0"
            traveltime="1.49" CO_perVeh="108.748490" CO2_perVeh="4491.343292" HC_perVeh="0.600259" PMx_perVeh="0.085565" NOx_perVeh="1.911695" fuel_perVeh="1.930657" electricity_perVeh="0"/>
        <edge id=":1110673417_0" sampledSeconds="29.34" CO_abs="486.533873" CO2_abs="58345.716150" HC_abs="3.552529" PMx_abs="0.813313" NOx_abs="21.907969" fuel_abs="25.080362" electricity_abs="0"
            CO_normed="1329.811970" CO2_normed="159472.620672" HC_normed="9.709901" PMx_normed="2.222975" NOx_normed="59.879652" fuel_normed="68.550553" electricity_normed="0"
            traveltime="0.02" CO_perVeh="0.361112" CO2_perVeh="43.304972" HC_perVeh="0.002637" PMx_perVeh="0.000604" NOx_perVeh="0.016260" fuel_perVeh="0.018615" electricity_perVeh="0"/>
        <edge id=":1110673446_0" sampledSeconds="333.47" CO_abs="2891.530031" CO2_abs="240268.045905" HC_abs="18.840532" PMx_abs="4.378008" NOx_abs="97.918525" fuel_abs="103.280179" electricity_abs="0"
            CO_normed="7376.352119" CO2_normed="612928.688532" HC_normed="48.062581" PMx_normed="11.168387" NOx_normed="249.792155" fuel_normed="263.469844" electricity_normed="0"
            traveltime="0.02" CO_perVeh="0.197369" CO2_perVeh="16.400122" HC_perVeh="0.001286" PMx_perVeh="0.000299" NOx_perVeh="0.006684" fuel_perVeh="0.007050" electricity_perVeh="0"/>
        <edge id=":1110673451_0" sampledSeconds="36.85" CO_abs="281.979204" CO2_abs="22865.743827" HC_abs="1.802328" PMx_abs="0.291167" NOx_abs="8.603307" fuel_abs="9.829120" electricity_abs="0"
            CO_normed="799.260783" CO2_normed="64812.199055" HC_normed="5.108640" PMx_normed="0.825303" NOx_normed="24.385792" fuel_normed="27.860317" electricity_normed="0"
            traveltime="0.03" CO_perVeh="0.202216" CO2_perVeh="16.397745" HC_perVeh="0.001293" PMx_perVeh="0.000209" NOx_perVeh="0.006170" fuel_perVeh="0.007049" electricity_perVeh="0"/>
        <edge id=":1110673464_0" sampledSeconds="323.67" CO_abs="652.878051" CO2_abs="51920.130691" HC_abs="4.163094" PMx_abs="0.729761" NOx_abs="19.952094" fuel_abs="22.318412" electricity_abs="0"
            CO_normed="35.386088" CO2_normed="2814.078888" HC_normed="0.225640" PMx_normed="0.039553" NOx_normed="1.081406" fuel_normed="1.209661" electricity_normed="0"
            traveltime="1.17" CO_perVeh="2.360068" CO2_perVeh="187.684422" HC_perVeh="0.015049" PMx_perVeh="0.002638" NOx_perVeh="0.072124" fuel_perVeh="0.080678" electricity_perVeh="0"/>
        <edge id=":1110673464_1" sampledSeconds="710.92" CO_abs="16792.195206" CO2_abs="2105808.854505" HC_abs="126.986288" PMx_abs="37.587212" NOx_abs="792.906265" fuel_abs="905.190458" electricity_abs="0"
            CO_normed="891.823026" CO2_normed="111838.196326" HC_normed="6.744163" PMx_normed="1.996233" NOx_normed="42.110758" fuel_normed="48.074101" electricity_normed="0"
            traveltime="0.70" CO_perVeh="16.574788" CO2_perVeh="2078.545103" HC_perVeh="0.125342" PMx_perVeh="0.037101" NOx_perVeh="0.782641" fuel_perVeh="0.893471" electricity_perVeh="0"/>
        <edge id=":1110673479_0" sampledSeconds="133.77" CO_abs="6906.063882" CO2_abs="480800.343144" HC_abs="42.737161" PMx_abs="8.375512" NOx_abs="196.356654" fuel_abs="206.675208" electricity_abs="0"
            CO_normed="17617.509903" CO2_normed="1226531.487612" HC_normed="109.023370" PMx_normed="21.366102" NOx_normed="500.909832" fuel_normed="527.232675" electricity_normed="0"
            traveltime="0.03" CO_perVeh="1.454827" CO2_perVeh="101.285094" HC_perVeh="0.009003" PMx_perVeh="0.001764" NOx_perVeh="0.041364" fuel_perVeh="0.043538" electricity_perVeh="0"/>
        <edge id=":1110673511_0" sampledSeconds="11.84" CO_abs="165.730007" CO2_abs="19706.433421" HC_abs="1.209889" PMx_abs="0.271346" NOx_abs="7.395907" fuel_abs="8.470970" electricity_abs="0"
            CO_normed="422.780629" CO2_normed="50271.513829" HC_normed="3.086451" PMx_normed="0.692209" NOx_normed="18.867110" fuel_normed="21.609617" electricity_normed="0"
            traveltime="0.02" CO_perVeh="0.328178" CO2_perVeh="39.022640" HC_perVeh="0.002396" PMx_perVeh="0.000537" NOx_perVeh="0.014645" fuel_perVeh="0.016774" electricity_perVeh="0"/>
        <edge id=":1110673517_0" sampledSeconds="17.13" CO_abs="720.556378" CO2_abs="53800.682960" HC_abs="4.539517" PMx_abs="0.897455" NOx_abs="21.638301" fuel_abs="23.126604" electricity_abs="0"
            CO_normed="1838.154026" CO2_normed="137246.640204" HC_normed="11.580402" PMx_normed="2.289426" NOx_normed="55.199748" fuel_normed="58.996438" electricity_normed="0"
            traveltime="0.03" CO_perVeh="1.156901" CO2_perVeh="86.380545" HC_perVeh="0.007288" PMx_perVeh="0.001441" NOx_perVeh="0.034742" fuel_perVeh="0.037131" electricity_perVeh="0"/>
        <edge id=":1110673534_0" sampledSeconds="474.57" CO_abs="3071.589474" CO2_abs="273466.597853" HC_abs="20.252301" PMx_abs="3.738109" NOx_abs="104.007835" fuel_abs="117.552370" electricity_abs="0"
            CO_normed="151.854408" CO2_normed="13519.745583" HC_normed="1.001241" PMx_normed="0.184806" NOx_normed="5.141979" fuel_normed="5.811599" electricity_normed="0"
            traveltime="1.43" CO_perVeh="9.253468" CO2_perVeh="823.845255" HC_perVeh="0.061012" PMx_perVeh="0.011261" NOx_perVeh="0.313334" fuel_perVeh="0.354138" electricity_perVeh="0"/>
        <edge id=":1110673534_1" sampledSeconds="184.46" CO_abs="2676.772431" CO2_abs="335319.774891" HC_abs="19.835027" PMx_abs="4.516036" NOx_abs="124.853093" fuel_abs="144.139968" electricity_abs="0"
            CO_normed="128.677785" CO2_normed="16119.489743" HC_normed="0.953509" PMx_normed="0.217095" NOx_normed="6.001937" fuel_normed="6.929095" electricity_normed="0"
            traveltime="1.22" CO_perVeh="17.772808" CO2_perVeh="2226.402923" HC_perVeh="0.131697" PMx_perVeh="0.029985" NOx_perVeh="0.828980" fuel_perVeh="0.957038" electricity_perVeh="0"/>
        <edge id=":1110673549_0" sampledSeconds="60.93" CO_abs="44.236028" CO2_abs="4433.868357" HC_abs="0.302541" PMx_abs="0.056815" NOx_abs="1.656387" fuel_abs="1.905945" electricity_abs="0"
            CO_normed="2.118530" CO2_normed="212.344593" HC_normed="0.014489" PMx_normed="0.002721" NOx_normed="0.079327" fuel_normed="0.091279" electricity_normed="0"
            traveltime="1.27" CO_perVeh="0.921620" CO2_perVeh="92.375870" HC_perVeh="0.006303" PMx_perVeh="0.001184" NOx_perVeh="0.034509" fuel_perVeh="0.039709" electricity_perVeh="0"/>
        <edge id=":1110673549_1" sampledSeconds="638.11" CO_abs="14335.710870" CO2_abs="1869211.788066" HC_abs="110.156871" PMx_abs="33.033326" NOx_abs="699.189309" fuel_abs="803.488537" electricity_abs="0"
            CO_normed="664.116665" CO2_normed="86593.173460" HC_normed="5.103131" PMx_normed="1.530303" NOx_normed="32.390669" fuel_normed="37.222439" electricity_normed="0"
            traveltime="0.80" CO_perVeh="18.045821" CO2_perVeh="2352.967513" HC_perVeh="0.138666" PMx_perVeh="0.041582" NOx_perVeh="0.880141" fuel_perVeh="1.011433" electricity_perVeh="0"/>
        <edge id=":1110673556_0" sampledSeconds="413.93" CO_abs="51614.508270" CO2_abs="2605352.042547" HC_abs="297.016515" PMx_abs="52.734694" NOx_abs="1123.032426" fuel_abs="1119.927525" electricity_abs="0"
            CO_normed="1832.988361" CO2_normed="92523.984654" HC_normed="10.547961" PMx_normed="1.872770" NOx_normed="39.882301" fuel_normed="39.772037" electricity_normed="0"
            traveltime="2.57" CO_perVeh="320.397722" CO2_perVeh="16172.756220" HC_perVeh="1.843734" PMx_perVeh="0.327351" NOx_perVeh="6.971238" fuel_perVeh="6.951964" electricity_perVeh="0"/>
        <edge id=":1110673556_2" sampledSeconds="248.50" CO_abs="23726.192977" CO2_abs="1021435.845448" HC_abs="132.028065" PMx_abs="19.737580" NOx_abs="435.876686" fuel_abs="439.075091" electricity_abs="0"
            CO_normed="881.018959" CO2_normed="37928.729074" HC_normed="4.902566" PMx_normed="0.732911" NOx_normed="16.185303" fuel_normed="16.304069" electricity_normed="0"
            traveltime="3.01" CO_perVeh="287.794174" CO2_perVeh="12389.821069" HC_perVeh="1.601475" PMx_perVeh="0.239413" NOx_perVeh="5.287101" fuel_perVeh="5.325897" electricity_perVeh="0"/>
        <edge id=":1110673556_3" sampledSeconds="408.88" CO_abs="35102.641020" CO2_abs="1246388.065282" HC_abs="188.830946" PMx_abs="23.718902" NOx_abs="531.136936" fuel_abs="535.778854" electricity_abs="0"
            CO_normed="2965.150782" CO2_normed="105283.489769" HC_normed="15.950715" PMx_normed="2.003556" NOx_normed="44.865601" fuel_normed="45.257708" electricity_normed="0"
            traveltime="1.73" CO_perVeh="148.573931" CO2_perVeh="5275.408597" HC_perVeh="0.799238" PMx_perVeh="0.100392" NOx_perVeh="2.248067" fuel_perVeh="2.267715" electricity_perVeh="0"/>
        <edge id=":1110673556_4" sampledSeconds="203.53" CO_abs="21613.654385" CO2_abs="866968.083859" HC_abs="118.769210" PMx_abs="16.968245" NOx_abs="371.869863" fuel_abs="372.676356" electricity_abs="0"
            CO_normed="1115.378424" CO2_normed="44740.120199" HC_normed="6.129117" PMx_normed="0.875651" NOx_normed="19.190444" fuel_normed="19.232063" electricity_normed="0"
            traveltime="2.41" CO_perVeh="255.815651" CO2_perVeh="10261.291342" HC_perVeh="1.405733" PMx_perVeh="0.200833" NOx_perVeh="4.401390" fuel_perVeh="4.410936" electricity_perVeh="0"/>
        <edge id=":1110673556_5" sampledSeconds="24.77" CO_abs="2009.571459" CO2_abs="79930.862990" HC_abs="11.013635" PMx_abs="1.498724" NOx_abs="33.865675" fuel_abs="34.359329" electricity_abs="0"
            CO_normed="144.542983" CO2_normed="5749.208536" HC_normed="0.792181" PMx_normed="0.107799" NOx_normed="2.435865" fuel_normed="2.471373" electricity_normed="0"
            traveltime="1.71" CO_perVeh="138.933335" CO2_perVeh="5526.084355" HC_perVeh="0.761436" PMx_perVeh="0.103615" NOx_perVeh="2.341331" fuel_perVeh="2.375460" electricity_perVeh="0"/>
        <edge id=":1110673556_6" sampledSeconds="539.92" CO_abs="61784.034733" CO2_abs="3083124.728213" HC_abs="354.572102" PMx_abs="61.921397" NOx_abs="1326.128713" fuel_abs="1325.302535" electricity_abs="0"
            CO_normed="2249.462419" CO2_normed="112251.866355" HC_normed="12.909429" PMx_normed="2.254464" NOx_normed="48.282323" fuel_normed="48.252243" electricity_normed="0"
            traveltime="2.56" CO_perVeh="292.998983" CO2_perVeh="14621.130074" HC_perVeh="1.681490" PMx_perVeh="0.293650" NOx_perVeh="6.288912" fuel_perVeh="6.284994" electricity_perVeh="0"/>
        <edge id=":1110673561_0" sampledSeconds="100.81" CO_abs="9484.057316" CO2_abs="688113.287065" HC_abs="59.744812" PMx_abs="13.834132" NOx_abs="290.238628" fuel_abs="295.787166" electricity_abs="0"
            CO_normed="433.843821" CO2_normed="31477.424479" HC_normed="2.732999" PMx_normed="0.632836" NOx_normed="13.276832" fuel_normed="13.530647" electricity_normed="0"
            traveltime="1.19" CO_perVeh="111.921082" CO2_perVeh="8120.404670" HC_perVeh="0.705047" PMx_perVeh="0.163256" NOx_perVeh="3.425098" fuel_perVeh="3.490576" electricity_perVeh="0"/>
        <edge id=":1110673561_1" sampledSeconds="1314.75" CO_abs="119326.412942" CO2_abs="8281715.644726" HC_abs="743.652161" PMx_abs="173.006112" NOx_abs="3539.895353" fuel_abs="3559.909561" electricity_abs="0"
            CO_normed="5321.750256" CO2_normed="369350.098327" HC_normed="33.165592" PMx_normed="7.715771" NOx_normed="157.873169" fuel_normed="158.765768" electricity_normed="0"
            traveltime="1.19" CO_perVeh="108.345782" CO2_perVeh="7519.617314" HC_perVeh="0.675220" PMx_perVeh="0.157086" NOx_perVeh="3.214148" fuel_perVeh="3.232320" electricity_perVeh="0"/>
        <edge id=":1110673562_0" sampledSeconds="104.43" CO_abs="2233.669334" CO2_abs="181735.354717" HC_abs="14.300665" PMx_abs="2.359952" NOx_abs="68.615263" fuel_abs="78.121095" electricity_abs="0"
            CO_normed="6331.262285" CO2_normed="515122.887519" HC_normed="40.534766" PMx_normed="6.689208" NOx_normed="194.487707" fuel_normed="221.431675" electricity_normed="0"
            traveltime="0.03" CO_perVeh="0.569375" CO2_perVeh="46.325411" HC_perVeh="0.003645" PMx_perVeh="0.000602" NOx_perVeh="0.017490" fuel_perVeh="0.019914" electricity_perVeh="0"/>
        <edge id=":1110673564_0" sampledSeconds="28.12" CO_abs="522.550355" CO2_abs="62135.163009" HC_abs="3.764175" PMx_abs="0.857719" NOx_abs="23.271562" fuel_abs="26.709296" electricity_abs="0"
            CO_normed="3999.109861" CO2_normed="475524.206700" HC_normed="28.807460" PMx_normed="6.564174" NOx_normed="178.098690" fuel_normed="204.407876" electricity_normed="0"
            traveltime="7.731887e-03" CO_perVeh="0.143656" CO2_perVeh="17.081832" HC_perVeh="0.001035" PMx_perVeh="0.000236" NOx_perVeh="0.006398" fuel_perVeh="0.007343" electricity_perVeh="0"/>
        <edge id=":1110673588_0" sampledSeconds="11.65" CO_abs="160.804220" CO2_abs="21353.605139" HC_abs="1.209140" PMx_abs="0.281884" NOx_abs="7.892682" fuel_abs="9.179024" electricity_abs="0"
            CO_normed="492.257815" CO2_normed="65368.178997" HC_normed="3.701450" PMx_normed="0.862911" NOx_normed="24.161270" fuel_normed="28.099053" electricity_normed="0"
            traveltime="0.02" CO_perVeh="0.268007" CO2_perVeh="35.589342" HC_perVeh="0.002015" PMx_perVeh="0.000470" NOx_perVeh="0.013154" fuel_perVeh="0.015298" electricity_perVeh="0"/>
        <edge id=":1110673601_0" sampledSeconds="29.23" CO_abs="476.572634" CO2_abs="59769.141819" HC_abs="3.541103" PMx_abs="0.803734" NOx_abs="22.222904" fuel_abs="25.692263" electricity_abs="0"
            CO_normed="1302.585552" CO2_normed="163363.179170" HC_normed="9.678670" PMx_normed="2.196794" NOx_normed="60.740444" fuel_normed="70.223023" electricity_normed="0"
            traveltime="0.02" CO_perVeh="0.353719" CO2_perVeh="44.361457" HC_perVeh="0.002628" PMx_perVeh="0.000597" NOx_perVeh="0.016494" fuel_perVeh="0.019069" electricity_perVeh="0"/>
        <edge id=":1110673617_0" sampledSeconds="238.73" CO_abs="5827.478135" CO2_abs="733147.029935" HC_abs="43.987968" PMx_abs="13.035250" NOx_abs="275.970403" fuel_abs="315.146230" electricity_abs="0"
            CO_normed="14866.015651" CO2_normed="1870273.035548" HC_normed="112.214205" PMx_normed="33.253188" NOx_normed="704.006129" fuel_normed="803.944465" electricity_normed="0"
            traveltime="0.01" CO_perVeh="0.357134" CO2_perVeh="44.930548" HC_perVeh="0.002696" PMx_perVeh="0.000799" NOx_perVeh="0.016913" fuel_perVeh="0.019314" electricity_perVeh="0"/>
        <edge id=":1110673621_0" sampledSeconds="25.78" CO_abs="577.636076" CO2_abs="64965.556880" HC_abs="4.123286" PMx_abs="0.937862" NOx_abs="24.651370" fuel_abs="27.925929" electricity_abs="0"
            CO_normed="1768.273703" CO2_normed="198874.153714" HC_normed="12.622304" PMx_normed="2.871006" NOx_normed="75.463378" fuel_normed="85.487537" electricity_normed="0"
            traveltime="0.02" CO_perVeh="0.437603" CO2_perVeh="49.216331" HC_perVeh="0.003124" PMx_perVeh="0.000711" NOx_perVeh="0.018675" fuel_perVeh="0.021156" electricity_perVeh="0"/>
        <edge id=":1110673630_0" sampledSeconds="54.15" CO_abs="270.202669" CO2_abs="26865.160042" HC_abs="1.847827" PMx_abs="0.368105" NOx_abs="10.171961" fuel_abs="11.548236" electricity_abs="0"
            CO_normed="14.749483" CO2_normed="1466.481559" HC_normed="0.100867" PMx_normed="0.020094" NOx_normed="0.555254" fuel_normed="0.630381" electricity_normed="0"
            traveltime="1.26" CO_perVeh="6.307008" CO2_perVeh="627.080354" HC_perVeh="0.043132" PMx_perVeh="0.008592" NOx_perVeh="0.237432" fuel_perVeh="0.269556" electricity_perVeh="0"/>
        <edge id=":1110673630_1" sampledSeconds="7.33" CO_abs="24.869337" CO2_abs="1657.082568" HC_abs="0.151646" PMx_abs="0.026585" NOx_abs="0.664367" fuel_abs="0.712312" electricity_abs="0"
            CO_normed="1.655014" CO2_normed="110.276125" HC_normed="0.010092" PMx_normed="0.001769" NOx_normed="0.044213" fuel_normed="0.047403" electricity_normed="0"
            traveltime="1.04" CO_perVeh="3.519968" CO2_perVeh="234.540917" HC_perVeh="0.021464" PMx_perVeh="0.003763" NOx_perVeh="0.094034" fuel_perVeh="0.100820" electricity_perVeh="0"/>
        <edge id=":1110673650_0" sampledSeconds="144.03" CO_abs="2346.413598" CO2_abs="273977.485798" HC_abs="16.984896" PMx_abs="3.892778" NOx_abs="103.480969" fuel_abs="117.771294" electricity_abs="0"
            CO_normed="5985.748973" CO2_normed="698922.157647" HC_normed="43.328816" PMx_normed="9.930557" NOx_normed="263.982064" fuel_normed="300.436973" electricity_normed="0"
            traveltime="0.02" CO_perVeh="0.376732" CO2_perVeh="43.988893" HC_perVeh="0.002727" PMx_perVeh="0.000625" NOx_perVeh="0.016615" fuel_perVeh="0.018909" electricity_perVeh="0"/>
        <edge id=":1110673655_0" sampledSeconds="45.25" CO_abs="673.079894" CO2_abs="77013.796341" HC_abs="4.825641" PMx_abs="1.048984" NOx_abs="28.879038" fuel_abs="33.105035" electricity_abs="0"
            CO_normed="1717.040547" CO2_normed="196463.766177" HC_normed="12.310310" PMx_normed="2.675979" NOx_normed="73.671015" fuel_normed="84.451619" electricity_normed="0"
            traveltime="0.02" CO_perVeh="0.360225" CO2_perVeh="41.216910" HC_perVeh="0.002583" PMx_perVeh="0.000561" NOx_perVeh="0.015456" fuel_perVeh="0.017717" electricity_perVeh="0"/>
        <edge id=":1110673663_0" sampledSeconds="108.63" CO_abs="1835.997910" CO2_abs="224045.952798" HC_abs="13.465202" PMx_abs="3.057982" NOx_abs="83.675850" fuel_abs="96.307976" electricity_abs="0"
            CO_normed="85.781468" CO2_normed="10467.871757" HC_normed="0.629121" PMx_normed="0.142875" NOx_normed="3.909502" fuel_normed="4.499700" electricity_normed="0"
            traveltime="1.28" CO_perVeh="21.564662" CO2_perVeh="2631.525410" HC_perVeh="0.158155" PMx_perVeh="0.035917" NOx_perVeh="0.982812" fuel_perVeh="1.131183" electricity_perVeh="0"/>
        <edge id=":1110673663_1" sampledSeconds="153.75" CO_abs="2182.039303" CO2_abs="293936.509709" HC_abs="16.570318" PMx_abs="3.894623" NOx_abs="108.544490" fuel_abs="126.351025" electricity_abs="0"
            CO_normed="102.073841" CO2_normed="13750.086216" HC_normed="0.775145" PMx_normed="0.182187" NOx_normed="5.077614" fuel_normed="5.910588" electricity_normed="0"
            traveltime="1.25" CO_perVeh="17.709825" CO2_perVeh="2385.641772" HC_perVeh="0.134488" PMx_perVeh="0.031609" NOx_perVeh="0.880967" fuel_perVeh="1.025488" electricity_perVeh="0"/>
        <edge id=":1110673666_0" sampledSeconds="192.01" CO_abs="4255.561880" CO2_abs="330348.497715" HC_abs="26.887234" PMx_abs="4.353296" NOx_abs="125.360233" fuel_abs="142.004261" electricity_abs="0"
            CO_normed="266.296612" CO2_normed="20671.931958" HC_normed="1.682499" PMx_normed="0.272412" NOx_normed="7.844559" fuel_normed="8.886078" electricity_normed="0"