<?xml version="1.0" encoding="UTF-8"?>

<!-- generated on Tue Nov 10 02:30:19 2020 by Eclipse SUMO sumo Version 1.7.0
<configuration xmlns:xsi="http://www.w3.org/2001/XMLSchema-instance" xsi:noNamespaceSchemaLocation="http://sumo.dlr.de/xsd/sumoConfiguration.xsd">

    <input>
        <net-file value="../dataSets/Porto/6AM7AM_Routing_SaoBento/Porto.net.xml"/>
        <route-files value="../results/Porto/6AM7AM_Routing_SaoBento/cost_PMx-cost_nox/solution6/Porto.rou.xml"/>
        <additional-files value="moreOutputInfo.xml"/>
    </input>

    <output>
        <emission-output.precision value="6"/>
        <tripinfo-output value="../results/Porto/6AM7AM_Routing_SaoBento/cost_PMx-cost_nox/solution6/Porto-tripinfo"/>
    </output>

    <processing>
        <collision.action value="warn"/>
        <time-to-teleport value="-1"/>
    </processing>

    <emissions>
        <device.emissions.probability value="1"/>
    </emissions>

    <gui_only>
        <quit-on-end value="true"/>
        <start value="true"/>
    </gui_only>

</configuration>
-->

<meandata xmlns:xsi="http://www.w3.org/2001/XMLSchema-instance" xsi:noNamespaceSchemaLocation="http://sumo.dlr.de/xsd/meandata_file.xsd">
    <interval begin="0.00" end="4703.00" id="emissions-detector">
        <edge id=":1092997347_0" sampledSeconds="329.42" CO_abs="42463.366085" CO2_abs="1710303.981601" HC_abs="233.805995" PMx_abs="34.967921" NOx_abs="742.769976" fuel_abs="735.191759" electricity_abs="0"
            CO_normed="73873.599978" CO2_normed="2975419.139507" HC_normed="406.752741" PMx_normed="60.833759" NOx_normed="1292.198362" fuel_normed="1279.014522" electricity_normed="0"
            traveltime="0.07" CO_perVeh="9.475291" CO2_perVeh="381.637871" HC_perVeh="0.052172" PMx_perVeh="0.007803" NOx_perVeh="0.165742" fuel_perVeh="0.164051" electricity_perVeh="0"/>
        <edge id=":1103427051_0" sampledSeconds="11.35" CO_abs="910.091370" CO2_abs="50714.202579" HC_abs="5.343905" PMx_abs="0.975230" NOx_abs="21.519366" fuel_abs="21.799828" electricity_abs="0"
            CO_normed="2402.229635" CO2_normed="133862.559689" HC_normed="14.105493" PMx_normed="2.574165" NOx_normed="56.801395" fuel_normed="57.541688" electricity_normed="0"
            traveltime="0.03" CO_perVeh="2.493637" CO2_perVeh="138.956148" HC_perVeh="0.014642" PMx_perVeh="0.002672" NOx_perVeh="0.058963" fuel_perVeh="0.059731" electricity_perVeh="0"/>
        <edge id=":1105984386_0" sampledSeconds="77.07" CO_abs="1508.205944" CO2_abs="118514.629835" HC_abs="9.572002" PMx_abs="1.611466" NOx_abs="45.285617" fuel_abs="50.944843" electricity_abs="0"
            CO_normed="118.896464" CO2_normed="9342.868936" HC_normed="0.754590" PMx_normed="0.127037" NOx_normed="3.570003" fuel_normed="4.016137" electricity_normed="0"
            traveltime="0.96" CO_perVeh="18.755033" CO2_perVeh="1473.768065" HC_perVeh="0.119031" PMx_perVeh="0.020039" NOx_perVeh="0.563141" fuel_perVeh="0.633516" electricity_perVeh="0"/>
        <edge id=":1105984390_0" sampledSeconds="78.60" CO_abs="52.075251" CO2_abs="7740.987295" HC_abs="0.408842" PMx_abs="0.075755" NOx_abs="2.692906" fuel_abs="3.327563" electricity_abs="0"
            CO_normed="3.173725" CO2_normed="471.774255" HC_normed="0.024917" PMx_normed="0.004617" NOx_normed="0.164119" fuel_normed="0.202798" electricity_normed="0"
            traveltime="1.06" CO_perVeh="0.699730" CO2_perVeh="104.014807" HC_perVeh="0.005494" PMx_perVeh="0.001018" NOx_perVeh="0.036184" fuel_perVeh="0.044712" electricity_perVeh="0"/>
        <edge id=":1105984390_1" sampledSeconds="645.16" CO_abs="14316.337614" CO2_abs="1892818.381752" HC_abs="110.607502" PMx_abs="33.312153" NOx_abs="706.783555" fuel_abs="813.636003" electricity_abs="0"
            CO_normed="834.631415" CO2_normed="110349.848387" HC_normed="6.448332" PMx_normed="1.942073" NOx_normed="41.204935" fuel_normed="47.434350" electricity_normed="0"
            traveltime="0.64" CO_perVeh="14.105246" CO2_perVeh="1864.909145" HC_perVeh="0.108977" PMx_perVeh="0.032821" NOx_perVeh="0.696362" fuel_perVeh="0.801639" electricity_perVeh="0"/>
        <edge id=":1105984395_0" sampledSeconds="30.05" CO_abs="583.280836" CO2_abs="47027.719336" HC_abs="3.727432" PMx_abs="0.627248" NOx_abs="17.876030" fuel_abs="20.215400" electricity_abs="0"
            CO_normed="485.307946" CO2_normed="39128.537199" HC_normed="3.101341" PMx_normed="0.521890" NOx_normed="14.873418" fuel_normed="16.819847" electricity_normed="0"
            traveltime="0.09" CO_perVeh="1.752624" CO2_perVeh="141.307407" HC_perVeh="0.011200" PMx_perVeh="0.001885" NOx_perVeh="0.053713" fuel_perVeh="0.060743" electricity_perVeh="0"/>
        <edge id=":1105984398_0" sampledSeconds="76.07" CO_abs="5204.534217" CO2_abs="364861.505563" HC_abs="32.313355" PMx_abs="6.584676" NOx_abs="150.394243" fuel_abs="156.837761" electricity_abs="0"
            CO_normed="329.520994" CO2_normed="23100.919516" HC_normed="2.045895" PMx_normed="0.416904" NOx_normed="9.522093" fuel_normed="9.930060" electricity_normed="0"
            traveltime="1.08" CO_perVeh="73.860912" CO2_perVeh="5177.985669" HC_perVeh="0.458580" PMx_perVeh="0.093447" NOx_perVeh="2.134342" fuel_perVeh="2.225786" electricity_perVeh="0"/>
        <edge id=":1105984398_1" sampledSeconds="453.39" CO_abs="7743.473479" CO2_abs="924383.005979" HC_abs="56.415182" PMx_abs="13.076790" NOx_abs="348.326915" fuel_abs="397.352989" electricity_abs="0"
            CO_normed="474.570675" CO2_normed="56652.233486" HC_normed="3.457491" PMx_normed="0.801431" NOx_normed="21.347750" fuel_normed="24.352389" electricity_normed="0"
            traveltime="0.96" CO_perVeh="16.327163" CO2_perVeh="1949.067480" HC_perVeh="0.118952" PMx_perVeh="0.027572" NOx_perVeh="0.734450" fuel_perVeh="0.837821" electricity_perVeh="0"/>
        <edge id=":1106006327_0" sampledSeconds="38.61" CO_abs="5298.408133" CO2_abs="173021.992016" HC_abs="28.204211" PMx_abs="3.632853" NOx_abs="75.878346" fuel_abs="74.375983" electricity_abs="0"
            CO_normed="457.761442" CO2_normed="14948.413679" HC_normed="2.436732" PMx_normed="0.313864" NOx_normed="6.555588" fuel_normed="6.425790" electricity_normed="0"
            traveltime="2.09" CO_perVeh="287.435073" CO2_perVeh="9386.326532" HC_perVeh="1.530059" PMx_perVeh="0.197080" NOx_perVeh="4.116349" fuel_perVeh="4.034847" electricity_perVeh="0"/>
        <edge id=":1106006327_1" sampledSeconds="160.43" CO_abs="21574.838996" CO2_abs="722659.752306" HC_abs="115.263510" PMx_abs="15.036171" NOx_abs="316.048669" fuel_abs="310.645383" electricity_abs="0"
            CO_normed="1625.479054" CO2_normed="54446.213514" HC_normed="8.684117" PMx_normed="1.132847" NOx_normed="23.811556" fuel_normed="23.404465" electricity_normed="0"
            traveltime="2.28" CO_perVeh="306.282646" CO2_perVeh="10259.086580" HC_perVeh="1.636314" PMx_perVeh="0.213458" NOx_perVeh="4.486718" fuel_perVeh="4.410012" electricity_perVeh="0"/>
        <edge id=":1106006327_2" sampledSeconds="0.00" CO_abs="0" CO2_abs="0" HC_abs="0" PMx_abs="0" NOx_abs="0" fuel_abs="0" electricity_abs="0"
            CO_normed="0" CO2_normed="0" HC_normed="0" PMx_normed="0" NOx_normed="0" fuel_normed="0" electricity_normed="0"/>
        <edge id=":1106006327_3" sampledSeconds="0.00" CO_abs="0" CO2_abs="0" HC_abs="0" PMx_abs="0" NOx_abs="0" fuel_abs="0" electricity_abs="0"
            CO_normed="0" CO2_normed="0" HC_normed="0" PMx_normed="0" NOx_normed="0" fuel_normed="0" electricity_normed="0"/>
        <edge id=":1107381198_0" sampledSeconds="0.00" CO_abs="0" CO2_abs="0" HC_abs="0" PMx_abs="0" NOx_abs="0" fuel_abs="0" electricity_abs="0"
            CO_normed="0" CO2_normed="0" HC_normed="0" PMx_normed="0" NOx_normed="0" fuel_normed="0" electricity_normed="0"/>
        <edge id=":1107381198_1" sampledSeconds="36.34" CO_abs="1472.537487" CO2_abs="61614.906643" HC_abs="8.128685" PMx_abs="1.077956" NOx_abs="25.610485" fuel_abs="26.486027" electricity_abs="0"
            CO_normed="122.920564" CO2_normed="5143.325159" HC_normed="0.678545" PMx_normed="0.089983" NOx_normed="2.137844" fuel_normed="2.210930" electricity_normed="0"
            traveltime="1.50" CO_perVeh="60.628452" CO2_perVeh="2536.856564" HC_perVeh="0.334681" PMx_perVeh="0.044382" NOx_perVeh="1.054455" fuel_perVeh="1.090503" electricity_perVeh="0"/>
        <edge id=":1110338277_0" sampledSeconds="96.19" CO_abs="1608.856632" CO2_abs="192861.335251" HC_abs="11.749691" PMx_abs="2.664988" NOx_abs="72.321671" fuel_abs="82.902985" electricity_abs="0"
            CO_normed="4398.320127" CO2_normed="527247.658717" HC_normed="32.121509" PMx_normed="7.285591" NOx_normed="197.714237" fuel_normed="226.641617" electricity_normed="0"
            traveltime="0.02" CO_perVeh="0.363692" CO2_perVeh="43.597486" HC_perVeh="0.002656" PMx_perVeh="0.000602" NOx_perVeh="0.016349" fuel_perVeh="0.018741" electricity_perVeh="0"/>
        <edge id=":1110338293_0" sampledSeconds="123.31" CO_abs="6400.575907" CO2_abs="440010.825552" HC_abs="39.501531" PMx_abs="7.807176" NOx_abs="180.685455" fuel_abs="189.141409" electricity_abs="0"
            CO_normed="16331.471590" CO2_normed="1122715.268261" HC_normed="100.790638" PMx_normed="19.920500" NOx_normed="461.030290" fuel_normed="482.606189" electricity_normed="0"
            traveltime="0.03" CO_perVeh="1.468089" CO2_perVeh="100.924535" HC_perVeh="0.009060" PMx_perVeh="0.001791" NOx_perVeh="0.041444" fuel_perVeh="0.043383" electricity_perVeh="0"/>
        <edge id=":1110338295_0" sampledSeconds="0.00" CO_abs="0" CO2_abs="0" HC_abs="0" PMx_abs="0" NOx_abs="0" fuel_abs="0" electricity_abs="0"
            CO_normed="0" CO2_normed="0" HC_normed="0" PMx_normed="0" NOx_normed="0" fuel_normed="0" electricity_normed="0"/>
        <edge id=":1110673403_0" sampledSeconds="158.47" CO_abs="2338.751188" CO2_abs="300615.257964" HC_abs="17.503512" PMx_abs="4.085056" NOx_abs="111.924821" fuel_abs="129.221860" electricity_abs="0"
            CO_normed="5967.470606" CO2_normed="767038.719025" HC_normed="44.661311" PMx_normed="10.423276" NOx_normed="285.583212" fuel_normed="329.717696" electricity_normed="0"
            traveltime="0.02" CO_perVeh="0.340529" CO2_perVeh="43.770422" HC_perVeh="0.002549" PMx_perVeh="0.000595" NOx_perVeh="0.016297" fuel_perVeh="0.018815" electricity_perVeh="0"/>
        <edge id=":1110673412_0" sampledSeconds="252.52" CO_abs="44666.086236" CO2_abs="3047975.046986" HC_abs="277.960353" PMx_abs="66.960357" NOx_abs="1309.905629" fuel_abs="1310.174358" electricity_abs="0"
            CO_normed="117898.267759" CO2_normed="8045275.700140" HC_normed="733.689626" PMx_normed="176.745060" NOx_normed="3457.558465" fuel_normed="3458.267790" electricity_normed="0"
            traveltime="0.02" CO_perVeh="2.754668" CO2_perVeh="187.976164" HC_perVeh="0.017143" PMx_perVeh="0.004130" NOx_perVeh="0.080785" fuel_perVeh="0.080802" electricity_perVeh="0"/>
        <edge id=":1110673414_0" sampledSeconds="0.00" CO_abs="0" CO2_abs="0" HC_abs="0" PMx_abs="0" NOx_abs="0" fuel_abs="0" electricity_abs="0"
            CO_normed="0" CO2_normed="0" HC_normed="0" PMx_normed="0" NOx_normed="0" fuel_normed="0" electricity_normed="0"/>
        <edge id=":1110673414_1" sampledSeconds="323.06" CO_abs="22030.851017" CO2_abs="830683.244880" HC_abs="119.574218" PMx_abs="15.240848" NOx_abs="350.146139" fuel_abs="357.081536" electricity_abs="0"
            CO_normed="1867.544871" CO2_normed="70416.627674" HC_normed="10.136250" PMx_normed="1.291959" NOx_normed="29.681723" fuel_normed="30.269634" electricity_normed="0"
            traveltime="1.59" CO_perVeh="108.547240" CO2_perVeh="4092.822991" HC_perVeh="0.589149" PMx_perVeh="0.075093" NOx_perVeh="1.725190" fuel_perVeh="1.759361" electricity_perVeh="0"/>
        <edge id=":1110673417_0" sampledSeconds="29.62" CO_abs="511.067212" CO2_abs="61475.789516" HC_abs="3.737804" PMx_abs="0.831056" NOx_abs="22.951609" fuel_abs="26.425885" electricity_abs="0"
            CO_normed="1397.164396" CO2_normed="168063.578156" HC_normed="10.218473" PMx_normed="2.271956" NOx_normed="62.745506" fuel_normed="72.243541" electricity_normed="0"
            traveltime="0.02" CO_perVeh="0.379321" CO2_perVeh="45.628154" HC_perVeh="0.002774" PMx_perVeh="0.000617" NOx_perVeh="0.017035" fuel_perVeh="0.019614" electricity_perVeh="0"/>
        <edge id=":1110673446_0" sampledSeconds="335.00" CO_abs="3283.568525" CO2_abs="268872.170781" HC_abs="21.306298" PMx_abs="4.883894" NOx_abs="109.641150" fuel_abs="115.575826" electricity_abs="0"
            CO_normed="8378.231405" CO2_normed="686044.237588" HC_normed="54.364357" PMx_normed="12.461562" NOx_normed="279.756282" fuel_normed="294.898981" electricity_normed="0"
            traveltime="0.02" CO_perVeh="0.223953" CO2_perVeh="18.338237" HC_perVeh="0.001453" PMx_perVeh="0.000333" NOx_perVeh="0.007478" fuel_perVeh="0.007883" electricity_perVeh="0"/>
        <edge id=":1110673451_0" sampledSeconds="37.05" CO_abs="275.675506" CO2_abs="22879.149210" HC_abs="1.774018" PMx_abs="0.289476" NOx_abs="8.579715" fuel_abs="9.834881" electricity_abs="0"
            CO_normed="781.559305" CO2_normed="64863.985285" HC_normed="5.029465" PMx_normed="0.820685" NOx_normed="24.324090" fuel_normed="27.882575" electricity_normed="0"
            traveltime="0.03" CO_perVeh="0.197696" CO2_perVeh="16.407358" HC_perVeh="0.001272" PMx_perVeh="0.000208" NOx_perVeh="0.006153" fuel_perVeh="0.007053" electricity_perVeh="0"/>
        <edge id=":1110673464_0" sampledSeconds="325.77" CO_abs="513.118207" CO2_abs="43287.343280" HC_abs="3.321359" PMx_abs="0.564693" NOx_abs="16.326054" fuel_abs="18.607561" electricity_abs="0"
            CO_normed="27.816997" CO2_normed="2346.679381" HC_normed="0.180056" PMx_normed="0.030613" NOx_normed="0.885063" fuel_normed="1.008747" electricity_normed="0"
            traveltime="1.18" CO_perVeh="1.854855" CO2_perVeh="156.478035" HC_perVeh="0.012006" PMx_perVeh="0.002041" NOx_perVeh="0.059017" fuel_perVeh="0.067264" electricity_perVeh="0"/>
        <edge id=":1110673464_1" sampledSeconds="743.97" CO_abs="16867.522676" CO2_abs="2111486.976513" HC_abs="127.534075" PMx_abs="37.748755" NOx_abs="795.140485" fuel_abs="907.631196" electricity_abs="0"
            CO_normed="896.014100" CO2_normed="112163.602152" HC_normed="6.774695" PMx_normed="2.005239" NOx_normed="42.238395" fuel_normed="48.213977" electricity_normed="0"
            traveltime="0.70" CO_perVeh="15.875468" CO2_perVeh="1987.300900" HC_perVeh="0.120033" PMx_perVeh="0.035529" NOx_perVeh="0.748375" fuel_perVeh="0.854249" electricity_perVeh="0"/>
        <edge id=":1110673479_0" sampledSeconds="133.80" CO_abs="6557.837730" CO2_abs="462032.820483" HC_abs="40.695026" PMx_abs="7.946871" NOx_abs="187.939618" fuel_abs="198.607963" electricity_abs="0"
            CO_normed="16732.735012" CO2_normed="1178905.772018" HC_normed="103.835916" PMx_normed="20.276940" NOx_normed="479.539744" fuel_normed="506.760696" electricity_normed="0"
            traveltime="0.03" CO_perVeh="1.381470" CO2_perVeh="97.331540" HC_perVeh="0.008573" PMx_perVeh="0.001674" NOx_perVeh="0.039591" fuel_perVeh="0.041839" electricity_perVeh="0"/>
        <edge id=":1110673511_0" sampledSeconds="11.76" CO_abs="221.861861" CO2_abs="26931.635530" HC_abs="1.615786" PMx_abs="0.359153" NOx_abs="10.012548" fuel_abs="11.576794" electricity_abs="0"
            CO_normed="566.094477" CO2_normed="68717.760229" HC_normed="4.122781" PMx_normed="0.916402" NOx_normed="25.547645" fuel_normed="29.538919" electricity_normed="0"
            traveltime="0.02" CO_perVeh="0.439330" CO2_perVeh="53.329971" HC_perVeh="0.003200" PMx_perVeh="0.000711" NOx_perVeh="0.019827" fuel_perVeh="0.022924" electricity_perVeh="0"/>
        <edge id=":1110673517_0" sampledSeconds="17.32" CO_abs="621.241691" CO2_abs="45192.646391" HC_abs="3.887222" PMx_abs="0.764488" NOx_abs="18.263004" fuel_abs="19.426374" electricity_abs="0"
            CO_normed="1585.137208" CO2_normed="115311.876823" HC_normed="9.918492" PMx_normed="1.950640" NOx_normed="46.599203" fuel_normed="49.567613" electricity_normed="0"
            traveltime="0.03" CO_perVeh="0.997445" CO2_perVeh="72.559775" HC_perVeh="0.006241" PMx_perVeh="0.001227" NOx_perVeh="0.029322" fuel_perVeh="0.031190" electricity_perVeh="0"/>
        <edge id=":1110673534_0" sampledSeconds="476.55" CO_abs="2682.155921" CO2_abs="234831.955689" HC_abs="17.571014" PMx_abs="3.106255" NOx_abs="88.736549" fuel_abs="100.945067" electricity_abs="0"
            CO_normed="132.629639" CO2_normed="11612.180038" HC_normed="0.868867" PMx_normed="0.153601" NOx_normed="4.387924" fuel_normed="4.991622" electricity_normed="0"
            traveltime="1.44" CO_perVeh="8.080265" CO2_perVeh="707.454949" HC_perVeh="0.052934" PMx_perVeh="0.009358" NOx_perVeh="0.267328" fuel_perVeh="0.304107" electricity_perVeh="0"/>
        <edge id=":1110673534_1" sampledSeconds="245.13" CO_abs="3338.954199" CO2_abs="445102.229091" HC_abs="25.327422" PMx_abs="5.863614" NOx_abs="164.327617" fuel_abs="191.330932" electricity_abs="0"
            CO_normed="160.544311" CO2_normed="21401.500709" HC_normed="1.217799" PMx_normed="0.281936" NOx_normed="7.901236" fuel_normed="9.199615" electricity_normed="0"
            traveltime="1.23" CO_perVeh="16.699072" CO2_perVeh="2226.084446" HC_perVeh="0.126670" PMx_perVeh="0.029326" NOx_perVeh="0.821850" fuel_perVeh="0.956901" electricity_perVeh="0"/>
        <edge id=":1110673549_0" sampledSeconds="60.07" CO_abs="36.780035" CO2_abs="3432.862232" HC_abs="0.244692" PMx_abs="0.039082" NOx_abs="1.253792" fuel_abs="1.475661" electricity_abs="0"
            CO_normed="1.761825" CO2_normed="164.439869" HC_normed="0.011721" PMx_normed="0.001872" NOx_normed="0.060059" fuel_normed="0.070687" electricity_normed="0"
            traveltime="1.25" CO_perVeh="0.766281" CO2_perVeh="71.520760" HC_perVeh="0.005098" PMx_perVeh="0.000814" NOx_perVeh="0.026122" fuel_perVeh="0.030744" electricity_perVeh="0"/>
        <edge id=":1110673549_1" sampledSeconds="639.06" CO_abs="13044.971223" CO2_abs="1787874.959159" HC_abs="101.975415" PMx_abs="31.049594" NOx_abs="663.933799" fuel_abs="768.525905" electricity_abs="0"
            CO_normed="604.450310" CO2_normed="82842.771691" HC_normed="4.725121" PMx_normed="1.438710" NOx_normed="30.763961" fuel_normed="35.610329" electricity_normed="0"
            traveltime="0.80" CO_perVeh="16.428270" CO2_perVeh="2251.572036" HC_perVeh="0.128423" PMx_perVeh="0.039103" NOx_perVeh="0.836129" fuel_perVeh="0.967848" electricity_perVeh="0"/>
        <edge id=":1110673556_0" sampledSeconds="416.75" CO_abs="51032.832653" CO2_abs="2559379.178946" HC_abs="293.234395" PMx_abs="51.657121" NOx_abs="1102.343719" fuel_abs="1100.166289" electricity_abs="0"
            CO_normed="1812.716645" CO2_normed="90910.674523" HC_normed="10.415861" PMx_normed="1.834892" NOx_normed="39.155906" fuel_normed="39.078563" electricity_normed="0"
            traveltime="2.59" CO_perVeh="316.786941" CO2_perVeh="15887.377954" HC_perVeh="1.820256" PMx_perVeh="0.320662" NOx_perVeh="6.842812" fuel_perVeh="6.829296" electricity_perVeh="0"/>
        <edge id=":1110673556_2" sampledSeconds="251.42" CO_abs="24206.702761" CO2_abs="1029524.527631" HC_abs="134.389872" PMx_abs="19.856817" NOx_abs="439.093671" fuel_abs="442.552404" electricity_abs="0"
            CO_normed="899.052737" CO2_normed="38237.212803" HC_normed="4.991328" PMx_normed="0.737495" NOx_normed="16.308225" fuel_normed="16.436685" electricity_normed="0"
            traveltime="3.05" CO_perVeh="293.622666" CO2_perVeh="12487.935234" HC_perVeh="1.630123" PMx_perVeh="0.240859" NOx_perVeh="5.326122" fuel_perVeh="5.368076" electricity_perVeh="0"/>
        <edge id=":1110673556_3" sampledSeconds="381.48" CO_abs="33064.135240" CO2_abs="1162645.595258" HC_abs="177.601846" PMx_abs="22.183608" NOx_abs="495.852526" fuel_abs="499.781062" electricity_abs="0"
            CO_normed="2793.550283" CO2_normed="98230.572448" HC_normed="15.005373" PMx_normed="1.874267" NOx_normed="41.894003" fuel_normed="42.225920" electricity_normed="0"
            traveltime="1.76" CO_perVeh="152.757851" CO2_perVeh="5371.477015" HC_perVeh="0.820529" PMx_perVeh="0.102489" NOx_perVeh="2.290862" fuel_perVeh="2.309012" electricity_perVeh="0"/>
        <edge id=":1110673556_4" sampledSeconds="165.81" CO_abs="16897.416264" CO2_abs="672927.269085" HC_abs="92.750239" PMx_abs="13.249232" NOx_abs="289.155048" fuel_abs="289.265628" electricity_abs="0"
            CO_normed="872.181105" CO2_normed="34733.975899" HC_normed="4.787419" PMx_normed="0.683876" NOx_normed="14.925097" fuel_normed="14.930804" electricity_normed="0"
            traveltime="2.42" CO_perVeh="246.119159" CO2_perVeh="9801.515872" HC_perVeh="1.350953" PMx_perVeh="0.192982" NOx_perVeh="4.211685" fuel_perVeh="4.213296" electricity_perVeh="0"/>
        <edge id=":1110673556_5" sampledSeconds="24.37" CO_abs="2043.768771" CO2_abs="82551.608997" HC_abs="11.227666" PMx_abs="1.526616" NOx_abs="34.815036" fuel_abs="35.485899" electricity_abs="0"
            CO_normed="147.033960" CO2_normed="5938.974171" HC_normed="0.807747" PMx_normed="0.109829" NOx_normed="2.504683" fuel_normed="2.552946" electricity_normed="0"
            traveltime="1.68" CO_perVeh="141.297594" CO2_perVeh="5707.271733" HC_perVeh="0.776234" PMx_perVeh="0.105544" NOx_perVeh="2.406965" fuel_perVeh="2.453346" electricity_perVeh="0"/>
        <edge id=":1110673556_6" sampledSeconds="314.72" CO_abs="37853.765723" CO2_abs="1911168.344287" HC_abs="217.803327" PMx_abs="38.466958" NOx_abs="822.084651" fuel_abs="821.528504" electricity_abs="0"
            CO_normed="1378.490890" CO2_normed="69597.518270" HC_normed="7.931573" PMx_normed="1.400821" NOx_normed="29.937212" fuel_normed="29.916959" electricity_normed="0"
            traveltime="2.49" CO_perVeh="299.771374" CO2_perVeh="15134.915890" HC_perVeh="1.724827" PMx_perVeh="0.304627" NOx_perVeh="6.510249" fuel_perVeh="6.505845" electricity_perVeh="0"/>
        <edge id=":1110673561_0" sampledSeconds="100.07" CO_abs="9385.180902" CO2_abs="680474.049723" HC_abs="59.096371" PMx_abs="13.665872" NOx_abs="287.017237" fuel_abs="292.503437" electricity_abs="0"
            CO_normed="429.412052" CO2_normed="31134.589843" HC_normed="2.703911" PMx_normed="0.625272" NOx_normed="13.132263" fuel_normed="13.383280" electricity_normed="0"
            traveltime="1.18" CO_perVeh="110.754244" CO2_perVeh="8030.254255" HC_perVeh="0.697395" PMx_perVeh="0.161271" NOx_perVeh="3.387082" fuel_perVeh="3.451824" electricity_perVeh="0"/>
        <edge id=":1110673561_1" sampledSeconds="1320.98" CO_abs="120574.098033" CO2_abs="8338836.539219" HC_abs="750.750292" PMx_abs="174.356160" NOx_abs="3566.244388" fuel_abs="3584.463109" electricity_abs="0"
            CO_normed="5378.538236" CO2_normed="371976.667440" HC_normed="33.489275" PMx_normed="7.777635" NOx_normed="159.082109" fuel_normed="159.894805" electricity_normed="0"
            traveltime="1.20" CO_perVeh="109.313614" CO2_perVeh="7560.067855" HC_perVeh="0.680637" PMx_perVeh="0.158073" NOx_perVeh="3.233191" fuel_perVeh="3.249708" electricity_perVeh="0"/>
        <edge id=":1110673562_0" sampledSeconds="104.80" CO_abs="1962.437577" CO2_abs="156108.753073" HC_abs="12.493269" PMx_abs="2.090045" NOx_abs="59.399634" fuel_abs="67.105132" electricity_abs="0"
            CO_normed="5563.647535" CO2_normed="442579.213475" HC_normed="35.419290" PMx_normed="5.925424" NOx_normed="168.402108" fuel_normed="190.247735" electricity_normed="0"
            traveltime="0.03" CO_perVeh="0.500237" CO2_perVeh="39.793034" HC_perVeh="0.003185" PMx_perVeh="0.000533" NOx_perVeh="0.015141" fuel_perVeh="0.017105" electricity_perVeh="0"/>
        <edge id=":1110673564_0" sampledSeconds="28.49" CO_abs="651.451141" CO2_abs="70975.906025" HC_abs="4.606463" PMx_abs="1.033724" NOx_abs="27.047846" fuel_abs="30.509521" electricity_abs="0"
            CO_normed="4986.655558" CO2_normed="543298.451394" HC_normed="35.261038" PMx_normed="7.912836" NOx_normed="207.042836" fuel_normed="233.540883" electricity_normed="0"
            traveltime="7.831723e-03" CO_perVeh="0.179097" CO2_perVeh="19.512672" HC_perVeh="0.001266" PMx_perVeh="0.000284" NOx_perVeh="0.007436" fuel_perVeh="0.008388" electricity_perVeh="0"/>
        <edge id=":1110673588_0" sampledSeconds="11.62" CO_abs="102.669769" CO2_abs="20200.006524" HC_abs="0.910966" PMx_abs="0.206597" NOx_abs="7.023184" fuel_abs="8.683196" electricity_abs="0"
            CO_normed="314.362041" CO2_normed="61849.903030" HC_normed="2.789266" PMx_normed="0.632573" NOx_normed="21.504114" fuel_normed="26.586863" electricity_normed="0"
            traveltime="0.02" CO_perVeh="0.171116" CO2_perVeh="33.666678" HC_perVeh="0.001518" PMx_perVeh="0.000344" NOx_perVeh="0.011705" fuel_perVeh="0.014472" electricity_perVeh="0"/>
        <edge id=":1110673601_0" sampledSeconds="29.61" CO_abs="476.956709" CO2_abs="55116.897258" HC_abs="3.431106" PMx_abs="0.760334" NOx_abs="20.704077" fuel_abs="23.692450" electricity_abs="0"
            CO_normed="1303.912511" CO2_normed="150679.528363" HC_normed="9.380016" PMx_normed="2.078615" NOx_normed="56.601165" fuel_normed="64.770830" electricity_normed="0"
            traveltime="0.02" CO_perVeh="0.354004" CO2_perVeh="40.908499" HC_perVeh="0.002547" PMx_perVeh="0.000564" NOx_perVeh="0.015367" fuel_perVeh="0.017585" electricity_perVeh="0"/>
        <edge id=":1110673617_0" sampledSeconds="248.05" CO_abs="5928.820752" CO2_abs="750355.472141" HC_abs="45.002060" PMx_abs="13.356370" NOx_abs="282.291269" fuel_abs="322.543348" electricity_abs="0"
            CO_normed="15127.758670" CO2_normed="1914579.133678" HC_normed="114.825583" PMx_normed="34.079617" NOx_normed="720.283910" fuel_normed="822.989618" electricity_normed="0"
            traveltime="0.01" CO_perVeh="0.349412" CO2_perVeh="44.221798" HC_perVeh="0.002652" PMx_perVeh="0.000787" NOx_perVeh="0.016637" fuel_perVeh="0.019009" electricity_perVeh="0"/>
        <edge id=":1110673621_0" sampledSeconds="25.68" CO_abs="432.385978" CO2_abs="52826.878567" HC_abs="3.190765" PMx_abs="0.728930" NOx_abs="19.787893" fuel_abs="22.708054" electricity_abs="0"
            CO_normed="1323.911988" CO2_normed="161749.319873" HC_normed="9.769724" PMx_normed="2.231893" NOx_normed="60.588063" fuel_normed="69.529231" electricity_normed="0"
            traveltime="0.02" CO_perVeh="0.327565" CO2_perVeh="40.020363" HC_perVeh="0.002417" PMx_perVeh="0.000552" NOx_perVeh="0.014991" fuel_perVeh="0.017203" electricity_perVeh="0"/>
        <edge id=":1110673630_0" sampledSeconds="54.12" CO_abs="155.873287" CO2_abs="18274.947387" HC_abs="1.123671" PMx_abs="0.211222" NOx_abs="6.627780" fuel_abs="7.855694" electricity_abs="0"
            CO_normed="8.510424" CO2_normed="997.781951" HC_normed="0.061351" PMx_normed="0.011532" NOx_normed="0.361866" fuel_normed="0.428908" electricity_normed="0"
            traveltime="1.26" CO_perVeh="3.638358" CO2_perVeh="426.569596" HC_perVeh="0.026228" PMx_perVeh="0.004930" NOx_perVeh="0.154704" fuel_perVeh="0.183366" electricity_perVeh="0"/>
        <edge id=":1110673630_1" sampledSeconds="7.28" CO_abs="22.562114" CO2_abs="1821.228466" HC_abs="0.142385" PMx_abs="0.023195" NOx_abs="0.683588" fuel_abs="0.782877" electricity_abs="0"
            CO_normed="1.501791" CO2_normed="121.225536" HC_normed="0.009478" PMx_normed="0.001544" NOx_normed="0.045501" fuel_normed="0.052110" electricity_normed="0"
            traveltime="1.03" CO_perVeh="3.193407" CO2_perVeh="257.773875" HC_perVeh="0.020153" PMx_perVeh="0.003283" NOx_perVeh="0.096754" fuel_perVeh="0.110807" electricity_perVeh="0"/>
        <edge id=":1110673650_0" sampledSeconds="157.93" CO_abs="2624.624341" CO2_abs="334544.148640" HC_abs="19.577884" PMx_abs="4.524856" NOx_abs="124.489066" fuel_abs="143.806509" electricity_abs="0"
            CO_normed="6696.893917" CO2_normed="853610.415412" HC_normed="49.954200" PMx_normed="11.545455" NOx_normed="317.641674" fuel_normed="366.931343" electricity_normed="0"
            traveltime="0.02" CO_perVeh="0.382153" CO2_perVeh="48.710563" HC_perVeh="0.002851" PMx_perVeh="0.000659" NOx_perVeh="0.018126" fuel_perVeh="0.020939" electricity_perVeh="0"/>
        <edge id=":1110673655_0" sampledSeconds="45.05" CO_abs="840.670490" CO2_abs="90994.646946" HC_abs="5.927203" PMx_abs="1.262279" NOx_abs="34.364792" fuel_abs="39.114819" electricity_abs="0"
            CO_normed="2145.023576" CO2_normed="232178.559079" HC_normed="15.123631" PMx_normed="3.220785" NOx_normed="87.683927" fuel_normed="99.803919" electricity_normed="0"
            traveltime="0.02" CO_perVeh="0.449917" CO2_perVeh="48.699303" HC_perVeh="0.003172" PMx_perVeh="0.000676" NOx_perVeh="0.018392" fuel_perVeh="0.020934" electricity_perVeh="0"/>
        <edge id=":1110673663_0" sampledSeconds="107.65" CO_abs="1683.596719" CO2_abs="211907.874658" HC_abs="12.535164" PMx_abs="2.857984" NOx_abs="78.885184" fuel_abs="91.090344" electricity_abs="0"
            CO_normed="78.677707" CO2_normed="9902.861847" HC_normed="0.585792" PMx_normed="0.133559" NOx_normed="3.686456" fuel_normed="4.256827" electricity_normed="0"
            traveltime="1.26" CO_perVeh="19.774638" CO2_perVeh="2488.957956" HC_perVeh="0.147231" PMx_perVeh="0.033568" NOx_perVeh="0.926544" fuel_perVeh="1.069899" electricity_perVeh="0"/>
        <edge id=":1110673663_1" sampledSeconds="154.06" CO_abs="2573.532458" CO2_abs="302295.823557" HC_abs="18.647055" PMx_abs="4.314744" NOx_abs="114.188242" fuel_abs="129.944108" electricity_abs="0"
            CO_normed="120.413138" CO2_normed="14144.134249" HC_normed="0.872478" PMx_normed="0.201883" NOx_normed="5.342759" fuel_normed="6.079961" electricity_normed="0"
            traveltime="1.25" CO_perVeh="20.844460" CO2_perVeh="2448.460689" HC_perVeh="0.151033" PMx_perVeh="0.034947" NOx_perVeh="0.924874" fuel_perVeh="1.052489" electricity_perVeh="0"/>
        <edge id=":1110673666_0" sampledSeconds="254.48" CO_abs="5506.407053" CO2_abs="431529.217371" HC_abs="34.924223" PMx_abs="5.888055" NOx_abs="165.008470" fuel_abs="185.497659" electricity_abs="0"