<?xml version="1.0" encoding="UTF-8"?>

<!-- generated on Mon Nov  9 21:58:55 2020 by Eclipse SUMO sumo Version 1.7.0
<configuration xmlns:xsi="http://www.w3.org/2001/XMLSchema-instance" xsi:noNamespaceSchemaLocation="http://sumo.dlr.de/xsd/sumoConfiguration.xsd">

    <input>
        <net-file value="../dataSets/Porto/6AM7AM_Routing_SaoBento/Porto.net.xml"/>
        <route-files value="../results/Porto/6AM7AM_Routing_SaoBento/cost_PMx-ttime/solution8/Porto.rou.xml"/>
        <additional-files value="moreOutputInfo.xml"/>
    </input>

    <output>
        <emission-output.precision value="6"/>
        <tripinfo-output value="../results/Porto/6AM7AM_Routing_SaoBento/cost_PMx-ttime/solution8/Porto-tripinfo"/>
    </output>

    <processing>
        <collision.action value="warn"/>
        <time-to-teleport value="-1"/>
    </processing>

    <emissions>
        <device.emissions.probability value="1"/>
    </emissions>

    <gui_only>
        <quit-on-end value="true"/>
        <start value="true"/>
    </gui_only>

</configuration>
-->

<meandata xmlns:xsi="http://www.w3.org/2001/XMLSchema-instance" xsi:noNamespaceSchemaLocation="http://sumo.dlr.de/xsd/meandata_file.xsd">
    <interval begin="0.00" end="4698.00" id="emissions-detector">
        <edge id=":1092997347_0" sampledSeconds="289.00" CO_abs="36905.332136" CO2_abs="1451271.011102" HC_abs="202.337342" PMx_abs="29.653520" NOx_abs="630.400709" fuel_abs="623.844522" electricity_abs="0"
            CO_normed="64272.609085" CO2_normed="2527466.059042" HC_normed="352.381298" PMx_normed="51.643190" NOx_normed="1097.876540" fuel_normed="1086.458589" electricity_normed="0"
            traveltime="0.08" CO_perVeh="9.717138" CO2_perVeh="382.118238" HC_perVeh="0.053275" PMx_perVeh="0.007808" NOx_perVeh="0.165984" fuel_perVeh="0.164258" electricity_perVeh="0"/>
        <edge id=":1103427051_0" sampledSeconds="11.25" CO_abs="781.691316" CO2_abs="44041.867704" HC_abs="4.596640" PMx_abs="0.820361" NOx_abs="18.508635" fuel_abs="18.931716" electricity_abs="0"
            CO_normed="2065.507507" CO2_normed="116374.336648" HC_normed="12.145963" PMx_normed="2.167687" NOx_normed="48.906421" fuel_normed="50.024352" electricity_normed="0"
            traveltime="0.03" CO_perVeh="2.141822" CO2_perVeh="120.674052" HC_perVeh="0.012595" PMx_perVeh="0.002248" NOx_perVeh="0.050713" fuel_perVeh="0.051873" electricity_perVeh="0"/>
        <edge id=":1105984386_0" sampledSeconds="23.04" CO_abs="416.976211" CO2_abs="33021.221015" HC_abs="2.651402" PMx_abs="0.444523" NOx_abs="12.591961" fuel_abs="14.194546" electricity_abs="0"
            CO_normed="32.906488" CO2_normed="2605.933845" HC_normed="0.209241" PMx_normed="0.035080" NOx_normed="0.993719" fuel_normed="1.120190" electricity_normed="0"
            traveltime="0.97" CO_perVeh="17.500169" CO2_perVeh="1385.875069" HC_perVeh="0.111277" PMx_perVeh="0.018656" NOx_perVeh="0.528475" fuel_perVeh="0.595734" electricity_perVeh="0"/>
        <edge id=":1105984390_0" sampledSeconds="23.31" CO_abs="26.118556" CO2_abs="2670.908157" HC_abs="0.178749" PMx_abs="0.028575" NOx_abs="0.962359" fuel_abs="1.148126" electricity_abs="0"
            CO_normed="1.593489" CO2_normed="162.951665" HC_normed="0.010905" PMx_normed="0.001743" NOx_normed="0.058713" fuel_normed="0.070047" electricity_normed="0"
            traveltime="1.06" CO_perVeh="1.184464" CO2_perVeh="121.124373" HC_perVeh="0.008106" PMx_perVeh="0.001296" NOx_perVeh="0.043643" fuel_perVeh="0.052067" electricity_perVeh="0"/>
        <edge id=":1105984390_1" sampledSeconds="646.18" CO_abs="15738.363477" CO2_abs="1991044.717408" HC_abs="119.354007" PMx_abs="35.492672" NOx_abs="747.926303" fuel_abs="855.858715" electricity_abs="0"
            CO_normed="918.510940" CO2_normed="116199.905887" HC_normed="6.965652" PMx_normed="2.071398" NOx_normed="43.649932" fuel_normed="49.949005" electricity_normed="0"
            traveltime="0.64" CO_perVeh="15.490301" CO2_perVeh="1959.662531" HC_perVeh="0.117473" PMx_perVeh="0.034933" NOx_perVeh="0.736138" fuel_perVeh="0.842369" electricity_perVeh="0"/>
        <edge id=":1105984395_0" sampledSeconds="9.08" CO_abs="172.427739" CO2_abs="14378.158720" HC_abs="1.108379" PMx_abs="0.167776" NOx_abs="5.304260" fuel_abs="6.180647" electricity_abs="0"
            CO_normed="143.617973" CO2_normed="11975.811028" HC_normed="0.923187" PMx_normed="0.139743" NOx_normed="4.418008" fuel_normed="5.147965" electricity_normed="0"
            traveltime="0.09" CO_perVeh="1.748606" CO2_perVeh="145.810252" HC_perVeh="0.011240" PMx_perVeh="0.001701" NOx_perVeh="0.053791" fuel_perVeh="0.062679" electricity_perVeh="0"/>
        <edge id=":1105984398_0" sampledSeconds="22.68" CO_abs="1393.874993" CO2_abs="100140.029030" HC_abs="8.702395" PMx_abs="1.752928" NOx_abs="40.895688" fuel_abs="43.045809" electricity_abs="0"
            CO_normed="88.346025" CO2_normed="6347.035106" HC_normed="0.551572" PMx_normed="0.111103" NOx_normed="2.592034" fuel_normed="2.728312" electricity_normed="0"
            traveltime="1.10" CO_perVeh="67.356833" CO2_perVeh="4839.110564" HC_perVeh="0.420530" PMx_perVeh="0.084708" NOx_perVeh="1.976220" fuel_perVeh="2.080122" electricity_perVeh="0"/>
        <edge id=":1105984398_1" sampledSeconds="450.12" CO_abs="8837.385042" CO2_abs="1026835.638840" HC_abs="63.736356" PMx_abs="14.688287" NOx_abs="388.288215" fuel_abs="441.392942" electricity_abs="0"
            CO_normed="542.189156" CO2_normed="62998.177168" HC_normed="3.910338" PMx_normed="0.901152" NOx_normed="23.822167" fuel_normed="27.080235" electricity_normed="0"
            traveltime="0.96" CO_perVeh="18.752791" CO2_perVeh="2178.928998" HC_perVeh="0.135248" PMx_perVeh="0.031168" NOx_perVeh="0.823941" fuel_perVeh="0.936629" electricity_perVeh="0"/>
        <edge id=":1106006327_0" sampledSeconds="40.35" CO_abs="5390.365610" CO2_abs="168841.300155" HC_abs="28.511472" PMx_abs="3.513184" NOx_abs="73.842195" fuel_abs="72.579089" electricity_abs="0"
            CO_normed="466.201847" CO2_normed="14602.743412" HC_normed="2.465900" PMx_normed="0.303848" NOx_normed="6.386462" fuel_normed="6.277219" electricity_normed="0"
            traveltime="2.19" CO_perVeh="292.423704" CO2_perVeh="9159.526815" HC_perVeh="1.546728" PMx_perVeh="0.190588" NOx_perVeh="4.005889" fuel_perVeh="3.937367" electricity_perVeh="0"/>
        <edge id=":1106006327_1" sampledSeconds="163.00" CO_abs="22065.280009" CO2_abs="732797.774078" HC_abs="117.739194" PMx_abs="15.293069" NOx_abs="320.744043" fuel_abs="315.003448" electricity_abs="0"
            CO_normed="1664.198872" CO2_normed="55268.785567" HC_normed="8.880079" PMx_normed="1.153428" NOx_normed="24.191031" fuel_normed="23.758066" electricity_normed="0"
            traveltime="2.31" CO_perVeh="313.245088" CO2_perVeh="10403.008865" HC_perVeh="1.671460" PMx_perVeh="0.217105" NOx_perVeh="4.553375" fuel_perVeh="4.471880" electricity_perVeh="0"/>
        <edge id=":1106006327_2" sampledSeconds="0.00" CO_abs="0" CO2_abs="0" HC_abs="0" PMx_abs="0" NOx_abs="0" fuel_abs="0" electricity_abs="0"
            CO_normed="0" CO2_normed="0" HC_normed="0" PMx_normed="0" NOx_normed="0" fuel_normed="0" electricity_normed="0"/>
        <edge id=":1106006327_3" sampledSeconds="0.00" CO_abs="0" CO2_abs="0" HC_abs="0" PMx_abs="0" NOx_abs="0" fuel_abs="0" electricity_abs="0"
            CO_normed="0" CO2_normed="0" HC_normed="0" PMx_normed="0" NOx_normed="0" fuel_normed="0" electricity_normed="0"/>
        <edge id=":1107381198_0" sampledSeconds="0.00" CO_abs="0" CO2_abs="0" HC_abs="0" PMx_abs="0" NOx_abs="0" fuel_abs="0" electricity_abs="0"
            CO_normed="0" CO2_normed="0" HC_normed="0" PMx_normed="0" NOx_normed="0" fuel_normed="0" electricity_normed="0"/>
        <edge id=":1107381198_1" sampledSeconds="35.93" CO_abs="1421.101605" CO2_abs="58914.062694" HC_abs="7.831112" PMx_abs="1.027503" NOx_abs="24.463445" fuel_abs="25.325048" electricity_abs="0"
            CO_normed="118.753189" CO2_normed="4923.105303" HC_normed="0.654400" PMx_normed="0.085862" NOx_normed="2.044268" fuel_normed="2.116267" electricity_normed="0"
            traveltime="1.48" CO_perVeh="58.510694" CO2_perVeh="2425.655329" HC_perVeh="0.322429" PMx_perVeh="0.042305" NOx_perVeh="1.007228" fuel_perVeh="1.042702" electricity_perVeh="0"/>
        <edge id=":1110338277_0" sampledSeconds="96.69" CO_abs="1478.068727" CO2_abs="185907.299356" HC_abs="10.942480" PMx_abs="2.480095" NOx_abs="69.083772" fuel_abs="79.913809" electricity_abs="0"
            CO_normed="4045.070408" CO2_normed="508777.502342" HC_normed="29.946578" PMx_normed="6.787344" NOx_normed="189.063415" fuel_normed="218.702270" electricity_normed="0"
            traveltime="0.02" CO_perVeh="0.333110" CO2_perVeh="41.897638" HC_perVeh="0.002466" PMx_perVeh="0.000559" NOx_perVeh="0.015569" fuel_perVeh="0.018010" electricity_perVeh="0"/>
        <edge id=":1110338293_0" sampledSeconds="123.95" CO_abs="6058.017983" CO2_abs="414383.169659" HC_abs="37.342989" PMx_abs="7.384835" NOx_abs="170.425786" fuel_abs="178.125171" electricity_abs="0"
            CO_normed="15473.864581" CO2_normed="1058449.986358" HC_normed="95.384392" PMx_normed="18.862924" NOx_normed="435.314907" fuel_normed="454.981280" electricity_normed="0"
            traveltime="0.03" CO_perVeh="1.389507" CO2_perVeh="95.045645" HC_perVeh="0.008565" PMx_perVeh="0.001694" NOx_perVeh="0.039090" fuel_perVeh="0.040856" electricity_perVeh="0"/>
        <edge id=":1110338295_0" sampledSeconds="0.00" CO_abs="0" CO2_abs="0" HC_abs="0" PMx_abs="0" NOx_abs="0" fuel_abs="0" electricity_abs="0"
            CO_normed="0" CO2_normed="0" HC_normed="0" PMx_normed="0" NOx_normed="0" fuel_normed="0" electricity_normed="0"/>
        <edge id=":1110673403_0" sampledSeconds="143.60" CO_abs="2157.362496" CO2_abs="274074.536216" HC_abs="16.089015" PMx_abs="3.718012" NOx_abs="102.118503" fuel_abs="117.813143" electricity_abs="0"
            CO_normed="5510.504459" CO2_normed="700062.672327" HC_normed="41.095825" PMx_normed="9.496838" NOx_normed="260.839089" fuel_normed="300.927568" electricity_normed="0"
            traveltime="0.02" CO_perVeh="0.346379" CO2_perVeh="44.004526" HC_perVeh="0.002583" PMx_perVeh="0.000597" NOx_perVeh="0.016396" fuel_perVeh="0.018916" electricity_perVeh="0"/>
        <edge id=":1110673412_0" sampledSeconds="252.84" CO_abs="45130.014384" CO2_abs="3078287.138871" HC_abs="280.834269" PMx_abs="67.651268" NOx_abs="1323.100953" fuel_abs="1323.204015" electricity_abs="0"
            CO_normed="119249.608625" CO2_normed="8133933.515315" HC_normed="742.064392" PMx_normed="178.758800" NOx_normed="3496.105041" fuel_normed="3496.377368" electricity_normed="0"
            traveltime="0.02" CO_perVeh="2.775841" CO2_perVeh="189.338212" HC_perVeh="0.017273" PMx_perVeh="0.004161" NOx_perVeh="0.081381" fuel_perVeh="0.081387" electricity_perVeh="0"/>
        <edge id=":1110673414_0" sampledSeconds="0.00" CO_abs="0" CO2_abs="0" HC_abs="0" PMx_abs="0" NOx_abs="0" fuel_abs="0" electricity_abs="0"
            CO_normed="0" CO2_normed="0" HC_normed="0" PMx_normed="0" NOx_normed="0" fuel_normed="0" electricity_normed="0"/>
        <edge id=":1110673414_1" sampledSeconds="14.65" CO_abs="820.154094" CO2_abs="31426.992148" HC_abs="4.464371" PMx_abs="0.580715" NOx_abs="13.269349" fuel_abs="13.509342" electricity_abs="0"
            CO_normed="69.598070" CO2_normed="2666.886636" HC_normed="0.378845" PMx_normed="0.049279" NOx_normed="1.126034" fuel_normed="1.146399" electricity_normed="0"
            traveltime="1.60" CO_perVeh="89.574159" CO2_perVeh="3432.338402" HC_perVeh="0.487582" PMx_perVeh="0.063424" NOx_perVeh="1.449229" fuel_perVeh="1.475440" electricity_perVeh="0"/>
        <edge id=":1110673417_0" sampledSeconds="29.55" CO_abs="616.937352" CO2_abs="72862.906783" HC_abs="4.474929" PMx_abs="1.025511" NOx_abs="27.438681" fuel_abs="31.320680" electricity_abs="0"
            CO_normed="1688.389032" CO2_normed="199405.875158" HC_normed="12.246657" PMx_normed="2.806544" NOx_normed="75.092176" fuel_normed="85.716148" electricity_normed="0"
            traveltime="0.02" CO_perVeh="0.457899" CO2_perVeh="54.079825" HC_perVeh="0.003321" PMx_perVeh="0.000761" NOx_perVeh="0.020365" fuel_perVeh="0.023247" electricity_perVeh="0"/>
        <edge id=":1110673446_0" sampledSeconds="334.00" CO_abs="3330.102537" CO2_abs="271376.783150" HC_abs="21.605556" PMx_abs="4.980658" NOx_abs="110.944513" fuel_abs="116.652387" electricity_abs="0"
            CO_normed="8506.009034" CO2_normed="693171.859898" HC_normed="55.186605" PMx_normed="12.721987" NOx_normed="283.383175" fuel_normed="297.962676" electricity_normed="0"
            traveltime="0.02" CO_perVeh="0.227127" CO2_perVeh="18.509062" HC_perVeh="0.001474" PMx_perVeh="0.000340" NOx_perVeh="0.007567" fuel_perVeh="0.007956" electricity_perVeh="0"/>
        <edge id=":1110673451_0" sampledSeconds="37.38" CO_abs="247.791421" CO2_abs="18373.238625" HC_abs="1.546558" PMx_abs="0.248377" NOx_abs="7.031958" fuel_abs="7.897955" electricity_abs="0"
            CO_normed="703.253643" CO2_normed="52144.852064" HC_normed="4.389265" PMx_normed="0.704915" NOx_normed="19.957309" fuel_normed="22.415084" electricity_normed="0"
            traveltime="0.03" CO_perVeh="0.177703" CO2_perVeh="13.176317" HC_perVeh="0.001109" PMx_perVeh="0.000178" NOx_perVeh="0.005043" fuel_perVeh="0.005664" electricity_perVeh="0"/>
        <edge id=":1110673464_0" sampledSeconds="321.60" CO_abs="663.437753" CO2_abs="47273.815592" HC_abs="4.112681" PMx_abs="0.725972" NOx_abs="18.679453" fuel_abs="20.321098" electricity_abs="0"
            CO_normed="36.004350" CO2_normed="2565.520258" HC_normed="0.223193" PMx_normed="0.039398" NOx_normed="1.013722" fuel_normed="1.102813" electricity_normed="0"
            traveltime="1.16" CO_perVeh="2.398240" CO2_perVeh="170.888606" HC_perVeh="0.014867" PMx_perVeh="0.002624" NOx_perVeh="0.067524" fuel_perVeh="0.073458" electricity_perVeh="0"/>
        <edge id=":1110673464_1" sampledSeconds="709.30" CO_abs="16847.618420" CO2_abs="2140718.299142" HC_abs="127.747897" PMx_abs="38.050348" NOx_abs="803.918860" fuel_abs="920.196531" electricity_abs="0"
            CO_normed="895.909259" CO2_normed="113837.415968" HC_normed="6.793276" PMx_normed="2.023411" NOx_normed="42.750158" fuel_normed="48.933480" electricity_normed="0"
            traveltime="0.70" CO_perVeh="16.634383" CO2_perVeh="2113.623826" HC_perVeh="0.126131" PMx_perVeh="0.037569" NOx_perVeh="0.793744" fuel_perVeh="0.908550" electricity_perVeh="0"/>
        <edge id=":1110673479_0" sampledSeconds="133.71" CO_abs="6734.924210" CO2_abs="463923.841874" HC_abs="41.577694" PMx_abs="8.181018" NOx_abs="190.166541" fuel_abs="199.420635" electricity_abs="0"
            CO_normed="17202.871546" CO2_normed="1184990.656128" HC_normed="106.201006" PMx_normed="20.896598" NOx_normed="485.738291" fuel_normed="509.375825" electricity_normed="0"
            traveltime="0.03" CO_perVeh="1.418785" CO2_perVeh="97.730611" HC_perVeh="0.008759" PMx_perVeh="0.001723" NOx_perVeh="0.040061" fuel_perVeh="0.042010" electricity_perVeh="0"/>
        <edge id=":1110673511_0" sampledSeconds="11.75" CO_abs="264.347431" CO2_abs="29047.695385" HC_abs="1.865878" PMx_abs="0.407530" NOx_abs="10.988951" fuel_abs="12.486387" electricity_abs="0"
            CO_normed="675.216937" CO2_normed="74195.901365" HC_normed="4.765973" PMx_normed="1.040945" NOx_normed="28.068839" fuel_normed="31.893708" electricity_normed="0"
            traveltime="0.02" CO_perVeh="0.523460" CO2_perVeh="57.520189" HC_perVeh="0.003695" PMx_perVeh="0.000807" NOx_perVeh="0.021760" fuel_perVeh="0.024726" electricity_perVeh="0"/>
        <edge id=":1110673517_0" sampledSeconds="17.27" CO_abs="697.052409" CO2_abs="49563.325017" HC_abs="4.334325" PMx_abs="0.840247" NOx_abs="20.063042" fuel_abs="21.305149" electricity_abs="0"
            CO_normed="1780.465924" CO2_normed="126598.531334" HC_normed="11.071072" PMx_normed="2.146224" NOx_normed="51.246595" fuel_normed="54.419282" electricity_normed="0"
            traveltime="0.03" CO_perVeh="1.119164" CO2_perVeh="79.577188" HC_perVeh="0.006959" PMx_perVeh="0.001349" NOx_perVeh="0.032213" fuel_perVeh="0.034207" electricity_perVeh="0"/>
        <edge id=":1110673534_0" sampledSeconds="475.94" CO_abs="3306.335791" CO2_abs="296266.730004" HC_abs="21.827160" PMx_abs="3.957805" NOx_abs="112.043919" fuel_abs="127.353363" electricity_abs="0"
            CO_normed="163.668646" CO2_normed="14665.653371" HC_normed="1.080478" PMx_normed="0.195917" NOx_normed="5.546344" fuel_normed="6.304185" electricity_normed="0"
            traveltime="1.43" CO_perVeh="9.960676" CO2_perVeh="892.533980" HC_perVeh="0.065757" PMx_perVeh="0.011923" NOx_perVeh="0.337544" fuel_perVeh="0.383665" electricity_perVeh="0"/>
        <edge id=":1110673534_1" sampledSeconds="184.66" CO_abs="2501.209838" CO2_abs="334592.802666" HC_abs="19.008068" PMx_abs="4.351156" NOx_abs="123.226243" fuel_abs="143.827603" electricity_abs="0"
            CO_normed="120.391702" CO2_normed="16105.084939" HC_normed="0.914923" PMx_normed="0.209436" NOx_normed="5.931296" fuel_normed="6.922910" electricity_normed="0"
            traveltime="1.23" CO_perVeh="16.607135" CO2_perVeh="2221.576088" HC_perVeh="0.126207" PMx_perVeh="0.028890" NOx_perVeh="0.818178" fuel_perVeh="0.954964" electricity_perVeh="0"/>
        <edge id=":1110673549_0" sampledSeconds="60.14" CO_abs="3.637938" CO2_abs="300.092539" HC_abs="0.023156" PMx_abs="0.002717" NOx_abs="0.105827" fuel_abs="0.129000" electricity_abs="0"
            CO_normed="0.174449" CO2_normed="14.390236" HC_normed="0.001110" PMx_normed="0.000130" NOx_normed="0.005075" fuel_normed="0.006186" electricity_normed="0"
            traveltime="1.25" CO_perVeh="0.075793" CO2_perVeh="6.252172" HC_perVeh="0.000482" PMx_perVeh="0.000057" NOx_perVeh="0.002205" fuel_perVeh="0.002688" electricity_perVeh="0"/>
        <edge id=":1110673549_1" sampledSeconds="638.68" CO_abs="14457.004346" CO2_abs="1895595.363662" HC_abs="111.003841" PMx_abs="33.357550" NOx_abs="708.629979" fuel_abs="814.829666" electricity_abs="0"
            CO_normed="670.591056" CO2_normed="87927.572461" HC_normed="5.148935" PMx_normed="1.547297" NOx_normed="32.869944" fuel_normed="37.796038" electricity_normed="0"
            traveltime="0.80" CO_perVeh="18.200869" CO2_perVeh="2386.489059" HC_perVeh="0.139750" PMx_perVeh="0.041996" NOx_perVeh="0.892141" fuel_perVeh="1.025842" electricity_perVeh="0"/>
        <edge id=":1110673556_0" sampledSeconds="418.89" CO_abs="51886.746979" CO2_abs="2600038.337630" HC_abs="298.097954" PMx_abs="52.546570" NOx_abs="1120.530804" fuel_abs="1117.643808" electricity_abs="0"
            CO_normed="1845.009716" CO2_normed="92453.203816" HC_normed="10.599886" PMx_normed="1.868472" NOx_normed="39.844283" fuel_normed="39.741626" electricity_normed="0"
            traveltime="2.60" CO_perVeh="322.087625" CO2_perVeh="16139.770185" HC_perVeh="1.850447" PMx_perVeh="0.326183" NOx_perVeh="6.955709" fuel_perVeh="6.937788" electricity_perVeh="0"/>
        <edge id=":1110673556_2" sampledSeconds="247.74" CO_abs="24170.857616" CO2_abs="1040404.655683" HC_abs="134.494363" PMx_abs="20.077316" NOx_abs="443.712911" fuel_abs="447.229089" electricity_abs="0"
            CO_normed="898.676855" CO2_normed="38682.433134" HC_normed="5.000525" PMx_normed="0.746478" NOx_normed="16.497326" fuel_normed="16.628058" electricity_normed="0"
            traveltime="3.00" CO_perVeh="293.187871" CO2_perVeh="12619.909102" HC_perVeh="1.631391" PMx_perVeh="0.243534" NOx_perVeh="5.382153" fuel_perVeh="5.424803" electricity_perVeh="0"/>
        <edge id=":1110673556_3" sampledSeconds="407.70" CO_abs="34099.255121" CO2_abs="1213989.522050" HC_abs="183.555135" PMx_abs="23.327467" NOx_abs="518.753064" fuel_abs="521.851429" electricity_abs="0"
            CO_normed="2884.072562" CO2_normed="102677.722975" HC_normed="15.524865" PMx_normed="1.973008" NOx_normed="43.875489" fuel_normed="44.137544" electricity_normed="0"
            traveltime="1.75" CO_perVeh="146.213997" CO2_perVeh="5205.458585" HC_perVeh="0.787065" PMx_perVeh="0.100026" NOx_perVeh="2.224358" fuel_perVeh="2.237644" electricity_perVeh="0"/>
        <edge id=":1110673556_4" sampledSeconds="209.96" CO_abs="21954.962432" CO2_abs="881800.061419" HC_abs="120.706243" PMx_abs="17.435144" NOx_abs="379.388017" fuel_abs="379.051759" electricity_abs="0"
            CO_normed="1134.438705" CO2_normed="45563.645268" HC_normed="6.237033" PMx_normed="0.900894" NOx_normed="19.603425" fuel_normed="19.586050" electricity_normed="0"
            traveltime="2.41" CO_perVeh="251.951661" CO2_perVeh="10119.397430" HC_perVeh="1.385206" PMx_perVeh="0.200083" NOx_perVeh="4.353797" fuel_perVeh="4.349938" electricity_perVeh="0"/>
        <edge id=":1110673556_5" sampledSeconds="25.04" CO_abs="2060.212959" CO2_abs="80876.266718" HC_abs="11.265838" PMx_abs="1.517921" NOx_abs="34.268484" fuel_abs="34.765745" electricity_abs="0"
            CO_normed="148.374741" CO2_normed="5824.638228" HC_normed="0.811356" PMx_normed="0.109319" NOx_normed="2.467986" fuel_normed="2.503799" electricity_normed="0"
            traveltime="1.73" CO_perVeh="142.434476" CO2_perVeh="5591.445600" HC_perVeh="0.778873" PMx_perVeh="0.104943" NOx_perVeh="2.369179" fuel_perVeh="2.403558" electricity_perVeh="0"/>
        <edge id=":1110673556_6" sampledSeconds="537.29" CO_abs="61115.471292" CO2_abs="3056297.368793" HC_abs="350.868823" PMx_abs="61.232397" NOx_abs="1313.402548" fuel_abs="1313.770749" electricity_abs="0"
            CO_normed="2227.962834" CO2_normed="111417.236961" HC_normed="12.790913" PMx_normed="2.232225" NOx_normed="47.880054" fuel_normed="47.893477" electricity_normed="0"
            traveltime="2.55" CO_perVeh="289.828448" CO2_perVeh="14493.906447" HC_perVeh="1.663928" PMx_perVeh="0.290383" NOx_perVeh="6.228561" fuel_perVeh="6.230307" electricity_perVeh="0"/>
        <edge id=":1110673561_0" sampledSeconds="99.66" CO_abs="9953.765593" CO2_abs="712133.213337" HC_abs="62.467646" PMx_abs="14.478851" NOx_abs="301.625089" fuel_abs="306.112036" electricity_abs="0"
            CO_normed="455.911930" CO2_normed="32617.809260" HC_normed="2.861203" PMx_normed="0.663174" NOx_normed="13.815322" fuel_normed="14.020837" electricity_normed="0"
            traveltime="1.18" CO_perVeh="117.464758" CO2_perVeh="8403.910548" HC_perVeh="0.737183" PMx_perVeh="0.170865" NOx_perVeh="3.559489" fuel_perVeh="3.612440" electricity_perVeh="0"/>
        <edge id=":1110673561_1" sampledSeconds="1315.83" CO_abs="123480.523541" CO2_abs="8527855.573792" HC_abs="768.681065" PMx_abs="178.713680" NOx_abs="3649.407923" fuel_abs="3665.712832" electricity_abs="0"
            CO_normed="5514.049583" CO2_normed="380813.241781" HC_normed="34.325620" PMx_normed="7.980498" NOx_normed="162.965103" fuel_normed="163.693202" electricity_normed="0"
            traveltime="1.19" CO_perVeh="111.815893" CO2_perVeh="7722.268704" HC_perVeh="0.696067" PMx_perVeh="0.161831" NOx_perVeh="3.304665" fuel_perVeh="3.319430" electricity_perVeh="0"/>
        <edge id=":1110673562_0" sampledSeconds="104.24" CO_abs="2132.777178" CO2_abs="169419.042211" HC_abs="13.565202" PMx_abs="2.251107" NOx_abs="64.357164" fuel_abs="72.826740" electricity_abs="0"
            CO_normed="6053.007457" CO2_normed="480826.003153" HC_normed="38.499225" PMx_normed="6.388839" NOx_normed="182.651238" fuel_normed="206.688634" electricity_normed="0"
            traveltime="0.03" CO_perVeh="0.543655" CO2_perVeh="43.185685" HC_perVeh="0.003458" PMx_perVeh="0.000574" NOx_perVeh="0.016405" fuel_perVeh="0.018564" electricity_perVeh="0"/>
        <edge id=":1110673564_0" sampledSeconds="28.50" CO_abs="485.935287" CO2_abs="55709.687537" HC_abs="3.477223" PMx_abs="0.768384" NOx_abs="20.920309" fuel_abs="23.947268" electricity_abs="0"
            CO_normed="3723.642045" CO2_normed="426894.157372" HC_normed="26.645387" PMx_normed="5.888001" NOx_normed="160.308883" fuel_normed="183.503971" electricity_normed="0"
            traveltime="7.833951e-03" CO_perVeh="0.133590" CO2_perVeh="15.315378" HC_perVeh="0.000956" PMx_perVeh="0.000211" NOx_perVeh="0.005751" fuel_perVeh="0.006583" electricity_perVeh="0"/>
        <edge id=":1110673588_0" sampledSeconds="11.68" CO_abs="151.690926" CO2_abs="19150.891181" HC_abs="1.130961" PMx_abs="0.260132" NOx_abs="7.145425" fuel_abs="8.232164" electricity_abs="0"
            CO_normed="464.953030" CO2_normed="58700.049596" HC_normed="3.466547" PMx_normed="0.797341" NOx_normed="21.901685" fuel_normed="25.232688" electricity_normed="0"
            traveltime="0.02" CO_perVeh="0.252818" CO2_perVeh="31.918152" HC_perVeh="0.001885" PMx_perVeh="0.000434" NOx_perVeh="0.011909" fuel_perVeh="0.013720" electricity_perVeh="0"/>
        <edge id=":1110673601_0" sampledSeconds="29.60" CO_abs="445.828072" CO2_abs="55033.618733" HC_abs="3.295838" PMx_abs="0.753397" NOx_abs="20.574336" fuel_abs="23.656643" electricity_abs="0"
            CO_normed="1220.109666" CO2_normed="150611.983396" HC_normed="9.019810" PMx_normed="2.061843" NOx_normed="56.306338" fuel_normed="64.741769" electricity_normed="0"
            traveltime="0.02" CO_perVeh="0.330902" CO2_perVeh="40.847029" HC_perVeh="0.002446" PMx_perVeh="0.000559" NOx_perVeh="0.015271" fuel_perVeh="0.017558" electricity_perVeh="0"/>
        <edge id=":1110673617_0" sampledSeconds="238.32" CO_abs="6295.137899" CO2_abs="760138.881365" HC_abs="46.866895" PMx_abs="13.703581" NOx_abs="288.142320" fuel_abs="326.748650" electricity_abs="0"
            CO_normed="16079.534864" CO2_normed="1941606.338097" HC_normed="119.711098" PMx_normed="35.002762" NOx_normed="735.995709" fuel_normed="834.607025" electricity_normed="0"
            traveltime="0.01" CO_perVeh="0.385725" CO2_perVeh="46.576360" HC_perVeh="0.002872" PMx_perVeh="0.000840" NOx_perVeh="0.017655" fuel_perVeh="0.020021" electricity_perVeh="0"/>
        <edge id=":1110673621_0" sampledSeconds="25.70" CO_abs="523.065217" CO2_abs="55010.225683" HC_abs="3.647700" PMx_abs="0.808238" NOx_abs="21.048752" fuel_abs="23.646555" electricity_abs="0"
            CO_normed="1603.265033" CO2_normed="168613.718567" HC_normed="11.180691" PMx_normed="2.477358" NOx_normed="64.517248" fuel_normed="72.479861" electricity_normed="0"
            traveltime="0.02" CO_perVeh="0.396262" CO2_perVeh="41.674413" HC_perVeh="0.002763" PMx_perVeh="0.000612" NOx_perVeh="0.015946" fuel_perVeh="0.017914" electricity_perVeh="0"/>
        <edge id=":1110673630_0" sampledSeconds="53.97" CO_abs="197.621883" CO2_abs="17883.407205" HC_abs="1.306391" PMx_abs="0.226736" NOx_abs="6.681519" fuel_abs="7.687387" electricity_abs="0"
            CO_normed="10.801312" CO2_normed="977.443674" HC_normed="0.071403" PMx_normed="0.012393" NOx_normed="0.365188" fuel_normed="0.420165" electricity_normed="0"
            traveltime="1.26" CO_perVeh="4.612844" CO2_perVeh="417.430356" HC_perVeh="0.030493" PMx_perVeh="0.005292" NOx_perVeh="0.155958" fuel_perVeh="0.179437" electricity_perVeh="0"/>
        <edge id=":1110673630_1" sampledSeconds="7.29" CO_abs="8.597377" CO2_abs="792.110629" HC_abs="0.056514" PMx_abs="0.006773" NOx_abs="0.275746" fuel_abs="0.340503" electricity_abs="0"
            CO_normed="0.572872" CO2_normed="52.780985" HC_normed="0.003766" PMx_normed="0.000451" NOx_normed="0.018374" fuel_normed="0.022689" electricity_normed="0"
            traveltime="1.03" CO_perVeh="1.216859" CO2_perVeh="112.114120" HC_perVeh="0.007999" PMx_perVeh="0.000959" NOx_perVeh="0.039029" fuel_perVeh="0.048194" electricity_perVeh="0"/>
        <edge id=":1110673650_0" sampledSeconds="143.31" CO_abs="2230.195877" CO2_abs="282642.465172" HC_abs="16.563310" PMx_abs="3.843476" NOx_abs="105.280985" fuel_abs="121.496125" electricity_abs="0"
            CO_normed="5696.541192" CO2_normed="721947.548332" HC_normed="42.307306" PMx_normed="9.817308" NOx_normed="268.916948" fuel_normed="310.334930" electricity_normed="0"
            traveltime="0.02" CO_perVeh="0.358355" CO2_perVeh="45.415930" HC_perVeh="0.002661" PMx_perVeh="0.000618" NOx_perVeh="0.016917" fuel_perVeh="0.019522" electricity_perVeh="0"/>
        <edge id=":1110673655_0" sampledSeconds="44.79" CO_abs="850.580888" CO2_abs="89633.693195" HC_abs="5.935476" PMx_abs="1.311913" NOx_abs="34.257346" fuel_abs="38.529717" electricity_abs="0"
            CO_normed="2172.620403" CO2_normed="228949.407905" HC_normed="15.160858" PMx_normed="3.350991" NOx_normed="87.502800" fuel_normed="98.415623" electricity_normed="0"
            traveltime="0.02" CO_perVeh="0.455221" CO2_perVeh="47.970936" HC_perVeh="0.003177" PMx_perVeh="0.000702" NOx_perVeh="0.018334" fuel_perVeh="0.020621" electricity_perVeh="0"/>
        <edge id=":1110673663_0" sampledSeconds="108.65" CO_abs="1690.542692" CO2_abs="207002.365451" HC_abs="12.335774" PMx_abs="2.814952" NOx_abs="77.179831" fuel_abs="88.981654" electricity_abs="0"
            CO_normed="79.086387" CO2_normed="9683.913447" HC_normed="0.577088" PMx_normed="0.131688" NOx_normed="3.610600" fuel_normed="4.162709" electricity_normed="0"
            traveltime="1.28" CO_perVeh="19.856221" CO2_perVeh="2431.340437" HC_perVeh="0.144889" PMx_perVeh="0.033063" NOx_perVeh="0.906514" fuel_perVeh="1.045132" electricity_perVeh="0"/>
        <edge id=":1110673663_1" sampledSeconds="153.92" CO_abs="2530.956442" CO2_abs="305812.861495" HC_abs="18.422117" PMx_abs="4.257327" NOx_abs="114.643870" fuel_abs="131.456036" electricity_abs="0"
            CO_normed="118.547080" CO2_normed="14323.921606" HC_normed="0.862871" PMx_normed="0.199408" NOx_normed="5.369787" fuel_normed="6.157249" electricity_normed="0"
            traveltime="1.25" CO_perVeh="20.471971" CO2_perVeh="2473.607129" HC_perVeh="0.149010" PMx_perVeh="0.034436" NOx_perVeh="0.927312" fuel_perVeh="1.063299" electricity_perVeh="0"/>
        <edge id=":1110673666_0" sampledSeconds="191.47" CO_abs="4048.044528" CO2_abs="324105.504531" HC_abs="25.822125" PMx_abs="4.354135" NOx_abs="123.408007" fuel_abs="139.320413" electricity_abs="0"