<?xml version="1.0" encoding="UTF-8"?>

<!-- generated on Mon Nov  9 22:52:06 2020 by Eclipse SUMO sumo Version 1.7.0
<configuration xmlns:xsi="http://www.w3.org/2001/XMLSchema-instance" xsi:noNamespaceSchemaLocation="http://sumo.dlr.de/xsd/sumoConfiguration.xsd">

    <input>
        <net-file value="../dataSets/Porto/6AM7AM_Routing_SaoBento/Porto.net.xml"/>
        <route-files value="../results/Porto/6AM7AM_Routing_SaoBento/cost_co-length/solution20/Porto.rou.xml"/>
        <additional-files value="moreOutputInfo.xml"/>
    </input>

    <output>
        <emission-output.precision value="6"/>
        <tripinfo-output value="../results/Porto/6AM7AM_Routing_SaoBento/cost_co-length/solution20/Porto-tripinfo"/>
    </output>

    <processing>
        <collision.action value="warn"/>
        <time-to-teleport value="-1"/>
    </processing>

    <emissions>
        <device.emissions.probability value="1"/>
    </emissions>

    <gui_only>
        <quit-on-end value="true"/>
        <start value="true"/>
    </gui_only>

</configuration>
-->

<meandata xmlns:xsi="http://www.w3.org/2001/XMLSchema-instance" xsi:noNamespaceSchemaLocation="http://sumo.dlr.de/xsd/meandata_file.xsd">
    <interval begin="0.00" end="4698.00" id="emissions-detector">
        <edge id=":1092997347_0" sampledSeconds="269.28" CO_abs="34478.222338" CO2_abs="1359343.159611" HC_abs="189.105253" PMx_abs="27.714416" NOx_abs="590.029931" fuel_abs="584.328363" electricity_abs="0"
            CO_normed="60045.667604" CO2_normed="2367368.790684" HC_normed="329.336909" PMx_normed="48.266138" NOx_normed="1027.568671" fuel_normed="1017.639085" electricity_normed="0"
            traveltime="0.08" CO_perVeh="9.681238" CO2_perVeh="381.693841" HC_perVeh="0.053099" PMx_perVeh="0.007782" NOx_perVeh="0.165676" fuel_perVeh="0.164075" electricity_perVeh="0"/>
        <edge id=":1103427051_0" sampledSeconds="10.80" CO_abs="846.467481" CO2_abs="49140.202733" HC_abs="5.018037" PMx_abs="0.942035" NOx_abs="20.795284" fuel_abs="21.123212" electricity_abs="0"
            CO_normed="2236.669258" CO2_normed="129845.957808" HC_normed="13.259444" PMx_normed="2.489192" NOx_normed="54.948564" fuel_normed="55.815068" electricity_normed="0"
            traveltime="0.03" CO_perVeh="2.319308" CO2_perVeh="134.643413" HC_perVeh="0.013749" PMx_perVeh="0.002581" NOx_perVeh="0.056979" fuel_perVeh="0.057877" electricity_perVeh="0"/>
        <edge id=":1105984386_0" sampledSeconds="22.73" CO_abs="486.261763" CO2_abs="38775.728541" HC_abs="3.101161" PMx_abs="0.536766" NOx_abs="14.872388" fuel_abs="16.668162" electricity_abs="0"
            CO_normed="38.374292" CO2_normed="3060.061992" HC_normed="0.244734" PMx_normed="0.042360" NOx_normed="1.173683" fuel_normed="1.315400" electricity_normed="0"
            traveltime="0.95" CO_perVeh="20.408030" CO2_perVeh="1627.387293" HC_perVeh="0.130153" PMx_perVeh="0.022528" NOx_perVeh="0.624183" fuel_perVeh="0.699550" electricity_perVeh="0"/>
        <edge id=":1105984390_0" sampledSeconds="23.30" CO_abs="5.615114" CO2_abs="643.631796" HC_abs="0.039758" PMx_abs="0.005565" NOx_abs="0.222785" fuel_abs="0.276675" electricity_abs="0"
            CO_normed="0.342577" CO2_normed="39.267870" HC_normed="0.002426" PMx_normed="0.000340" NOx_normed="0.013592" fuel_normed="0.016880" electricity_normed="0"
            traveltime="1.06" CO_perVeh="0.254643" CO2_perVeh="29.188386" HC_perVeh="0.001803" PMx_perVeh="0.000252" NOx_perVeh="0.010103" fuel_perVeh="0.012547" electricity_perVeh="0"/>
        <edge id=":1105984390_1" sampledSeconds="645.91" CO_abs="13756.115652" CO2_abs="1861683.612222" HC_abs="106.811677" PMx_abs="32.496143" NOx_abs="691.717124" fuel_abs="800.252809" electricity_abs="0"
            CO_normed="802.824432" CO2_normed="108650.227009" HC_normed="6.233666" PMx_normed="1.896516" NOx_normed="40.369492" fuel_normed="46.703773" electricity_normed="0"
            traveltime="0.64" CO_perVeh="13.542286" CO2_perVeh="1832.744960" HC_perVeh="0.105151" PMx_perVeh="0.031991" NOx_perVeh="0.680965" fuel_perVeh="0.787813" electricity_perVeh="0"/>
        <edge id=":1105984395_0" sampledSeconds="8.90" CO_abs="208.542481" CO2_abs="18146.642972" HC_abs="1.358737" PMx_abs="0.215928" NOx_abs="6.714308" fuel_abs="7.800568" electricity_abs="0"
            CO_normed="173.698552" CO2_normed="15114.645154" HC_normed="1.131715" PMx_normed="0.179850" NOx_normed="5.592461" fuel_normed="6.497225" electricity_normed="0"
            traveltime="0.09" CO_perVeh="2.114849" CO2_perVeh="184.026803" HC_perVeh="0.013779" PMx_perVeh="0.002190" NOx_perVeh="0.068090" fuel_perVeh="0.079106" electricity_perVeh="0"/>
        <edge id=":1105984398_0" sampledSeconds="23.31" CO_abs="1498.970454" CO2_abs="103689.687136" HC_abs="9.267043" PMx_abs="1.842922" NOx_abs="42.595891" fuel_abs="44.571649" electricity_abs="0"
            CO_normed="95.007143" CO2_normed="6572.018110" HC_normed="0.587360" PMx_normed="0.116807" NOx_normed="2.699796" fuel_normed="2.825022" electricity_normed="0"
            traveltime="1.12" CO_perVeh="72.024833" CO2_perVeh="4982.241220" HC_perVeh="0.445277" PMx_perVeh="0.088552" NOx_perVeh="2.046713" fuel_perVeh="2.141647" electricity_perVeh="0"/>
        <edge id=":1105984398_1" sampledSeconds="453.90" CO_abs="7299.103267" CO2_abs="884277.519213" HC_abs="53.573046" PMx_abs="12.407994" NOx_abs="332.475628" fuel_abs="380.113437" electricity_abs="0"
            CO_normed="447.812857" CO2_normed="54251.985141" HC_normed="3.286801" PMx_normed="0.761252" NOx_normed="20.397966" fuel_normed="23.320630" electricity_normed="0"
            traveltime="0.95" CO_perVeh="15.328488" CO2_perVeh="1857.027738" HC_perVeh="0.112506" PMx_perVeh="0.026057" NOx_perVeh="0.698216" fuel_perVeh="0.798258" electricity_perVeh="0"/>
        <edge id=":1106006327_0" sampledSeconds="37.72" CO_abs="5083.271160" CO2_abs="167441.340647" HC_abs="27.088856" PMx_abs="3.488428" NOx_abs="73.274469" fuel_abs="71.977061" electricity_abs="0"
            CO_normed="439.641867" CO2_normed="14481.663739" HC_normed="2.342860" PMx_normed="0.301707" NOx_normed="6.337361" fuel_normed="6.225151" electricity_normed="0"
            traveltime="2.05" CO_perVeh="275.764037" CO2_perVeh="9083.579954" HC_perVeh="1.469552" PMx_perVeh="0.189245" NOx_perVeh="3.975091" fuel_perVeh="3.904707" electricity_perVeh="0"/>
        <edge id=":1106006327_1" sampledSeconds="163.04" CO_abs="21981.338959" CO2_abs="728691.932632" HC_abs="117.254498" PMx_abs="15.184416" NOx_abs="318.804506" fuel_abs="313.238562" electricity_abs="0"
            CO_normed="1657.867903" CO2_normed="54959.116408" HC_normed="8.843523" PMx_normed="1.145233" NOx_normed="24.044748" fuel_normed="23.624956" electricity_normed="0"
            traveltime="2.31" CO_perVeh="312.053437" CO2_perVeh="10344.721154" HC_perVeh="1.664579" PMx_perVeh="0.215562" NOx_perVeh="4.525841" fuel_perVeh="4.446825" electricity_perVeh="0"/>
        <edge id=":1106006327_2" sampledSeconds="0.00" CO_abs="0" CO2_abs="0" HC_abs="0" PMx_abs="0" NOx_abs="0" fuel_abs="0" electricity_abs="0"
            CO_normed="0" CO2_normed="0" HC_normed="0" PMx_normed="0" NOx_normed="0" fuel_normed="0" electricity_normed="0"/>
        <edge id=":1106006327_3" sampledSeconds="0.00" CO_abs="0" CO2_abs="0" HC_abs="0" PMx_abs="0" NOx_abs="0" fuel_abs="0" electricity_abs="0"
            CO_normed="0" CO2_normed="0" HC_normed="0" PMx_normed="0" NOx_normed="0" fuel_normed="0" electricity_normed="0"/>
        <edge id=":1107381198_0" sampledSeconds="0.00" CO_abs="0" CO2_abs="0" HC_abs="0" PMx_abs="0" NOx_abs="0" fuel_abs="0" electricity_abs="0"
            CO_normed="0" CO2_normed="0" HC_normed="0" PMx_normed="0" NOx_normed="0" fuel_normed="0" electricity_normed="0"/>
        <edge id=":1107381198_1" sampledSeconds="36.66" CO_abs="1666.212007" CO2_abs="64667.748066" HC_abs="9.062730" PMx_abs="1.056645" NOx_abs="26.414610" fuel_abs="27.798550" electricity_abs="0"
            CO_normed="139.235639" CO2_normed="5403.907299" HC_normed="0.757320" PMx_normed="0.088298" NOx_normed="2.207315" fuel_normed="2.322963" electricity_normed="0"
            traveltime="1.51" CO_perVeh="68.602569" CO2_perVeh="2662.550511" HC_perVeh="0.373138" PMx_perVeh="0.043505" NOx_perVeh="1.087563" fuel_perVeh="1.144543" electricity_perVeh="0"/>
        <edge id=":1110338277_0" sampledSeconds="96.55" CO_abs="1664.507023" CO2_abs="197875.051154" HC_abs="12.103959" PMx_abs="2.756941" NOx_abs="74.371827" fuel_abs="85.058142" electricity_abs="0"
            CO_normed="4555.301104" CO2_normed="541529.970318" HC_normed="33.125229" PMx_normed="7.544995" NOx_normed="203.535378" fuel_normed="232.780904" electricity_normed="0"
            traveltime="0.02" CO_perVeh="0.375127" CO2_perVeh="44.594791" HC_perVeh="0.002728" PMx_perVeh="0.000621" NOx_perVeh="0.016761" fuel_perVeh="0.019169" electricity_perVeh="0"/>
        <edge id=":1110338293_0" sampledSeconds="123.79" CO_abs="6371.824351" CO2_abs="437418.716958" HC_abs="39.295316" PMx_abs="7.691717" NOx_abs="179.212410" fuel_abs="188.027284" electricity_abs="0"
            CO_normed="16275.413413" CO2_normed="1117289.187633" HC_normed="100.371177" PMx_normed="19.646787" NOx_normed="457.758390" fuel_normed="480.274034" electricity_normed="0"
            traveltime="0.03" CO_perVeh="1.461483" CO2_perVeh="100.329229" HC_perVeh="0.009013" PMx_perVeh="0.001764" NOx_perVeh="0.041105" fuel_perVeh="0.043127" electricity_perVeh="0"/>
        <edge id=":1110338295_0" sampledSeconds="0.00" CO_abs="0" CO2_abs="0" HC_abs="0" PMx_abs="0" NOx_abs="0" fuel_abs="0" electricity_abs="0"
            CO_normed="0" CO2_normed="0" HC_normed="0" PMx_normed="0" NOx_normed="0" fuel_normed="0" electricity_normed="0"/>
        <edge id=":1110673403_0" sampledSeconds="143.83" CO_abs="2106.195289" CO2_abs="259922.795855" HC_abs="15.545949" PMx_abs="3.614073" NOx_abs="97.434006" fuel_abs="111.729818" electricity_abs="0"
            CO_normed="5379.809168" CO2_normed="663915.187368" HC_normed="39.708683" PMx_normed="9.231348" NOx_normed="248.873578" fuel_normed="285.389063" electricity_normed="0"
            traveltime="0.02" CO_perVeh="0.338164" CO2_perVeh="41.732319" HC_perVeh="0.002496" PMx_perVeh="0.000580" NOx_perVeh="0.015644" fuel_perVeh="0.017939" electricity_perVeh="0"/>
        <edge id=":1110673412_0" sampledSeconds="252.33" CO_abs="45270.765234" CO2_abs="3086603.184486" HC_abs="281.678245" PMx_abs="67.862582" NOx_abs="1326.662315" fuel_abs="1326.778665" electricity_abs="0"
            CO_normed="119621.522615" CO2_normed="8155907.476512" HC_normed="744.294477" PMx_normed="179.317167" NOx_normed="3505.515432" fuel_normed="3505.822869" electricity_normed="0"
            traveltime="0.02" CO_perVeh="2.783016" CO2_perVeh="189.748667" HC_perVeh="0.017316" PMx_perVeh="0.004172" NOx_perVeh="0.081556" fuel_perVeh="0.081564" electricity_perVeh="0"/>
        <edge id=":1110673414_0" sampledSeconds="0.00" CO_abs="0" CO2_abs="0" HC_abs="0" PMx_abs="0" NOx_abs="0" fuel_abs="0" electricity_abs="0"
            CO_normed="0" CO2_normed="0" HC_normed="0" PMx_normed="0" NOx_normed="0" fuel_normed="0" electricity_normed="0"/>
        <edge id=":1110673414_1" sampledSeconds="13.93" CO_abs="924.337299" CO2_abs="35633.883070" HC_abs="5.037250" PMx_abs="0.661406" NOx_abs="15.061657" fuel_abs="15.317726" electricity_abs="0"
            CO_normed="78.439030" CO2_normed="3023.882339" HC_normed="0.427460" PMx_normed="0.056127" NOx_normed="1.278128" fuel_normed="1.299858" electricity_normed="0"
            traveltime="1.52" CO_perVeh="100.952659" CO2_perVeh="3891.799276" HC_perVeh="0.550150" PMx_perVeh="0.072236" NOx_perVeh="1.644978" fuel_perVeh="1.672945" electricity_perVeh="0"/>
        <edge id=":1110673417_0" sampledSeconds="29.41" CO_abs="385.946656" CO2_abs="51414.132345" HC_abs="2.921496" PMx_abs="0.660928" NOx_abs="18.898007" fuel_abs="22.100819" electricity_abs="0"
            CO_normed="1056.230585" CO2_normed="140706.437725" HC_normed="7.995338" PMx_normed="1.808779" NOx_normed="51.718684" fuel_normed="60.483906" electricity_normed="0"
            traveltime="0.02" CO_perVeh="0.286455" CO2_perVeh="38.160257" HC_perVeh="0.002168" PMx_perVeh="0.000491" NOx_perVeh="0.014026" fuel_perVeh="0.016404" electricity_perVeh="0"/>
        <edge id=":1110673446_0" sampledSeconds="333.25" CO_abs="3330.453612" CO2_abs="270139.087798" HC_abs="21.556908" PMx_abs="4.985758" NOx_abs="110.588287" fuel_abs="116.120328" electricity_abs="0"
            CO_normed="8506.905779" CO2_normed="690010.441374" HC_normed="55.062345" PMx_normed="12.735014" NOx_normed="282.473274" fuel_normed="296.603648" electricity_normed="0"
            traveltime="0.02" CO_perVeh="0.227752" CO2_perVeh="18.473411" HC_perVeh="0.001474" PMx_perVeh="0.000341" NOx_perVeh="0.007563" fuel_perVeh="0.007941" electricity_perVeh="0"/>
        <edge id=":1110673451_0" sampledSeconds="37.44" CO_abs="198.271410" CO2_abs="13888.585644" HC_abs="1.218402" PMx_abs="0.187185" NOx_abs="5.320863" fuel_abs="5.970183" electricity_abs="0"
            CO_normed="562.711537" CO2_normed="39417.016160" HC_normed="3.457930" PMx_normed="0.531249" NOx_normed="15.101074" fuel_normed="16.943899" electricity_normed="0"
            traveltime="0.03" CO_perVeh="0.142187" CO2_perVeh="9.959942" HC_perVeh="0.000874" PMx_perVeh="0.000134" NOx_perVeh="0.003816" fuel_perVeh="0.004281" electricity_perVeh="0"/>
        <edge id=":1110673464_0" sampledSeconds="322.36" CO_abs="610.924109" CO2_abs="51872.192328" HC_abs="3.966278" PMx_abs="0.694791" NOx_abs="19.667561" fuel_abs="22.297827" electricity_abs="0"
            CO_normed="33.154467" CO2_normed="2815.071273" HC_normed="0.215247" PMx_normed="0.037706" NOx_normed="1.067346" fuel_normed="1.210089" electricity_normed="0"
            traveltime="1.17" CO_perVeh="2.208410" CO2_perVeh="187.511132" HC_perVeh="0.014338" PMx_perVeh="0.002512" NOx_perVeh="0.071096" fuel_perVeh="0.080604" electricity_perVeh="0"/>
        <edge id=":1110673464_1" sampledSeconds="709.81" CO_abs="16372.001393" CO2_abs="2078248.095764" HC_abs="124.185592" PMx_abs="36.936829" NOx_abs="780.807163" fuel_abs="893.343457" electricity_abs="0"
            CO_normed="870.617275" CO2_normed="110515.425152" HC_normed="6.603843" PMx_normed="1.964197" NOx_normed="41.521143" fuel_normed="47.505508" electricity_normed="0"
            traveltime="0.70" CO_perVeh="16.152167" CO2_perVeh="2050.342528" HC_perVeh="0.122518" PMx_perVeh="0.036441" NOx_perVeh="0.770323" fuel_perVeh="0.881348" electricity_perVeh="0"/>
        <edge id=":1110673479_0" sampledSeconds="133.20" CO_abs="7090.224529" CO2_abs="492337.495876" HC_abs="43.851401" PMx_abs="8.606176" NOx_abs="201.288064" fuel_abs="211.634497" electricity_abs="0"
            CO_normed="18110.407482" CO2_normed="1257567.039275" HC_normed="112.008686" PMx_normed="21.982570" NOx_normed="514.145758" fuel_normed="540.573429" electricity_normed="0"
            traveltime="0.03" CO_perVeh="1.493622" CO2_perVeh="103.715504" HC_perVeh="0.009238" PMx_perVeh="0.001813" NOx_perVeh="0.042403" fuel_perVeh="0.044583" electricity_perVeh="0"/>
        <edge id=":1110673511_0" sampledSeconds="11.91" CO_abs="89.870270" CO2_abs="14440.048123" HC_abs="0.720740" PMx_abs="0.162181" NOx_abs="5.130049" fuel_abs="6.207203" electricity_abs="0"
            CO_normed="229.553690" CO2_normed="36883.903251" HC_normed="1.840970" PMx_normed="0.414256" NOx_normed="13.103574" fuel_normed="15.854924" electricity_normed="0"
            traveltime="0.02" CO_perVeh="0.177961" CO2_perVeh="28.594155" HC_perVeh="0.001427" PMx_perVeh="0.000321" NOx_perVeh="0.010159" fuel_perVeh="0.012291" electricity_perVeh="0"/>
        <edge id=":1110673517_0" sampledSeconds="16.89" CO_abs="847.835820" CO2_abs="59801.955105" HC_abs="5.268714" PMx_abs="1.057284" NOx_abs="24.493142" fuel_abs="25.706236" electricity_abs="0"
            CO_normed="2165.608736" CO2_normed="152750.843179" HC_normed="13.457762" PMx_normed="2.700598" NOx_normed="62.562303" fuel_normed="65.660884" electricity_normed="0"
            traveltime="0.03" CO_perVeh="1.361256" CO2_perVeh="96.015984" HC_perVeh="0.008459" PMx_perVeh="0.001698" NOx_perVeh="0.039325" fuel_perVeh="0.041273" electricity_perVeh="0"/>
        <edge id=":1110673534_0" sampledSeconds="475.39" CO_abs="2606.265150" CO2_abs="237294.114654" HC_abs="17.236256" PMx_abs="2.980913" NOx_abs="88.543936" fuel_abs="102.003612" electricity_abs="0"
            CO_normed="129.014086" CO2_normed="11746.419290" HC_normed="0.853221" PMx_normed="0.147560" NOx_normed="4.383059" fuel_normed="5.049334" electricity_normed="0"
            traveltime="1.43" CO_perVeh="7.851632" CO2_perVeh="714.872061" HC_perVeh="0.051926" PMx_perVeh="0.008980" NOx_perVeh="0.266747" fuel_perVeh="0.307296" electricity_perVeh="0"/>
        <edge id=":1110673534_1" sampledSeconds="183.36" CO_abs="2927.853042" CO2_abs="375309.704078" HC_abs="21.828858" PMx_abs="5.088474" NOx_abs="139.600298" fuel_abs="161.329882" electricity_abs="0"
            CO_normed="140.927484" CO2_normed="18064.927322" HC_normed="1.050697" PMx_normed="0.244925" NOx_normed="6.719435" fuel_normed="7.765354" electricity_normed="0"
            traveltime="1.22" CO_perVeh="19.439893" CO2_perVeh="2491.921696" HC_perVeh="0.144936" PMx_perVeh="0.033786" NOx_perVeh="0.926896" fuel_perVeh="1.071172" electricity_perVeh="0"/>
        <edge id=":1110673549_0" sampledSeconds="60.73" CO_abs="27.573736" CO2_abs="3668.834856" HC_abs="0.207570" PMx_abs="0.035833" NOx_abs="1.283277" fuel_abs="1.577098" electricity_abs="0"
            CO_normed="1.322234" CO2_normed="175.930395" HC_normed="0.009954" PMx_normed="0.001718" NOx_normed="0.061537" fuel_normed="0.075626" electricity_normed="0"
            traveltime="1.27" CO_perVeh="0.574475" CO2_perVeh="76.437049" HC_perVeh="0.004325" PMx_perVeh="0.000747" NOx_perVeh="0.026736" fuel_perVeh="0.032857" electricity_perVeh="0"/>
        <edge id=":1110673549_1" sampledSeconds="638.90" CO_abs="14067.071705" CO2_abs="1840898.768628" HC_abs="107.997780" PMx_abs="32.408675" NOx_abs="688.479417" fuel_abs="791.318099" electricity_abs="0"
            CO_normed="652.503952" CO2_normed="85390.459892" HC_normed="5.009499" PMx_normed="1.503283" NOx_normed="31.935256" fuel_normed="36.705449" electricity_normed="0"
            traveltime="0.80" CO_perVeh="17.713145" CO2_perVeh="2318.045066" HC_perVeh="0.135990" PMx_perVeh="0.040809" NOx_perVeh="0.866928" fuel_perVeh="0.996421" electricity_perVeh="0"/>
        <edge id=":1110673556_0" sampledSeconds="422.19" CO_abs="51486.960069" CO2_abs="2563900.355655" HC_abs="295.363765" PMx_abs="51.584651" NOx_abs="1103.450181" fuel_abs="1102.110286" electricity_abs="0"
            CO_normed="1830.793933" CO2_normed="91168.194990" HC_normed="10.502663" PMx_normed="1.834268" NOx_normed="39.236923" fuel_normed="39.189279" electricity_normed="0"
            traveltime="2.62" CO_perVeh="319.605942" CO2_perVeh="15915.443215" HC_perVeh="1.833474" PMx_perVeh="0.320212" NOx_perVeh="6.849681" fuel_perVeh="6.841363" electricity_perVeh="0"/>
        <edge id=":1110673556_2" sampledSeconds="247.06" CO_abs="23880.464631" CO2_abs="1032722.006664" HC_abs="132.999402" PMx_abs="19.950210" NOx_abs="440.556222" fuel_abs="443.926494" electricity_abs="0"
            CO_normed="887.879991" CO2_normed="38396.790855" HC_normed="4.944942" PMx_normed="0.741752" NOx_normed="16.379960" fuel_normed="16.505267" electricity_normed="0"
            traveltime="3.00" CO_perVeh="289.665460" CO2_perVeh="12526.720042" HC_perVeh="1.613257" PMx_perVeh="0.241992" NOx_perVeh="5.343863" fuel_perVeh="5.384743" electricity_perVeh="0"/>
        <edge id=":1110673556_3" sampledSeconds="410.87" CO_abs="35441.898763" CO2_abs="1264033.696734" HC_abs="190.803947" PMx_abs="24.121584" NOx_abs="539.087102" fuel_abs="543.363860" electricity_abs="0"
            CO_normed="2997.631690" CO2_normed="106910.396990" HC_normed="16.137960" PMx_normed="2.040174" NOx_normed="45.595316" fuel_normed="45.957039" electricity_normed="0"
            traveltime="1.74" CO_perVeh="150.009859" CO2_perVeh="5350.094738" HC_perVeh="0.807589" PMx_perVeh="0.102096" NOx_perVeh="2.281717" fuel_perVeh="2.299819" electricity_perVeh="0"/>
        <edge id=":1110673556_4" sampledSeconds="203.84" CO_abs="20898.231939" CO2_abs="833168.768658" HC_abs="114.675718" PMx_abs="16.110032" NOx_abs="356.138479" fuel_abs="358.147731" electricity_abs="0"
            CO_normed="1079.836199" CO2_normed="43050.809230" HC_normed="5.925429" PMx_normed="0.832424" NOx_normed="18.402094" fuel_normed="18.505914" electricity_normed="0"
            traveltime="2.41" CO_perVeh="247.319315" CO2_perVeh="9860.103453" HC_perVeh="1.357125" PMx_perVeh="0.190654" NOx_perVeh="4.214707" fuel_perVeh="4.238485" electricity_perVeh="0"/>
        <edge id=":1110673556_5" sampledSeconds="24.65" CO_abs="1781.090467" CO2_abs="73290.267586" HC_abs="9.820951" PMx_abs="1.377190" NOx_abs="31.069534" fuel_abs="31.504725" electricity_abs="0"
            CO_normed="128.272583" CO2_normed="5278.301183" HC_normed="0.707296" PMx_normed="0.099184" NOx_normed="2.237601" fuel_normed="2.268943" electricity_normed="0"
            traveltime="1.70" CO_perVeh="123.137119" CO2_perVeh="5066.981463" HC_perVeh="0.678979" PMx_perVeh="0.095213" NOx_perVeh="2.148017" fuel_perVeh="2.178104" electricity_perVeh="0"/>
        <edge id=":1110673556_6" sampledSeconds="487.88" CO_abs="58618.192385" CO2_abs="2872103.338738" HC_abs="335.152857" PMx_abs="57.921590" NOx_abs="1237.188593" fuel_abs="1234.594044" electricity_abs="0"
            CO_normed="2136.924600" CO2_normed="104702.448635" HC_normed="12.217988" PMx_normed="2.111530" NOx_normed="45.101676" fuel_normed="45.007092" electricity_normed="0"
            traveltime="2.62" CO_perVeh="314.562899" CO2_perVeh="15412.572701" HC_perVeh="1.798531" PMx_perVeh="0.310825" NOx_perVeh="6.639127" fuel_perVeh="6.625204" electricity_perVeh="0"/>
        <edge id=":1110673561_0" sampledSeconds="100.10" CO_abs="9821.711347" CO2_abs="711682.144226" HC_abs="61.848312" PMx_abs="14.342252" NOx_abs="300.423925" fuel_abs="305.918251" electricity_abs="0"
            CO_normed="449.863454" CO2_normed="32597.148959" HC_normed="2.832836" PMx_normed="0.656918" NOx_normed="13.760305" fuel_normed="14.011962" electricity_normed="0"
            traveltime="1.18" CO_perVeh="115.905727" CO2_perVeh="8398.540060" HC_perVeh="0.729870" PMx_perVeh="0.169252" NOx_perVeh="3.545294" fuel_perVeh="3.610132" electricity_perVeh="0"/>
        <edge id=":1110673561_1" sampledSeconds="1314.18" CO_abs="123513.605792" CO2_abs="8522266.371002" HC_abs="768.638377" PMx_abs="178.714728" NOx_abs="3647.778758" fuel_abs="3663.310206" electricity_abs="0"
            CO_normed="5515.526878" CO2_normed="380563.654717" HC_normed="34.323714" PMx_normed="7.980545" NOx_normed="162.892352" fuel_normed="163.585912" electricity_normed="0"
            traveltime="1.19" CO_perVeh="112.033828" CO2_perVeh="7730.177713" HC_perVeh="0.697198" PMx_perVeh="0.162104" NOx_perVeh="3.308742" fuel_perVeh="3.322830" electricity_perVeh="0"/>
        <edge id=":1110673562_0" sampledSeconds="104.34" CO_abs="2098.206524" CO2_abs="165042.158028" HC_abs="13.317001" PMx_abs="2.225858" NOx_abs="62.934645" fuel_abs="70.945251" electricity_abs="0"
            CO_normed="5954.892929" CO2_normed="468404.024486" HC_normed="37.794810" PMx_normed="6.317178" NOx_normed="178.614006" fuel_normed="201.348803" electricity_normed="0"
            traveltime="0.03" CO_perVeh="0.534846" CO2_perVeh="42.070284" HC_perVeh="0.003395" PMx_perVeh="0.000567" NOx_perVeh="0.016042" fuel_perVeh="0.018084" electricity_perVeh="0"/>
        <edge id=":1110673564_0" sampledSeconds="28.51" CO_abs="470.536081" CO2_abs="52396.175199" HC_abs="3.348967" PMx_abs="0.751114" NOx_abs="19.861967" fuel_abs="22.522898" electricity_abs="0"
            CO_normed="3605.640468" CO2_normed="401503.258227" HC_normed="25.662579" PMx_normed="5.755661" NOx_normed="152.198978" fuel_normed="172.589255" electricity_normed="0"
            traveltime="7.836673e-03" CO_perVeh="0.129357" CO2_perVeh="14.404447" HC_perVeh="0.000921" PMx_perVeh="0.000206" NOx_perVeh="0.005460" fuel_perVeh="0.006192" electricity_perVeh="0"/>
        <edge id=":1110673588_0" sampledSeconds="11.71" CO_abs="187.236704" CO2_abs="22038.794436" HC_abs="1.361611" PMx_abs="0.302477" NOx_abs="8.258656" fuel_abs="9.473558" electricity_abs="0"
            CO_normed="573.905608" CO2_normed="67551.860340" HC_normed="4.173521" PMx_normed="0.927134" NOx_normed="25.313888" fuel_normed="29.037725" electricity_normed="0"
            traveltime="0.02" CO_perVeh="0.312061" CO2_perVeh="36.731324" HC_perVeh="0.002269" PMx_perVeh="0.000504" NOx_perVeh="0.013764" fuel_perVeh="0.015789" electricity_perVeh="0"/>
        <edge id=":1110673601_0" sampledSeconds="29.37" CO_abs="526.095484" CO2_abs="61577.155928" HC_abs="3.819328" PMx_abs="0.874696" NOx_abs="23.241938" fuel_abs="26.469408" electricity_abs="0"
            CO_normed="1439.779649" CO2_normed="168519.857494" HC_normed="10.452458" PMx_normed="2.393805" NOx_normed="63.606836" fuel_normed="72.439541" electricity_normed="0"
            traveltime="0.02" CO_perVeh="0.390475" CO2_perVeh="45.703389" HC_perVeh="0.002835" PMx_perVeh="0.000649" NOx_perVeh="0.017250" fuel_perVeh="0.019646" electricity_perVeh="0"/>
        <edge id=":1110673617_0" sampledSeconds="238.56" CO_abs="6299.837167" CO2_abs="777596.787160" HC_abs="47.262305" PMx_abs="13.916169" NOx_abs="293.634491" fuel_abs="334.253077" electricity_abs="0"
            CO_normed="16091.538101" CO2_normed="1986198.690065" HC_normed="120.721085" PMx_normed="35.545769" NOx_normed="750.024243" fuel_normed="853.775420" electricity_normed="0"
            traveltime="0.01" CO_perVeh="0.385825" CO2_perVeh="47.622821" HC_perVeh="0.002895" PMx_perVeh="0.000852" NOx_perVeh="0.017983" fuel_perVeh="0.020471" electricity_perVeh="0"/>
        <edge id=":1110673621_0" sampledSeconds="25.72" CO_abs="638.080712" CO2_abs="65382.651838" HC_abs="4.426551" PMx_abs="1.004571" NOx_abs="25.300666" fuel_abs="28.105168" electricity_abs="0"
            CO_normed="1955.802949" CO2_normed="200406.595671" HC_normed="13.567972" PMx_normed="3.079146" NOx_normed="77.549933" fuel_normed="86.146108" electricity_normed="0"
            traveltime="0.02" CO_perVeh="0.483394" CO2_perVeh="49.532312" HC_perVeh="0.003353" PMx_perVeh="0.000761" NOx_perVeh="0.019167" fuel_perVeh="0.021292" electricity_perVeh="0"/>
        <edge id=":1110673630_0" sampledSeconds="54.31" CO_abs="177.597800" CO2_abs="17289.031103" HC_abs="1.200993" PMx_abs="0.212715" NOx_abs="6.408794" fuel_abs="7.431887" electricity_abs="0"
            CO_normed="9.706866" CO2_normed="944.957182" HC_normed="0.065642" PMx_normed="0.011626" NOx_normed="0.350282" fuel_normed="0.406201" electricity_normed="0"
            traveltime="1.27" CO_perVeh="4.145447" CO2_perVeh="403.556566" HC_perVeh="0.028033" PMx_perVeh="0.004965" NOx_perVeh="0.149593" fuel_perVeh="0.173473" electricity_perVeh="0"/>
        <edge id=":1110673630_1" sampledSeconds="7.41" CO_abs="16.450006" CO2_abs="1138.732671" HC_abs="0.100225" PMx_abs="0.012517" NOx_abs="0.418123" fuel_abs="0.489503" electricity_abs="0"
            CO_normed="1.096119" CO2_normed="75.877573" HC_normed="0.006678" PMx_normed="0.000834" NOx_normed="0.027861" fuel_normed="0.032617" electricity_normed="0"
            traveltime="1.05" CO_perVeh="2.328309" CO2_perVeh="161.174470" HC_perVeh="0.014186" PMx_perVeh="0.001772" NOx_perVeh="0.059181" fuel_perVeh="0.069284" electricity_perVeh="0"/>
        <edge id=":1110673650_0" sampledSeconds="143.80" CO_abs="2107.442048" CO2_abs="262142.736805" HC_abs="15.543191" PMx_abs="3.617826" NOx_abs="98.047670" fuel_abs="112.684098" electricity_abs="0"
            CO_normed="5382.993737" CO2_normed="669585.534623" HC_normed="39.701638" PMx_normed="9.240935" NOx_normed="250.441046" fuel_normed="287.826559" electricity_normed="0"
            traveltime="0.02" CO_perVeh="0.338364" CO2_perVeh="42.088746" HC_perVeh="0.002496" PMx_perVeh="0.000581" NOx_perVeh="0.015742" fuel_perVeh="0.018092" electricity_perVeh="0"/>
        <edge id=":1110673655_0" sampledSeconds="44.72" CO_abs="897.120658" CO2_abs="104348.420197" HC_abs="6.486062" PMx_abs="1.410336" NOx_abs="39.031922" fuel_abs="44.855065" electricity_abs="0"
            CO_normed="2291.495935" CO2_normed="266534.917490" HC_normed="16.567208" PMx_normed="3.602390" NOx_normed="99.698396" fuel_normed="114.572324" electricity_normed="0"
            traveltime="0.02" CO_perVeh="0.480129" CO2_perVeh="55.846091" HC_perVeh="0.003471" PMx_perVeh="0.000755" NOx_perVeh="0.020889" fuel_perVeh="0.024006" electricity_perVeh="0"/>
        <edge id=":1110673663_0" sampledSeconds="109.34" CO_abs="1578.433386" CO2_abs="191112.359170" HC_abs="11.537339" PMx_abs="2.581413" NOx_abs="71.271803" fuel_abs="82.151248" electricity_abs="0"
            CO_normed="73.841728" CO2_normed="8940.552640" HC_normed="0.539736" PMx_normed="0.120763" NOx_normed="3.334213" fuel_normed="3.843171" electricity_normed="0"
            traveltime="1.28" CO_perVeh="18.539445" CO2_perVeh="2244.704817" HC_perVeh="0.135511" PMx_perVeh="0.030320" NOx_perVeh="0.837121" fuel_perVeh="0.964905" electricity_perVeh="0"/>
        <edge id=":1110673663_1" sampledSeconds="153.89" CO_abs="2562.702890" CO2_abs="323104.174490" HC_abs="19.001644" PMx_abs="4.525479" NOx_abs="121.118551" fuel_abs="138.888730" electricity_abs="0"
            CO_normed="120.034047" CO2_normed="15133.826757" HC_normed="0.890015" PMx_normed="0.211968" NOx_normed="5.673053" fuel_normed="6.505388" electricity_normed="0"
            traveltime="1.25" CO_perVeh="20.741101" CO2_perVeh="2615.026682" HC_perVeh="0.153789" PMx_perVeh="0.036627" NOx_perVeh="0.980267" fuel_perVeh="1.124089" electricity_perVeh="0"/>
        <edge id=":1110673666_0" sampledSeconds="191.58" CO_abs="3760.698924" CO2_abs="308392.019597" HC_abs="24.133305" PMx_abs="4.093449" NOx_abs="116.939123" fuel_abs="132.565805" electricity_abs="0"