<?xml version="1.0" encoding="UTF-8"?>

<!-- generated on Tue Nov 10 00:24:32 2020 by Eclipse SUMO sumo Version 1.7.0
<configuration xmlns:xsi="http://www.w3.org/2001/XMLSchema-instance" xsi:noNamespaceSchemaLocation="http://sumo.dlr.de/xsd/sumoConfiguration.xsd">

    <input>
        <net-file value="../dataSets/Porto/6AM7AM_Routing_SaoBento/Porto.net.xml"/>
        <route-files value="../results/Porto/6AM7AM_Routing_SaoBento/cost_nox-length/solution4/Porto.rou.xml"/>
        <additional-files value="moreOutputInfo.xml"/>
    </input>

    <output>
        <emission-output.precision value="6"/>
        <tripinfo-output value="../results/Porto/6AM7AM_Routing_SaoBento/cost_nox-length/solution4/Porto-tripinfo"/>
    </output>

    <processing>
        <collision.action value="warn"/>
        <time-to-teleport value="-1"/>
    </processing>

    <emissions>
        <device.emissions.probability value="1"/>
    </emissions>

    <gui_only>
        <quit-on-end value="true"/>
        <start value="true"/>
    </gui_only>

</configuration>
-->

<meandata xmlns:xsi="http://www.w3.org/2001/XMLSchema-instance" xsi:noNamespaceSchemaLocation="http://sumo.dlr.de/xsd/meandata_file.xsd">
    <interval begin="0.00" end="4788.00" id="emissions-detector">
        <edge id=":1092997347_0" sampledSeconds="270.80" CO_abs="34350.976608" CO2_abs="1350478.871409" HC_abs="188.316776" PMx_abs="27.542201" NOx_abs="586.127386" fuel_abs="580.518035" electricity_abs="0"
            CO_normed="58699.549911" CO2_normed="2307721.926536" HC_normed="321.799002" PMx_normed="47.064595" NOx_normed="1001.584733" fuel_normed="991.999375" electricity_normed="0"
            traveltime="0.08" CO_perVeh="9.652043" CO2_perVeh="379.461723" HC_perVeh="0.052914" PMx_perVeh="0.007739" NOx_perVeh="0.164692" fuel_perVeh="0.163116" electricity_perVeh="0"/>
        <edge id=":1103427051_0" sampledSeconds="10.96" CO_abs="831.172782" CO2_abs="46904.872968" HC_abs="4.902080" PMx_abs="0.939559" NOx_abs="20.140619" fuel_abs="20.162297" electricity_abs="0"
            CO_normed="2154.972211" CO2_normed="121609.730278" HC_normed="12.709568" PMx_normed="2.435985" NOx_normed="52.218353" fuel_normed="52.274559" electricity_normed="0"
            traveltime="0.03" CO_perVeh="2.277401" CO2_perVeh="128.518643" HC_perVeh="0.013432" PMx_perVeh="0.002574" NOx_perVeh="0.055185" fuel_perVeh="0.055244" electricity_perVeh="0"/>
        <edge id=":1105984386_0" sampledSeconds="22.86" CO_abs="517.551539" CO2_abs="38134.520924" HC_abs="3.231804" PMx_abs="0.553148" NOx_abs="14.845142" fuel_abs="16.392521" electricity_abs="0"
            CO_normed="40.075849" CO2_normed="2952.891053" HC_normed="0.250250" PMx_normed="0.042832" NOx_normed="1.149512" fuel_normed="1.269331" electricity_normed="0"
            traveltime="0.96" CO_perVeh="21.721237" CO2_perVeh="1600.476306" HC_perVeh="0.135636" PMx_perVeh="0.023215" NOx_perVeh="0.623039" fuel_perVeh="0.687981" electricity_perVeh="0"/>
        <edge id=":1105984390_0" sampledSeconds="23.69" CO_abs="40.769905" CO2_abs="3992.711434" HC_abs="0.275614" PMx_abs="0.045964" NOx_abs="1.461458" fuel_abs="1.716317" electricity_abs="0"
            CO_normed="2.440610" CO2_normed="239.015818" HC_normed="0.016499" PMx_normed="0.002752" NOx_normed="0.087487" fuel_normed="0.102744" electricity_normed="0"
            traveltime="1.07" CO_perVeh="1.848895" CO2_perVeh="181.067503" HC_perVeh="0.012499" PMx_perVeh="0.002084" NOx_perVeh="0.066276" fuel_perVeh="0.077834" electricity_perVeh="0"/>
        <edge id=":1105984390_1" sampledSeconds="646.32" CO_abs="13855.541455" CO2_abs="1786373.042114" HC_abs="105.875830" PMx_abs="31.674048" NOx_abs="669.299464" fuel_abs="767.879861" electricity_abs="0"
            CO_normed="793.427292" CO2_normed="102295.325640" HC_normed="6.062901" PMx_normed="1.813791" NOx_normed="38.326937" fuel_normed="43.972070" electricity_normed="0"
            traveltime="0.64" CO_perVeh="13.644592" CO2_perVeh="1759.175673" HC_perVeh="0.104264" PMx_perVeh="0.031192" NOx_perVeh="0.659109" fuel_perVeh="0.756189" electricity_perVeh="0"/>
        <edge id=":1105984395_0" sampledSeconds="8.95" CO_abs="219.657473" CO2_abs="17494.911587" HC_abs="1.395157" PMx_abs="0.215654" NOx_abs="6.546169" fuel_abs="7.520415" electricity_abs="0"
            CO_normed="179.517386" CO2_normed="14297.900938" HC_normed="1.140207" PMx_normed="0.176246" NOx_normed="5.349926" fuel_normed="6.146138" electricity_normed="0"
            traveltime="0.09" CO_perVeh="2.227567" CO2_perVeh="177.417534" HC_perVeh="0.014148" PMx_perVeh="0.002187" NOx_perVeh="0.066385" fuel_perVeh="0.076265" electricity_perVeh="0"/>
        <edge id=":1105984398_0" sampledSeconds="23.12" CO_abs="1548.675264" CO2_abs="106556.497011" HC_abs="9.564215" PMx_abs="1.913722" NOx_abs="43.917548" fuel_abs="45.803940" electricity_abs="0"
            CO_normed="96.312448" CO2_normed="6626.771458" HC_normed="0.594801" PMx_normed="0.119015" NOx_normed="2.731242" fuel_normed="2.848557" electricity_normed="0"
            traveltime="1.10" CO_perVeh="73.935927" CO2_perVeh="5087.156450" HC_perVeh="0.456609" PMx_perVeh="0.091364" NOx_perVeh="2.096685" fuel_perVeh="2.186744" electricity_perVeh="0"/>
        <edge id=":1105984398_1" sampledSeconds="454.25" CO_abs="7722.003133" CO2_abs="908454.326120" HC_abs="55.970188" PMx_abs="12.905784" NOx_abs="342.827585" fuel_abs="390.505926" electricity_abs="0"
            CO_normed="464.853274" CO2_normed="54687.619336" HC_normed="3.369323" PMx_normed="0.776909" NOx_normed="20.637718" fuel_normed="23.507885" electricity_normed="0"
            traveltime="0.96" CO_perVeh="16.260071" CO2_perVeh="1912.914516" HC_perVeh="0.117855" PMx_perVeh="0.027175" NOx_perVeh="0.721885" fuel_perVeh="0.822281" electricity_perVeh="0"/>
        <edge id=":1106006327_0" sampledSeconds="356.80" CO_abs="48201.256406" CO2_abs="1566412.027824" HC_abs="256.363069" PMx_abs="32.726649" NOx_abs="685.976036" fuel_abs="673.345097" electricity_abs="0"
            CO_normed="4090.467965" CO2_normed="132929.278147" HC_normed="21.755552" PMx_normed="2.777258" NOx_normed="58.213483" fuel_normed="57.141592" electricity_normed="0"
            traveltime="2.09" CO_perVeh="282.690345" CO2_perVeh="9186.680810" HC_perVeh="1.503516" PMx_perVeh="0.191935" NOx_perVeh="4.023107" fuel_perVeh="3.949029" electricity_perVeh="0"/>
        <edge id=":1106006327_1" sampledSeconds="163.84" CO_abs="21995.311792" CO2_abs="725778.164652" HC_abs="117.241571" PMx_abs="15.100316" NOx_abs="317.398322" fuel_abs="311.986159" electricity_abs="0"
            CO_normed="1627.739017" CO2_normed="53710.420094" HC_normed="8.676334" PMx_normed="1.117482" NOx_normed="23.488716" fuel_normed="23.088195" electricity_normed="0"
            traveltime="2.33" CO_perVeh="312.251799" CO2_perVeh="10303.356462" HC_perVeh="1.664395" PMx_perVeh="0.214368" NOx_perVeh="4.505878" fuel_perVeh="4.429046" electricity_perVeh="0"/>
        <edge id=":1106006327_2" sampledSeconds="0.00" CO_abs="0" CO2_abs="0" HC_abs="0" PMx_abs="0" NOx_abs="0" fuel_abs="0" electricity_abs="0"
            CO_normed="0" CO2_normed="0" HC_normed="0" PMx_normed="0" NOx_normed="0" fuel_normed="0" electricity_normed="0"/>
        <edge id=":1106006327_3" sampledSeconds="0.00" CO_abs="0" CO2_abs="0" HC_abs="0" PMx_abs="0" NOx_abs="0" fuel_abs="0" electricity_abs="0"
            CO_normed="0" CO2_normed="0" HC_normed="0" PMx_normed="0" NOx_normed="0" fuel_normed="0" electricity_normed="0"/>
        <edge id=":1107381198_0" sampledSeconds="0.00" CO_abs="0" CO2_abs="0" HC_abs="0" PMx_abs="0" NOx_abs="0" fuel_abs="0" electricity_abs="0"
            CO_normed="0" CO2_normed="0" HC_normed="0" PMx_normed="0" NOx_normed="0" fuel_normed="0" electricity_normed="0"/>
        <edge id=":1107381198_1" sampledSeconds="35.90" CO_abs="1634.570824" CO2_abs="65946.532064" HC_abs="8.955646" PMx_abs="1.106402" NOx_abs="27.105645" fuel_abs="28.348159" electricity_abs="0"
            CO_normed="134.024059" CO2_normed="5407.181973" HC_normed="0.734304" PMx_normed="0.090718" NOx_normed="2.222485" fuel_normed="2.324363" electricity_normed="0"
            traveltime="1.48" CO_perVeh="67.299813" CO2_perVeh="2715.201594" HC_perVeh="0.368729" PMx_perVeh="0.045554" NOx_perVeh="1.116015" fuel_perVeh="1.167172" electricity_perVeh="0"/>
        <edge id=":1110338277_0" sampledSeconds="97.27" CO_abs="1441.504634" CO2_abs="168485.729064" HC_abs="10.441338" PMx_abs="2.338054" NOx_abs="63.351575" fuel_abs="72.424943" electricity_abs="0"
            CO_normed="3870.850251" CO2_normed="452432.140343" HC_normed="28.037964" PMx_normed="6.278339" NOx_normed="170.117010" fuel_normed="194.481588" electricity_normed="0"
            traveltime="0.02" CO_perVeh="0.324870" CO2_perVeh="37.971365" HC_perVeh="0.002353" PMx_perVeh="0.000527" NOx_perVeh="0.014277" fuel_perVeh="0.016322" electricity_perVeh="0"/>
        <edge id=":1110338293_0" sampledSeconds="123.49" CO_abs="6346.968925" CO2_abs="439778.828108" HC_abs="39.218819" PMx_abs="7.621235" NOx_abs="179.389371" fuel_abs="189.041921" electricity_abs="0"
            CO_normed="15907.190287" CO2_normed="1102202.576713" HC_normed="98.292780" PMx_normed="19.100840" NOx_normed="449.597421" fuel_normed="473.789275" electricity_normed="0"
            traveltime="0.03" CO_perVeh="1.455782" CO2_perVeh="100.870560" HC_perVeh="0.008995" PMx_perVeh="0.001748" NOx_perVeh="0.041146" fuel_perVeh="0.043360" electricity_perVeh="0"/>
        <edge id=":1110338295_0" sampledSeconds="0.00" CO_abs="0" CO2_abs="0" HC_abs="0" PMx_abs="0" NOx_abs="0" fuel_abs="0" electricity_abs="0"
            CO_normed="0" CO2_normed="0" HC_normed="0" PMx_normed="0" NOx_normed="0" fuel_normed="0" electricity_normed="0"/>
        <edge id=":1110673403_0" sampledSeconds="143.49" CO_abs="2332.813833" CO2_abs="288133.564572" HC_abs="17.194741" PMx_abs="3.970547" NOx_abs="107.803639" fuel_abs="123.856481" electricity_abs="0"
            CO_normed="5846.651211" CO2_normed="722139.259579" HC_normed="43.094590" PMx_normed="9.951245" NOx_normed="270.184559" fuel_normed="310.417245" electricity_normed="0"
            traveltime="0.02" CO_perVeh="0.374551" CO2_perVeh="46.261981" HC_perVeh="0.002761" PMx_perVeh="0.000638" NOx_perVeh="0.017309" fuel_perVeh="0.019886" electricity_perVeh="0"/>
        <edge id=":1110673412_0" sampledSeconds="252.63" CO_abs="44816.453040" CO2_abs="3056816.721448" HC_abs="278.861009" PMx_abs="67.177184" NOx_abs="1313.798442" fuel_abs="1313.974947" electricity_abs="0"
            CO_normed="116195.107701" CO2_normed="7925373.921307" HC_normed="722.999763" PMx_normed="174.169520" NOx_normed="3406.270268" fuel_normed="3406.727889" electricity_normed="0"
            traveltime="0.02" CO_perVeh="2.760329" CO2_perVeh="188.275070" HC_perVeh="0.017176" PMx_perVeh="0.004138" NOx_perVeh="0.080919" fuel_perVeh="0.080930" electricity_perVeh="0"/>
        <edge id=":1110673414_0" sampledSeconds="0.00" CO_abs="0" CO2_abs="0" HC_abs="0" PMx_abs="0" NOx_abs="0" fuel_abs="0" electricity_abs="0"
            CO_normed="0" CO2_normed="0" HC_normed="0" PMx_normed="0" NOx_normed="0" fuel_normed="0" electricity_normed="0"/>
        <edge id=":1110673414_1" sampledSeconds="132.40" CO_abs="9667.610600" CO2_abs="370713.982747" HC_abs="52.638463" PMx_abs="6.893720" NOx_abs="156.831361" fuel_abs="159.356635" electricity_abs="0"
            CO_normed="804.970116" CO2_normed="30867.366318" HC_normed="4.382923" PMx_normed="0.574003" NOx_normed="13.058507" fuel_normed="13.268773" electricity_normed="0"
            traveltime="1.58" CO_perVeh="115.184752" CO2_perVeh="4416.871968" HC_perVeh="0.627161" PMx_perVeh="0.082135" NOx_perVeh="1.868567" fuel_perVeh="1.898655" electricity_perVeh="0"/>
        <edge id=":1110673417_0" sampledSeconds="29.67" CO_abs="422.680602" CO2_abs="53904.138357" HC_abs="3.154449" PMx_abs="0.717485" NOx_abs="19.992091" fuel_abs="23.171147" electricity_abs="0"
            CO_normed="1135.017728" CO2_normed="144747.954772" HC_normed="8.470594" PMx_normed="1.926653" NOx_normed="53.684456" fuel_normed="62.221126" electricity_normed="0"
            traveltime="0.02" CO_perVeh="0.313719" CO2_perVeh="40.008373" HC_perVeh="0.002341" PMx_perVeh="0.000533" NOx_perVeh="0.014838" fuel_perVeh="0.017198" electricity_perVeh="0"/>
        <edge id=":1110673446_0" sampledSeconds="334.66" CO_abs="3226.072610" CO2_abs="266008.631081" HC_abs="20.981637" PMx_abs="4.829083" NOx_abs="108.422648" fuel_abs="114.344910" electricity_abs="0"
            CO_normed="8085.395013" CO2_normed="666688.298448" HC_normed="52.585557" PMx_normed="12.102965" NOx_normed="271.735961" fuel_normed="286.578722" electricity_normed="0"
            traveltime="0.02" CO_perVeh="0.220033" CO2_perVeh="18.143036" HC_perVeh="0.001431" PMx_perVeh="0.000329" NOx_perVeh="0.007395" fuel_perVeh="0.007799" electricity_perVeh="0"/>
        <edge id=":1110673451_0" sampledSeconds="37.58" CO_abs="403.181347" CO2_abs="27705.231702" HC_abs="2.465748" PMx_abs="0.376888" NOx_abs="10.642521" fuel_abs="11.909442" electricity_abs="0"
            CO_normed="1122.755074" CO2_normed="77151.856592" HC_normed="6.866465" PMx_normed="1.049536" NOx_normed="29.636650" fuel_normed="33.164695" electricity_normed="0"
            traveltime="0.03" CO_perVeh="0.289134" CO2_perVeh="19.868294" HC_perVeh="0.001768" PMx_perVeh="0.000270" NOx_perVeh="0.007632" fuel_perVeh="0.008541" electricity_perVeh="0"/>
        <edge id=":1110673464_0" sampledSeconds="322.45" CO_abs="468.290743" CO2_abs="37982.694765" HC_abs="2.989262" PMx_abs="0.461967" NOx_abs="14.146590" fuel_abs="16.327359" electricity_abs="0"
            CO_normed="24.936140" CO2_normed="2022.550787" HC_normed="0.159176" PMx_normed="0.024599" NOx_normed="0.753296" fuel_normed="0.869420" electricity_normed="0"
            traveltime="1.17" CO_perVeh="1.692813" CO2_perVeh="137.302746" HC_perVeh="0.010806" PMx_perVeh="0.001670" NOx_perVeh="0.051138" fuel_perVeh="0.059021" electricity_perVeh="0"/>
        <edge id=":1110673464_1" sampledSeconds="709.15" CO_abs="15541.048062" CO2_abs="2045022.887778" HC_abs="119.744791" PMx_abs="36.016945" NOx_abs="764.129648" fuel_abs="879.061726" electricity_abs="0"
            CO_normed="810.895111" CO2_normed="106704.454810" HC_normed="6.248000" PMx_normed="1.879279" NOx_normed="39.870477" fuel_normed="45.867361" electricity_normed="0"
            traveltime="0.70" CO_perVeh="15.338030" CO2_perVeh="2018.307992" HC_perVeh="0.118181" PMx_perVeh="0.035546" NOx_perVeh="0.754148" fuel_perVeh="0.867578" electricity_perVeh="0"/>
        <edge id=":1110673479_0" sampledSeconds="133.72" CO_abs="6936.835955" CO2_abs="476209.606016" HC_abs="42.788120" PMx_abs="8.416242" NOx_abs="195.373515" fuel_abs="204.701736" electricity_abs="0"
            CO_normed="17385.553771" CO2_normed="1193507.784501" HC_normed="107.238395" PMx_normed="21.093338" NOx_normed="489.657932" fuel_normed="513.036933" electricity_normed="0"
            traveltime="0.03" CO_perVeh="1.461309" CO2_perVeh="100.318013" HC_perVeh="0.009014" PMx_perVeh="0.001773" NOx_perVeh="0.041157" fuel_perVeh="0.043122" electricity_perVeh="0"/>
        <edge id=":1110673511_0" sampledSeconds="11.91" CO_abs="190.158835" CO2_abs="21526.750524" HC_abs="1.350655" PMx_abs="0.307905" NOx_abs="8.142340" fuel_abs="9.253436" electricity_abs="0"
            CO_normed="476.588559" CO2_normed="53951.755698" HC_normed="3.385099" PMx_normed="0.771692" NOx_normed="20.406866" fuel_normed="23.191570" electricity_normed="0"
            traveltime="0.02" CO_perVeh="0.376552" CO2_perVeh="42.627229" HC_perVeh="0.002675" PMx_perVeh="0.000610" NOx_perVeh="0.016123" fuel_perVeh="0.018324" electricity_perVeh="0"/>
        <edge id=":1110673517_0" sampledSeconds="17.09" CO_abs="684.274507" CO2_abs="50200.708387" HC_abs="4.295450" PMx_abs="0.867532" NOx_abs="20.391577" fuel_abs="21.579093" electricity_abs="0"
            CO_normed="1714.973702" CO2_normed="125816.311747" HC_normed="10.765539" PMx_normed="2.174267" NOx_normed="51.106710" fuel_normed="54.082939" electricity_normed="0"
            traveltime="0.03" CO_perVeh="1.098648" CO2_perVeh="80.600549" HC_perVeh="0.006897" PMx_perVeh="0.001393" NOx_perVeh="0.032740" fuel_perVeh="0.034647" electricity_perVeh="0"/>
        <edge id=":1110673534_0" sampledSeconds="474.72" CO_abs="2925.707166" CO2_abs="271713.333755" HC_abs="19.504286" PMx_abs="3.457951" NOx_abs="101.553218" fuel_abs="116.799009" electricity_abs="0"
            CO_normed="142.104640" CO2_normed="13197.399203" HC_normed="0.947343" PMx_normed="0.167956" NOx_normed="4.932545" fuel_normed="5.673049" electricity_normed="0"
            traveltime="1.43" CO_perVeh="8.813983" CO2_perVeh="818.563373" HC_perVeh="0.058759" PMx_perVeh="0.010417" NOx_perVeh="0.305939" fuel_perVeh="0.351869" electricity_perVeh="0"/>
        <edge id=":1110673534_1" sampledSeconds="184.17" CO_abs="2659.297625" CO2_abs="342621.364446" HC_abs="19.915942" PMx_abs="4.653856" NOx_abs="127.485922" fuel_abs="147.278523" electricity_abs="0"
            CO_normed="125.594969" CO2_normed="16181.535707" HC_normed="0.940603" PMx_normed="0.219795" NOx_normed="6.020985" fuel_normed="6.955762" electricity_normed="0"
            traveltime="1.22" CO_perVeh="17.656782" CO2_perVeh="2274.882856" HC_perVeh="0.132235" PMx_perVeh="0.030900" NOx_perVeh="0.846461" fuel_perVeh="0.977877" electricity_perVeh="0"/>
        <edge id=":1110673549_0" sampledSeconds="59.59" CO_abs="10.618676" CO2_abs="2608.785559" HC_abs="0.105492" PMx_abs="0.017267" NOx_abs="0.850626" fuel_abs="1.121427" electricity_abs="0"
            CO_normed="0.499622" CO2_normed="122.746740" HC_normed="0.004964" PMx_normed="0.000812" NOx_normed="0.040023" fuel_normed="0.052765" electricity_normed="0"
            traveltime="1.24" CO_perVeh="0.221231" CO2_perVeh="54.351825" HC_perVeh="0.002198" PMx_perVeh="0.000360" NOx_perVeh="0.017722" fuel_perVeh="0.023364" electricity_perVeh="0"/>
        <edge id=":1110673549_1" sampledSeconds="638.70" CO_abs="14481.203590" CO2_abs="1884811.228978" HC_abs="110.915425" PMx_abs="33.247777" NOx_abs="705.410413" fuel_abs="810.194008" electricity_abs="0"
            CO_normed="659.087349" CO2_normed="85783.976997" HC_normed="5.048127" PMx_normed="1.513216" NOx_normed="32.105555" fuel_normed="36.874602" electricity_normed="0"
            traveltime="0.80" CO_perVeh="18.235844" CO2_perVeh="2373.499077" HC_perVeh="0.139673" PMx_perVeh="0.041868" NOx_perVeh="0.888307" fuel_perVeh="1.020259" electricity_perVeh="0"/>
        <edge id=":1110673556_0" sampledSeconds="413.77" CO_abs="50599.079061" CO2_abs="2558137.007719" HC_abs="291.227166" PMx_abs="51.553152" NOx_abs="1101.291380" fuel_abs="1099.632105" electricity_abs="0"
            CO_normed="1765.402336" CO2_normed="89253.423851" HC_normed="10.160919" PMx_normed="1.798690" NOx_normed="38.424066" fuel_normed="38.366174" electricity_normed="0"
            traveltime="2.57" CO_perVeh="314.094410" CO2_perVeh="15879.667161" HC_perVeh="1.807796" PMx_perVeh="0.320017" NOx_perVeh="6.836280" fuel_perVeh="6.825980" electricity_perVeh="0"/>
        <edge id=":1110673556_2" sampledSeconds="244.54" CO_abs="23615.077388" CO2_abs="1030093.000396" HC_abs="131.700989" PMx_abs="19.717300" NOx_abs="438.213920" fuel_abs="442.796496" electricity_abs="0"
            CO_normed="861.508844" CO2_normed="37579.137086" HC_normed="4.804624" PMx_normed="0.719313" NOx_normed="15.986616" fuel_normed="16.153794" electricity_normed="0"
            traveltime="2.97" CO_perVeh="286.446363" CO2_perVeh="12494.830700" HC_perVeh="1.597508" PMx_perVeh="0.239167" NOx_perVeh="5.315451" fuel_perVeh="5.371037" electricity_perVeh="0"/>
        <edge id=":1110673556_3" sampledSeconds="417.16" CO_abs="34787.457533" CO2_abs="1239130.118167" HC_abs="187.253255" PMx_abs="23.699803" NOx_abs="528.815426" fuel_abs="532.658638" electricity_abs="0"
            CO_normed="2886.973853" CO2_normed="102834.081741" HC_normed="15.539947" PMx_normed="1.966821" NOx_normed="43.885826" fuel_normed="44.204770" electricity_normed="0"
            traveltime="1.74" CO_perVeh="145.364231" CO2_perVeh="5177.877598" HC_perVeh="0.782464" PMx_perVeh="0.099033" NOx_perVeh="2.209729" fuel_perVeh="2.225788" electricity_perVeh="0"/>
        <edge id=":1110673556_4" sampledSeconds="197.62" CO_abs="21086.550593" CO2_abs="845251.735074" HC_abs="115.873271" PMx_abs="16.616295" NOx_abs="363.004720" fuel_abs="363.341232" electricity_abs="0"
            CO_normed="1069.086266" CO2_normed="42854.188830" HC_normed="5.874765" PMx_normed="0.842445" NOx_normed="18.404307" fuel_normed="18.421369" electricity_normed="0"
            traveltime="2.41" CO_perVeh="257.597899" CO2_perVeh="10325.779458" HC_perVeh="1.415533" PMx_perVeh="0.202988" NOx_perVeh="4.434545" fuel_perVeh="4.438656" electricity_perVeh="0"/>
        <edge id=":1110673556_5" sampledSeconds="26.15" CO_abs="2464.579405" CO2_abs="95191.680685" HC_abs="13.457070" PMx_abs="1.878751" NOx_abs="40.943305" fuel_abs="40.919309" electricity_abs="0"
            CO_normed="174.160453" CO2_normed="6726.756790" HC_normed="0.950949" PMx_normed="0.132763" NOx_normed="2.893274" fuel_normed="2.891579" electricity_normed="0"
            traveltime="1.81" CO_perVeh="170.390675" CO2_perVeh="6581.153233" HC_perVeh="0.930365" PMx_perVeh="0.129889" NOx_perVeh="2.830648" fuel_perVeh="2.828989" electricity_perVeh="0"/>
        <edge id=":1110673556_6" sampledSeconds="307.94" CO_abs="36781.175743" CO2_abs="1883555.413717" HC_abs="212.285445" PMx_abs="37.905269" NOx_abs="809.660123" fuel_abs="809.658513" electricity_abs="0"
            CO_normed="1315.652681" CO2_normed="67374.266317" HC_normed="7.593393" PMx_normed="1.355861" NOx_normed="28.961323" fuel_normed="28.961265" electricity_normed="0"
            traveltime="2.44" CO_perVeh="291.277324" CO2_perVeh="14916.243693" HC_perVeh="1.681130" PMx_perVeh="0.300179" NOx_perVeh="6.411857" fuel_perVeh="6.411844" electricity_perVeh="0"/>
        <edge id=":1110673561_0" sampledSeconds="101.79" CO_abs="9218.271678" CO2_abs="652353.010469" HC_abs="57.694725" PMx_abs="13.320006" NOx_abs="276.796269" fuel_abs="280.415371" electricity_abs="0"
            CO_normed="414.287587" CO2_normed="29318.050527" HC_normed="2.592916" PMx_normed="0.598628" NOx_normed="12.439779" fuel_normed="12.602428" electricity_normed="0"
            traveltime="1.20" CO_perVeh="108.784553" CO2_perVeh="7698.398697" HC_perVeh="0.680854" PMx_perVeh="0.157189" NOx_perVeh="3.266465" fuel_perVeh="3.309174" electricity_perVeh="0"/>
        <edge id=":1110673561_1" sampledSeconds="1315.10" CO_abs="121389.528921" CO2_abs="8417327.609684" HC_abs="756.344284" PMx_abs="175.854497" NOx_abs="3598.253098" fuel_abs="3618.202639" electricity_abs="0"
            CO_normed="5318.783362" CO2_normed="368812.223289" HC_normed="33.139855" PMx_normed="7.705211" NOx_normed="157.660458" fuel_normed="158.534564" electricity_normed="0"
            traveltime="1.19" CO_perVeh="110.263875" CO2_perVeh="7645.858457" HC_perVeh="0.687023" PMx_perVeh="0.159737" NOx_perVeh="3.268464" fuel_perVeh="3.286585" electricity_perVeh="0"/>
        <edge id=":1110673562_0" sampledSeconds="104.44" CO_abs="2190.262073" CO2_abs="171019.316336" HC_abs="13.878430" PMx_abs="2.340018" NOx_abs="65.430720" fuel_abs="73.514563" electricity_abs="0"
            CO_normed="6099.309589" CO2_normed="476244.267158" HC_normed="38.647815" PMx_normed="6.516340" NOx_normed="182.207518" fuel_normed="204.718916" electricity_normed="0"
            traveltime="0.03" CO_perVeh="0.558308" CO2_perVeh="43.593602" HC_perVeh="0.003538" PMx_perVeh="0.000596" NOx_perVeh="0.016679" fuel_perVeh="0.018739" electricity_perVeh="0"/>
        <edge id=":1110673564_0" sampledSeconds="28.54" CO_abs="623.801170" CO2_abs="64056.531634" HC_abs="4.329016" PMx_abs="0.954110" NOx_abs="24.612025" fuel_abs="27.535170" electricity_abs="0"
            CO_normed="4690.234364" CO2_normed="481628.057400" HC_normed="32.548993" PMx_normed="7.173760" NOx_normed="185.052822" fuel_normed="207.031352" electricity_normed="0"
            traveltime="7.847052e-03" CO_perVeh="0.171492" CO2_perVeh="17.610043" HC_perVeh="0.001190" PMx_perVeh="0.000262" NOx_perVeh="0.006766" fuel_perVeh="0.007570" electricity_perVeh="0"/>
        <edge id=":1110673588_0" sampledSeconds="11.76" CO_abs="160.742546" CO2_abs="20845.037784" HC_abs="1.203709" PMx_abs="0.269027" NOx_abs="7.688216" fuel_abs="8.960424" electricity_abs="0"
            CO_normed="483.436228" CO2_normed="62691.842960" HC_normed="3.620179" PMx_normed="0.809103" NOx_normed="23.122453" fuel_normed="26.948643" electricity_normed="0"
            traveltime="0.02" CO_perVeh="0.267904" CO2_perVeh="34.741730" HC_perVeh="0.002006" PMx_perVeh="0.000448" NOx_perVeh="0.012814" fuel_perVeh="0.014934" electricity_perVeh="0"/>
        <edge id=":1110673601_0" sampledSeconds="29.61" CO_abs="393.649477" CO2_abs="50964.628489" HC_abs="2.935197" PMx_abs="0.676085" NOx_abs="18.841495" fuel_abs="21.907573" electricity_abs="0"
            CO_normed="1057.060895" CO2_normed="136854.534075" HC_normed="7.881839" PMx_normed="1.815481" NOx_normed="50.594776" fuel_normed="58.828070" electricity_normed="0"
            traveltime="0.02" CO_perVeh="0.292172" CO2_perVeh="37.826629" HC_perVeh="0.002179" PMx_perVeh="0.000502" NOx_perVeh="0.013984" fuel_perVeh="0.016260" electricity_perVeh="0"/>
        <edge id=":1110673617_0" sampledSeconds="238.74" CO_abs="5775.265468" CO2_abs="717999.937719" HC_abs="43.424181" PMx_abs="12.817482" NOx_abs="270.865526" fuel_abs="308.635149" electricity_abs="0"
            CO_normed="14474.349544" CO2_normed="1799498.590774" HC_normed="108.832535" PMx_normed="32.124016" NOx_normed="678.860968" fuel_normed="773.521677" electricity_normed="0"
            traveltime="0.01" CO_perVeh="0.353993" CO2_perVeh="44.009576" HC_perVeh="0.002662" PMx_perVeh="0.000786" NOx_perVeh="0.016603" fuel_perVeh="0.018918" electricity_perVeh="0"/>
        <edge id=":1110673621_0" sampledSeconds="25.61" CO_abs="448.544696" CO2_abs="53698.498469" HC_abs="3.252658" PMx_abs="0.713441" NOx_abs="19.976177" fuel_abs="23.082767" electricity_abs="0"
            CO_normed="1349.006604" CO2_normed="161499.243515" HC_normed="9.782432" PMx_normed="2.145687" NOx_normed="60.078727" fuel_normed="69.421856" electricity_normed="0"
            traveltime="0.02" CO_perVeh="0.339807" CO2_perVeh="40.680681" HC_perVeh="0.002464" PMx_perVeh="0.000540" NOx_perVeh="0.015133" fuel_perVeh="0.017487" electricity_perVeh="0"/>
        <edge id=":1110673630_0" sampledSeconds="54.26" CO_abs="202.450935" CO2_abs="19088.273388" HC_abs="1.352591" PMx_abs="0.224301" NOx_abs="7.018581" fuel_abs="8.205333" electricity_abs="0"
            CO_normed="10.857257" CO2_normed="1023.686537" HC_normed="0.072538" PMx_normed="0.012029" NOx_normed="0.376400" fuel_normed="0.440044" electricity_normed="0"
            traveltime="1.27" CO_perVeh="4.725563" CO2_perVeh="445.554064" HC_perVeh="0.031572" PMx_perVeh="0.005236" NOx_perVeh="0.163826" fuel_perVeh="0.191527" electricity_perVeh="0"/>
        <edge id=":1110673630_1" sampledSeconds="7.29" CO_abs="3.049512" CO2_abs="356.757770" HC_abs="0.021823" PMx_abs="0.003436" NOx_abs="0.125589" fuel_abs="0.153357" electricity_abs="0"
            CO_normed="0.199380" CO2_normed="23.325124" HC_normed="0.001427" PMx_normed="0.000225" NOx_normed="0.008211" fuel_normed="0.010027" electricity_normed="0"
            traveltime="1.03" CO_perVeh="0.431623" CO2_perVeh="50.494946" HC_perVeh="0.003089" PMx_perVeh="0.000486" NOx_perVeh="0.017776" fuel_perVeh="0.021706" electricity_perVeh="0"/>
        <edge id=":1110673650_0" sampledSeconds="143.23" CO_abs="2076.396932" CO2_abs="271949.703426" HC_abs="15.656742" PMx_abs="3.636570" NOx_abs="100.853823" fuel_abs="116.899804" electricity_abs="0"
            CO_normed="5204.002337" CO2_normed="681578.204076" HC_normed="39.239955" PMx_normed="9.114210" NOx_normed="252.766473" fuel_normed="292.981965" electricity_normed="0"
            traveltime="0.02" CO_perVeh="0.333866" CO2_perVeh="43.727134" HC_perVeh="0.002517" PMx_perVeh="0.000585" NOx_perVeh="0.016216" fuel_perVeh="0.018796" electricity_perVeh="0"/>
        <edge id=":1110673655_0" sampledSeconds="44.92" CO_abs="982.555692" CO2_abs="111109.326051" HC_abs="7.022991" PMx_abs="1.526392" NOx_abs="41.767722" fuel_abs="47.761277" electricity_abs="0"
            CO_normed="2462.545594" CO2_normed="278469.488851" HC_normed="17.601482" PMx_normed="3.825543" NOx_normed="104.681006" fuel_normed="119.702449" electricity_normed="0"
            traveltime="0.02" CO_perVeh="0.525853" CO2_perVeh="59.464451" HC_perVeh="0.003759" PMx_perVeh="0.000817" NOx_perVeh="0.022354" fuel_perVeh="0.025561" electricity_perVeh="0"/>
        <edge id=":1110673663_0" sampledSeconds="108.09" CO_abs="1725.277639" CO2_abs="209534.333442" HC_abs="12.641373" PMx_abs="2.885276" NOx_abs="78.380266" fuel_abs="90.070012" electricity_abs="0"
            CO_normed="79.194214" CO2_normed="9618.108157" HC_normed="0.580268" PMx_normed="0.132441" NOx_normed="3.597835" fuel_normed="4.134421" electricity_normed="0"
            traveltime="1.27" CO_perVeh="20.264200" CO2_perVeh="2461.079595" HC_perVeh="0.148479" PMx_perVeh="0.033889" NOx_perVeh="0.920613" fuel_perVeh="1.057915" electricity_perVeh="0"/>
        <edge id=":1110673663_1" sampledSeconds="154.20" CO_abs="2995.893630" CO2_abs="346998.404291" HC_abs="21.666051" PMx_abs="5.056696" NOx_abs="131.786237" fuel_abs="149.159728" electricity_abs="0"
            CO_normed="137.686528" CO2_normed="15947.497302" HC_normed="0.995737" PMx_normed="0.232398" NOx_normed="6.056687" fuel_normed="6.855145" electricity_normed="0"
            traveltime="1.24" CO_perVeh="24.185230" CO2_perVeh="2801.246395" HC_perVeh="0.174906" PMx_perVeh="0.040822" NOx_perVeh="1.063883" fuel_perVeh="1.204136" electricity_perVeh="0"/>
        <edge id=":1110673666_0" sampledSeconds="191.52" CO_abs="4200.814521" CO2_abs="328739.664794" HC_abs="26.623188" PMx_abs="4.438181" NOx_abs="125.414714" fuel_abs="141.312496" electricity_abs="0"