<?xml version="1.0" encoding="UTF-8"?>

<!-- generated on Sun Nov  1 00:38:26 2020 by Eclipse SUMO sumo Version 1.7.0
<configuration xmlns:xsi="http://www.w3.org/2001/XMLSchema-instance" xsi:noNamespaceSchemaLocation="http://sumo.dlr.de/xsd/sumoConfiguration.xsd">

    <input>
        <net-file value="../dataSets/Porto/8AM9AM_Routing_SaoBento/Porto.net.xml"/>
        <route-files value="../results/Porto/8AM9AM_Routing_SaoBento/cost_co-ttime/solution3/Porto.rou.xml"/>
        <additional-files value="moreOutputInfo.xml"/>
    </input>

    <output>
        <emission-output.precision value="6"/>
        <tripinfo-output value="../results/Porto/8AM9AM_Routing_SaoBento/cost_co-ttime/solution3/Porto-tripinfo"/>
    </output>

    <processing>
        <collision.action value="warn"/>
        <time-to-teleport value="-1"/>
    </processing>

    <emissions>
        <device.emissions.probability value="1"/>
    </emissions>

    <gui_only>
        <quit-on-end value="true"/>
        <start value="true"/>
    </gui_only>

</configuration>
-->

<meandata xmlns:xsi="http://www.w3.org/2001/XMLSchema-instance" xsi:noNamespaceSchemaLocation="http://sumo.dlr.de/xsd/meandata_file.xsd">
    <interval begin="0.00" end="8562.00" id="emissions-detector">
        <edge id=":1092997347_0" sampledSeconds="587.96" CO_abs="71481.740438" CO2_abs="3072416.911191" HC_abs="398.174407" PMx_abs="62.101675" NOx_abs="1329.032094" fuel_abs="1320.707067" electricity_abs="0"
            CO_normed="68307.708897" CO2_normed="2935991.187352" HC_normed="380.494114" PMx_normed="59.344150" NOx_normed="1270.018565" fuel_normed="1262.063197" electricity_normed="0"
            traveltime="0.07" CO_perVeh="8.187228" CO2_perVeh="351.902143" HC_perVeh="0.045605" PMx_perVeh="0.007113" NOx_perVeh="0.152222" fuel_perVeh="0.151268" electricity_perVeh="0"/>
        <edge id=":1103427051_0" sampledSeconds="19.35" CO_abs="1563.442083" CO2_abs="89035.417443" HC_abs="9.229184" PMx_abs="1.722703" NOx_abs="37.811910" fuel_abs="38.272409" electricity_abs="0"
            CO_normed="2266.788899" CO2_normed="129089.844781" HC_normed="13.381124" PMx_normed="2.497696" NOx_normed="54.822381" fuel_normed="55.490045" electricity_normed="0"
            traveltime="0.03" CO_perVeh="2.431350" CO2_perVeh="138.461342" HC_perVeh="0.014353" PMx_perVeh="0.002679" NOx_perVeh="0.058802" fuel_perVeh="0.059518" electricity_perVeh="0"/>
        <edge id=":1105984386_0" sampledSeconds="10.52" CO_abs="256.072459" CO2_abs="19614.853867" HC_abs="1.618390" PMx_abs="0.293296" NOx_abs="7.677451" fuel_abs="8.431629" electricity_abs="0"
            CO_normed="11.088452" CO2_normed="849.362581" HC_normed="0.070080" PMx_normed="0.012700" NOx_normed="0.332449" fuel_normed="0.365106" electricity_normed="0"
            traveltime="1.01" CO_perVeh="24.564943" CO2_perVeh="1881.646227" HC_perVeh="0.155252" PMx_perVeh="0.028136" NOx_perVeh="0.736495" fuel_perVeh="0.808843" electricity_perVeh="0"/>
        <edge id=":1105984390_0" sampledSeconds="10.51" CO_abs="1.075428" CO2_abs="76.310739" HC_abs="0.006603" PMx_abs="0.000881" NOx_abs="0.028295" fuel_abs="0.032803" electricity_abs="0"
            CO_normed="0.036001" CO2_normed="2.554602" HC_normed="0.000221" PMx_normed="0.000029" NOx_normed="0.000947" fuel_normed="0.001098" electricity_normed="0"
            traveltime="1.09" CO_perVeh="0.111475" CO2_perVeh="7.910068" HC_perVeh="0.000684" PMx_perVeh="0.000091" NOx_perVeh="0.002933" fuel_perVeh="0.003400" electricity_perVeh="0"/>
        <edge id=":1105984390_1" sampledSeconds="2397.09" CO_abs="62677.054366" CO2_abs="7475321.925552" HC_abs="463.917940" PMx_abs="134.784122" NOx_abs="2843.314653" fuel_abs="3213.295733" electricity_abs="0"
            CO_normed="2007.109788" CO2_normed="239382.529368" HC_normed="14.856063" PMx_normed="4.316197" NOx_normed="91.051577" fuel_normed="102.899496" electricity_normed="0"
            traveltime="0.65" CO_perVeh="16.933568" CO2_perVeh="2019.620684" HC_perVeh="0.125338" PMx_perVeh="0.036415" NOx_perVeh="0.768183" fuel_perVeh="0.868142" electricity_perVeh="0"/>
        <edge id=":1105984395_0" sampledSeconds="4.23" CO_abs="53.934809" CO2_abs="4302.704650" HC_abs="0.341051" PMx_abs="0.044265" NOx_abs="1.552256" fuel_abs="1.849587" electricity_abs="0"
            CO_normed="24.649527" CO2_normed="1966.441295" HC_normed="0.155869" PMx_normed="0.020230" NOx_normed="0.709419" fuel_normed="0.845306" electricity_normed="0"
            traveltime="0.10" CO_perVeh="1.250190" CO2_perVeh="99.735154" HC_perVeh="0.007905" PMx_perVeh="0.001026" NOx_perVeh="0.035981" fuel_perVeh="0.042873" electricity_perVeh="0"/>
        <edge id=":1105984398_0" sampledSeconds="11.41" CO_abs="520.116397" CO2_abs="38976.972474" HC_abs="3.263095" PMx_abs="0.563519" NOx_abs="15.137017" fuel_abs="16.754656" electricity_abs="0"
            CO_normed="18.088457" CO2_normed="1355.529829" HC_normed="0.113483" PMx_normed="0.019598" NOx_normed="0.526431" fuel_normed="0.582689" electricity_normed="0"
            traveltime="1.17" CO_perVeh="53.344140" CO2_perVeh="3997.553421" HC_perVeh="0.334669" PMx_perVeh="0.057796" NOx_perVeh="1.552482" fuel_perVeh="1.718390" electricity_perVeh="0"/>
        <edge id=":1105984398_1" sampledSeconds="643.84" CO_abs="12715.914740" CO2_abs="1425723.365963" HC_abs="90.660878" PMx_abs="21.070727" NOx_abs="543.868641" fuel_abs="612.857113" electricity_abs="0"
            CO_normed="428.067687" CO2_normed="47995.454223" HC_normed="3.052002" PMx_normed="0.709324" NOx_normed="18.308757" fuel_normed="20.631180" electricity_normed="0"
            traveltime="0.95" CO_perVeh="18.800901" CO2_perVeh="2107.979229" HC_perVeh="0.134045" PMx_perVeh="0.031154" NOx_perVeh="0.804128" fuel_perVeh="0.906130" electricity_perVeh="0"/>
        <edge id=":1106006327_0" sampledSeconds="67.39" CO_abs="8974.213633" CO2_abs="290050.883573" HC_abs="47.683076" PMx_abs="6.018773" NOx_abs="126.778237" fuel_abs="124.682712" electricity_abs="0"
            CO_normed="425.882661" CO2_normed="13764.731622" HC_normed="2.262861" PMx_normed="0.285629" NOx_normed="6.016422" fuel_normed="5.916976" electricity_normed="0"
            traveltime="2.09" CO_perVeh="278.197169" CO2_perVeh="8991.465759" HC_perVeh="1.478157" PMx_perVeh="0.186580" NOx_perVeh="3.930077" fuel_perVeh="3.865116" electricity_perVeh="0"/>
        <edge id=":1106006327_1" sampledSeconds="684.75" CO_abs="92569.253379" CO2_abs="3086631.930702" HC_abs="494.238019" PMx_abs="64.369871" NOx_abs="1350.747258" fuel_abs="1326.831972" electricity_abs="0"
            CO_normed="3830.895719" CO2_normed="127737.500512" HC_normed="20.453598" PMx_normed="2.663890" NOx_normed="55.899467" fuel_normed="54.909754" electricity_normed="0"
            traveltime="2.30" CO_perVeh="310.733339" CO2_perVeh="10361.101661" HC_perVeh="1.659041" PMx_perVeh="0.216075" NOx_perVeh="4.534143" fuel_perVeh="4.453865" electricity_perVeh="0"/>
        <edge id=":1106006327_2" sampledSeconds="0.00" CO_abs="0" CO2_abs="0" HC_abs="0" PMx_abs="0" NOx_abs="0" fuel_abs="0" electricity_abs="0"
            CO_normed="0" CO2_normed="0" HC_normed="0" PMx_normed="0" NOx_normed="0" fuel_normed="0" electricity_normed="0"/>
        <edge id=":1106006327_3" sampledSeconds="0.00" CO_abs="0" CO2_abs="0" HC_abs="0" PMx_abs="0" NOx_abs="0" fuel_abs="0" electricity_abs="0"
            CO_normed="0" CO2_normed="0" HC_normed="0" PMx_normed="0" NOx_normed="0" fuel_normed="0" electricity_normed="0"/>
        <edge id=":1107381198_0" sampledSeconds="0.00" CO_abs="0" CO2_abs="0" HC_abs="0" PMx_abs="0" NOx_abs="0" fuel_abs="0" electricity_abs="0"
            CO_normed="0" CO2_normed="0" HC_normed="0" PMx_normed="0" NOx_normed="0" fuel_normed="0" electricity_normed="0"/>
        <edge id=":1107381198_1" sampledSeconds="103.14" CO_abs="5580.165362" CO2_abs="222395.840276" HC_abs="30.550168" PMx_abs="3.951512" NOx_abs="92.878983" fuel_abs="95.600085" electricity_abs="0"
            CO_normed="255.861541" CO2_normed="10197.286035" HC_normed="1.400785" PMx_normed="0.181185" NOx_normed="4.258684" fuel_normed="4.383452" electricity_normed="0"
            traveltime="1.54" CO_perVeh="83.545775" CO2_perVeh="3329.692162" HC_perVeh="0.457395" PMx_perVeh="0.059162" NOx_perVeh="1.390576" fuel_perVeh="1.431317" electricity_perVeh="0"/>
        <edge id=":1110338277_0" sampledSeconds="161.28" CO_abs="2530.558641" CO2_abs="304389.862939" HC_abs="18.493350" PMx_abs="4.192660" NOx_abs="114.077620" fuel_abs="130.844423" electricity_abs="0"
            CO_normed="3800.017981" CO2_normed="457087.590758" HC_normed="27.770573" PMx_normed="6.295916" NOx_normed="171.304866" fuel_normed="196.482765" electricity_normed="0"
            traveltime="0.02" CO_perVeh="0.342741" CO2_perVeh="41.226761" HC_perVeh="0.002505" PMx_perVeh="0.000568" NOx_perVeh="0.015451" fuel_perVeh="0.017722" electricity_perVeh="0"/>
        <edge id=":1110338293_0" sampledSeconds="6829.74" CO_abs="648506.568912" CO2_abs="11316912.599268" HC_abs="3217.652187" PMx_abs="270.403755" NOx_abs="5117.667908" fuel_abs="4864.951292" electricity_abs="0"
            CO_normed="908908.996373" CO2_normed="15861124.876339" HC_normed="4509.673703" PMx_normed="378.982137" NOx_normed="7172.624959" fuel_normed="6818.432084" electricity_normed="0"
            traveltime="0.46" CO_perVeh="43.338594" CO2_perVeh="756.290065" HC_perVeh="0.215030" PMx_perVeh="0.018071" NOx_perVeh="0.342005" fuel_perVeh="0.325116" electricity_perVeh="0"/>
        <edge id=":1110338295_0" sampledSeconds="0.00" CO_abs="0" CO2_abs="0" HC_abs="0" PMx_abs="0" NOx_abs="0" fuel_abs="0" electricity_abs="0"
            CO_normed="0" CO2_normed="0" HC_normed="0" PMx_normed="0" NOx_normed="0" fuel_normed="0" electricity_normed="0"/>
        <edge id=":1110673403_0" sampledSeconds="200.61" CO_abs="3214.300691" CO2_abs="394549.566008" HC_abs="23.688255" PMx_abs="5.440522" NOx_abs="147.686948" fuel_abs="169.600253" electricity_abs="0"
            CO_normed="4504.976441" CO2_normed="552977.667846" HC_normed="33.200077" PMx_normed="7.625119" NOx_normed="206.989416" fuel_normed="237.701827" electricity_normed="0"
            traveltime="0.02" CO_perVeh="0.371497" CO2_perVeh="45.600561" HC_perVeh="0.002738" PMx_perVeh="0.000629" NOx_perVeh="0.017069" fuel_perVeh="0.019602" electricity_perVeh="0"/>
        <edge id=":1110673412_0" sampledSeconds="962.30" CO_abs="170070.065465" CO2_abs="11626684.562636" HC_abs="1058.912745" PMx_abs="255.226742" NOx_abs="4994.457198" fuel_abs="4997.739220" electricity_abs="0"
            CO_normed="246579.608242" CO2_normed="16857189.516424" HC_normed="1535.286584" PMx_normed="370.045780" NOx_normed="7241.317253" fuel_normed="7246.075761" electricity_normed="0"
            traveltime="0.02" CO_perVeh="2.748643" CO2_perVeh="187.908457" HC_perVeh="0.017114" PMx_perVeh="0.004125" NOx_perVeh="0.080720" fuel_perVeh="0.080773" electricity_perVeh="0"/>
        <edge id=":1110673414_0" sampledSeconds="0.00" CO_abs="0" CO2_abs="0" HC_abs="0" PMx_abs="0" NOx_abs="0" fuel_abs="0" electricity_abs="0"
            CO_normed="0" CO2_normed="0" HC_normed="0" PMx_normed="0" NOx_normed="0" fuel_normed="0" electricity_normed="0"/>
        <edge id=":1110673414_1" sampledSeconds="6.71" CO_abs="469.845321" CO2_abs="19179.017254" HC_abs="2.583825" PMx_abs="0.344316" NOx_abs="8.031863" fuel_abs="8.244364" electricity_abs="0"
            CO_normed="21.877336" CO2_normed="893.029647" HC_normed="0.120310" PMx_normed="0.016032" NOx_normed="0.373986" fuel_normed="0.383881" electricity_normed="0"
            traveltime="1.47" CO_perVeh="102.629493" CO2_perVeh="4189.320895" HC_perVeh="0.564391" PMx_perVeh="0.075210" NOx_perVeh="1.754420" fuel_perVeh="1.800837" electricity_perVeh="0"/>
        <edge id=":1110673417_0" sampledSeconds="29.20" CO_abs="501.381066" CO2_abs="54309.338917" HC_abs="3.511620" PMx_abs="0.773600" NOx_abs="20.591510" fuel_abs="23.345298" electricity_abs="0"
            CO_normed="752.899789" CO2_normed="81553.717465" HC_normed="5.273230" PMx_normed="1.161678" NOx_normed="30.921278" fuel_normed="35.056508" electricity_normed="0"
            traveltime="0.02" CO_perVeh="0.382327" CO2_perVeh="41.413478" HC_perVeh="0.002678" PMx_perVeh="0.000590" NOx_perVeh="0.015702" fuel_perVeh="0.017802" electricity_perVeh="0"/>
        <edge id=":1110673446_0" sampledSeconds="1329.02" CO_abs="14784.518175" CO2_abs="1171921.996027" HC_abs="95.143459" PMx_abs="21.759578" NOx_abs="481.651206" fuel_abs="503.755184" electricity_abs="0"
            CO_normed="20721.118676" CO2_normed="1642497.541734" HC_normed="133.347526" PMx_normed="30.496956" NOx_normed="675.054248" fuel_normed="706.033895" electricity_normed="0"
            traveltime="0.02" CO_perVeh="0.253697" CO2_perVeh="20.109758" HC_perVeh="0.001633" PMx_perVeh="0.000373" NOx_perVeh="0.008265" fuel_perVeh="0.008644" electricity_perVeh="0"/>
        <edge id=":1110673451_0" sampledSeconds="36.86" CO_abs="230.090096" CO2_abs="18620.752932" HC_abs="1.464844" PMx_abs="0.210873" NOx_abs="6.830130" fuel_abs="8.004400" electricity_abs="0"
            CO_normed="358.312070" CO2_normed="28997.512936" HC_normed="2.281155" PMx_normed="0.328385" NOx_normed="10.636347" fuel_normed="12.465000" electricity_normed="0"
            traveltime="0.03" CO_perVeh="0.169526" CO2_perVeh="13.719378" HC_perVeh="0.001079" PMx_perVeh="0.000155" NOx_perVeh="0.005032" fuel_perVeh="0.005897" electricity_perVeh="0"/>
        <edge id=":1110673464_0" sampledSeconds="1029.36" CO_abs="3216.068930" CO2_abs="245629.614400" HC_abs="20.186602" PMx_abs="3.202891" NOx_abs="93.016023" fuel_abs="105.586922" electricity_abs="0"
            CO_normed="95.767451" CO2_normed="7314.309058" HC_normed="0.601113" PMx_normed="0.095375" NOx_normed="2.769812" fuel_normed="3.144146" electricity_normed="0"
            traveltime="1.22" CO_perVeh="3.813808" CO2_perVeh="291.282346" HC_perVeh="0.023938" PMx_perVeh="0.003798" NOx_perVeh="0.110304" fuel_perVeh="0.125211" electricity_perVeh="0"/>
        <edge id=":1110673464_1" sampledSeconds="2603.82" CO_abs="63846.184472" CO2_abs="7854113.392037" HC_abs="477.830667" PMx_abs="139.820781" NOx_abs="2975.614303" fuel_abs="3376.121704" electricity_abs="0"
            CO_normed="1862.937328" CO2_normed="229171.424073" HC_normed="13.942393" PMx_normed="4.079764" NOx_normed="86.824029" fuel_normed="98.510243" electricity_normed="0"
            traveltime="0.72" CO_perVeh="17.600285" CO2_perVeh="2165.119725" HC_perVeh="0.131722" PMx_perVeh="0.038544" NOx_perVeh="0.820279" fuel_perVeh="0.930685" electricity_perVeh="0"/>
        <edge id=":1110673479_0" sampledSeconds="134.75" CO_abs="6594.839435" CO2_abs="452722.500235" HC_abs="40.657480" PMx_abs="7.891330" NOx_abs="185.008843" fuel_abs="194.605824" electricity_abs="0"
            CO_normed="9242.942446" CO2_normed="634509.460735" HC_normed="56.983153" PMx_normed="11.060027" NOx_normed="259.297608" fuel_normed="272.748177" electricity_normed="0"
            traveltime="0.03" CO_perVeh="1.394209" CO2_perVeh="95.709630" HC_perVeh="0.008595" PMx_perVeh="0.001668" NOx_perVeh="0.039113" fuel_perVeh="0.041141" electricity_perVeh="0"/>
        <edge id=":1110673511_0" sampledSeconds="63.65" CO_abs="950.962694" CO2_abs="105712.988376" HC_abs="6.753221" PMx_abs="1.414703" NOx_abs="39.545982" fuel_abs="45.441683" electricity_abs="0"
            CO_normed="1332.813867" CO2_normed="148161.161004" HC_normed="9.464921" PMx_normed="1.982766" NOx_normed="55.425343" fuel_normed="63.688414" electricity_normed="0"
            traveltime="0.02" CO_perVeh="0.364470" CO2_perVeh="40.515997" HC_perVeh="0.002588" PMx_perVeh="0.000542" NOx_perVeh="0.015157" fuel_perVeh="0.017416" electricity_perVeh="0"/>
        <edge id=":1110673517_0" sampledSeconds="182.54" CO_abs="8217.543184" CO2_abs="583721.644628" HC_abs="51.101328" PMx_abs="10.013579" NOx_abs="237.140676" fuel_abs="250.916730" electricity_abs="0"
            CO_normed="11517.229410" CO2_normed="818110.223726" HC_normed="71.620643" PMx_normed="14.034448" NOx_normed="332.362545" fuel_normed="351.670259" electricity_normed="0"
            traveltime="0.03" CO_perVeh="1.258172" CO2_perVeh="89.372509" HC_perVeh="0.007824" PMx_perVeh="0.001533" NOx_perVeh="0.036308" fuel_perVeh="0.038417" electricity_perVeh="0"/>
        <edge id=":1110673534_0" sampledSeconds="739.57" CO_abs="5613.926564" CO2_abs="466532.403997" HC_abs="36.223445" PMx_abs="6.328965" NOx_abs="177.673007" fuel_abs="200.543986" electricity_abs="0"
            CO_normed="152.483569" CO2_normed="12671.794897" HC_normed="0.983889" PMx_normed="0.171905" NOx_normed="4.825894" fuel_normed="5.447108" electricity_normed="0"
            traveltime="1.46" CO_perVeh="11.071592" CO2_perVeh="920.079092" HC_perVeh="0.071439" PMx_perVeh="0.012482" NOx_perVeh="0.350401" fuel_perVeh="0.395506" electricity_perVeh="0"/>
        <edge id=":1110673534_1" sampledSeconds="199.46" CO_abs="3168.187805" CO2_abs="397746.404567" HC_abs="23.481873" PMx_abs="5.480741" NOx_abs="148.586829" fuel_abs="170.974398" electricity_abs="0"
            CO_normed="83.674886" CO2_normed="10504.865020" HC_normed="0.620179" PMx_normed="0.144752" NOx_normed="3.924321" fuel_normed="4.515598" electricity_normed="0"
            traveltime="1.22" CO_perVeh="19.366135" CO2_perVeh="2431.298623" HC_perVeh="0.143537" PMx_perVeh="0.033502" NOx_perVeh="0.908265" fuel_perVeh="1.045113" electricity_perVeh="0"/>
        <edge id=":1110673549_0" sampledSeconds="652.82" CO_abs="1195.424885" CO2_abs="100140.086109" HC_abs="7.779006" PMx_abs="1.570890" NOx_abs="39.103693" fuel_abs="43.046006" electricity_abs="0"
            CO_normed="31.453776" CO2_normed="2634.865572" HC_normed="0.204680" PMx_normed="0.041333" NOx_normed="1.028888" fuel_normed="1.132618" electricity_normed="0"
            traveltime="1.30" CO_perVeh="2.375024" CO2_perVeh="198.954473" HC_perVeh="0.015455" PMx_perVeh="0.003121" NOx_perVeh="0.077690" fuel_perVeh="0.085522" electricity_perVeh="0"/>
        <edge id=":1110673549_1" sampledSeconds="3199.33" CO_abs="68426.051102" CO2_abs="8949669.394074" HC_abs="525.226467" PMx_abs="157.417590" NOx_abs="3349.045794" fuel_abs="3847.053095" electricity_abs="0"
            CO_normed="1741.561084" CO2_normed="227784.530630" HC_normed="13.367920" PMx_normed="4.006549" NOx_normed="85.238995" fuel_normed="97.914140" electricity_normed="0"
            traveltime="0.81" CO_perVeh="17.259981" CO2_perVeh="2257.489984" HC_perVeh="0.132485" PMx_perVeh="0.039707" NOx_perVeh="0.844773" fuel_perVeh="0.970392" electricity_perVeh="0"/>
        <edge id=":1110673556_0" sampledSeconds="462.68" CO_abs="56397.984307" CO2_abs="2727485.412624" HC_abs="321.565305" PMx_abs="54.946951" NOx_abs="1175.075661" fuel_abs="1172.429656" electricity_abs="0"
            CO_normed="1100.382272" CO2_normed="53216.025949" HC_normed="6.274068" PMx_normed="1.072071" NOx_normed="22.926926" fuel_normed="22.875300" electricity_normed="0"
            traveltime="2.73" CO_perVeh="332.460695" CO2_perVeh="16078.264256" HC_perVeh="1.895597" PMx_perVeh="0.323907" NOx_perVeh="6.926958" fuel_perVeh="6.911360" electricity_perVeh="0"/>
        <edge id=":1110673556_2" sampledSeconds="175.96" CO_abs="17857.246296" CO2_abs="764700.865449" HC_abs="99.310264" PMx_abs="14.978898" NOx_abs="327.605003" fuel_abs="328.714596" electricity_abs="0"
            CO_normed="364.303861" CO2_normed="15600.584393" HC_normed="2.026019" PMx_normed="0.305583" NOx_normed="6.683436" fuel_normed="6.706073" electricity_normed="0"
            traveltime="3.04" CO_perVeh="308.777306" CO2_perVeh="13222.770687" HC_perVeh="1.717216" PMx_perVeh="0.259007" NOx_perVeh="5.664759" fuel_perVeh="5.683945" electricity_perVeh="0"/>
        <edge id=":1110673556_3" sampledSeconds="354.20" CO_abs="34864.793057" CO2_abs="1210415.472400" HC_abs="187.081008" PMx_abs="24.033363" NOx_abs="522.209954" fuel_abs="520.314630" electricity_abs="0"
            CO_normed="1618.028516" CO2_normed="56173.766685" HC_normed="8.682180" PMx_normed="1.115356" NOx_normed="24.235067" fuel_normed="24.147108" electricity_normed="0"
            traveltime="1.83" CO_perVeh="180.102236" CO2_perVeh="6252.683986" HC_perVeh="0.966411" PMx_perVeh="0.124150" NOx_perVeh="2.697598" fuel_perVeh="2.687807" electricity_perVeh="0"/>
        <edge id=":1110673556_4" sampledSeconds="73.83" CO_abs="8406.578118" CO2_abs="324602.183328" HC_abs="45.932386" PMx_abs="6.578447" NOx_abs="140.729898" fuel_abs="139.533960" electricity_abs="0"
            CO_normed="238.344634" CO2_normed="9203.172512" HC_normed="1.302282" PMx_normed="0.186513" NOx_normed="3.989996" fuel_normed="3.956089" electricity_normed="0"
            traveltime="2.54" CO_perVeh="289.417665" CO2_perVeh="11175.249277" HC_perVeh="1.581338" PMx_perVeh="0.226480" NOx_perVeh="4.844982" fuel_perVeh="4.803809" electricity_perVeh="0"/>
        <edge id=":1110673556_5" sampledSeconds="22.57" CO_abs="1522.327159" CO2_abs="69058.175913" HC_abs="8.543592" PMx_abs="1.268602" NOx_abs="29.051685" fuel_abs="29.685423" electricity_abs="0"
            CO_normed="60.158035" CO2_normed="2728.982509" HC_normed="0.337618" PMx_normed="0.050132" NOx_normed="1.148040" fuel_normed="1.173083" electricity_normed="0"
            traveltime="1.56" CO_perVeh="105.247310" CO2_perVeh="4774.392409" HC_perVeh="0.590668" PMx_perVeh="0.087706" NOx_perVeh="2.008512" fuel_perVeh="2.052326" electricity_perVeh="0"/>
        <edge id=":1110673556_6" sampledSeconds="528.57" CO_abs="60972.828528" CO2_abs="3015127.886554" HC_abs="349.303503" PMx_abs="60.876569" NOx_abs="1299.256318" fuel_abs="1296.073572" electricity_abs="0"
            CO_normed="1219.637890" CO2_normed="60311.524044" HC_normed="6.987109" PMx_normed="1.217712" NOx_normed="25.988990" fuel_normed="25.925326" electricity_normed="0"
            traveltime="2.57" CO_perVeh="296.036714" CO2_perVeh="14639.119977" HC_perVeh="1.695947" PMx_perVeh="0.295569" NOx_perVeh="6.308180" fuel_perVeh="6.292727" electricity_perVeh="0"/>
        <edge id=":1110673561_0" sampledSeconds="166.60" CO_abs="15832.964721" CO2_abs="1118999.955648" HC_abs="99.018065" PMx_abs="22.578184" NOx_abs="473.682160" fuel_abs="481.004952" electricity_abs="0"
            CO_normed="397.917996" CO2_normed="28122.984379" HC_normed="2.488547" PMx_normed="0.567441" NOx_normed="11.904698" fuel_normed="12.088736" electricity_normed="0"
            traveltime="1.24" CO_perVeh="117.853770" CO2_perVeh="8329.353740" HC_perVeh="0.737048" PMx_perVeh="0.168062" NOx_perVeh="3.525886" fuel_perVeh="3.580394" electricity_perVeh="0"/>
        <edge id=":1110673561_1" sampledSeconds="5258.40" CO_abs="491869.679646" CO2_abs="34027811.211235" HC_abs="3062.985629" PMx_abs="711.650896" NOx_abs="14551.940083" fuel_abs="14626.912494" electricity_abs="0"
            CO_normed="12052.025611" CO2_normed="833765.668384" HC_normed="75.050736" PMx_normed="17.437210" NOx_normed="356.558580" fuel_normed="358.395590" electricity_normed="0"
            traveltime="1.19" CO_perVeh="111.621271" CO2_perVeh="7722.020045" HC_perVeh="0.695091" PMx_perVeh="0.161497" NOx_perVeh="3.302310" fuel_perVeh="3.319323" electricity_perVeh="0"/>
        <edge id=":1110673562_0" sampledSeconds="301.25" CO_abs="6713.440711" CO2_abs="521205.744801" HC_abs="42.442169" PMx_abs="6.998246" NOx_abs="198.671187" fuel_abs="224.046333" electricity_abs="0"
            CO_normed="10454.630088" CO2_normed="811657.314959" HC_normed="66.093855" PMx_normed="10.898148" NOx_normed="309.384391" fuel_normed="348.900308" electricity_normed="0"
            traveltime="0.03" CO_perVeh="0.601803" CO2_perVeh="46.721687" HC_perVeh="0.003805" PMx_perVeh="0.000627" NOx_perVeh="0.017809" fuel_perVeh="0.020084" electricity_perVeh="0"/>
        <edge id=":1110673564_0" sampledSeconds="27.65" CO_abs="506.699403" CO2_abs="59339.898142" HC_abs="3.663725" PMx_abs="0.832188" NOx_abs="22.335951" fuel_abs="25.507719" electricity_abs="0"
            CO_normed="2130.481024" CO2_normed="249502.024425" HC_normed="15.404590" PMx_normed="3.499040" NOx_normed="93.914301" fuel_normed="107.250394" electricity_normed="0"
            traveltime="7.809287e-03" CO_perVeh="0.143115" CO2_perVeh="16.760316" HC_perVeh="0.001035" PMx_perVeh="0.000235" NOx_perVeh="0.006309" fuel_perVeh="0.007205" electricity_perVeh="0"/>
        <edge id=":1110673588_0" sampledSeconds="62.73" CO_abs="1073.977867" CO2_abs="124097.422251" HC_abs="7.721919" PMx_abs="1.633125" NOx_abs="46.191835" fuel_abs="53.344408" electricity_abs="0"
            CO_normed="1806.269714" CO2_normed="208713.253961" HC_normed="12.987109" PMx_normed="2.746672" NOx_normed="77.687739" fuel_normed="89.717294" electricity_normed="0"
            traveltime="0.02" CO_perVeh="0.346444" CO2_perVeh="40.031427" HC_perVeh="0.002491" PMx_perVeh="0.000527" NOx_perVeh="0.014901" fuel_perVeh="0.017208" electricity_perVeh="0"/>
        <edge id=":1110673601_0" sampledSeconds="28.73" CO_abs="499.773004" CO2_abs="56978.564802" HC_abs="3.571325" PMx_abs="0.797080" NOx_abs="21.438393" fuel_abs="24.492694" electricity_abs="0"
            CO_normed="750.485039" CO2_normed="85561.965366" HC_normed="5.362887" PMx_normed="1.196936" NOx_normed="32.193002" fuel_normed="36.779498" electricity_normed="0"
            traveltime="0.02" CO_perVeh="0.381101" CO2_perVeh="43.448891" HC_perVeh="0.002723" PMx_perVeh="0.000608" NOx_perVeh="0.016348" fuel_perVeh="0.018677" electricity_perVeh="0"/>
        <edge id=":1110673617_0" sampledSeconds="853.10" CO_abs="31670.468479" CO2_abs="3221041.025944" HC_abs="221.318328" PMx_abs="60.631428" NOx_abs="1262.070418" fuel_abs="1384.574798" electricity_abs="0"
            CO_normed="44387.482101" CO2_normed="4514423.301953" HC_normed="310.186865" PMx_normed="84.977475" NOx_normed="1768.844314" fuel_normed="1940.539310" electricity_normed="0"
            traveltime="0.02" CO_perVeh="0.561871" CO2_perVeh="57.144977" HC_perVeh="0.003926" PMx_perVeh="0.001076" NOx_perVeh="0.022391" fuel_perVeh="0.024564" electricity_perVeh="0"/>
        <edge id=":1110673621_0" sampledSeconds="42.75" CO_abs="1120.459348" CO2_abs="106270.281526" HC_abs="7.584237" PMx_abs="1.663148" NOx_abs="41.483546" fuel_abs="45.680997" electricity_abs="0"
            CO_normed="1884.444594" CO2_normed="178730.676709" HC_normed="12.755549" PMx_normed="2.797165" NOx_normed="69.769104" fuel_normed="76.828586" electricity_normed="0"
            traveltime="0.02" CO_perVeh="0.528519" CO2_perVeh="50.127491" HC_perVeh="0.003577" PMx_perVeh="0.000785" NOx_perVeh="0.019568" fuel_perVeh="0.021548" electricity_perVeh="0"/>
        <edge id=":1110673630_0" sampledSeconds="285.97" CO_abs="1204.805024" CO2_abs="109306.549771" HC_abs="7.973951" PMx_abs="1.404842" NOx_abs="41.001724" fuel_abs="46.986637" electricity_abs="0"
            CO_normed="36.132335" CO2_normed="3278.124546" HC_normed="0.239140" PMx_normed="0.042131" NOx_normed="1.229650" fuel_normed="1.409138" electricity_normed="0"
            traveltime="1.29" CO_perVeh="5.421162" CO2_perVeh="491.837727" HC_perVeh="0.035880" PMx_perVeh="0.006321" NOx_perVeh="0.184492" fuel_perVeh="0.211422" electricity_perVeh="0"/>
        <edge id=":1110673630_1" sampledSeconds="339.29" CO_abs="1334.463150" CO2_abs="110263.278346" HC_abs="8.582870" PMx_abs="1.448776" NOx_abs="41.729642" fuel_abs="47.397933" electricity_abs="0"
            CO_normed="48.790585" CO2_normed="4031.441273" HC_normed="0.313807" PMx_normed="0.052970" NOx_normed="1.525717" fuel_normed="1.732961" electricity_normed="0"
            traveltime="1.08" CO_perVeh="4.254006" CO2_perVeh="351.497630" HC_perVeh="0.027361" PMx_perVeh="0.004618" NOx_perVeh="0.133026" fuel_perVeh="0.151095" electricity_perVeh="0"/>
        <edge id=":1110673650_0" sampledSeconds="200.49" CO_abs="3164.415637" CO2_abs="395543.210680" HC_abs="23.411268" PMx_abs="5.334136" NOx_abs="147.239394" fuel_abs="170.027508" electricity_abs="0"
            CO_normed="4435.060458" CO2_normed="554370.302285" HC_normed="32.811869" PMx_normed="7.476013" NOx_normed="206.362150" fuel_normed="238.300642" electricity_normed="0"
            traveltime="0.02" CO_perVeh="0.365730" CO2_perVeh="45.715271" HC_perVeh="0.002706" PMx_perVeh="0.000616" NOx_perVeh="0.017017" fuel_perVeh="0.019651" electricity_perVeh="0"/>
        <edge id=":1110673655_0" sampledSeconds="20.76" CO_abs="201.599220" CO2_abs="29478.814364" HC_abs="1.592478" PMx_abs="0.357392" NOx_abs="10.659792" fuel_abs="12.671751" electricity_abs="0"
            CO_normed="282.549712" CO2_normed="41315.787475" HC_normed="2.231925" PMx_normed="0.500899" NOx_normed="14.940143" fuel_normed="17.759987" electricity_normed="0"
            traveltime="0.02" CO_perVeh="0.230311" CO2_perVeh="33.677244" HC_perVeh="0.001819" PMx_perVeh="0.000408" NOx_perVeh="0.012178" fuel_perVeh="0.014476" electricity_perVeh="0"/>
        <edge id=":1110673663_0" sampledSeconds="179.26" CO_abs="3141.819953" CO2_abs="352931.368201" HC_abs="22.450046" PMx_abs="4.898381" NOx_abs="132.987107" fuel_abs="151.710462" electricity_abs="0"
            CO_normed="80.648199" CO2_normed="9059.487698" HC_normed="0.576276" PMx_normed="0.125738" NOx_normed="3.413681" fuel_normed="3.894296" electricity_normed="0"
            traveltime="1.31" CO_perVeh="22.976815" CO2_perVeh="2581.064127" HC_perVeh="0.164182" PMx_perVeh="0.035823" NOx_perVeh="0.972564" fuel_perVeh="1.109492" electricity_perVeh="0"/>
        <edge id=":1110673663_1" sampledSeconds="169.55" CO_abs="2646.472739" CO2_abs="326519.620334" HC_abs="19.509100" PMx_abs="4.466963" NOx_abs="122.015841" fuel_abs="140.357078" electricity_abs="0"
            CO_normed="68.016049" CO2_normed="8391.763981" HC_normed="0.501396" PMx_normed="0.114804" NOx_normed="3.135885" fuel_normed="3.607267" electricity_normed="0"
            traveltime="1.27" CO_perVeh="19.830952" CO2_perVeh="2446.726454" HC_perVeh="0.146189" PMx_perVeh="0.033473" NOx_perVeh="0.914308" fuel_perVeh="1.051745" electricity_perVeh="0"/>