<?xml version="1.0" encoding="UTF-8"?>

<!-- generated on Fri Oct  2 15:28:23 2020 by Eclipse SUMO Version 1.1.0
<configuration xmlns:xsi="http://www.w3.org/2001/XMLSchema-instance" xsi:noNamespaceSchemaLocation="http://sumo.dlr.de/xsd/sumoConfiguration.xsd">

    <input>
        <net-file value="../dataSets/Angeja_Estarreja/angeja_estarreja.net.xml"/>
        <route-files value="../results/angeja_estarreja/cost_PMx-ttime/solution4/angeja_estarreja.rou.xml"/>
        <additional-files value="moreOutputInfo.xml"/>
    </input>

    <output>
        <emission-output.precision value="6"/>
        <tripinfo-output value="../results/angeja_estarreja/cost_PMx-ttime/solution4/angeja_estarreja-tripinfo"/>
    </output>

    <processing>
        <collision.action value="warn"/>
        <time-to-teleport value="-1"/>
    </processing>

    <emissions>
        <device.emissions.probability value="1"/>
    </emissions>

    <gui_only>
        <quit-on-end value="true"/>
        <start value="true"/>
    </gui_only>

</configuration>
-->

<meandata xmlns:xsi="http://www.w3.org/2001/XMLSchema-instance" xsi:noNamespaceSchemaLocation="http://sumo.dlr.de/xsd/meandata_file.xsd">
    <interval begin="0.00" end="19079.00" id="emissions-detector">
        <edge id=":10_0" sampledSeconds="409.50" CO_abs="41393.093197" CO2_abs="2272777.815701" HC_abs="242.425958" PMx_abs="44.681872" NOx_abs="970.514025" fuel_abs="976.967305" electricity_abs="0"
            CO_normed="446.565291" CO2_normed="24519.638611" HC_normed="2.615388" PMx_normed="0.482046" NOx_normed="10.470295" fuel_normed="10.539915" electricity_normed="0"
            traveltime="1.91" CO_perVeh="192.617705" CO2_perVeh="10576.094035" HC_perVeh="1.128100" PMx_perVeh="0.207922" NOx_perVeh="4.516169" fuel_perVeh="4.546198" electricity_perVeh="0"/>
        <edge id=":10_1" sampledSeconds="0.00" CO_abs="0" CO2_abs="0" HC_abs="0" PMx_abs="0" NOx_abs="0" fuel_abs="0" electricity_abs="0"
            CO_normed="0" CO2_normed="0" HC_normed="0" PMx_normed="0" NOx_normed="0" fuel_normed="0" electricity_normed="0"/>
        <edge id=":100_0" sampledSeconds="0.00" CO_abs="0" CO2_abs="0" HC_abs="0" PMx_abs="0" NOx_abs="0" fuel_abs="0" electricity_abs="0"
            CO_normed="0" CO2_normed="0" HC_normed="0" PMx_normed="0" NOx_normed="0" fuel_normed="0" electricity_normed="0"/>
        <edge id=":100_1" sampledSeconds="911.78" CO_abs="21496.089773" CO2_abs="2750034.993072" HC_abs="164.690896" PMx_abs="49.545645" NOx_abs="1024.619820" fuel_abs="1182.114137" electricity_abs="0"
            CO_normed="137.215107" CO2_normed="17554.185491" HC_normed="1.051265" PMx_normed="0.316263" NOx_normed="6.540414" fuel_normed="7.545741" electricity_normed="0"
            traveltime="1.37" CO_perVeh="32.321280" CO2_perVeh="4134.921888" HC_perVeh="0.247627" PMx_perVeh="0.074496" NOx_perVeh="1.540607" fuel_perVeh="1.777414" electricity_perVeh="0"/>
        <edge id=":101_0" sampledSeconds="438.55" CO_abs="10580.134487" CO2_abs="1318652.579052" HC_abs="80.285943" PMx_abs="23.938093" NOx_abs="493.551963" fuel_abs="566.828228" electricity_abs="0"
            CO_normed="244.352071" CO2_normed="30454.763041" HC_normed="1.854233" PMx_normed="0.552859" NOx_normed="11.398763" fuel_normed="13.091105" electricity_normed="0"
            traveltime="0.38" CO_perVeh="9.139862" CO2_perVeh="1139.144586" HC_perVeh="0.069357" PMx_perVeh="0.020679" NOx_perVeh="0.426365" fuel_perVeh="0.489666" electricity_perVeh="0"/>
        <edge id=":102_0" sampledSeconds="341.28" CO_abs="8274.113113" CO2_abs="1033486.667430" HC_abs="62.800692" PMx_abs="18.744187" NOx_abs="386.605230" fuel_abs="444.248504" electricity_abs="0"
            CO_normed="192.745092" CO2_normed="24075.025303" HC_normed="1.462939" PMx_normed="0.436645" NOx_normed="9.005951" fuel_normed="10.348749" electricity_normed="0"
            traveltime="0.38" CO_perVeh="9.102249" CO2_perVeh="1136.925867" HC_perVeh="0.069086" PMx_perVeh="0.020620" NOx_perVeh="0.425300" fuel_perVeh="0.488712" electricity_perVeh="0"/>
        <edge id=":103_0" sampledSeconds="434.27" CO_abs="9859.497948" CO2_abs="1267190.540527" HC_abs="75.692863" PMx_abs="22.804837" NOx_abs="471.767312" fuel_abs="544.707220" electricity_abs="0"
            CO_normed="231.103122" CO2_normed="29702.495221" HC_normed="1.774214" PMx_normed="0.534537" NOx_normed="11.058058" fuel_normed="12.767743" electricity_normed="0"
            traveltime="0.37" CO_perVeh="8.470901" CO2_perVeh="1088.721381" HC_perVeh="0.065032" PMx_perVeh="0.019593" NOx_perVeh="0.405324" fuel_perVeh="0.467991" electricity_perVeh="0"/>
        <edge id=":104_0" sampledSeconds="340.87" CO_abs="8699.459856" CO2_abs="1064937.411683" HC_abs="65.526563" PMx_abs="19.430845" NOx_abs="399.652902" fuel_abs="457.767654" electricity_abs="0"
            CO_normed="202.904024" CO2_normed="24838.333581" HC_normed="1.528325" PMx_normed="0.453200" NOx_normed="9.321404" fuel_normed="10.676858" electricity_normed="0"
            traveltime="0.37" CO_perVeh="9.565797" CO2_perVeh="1170.989390" HC_perVeh="0.072052" PMx_perVeh="0.021366" NOx_perVeh="0.439452" fuel_perVeh="0.503355" electricity_perVeh="0"/>
        <edge id=":105_0" sampledSeconds="168.58" CO_abs="3973.559494" CO2_abs="501167.857907" HC_abs="30.292045" PMx_abs="9.068407" NOx_abs="187.177402" fuel_abs="215.429088" electricity_abs="0"
            CO_normed="3408.034102" CO2_normed="429840.588287" HC_normed="25.980817" PMx_normed="7.777772" NOx_normed="160.537918" fuel_normed="184.768765" electricity_normed="0"
            traveltime="0.01" CO_perVeh="0.240290" CO2_perVeh="30.306684" HC_perVeh="0.001832" PMx_perVeh="0.000548" NOx_perVeh="0.011319" fuel_perVeh="0.013027" electricity_perVeh="0"/>
        <edge id=":106_0" sampledSeconds="134.38" CO_abs="3426.065920" CO2_abs="422913.215942" HC_abs="25.871680" PMx_abs="7.696131" NOx_abs="158.443241" fuel_abs="181.790974" electricity_abs="0"
            CO_normed="2085.359399" CO2_normed="257416.544350" HC_normed="15.747435" PMx_normed="4.684440" NOx_normed="96.440381" fuel_normed="110.651553" electricity_normed="0"
            traveltime="0.01" CO_perVeh="0.366316" CO2_perVeh="45.217966" HC_perVeh="0.002766" PMx_perVeh="0.000823" NOx_perVeh="0.016941" fuel_perVeh="0.019437" electricity_perVeh="0"/>
        <edge id=":107_0" sampledSeconds="438.44" CO_abs="10848.883190" CO2_abs="1374935.942845" HC_abs="82.755443" PMx_abs="24.824231" NOx_abs="513.093007" fuel_abs="591.021960" electricity_abs="0"
            CO_normed="250.558921" CO2_normed="31754.647889" HC_normed="1.911267" PMx_normed="0.573325" NOx_normed="11.850070" fuel_normed="13.649868" electricity_normed="0"
            traveltime="0.38" CO_perVeh="9.372031" CO2_perVeh="1187.766658" HC_perVeh="0.071490" PMx_perVeh="0.021445" NOx_perVeh="0.443246" fuel_perVeh="0.510566" electricity_perVeh="0"/>
        <edge id=":108_0" sampledSeconds="94.52" CO_abs="7716.675737" CO2_abs="560767.138775" HC_abs="48.625868" PMx_abs="11.279629" NOx_abs="236.649580" fuel_abs="241.047086" electricity_abs="0"
            CO_normed="121.035151" CO2_normed="8795.566597" HC_normed="0.762691" PMx_normed="0.176920" NOx_normed="3.711821" fuel_normed="3.780795" electricity_normed="0"
            traveltime="0.86" CO_perVeh="70.250673" CO2_perVeh="5105.082824" HC_perVeh="0.442678" PMx_perVeh="0.102687" NOx_perVeh="2.154398" fuel_perVeh="2.194432" electricity_perVeh="0"/>
        <edge id=":108_1" sampledSeconds="403.07" CO_abs="9599.820367" CO2_abs="1162654.806113" HC_abs="71.989106" PMx_abs="21.267023" NOx_abs="437.307176" fuel_abs="499.771808" electricity_abs="0"
            CO_normed="140.417194" CO2_normed="17006.227075" HC_normed="1.052989" PMx_normed="0.311074" NOx_normed="6.396520" fuel_normed="7.310195" electricity_normed="0"
            traveltime="0.60" CO_perVeh="14.268551" CO2_perVeh="1728.094789" HC_perVeh="0.107000" PMx_perVeh="0.031610" NOx_perVeh="0.649985" fuel_perVeh="0.742828" electricity_perVeh="0"/>
        <edge id=":109_0" sampledSeconds="305.64" CO_abs="106.778492" CO2_abs="19554.330605" HC_abs="0.930575" PMx_abs="0.231096" NOx_abs="6.983765" fuel_abs="8.405607" electricity_abs="0"
            CO_normed="1.605414" CO2_normed="293.999181" HC_normed="0.013991" PMx_normed="0.003475" NOx_normed="0.105001" fuel_normed="0.126378" electricity_normed="0"
            traveltime="0.85" CO_perVeh="0.296784" CO2_perVeh="54.350065" HC_perVeh="0.002586" PMx_perVeh="0.000642" NOx_perVeh="0.019411" fuel_perVeh="0.023363" electricity_perVeh="0"/>
        <edge id=":109_1" sampledSeconds="524.02" CO_abs="13509.974395" CO2_abs="1687857.587622" HC_abs="102.551103" PMx_abs="30.610287" NOx_abs="631.383677" fuel_abs="725.532541" electricity_abs="0"
            CO_normed="132.494043" CO2_normed="16553.034700" HC_normed="1.005732" PMx_normed="0.300199" NOx_normed="6.192060" fuel_normed="7.115390" electricity_normed="0"
            traveltime="0.89" CO_perVeh="23.004269" CO2_perVeh="2874.019517" HC_perVeh="0.174620" PMx_perVeh="0.052122" NOx_perVeh="1.075096" fuel_perVeh="1.235409" electricity_perVeh="0"/>
        <edge id=":11_0" sampledSeconds="291.21" CO_abs="17483.500584" CO2_abs="1262800.425703" HC_abs="109.434329" PMx_abs="22.664205" NOx_abs="518.644332" fuel_abs="542.821683" electricity_abs="0"
            CO_normed="180.764197" CO2_normed="13056.258606" HC_normed="1.131456" PMx_normed="0.234328" NOx_normed="5.362332" fuel_normed="5.612304" electricity_normed="0"
            traveltime="1.59" CO_perVeh="95.674479" CO2_perVeh="6910.388045" HC_perVeh="0.598854" PMx_perVeh="0.124025" NOx_perVeh="2.838163" fuel_perVeh="2.970468" electricity_perVeh="0"/>
        <edge id=":11_1" sampledSeconds="50.44" CO_abs="1192.703283" CO2_abs="105748.998316" HC_abs="7.854030" PMx_abs="1.449863" NOx_abs="40.288195" fuel_abs="45.457265" electricity_abs="0"
            CO_normed="12.643267" CO2_normed="1120.993651" HC_normed="0.083257" PMx_normed="0.015369" NOx_normed="0.427076" fuel_normed="0.481870" electricity_normed="0"
            traveltime="1.66" CO_perVeh="39.227861" CO2_perVeh="3478.071268" HC_perVeh="0.258318" PMx_perVeh="0.047686" NOx_perVeh="1.325074" fuel_perVeh="1.495084" electricity_perVeh="0"/>
        <edge id=":110_0" sampledSeconds="94.60" CO_abs="1.052658" CO2_abs="77.075136" HC_abs="0.006457" PMx_abs="0.000576" NOx_abs="0.026493" fuel_abs="0.033132" electricity_abs="0"
            CO_normed="0.013651" CO2_normed="0.999535" HC_normed="0.000084" PMx_normed="0.000007" NOx_normed="0.000344" fuel_normed="0.000430" electricity_normed="0"
            traveltime="0.93" CO_perVeh="0.010306" CO2_perVeh="0.754622" HC_perVeh="0.000063" PMx_perVeh="0.000006" NOx_perVeh="0.000259" fuel_perVeh="0.000324" electricity_perVeh="0"/>
        <edge id=":110_1" sampledSeconds="443.86" CO_abs="10929.912973" CO2_abs="1367314.419613" HC_abs="82.985811" PMx_abs="24.785583" NOx_abs="511.308819" fuel_abs="587.745749" electricity_abs="0"
            CO_normed="140.296314" CO2_normed="17550.841812" HC_normed="1.065206" PMx_normed="0.318148" NOx_normed="6.563158" fuel_normed="7.544302" electricity_normed="0"
            traveltime="0.68" CO_perVeh="16.789947" CO2_perVeh="2100.395215" HC_perVeh="0.127478" PMx_perVeh="0.038074" NOx_perVeh="0.785445" fuel_perVeh="0.902864" electricity_perVeh="0"/>
        <edge id=":111_0" sampledSeconds="341.30" CO_abs="7696.820590" CO2_abs="976235.605062" HC_abs="58.812124" PMx_abs="17.633503" NOx_abs="364.390340" fuel_abs="419.638949" electricity_abs="0"
            CO_normed="177.760883" CO2_normed="22546.517936" HC_normed="1.358287" PMx_normed="0.407252" NOx_normed="8.415728" fuel_normed="9.691715" electricity_normed="0"
            traveltime="0.38" CO_perVeh="8.553813" CO2_perVeh="1084.933249" HC_perVeh="0.065360" PMx_perVeh="0.019597" NOx_perVeh="0.404963" fuel_perVeh="0.466363" electricity_perVeh="0"/>
        <edge id=":114_0" sampledSeconds="106.59" CO_abs="11141.441232" CO2_abs="787484.914457" HC_abs="69.730745" PMx_abs="16.202923" NOx_abs="334.949832" fuel_abs="338.501937" electricity_abs="0"
            CO_normed="148.047106" CO2_normed="10464.073737" HC_normed="0.926580" PMx_normed="0.215304" NOx_normed="4.450802" fuel_normed="4.498003" electricity_normed="0"
            traveltime="0.99" CO_perVeh="103.070762" CO2_perVeh="7285.114033" HC_perVeh="0.645087" PMx_perVeh="0.149895" NOx_perVeh="3.098660" fuel_perVeh="3.131521" electricity_perVeh="0"/>
        <edge id=":114_1" sampledSeconds="416.36" CO_abs="10251.210649" CO2_abs="1302109.430443" HC_abs="78.254803" PMx_abs="23.485491" NOx_abs="485.884393" fuel_abs="559.717182" electricity_abs="0"
            CO_normed="135.359837" CO2_normed="17193.415091" HC_normed="1.033298" PMx_normed="0.310109" NOx_normed="6.415753" fuel_normed="7.390661" electricity_normed="0"
            traveltime="0.66" CO_perVeh="16.335025" CO2_perVeh="2074.875936" HC_perVeh="0.124697" PMx_perVeh="0.037423" NOx_perVeh="0.774244" fuel_perVeh="0.891894" electricity_perVeh="0"/>
        <edge id=":115_0" sampledSeconds="79.69" CO_abs="99.920921" CO2_abs="13992.253235" HC_abs="0.759823" PMx_abs="0.175599" NOx_abs="5.107304" fuel_abs="6.014695" electricity_abs="0"
            CO_normed="2.257963" CO2_normed="316.189959" HC_normed="0.017170" PMx_normed="0.003968" NOx_normed="0.115412" fuel_normed="0.135917" electricity_normed="0"
            traveltime="0.63" CO_perVeh="0.786297" CO2_perVeh="110.107732" HC_perVeh="0.005979" PMx_perVeh="0.001382" NOx_perVeh="0.040190" fuel_perVeh="0.047331" electricity_perVeh="0"/>
        <edge id=":115_1" sampledSeconds="72.15" CO_abs="1136.103929" CO2_abs="178943.693315" HC_abs="9.117407" PMx_abs="2.630410" NOx_abs="66.118675" fuel_abs="76.919994" electricity_abs="0"
            CO_normed="22.927323" CO2_normed="3611.201138" HC_normed="0.183995" PMx_normed="0.053083" NOx_normed="1.334318" fuel_normed="1.552296" electricity_normed="0"
            traveltime="0.59" CO_perVeh="9.300912" CO2_perVeh="1464.953623" HC_perVeh="0.074641" PMx_perVeh="0.021534" NOx_perVeh="0.541292" fuel_perVeh="0.629719" electricity_perVeh="0"/>
        <edge id=":116_0" sampledSeconds="74.69" CO_abs="110.493038" CO2_abs="11907.857769" HC_abs="0.779889" PMx_abs="0.175461" NOx_abs="4.560627" fuel_abs="5.118678" electricity_abs="0"
            CO_normed="2.787277" CO2_normed="300.385478" HC_normed="0.019673" PMx_normed="0.004426" NOx_normed="0.115046" fuel_normed="0.129123" electricity_normed="0"
            traveltime="0.56" CO_perVeh="0.834305" CO2_perVeh="89.913263" HC_perVeh="0.005889" PMx_perVeh="0.001325" NOx_perVeh="0.034436" fuel_perVeh="0.038650" electricity_perVeh="0"/>
        <edge id=":117_0" sampledSeconds="238.46" CO_abs="13162.446338" CO2_abs="1095204.539680" HC_abs="85.976226" PMx_abs="20.100993" NOx_abs="447.039967" fuel_abs="470.777859" electricity_abs="0"
            CO_normed="297.438396" CO2_normed="24748.885851" HC_normed="1.942848" PMx_normed="0.454232" NOx_normed="10.101986" fuel_normed="10.638403" electricity_normed="0"
            traveltime="0.60" CO_perVeh="33.367257" CO2_perVeh="2776.381411" HC_perVeh="0.217953" PMx_perVeh="0.050957" NOx_perVeh="1.133262" fuel_perVeh="1.193438" electricity_perVeh="0"/>
        <edge id=":117_1" sampledSeconds="76.36" CO_abs="4511.712585" CO2_abs="370866.564207" HC_abs="29.346325" PMx_abs="6.830905" NOx_abs="151.649881" fuel_abs="159.418405" electricity_abs="0"
            CO_normed="96.084779" CO2_normed="7898.249557" HC_normed="0.624981" PMx_normed="0.145476" NOx_normed="3.229648" fuel_normed="3.395093" electricity_normed="0"
            traveltime="0.65" CO_perVeh="38.144006" CO2_perVeh="3135.469297" HC_perVeh="0.248107" PMx_perVeh="0.057751" NOx_perVeh="1.282115" fuel_perVeh="1.347793" electricity_perVeh="0"/>
        <edge id=":118_0" sampledSeconds="898.65" CO_abs="12862.992038" CO2_abs="2041143.470385" HC_abs="104.305705" PMx_abs="29.979123" NOx_abs="754.419622" fuel_abs="877.397530" electricity_abs="0"
            CO_normed="39.027285" CO2_normed="6192.982716" HC_normed="0.316471" PMx_normed="0.090959" NOx_normed="2.288966" fuel_normed="2.662090" electricity_normed="0"
            traveltime="3.92" CO_perVeh="56.117528" CO2_perVeh="8904.920810" HC_perVeh="0.455056" PMx_perVeh="0.130790" NOx_perVeh="3.291315" fuel_perVeh="3.827833" electricity_perVeh="0"/>
        <edge id=":118_4" sampledSeconds="282.85" CO_abs="3552.964715" CO2_abs="586644.757447" HC_abs="29.429900" PMx_abs="8.443181" NOx_abs="215.583754" fuel_abs="252.172880" electricity_abs="0"
            CO_normed="10.800803" CO2_normed="1783.365420" HC_normed="0.089465" PMx_normed="0.025667" NOx_normed="0.655362" fuel_normed="0.766591" electricity_normed="0"
            traveltime="3.92" CO_perVeh="49.259679" CO2_perVeh="8133.470110" HC_perVeh="0.408028" PMx_perVeh="0.117060" NOx_perVeh="2.988937" fuel_perVeh="3.496222" electricity_perVeh="0"/>
        <edge id=":118_5" sampledSeconds="238.26" CO_abs="3475.770689" CO2_abs="527883.690463" HC_abs="27.659525" PMx_abs="7.945975" NOx_abs="196.484044" fuel_abs="226.913725" electricity_abs="0"
            CO_normed="10.671008" CO2_normed="1620.662492" HC_normed="0.084918" PMx_normed="0.024395" NOx_normed="0.603228" fuel_normed="0.696651" electricity_normed="0"
            traveltime="3.81" CO_perVeh="55.627826" CO2_perVeh="8448.492419" HC_perVeh="0.442676" PMx_perVeh="0.127171" NOx_perVeh="3.144621" fuel_perVeh="3.631631" electricity_perVeh="0"/>
        <edge id=":119_0" sampledSeconds="139.20" CO_abs="2128.265703" CO2_abs="328865.352599" HC_abs="17.229673" PMx_abs="4.909078" NOx_abs="122.220011" fuel_abs="141.364647" electricity_abs="0"
            CO_normed="45.634161" CO2_normed="7051.513500" HC_normed="0.369438" PMx_normed="0.105260" NOx_normed="2.620635" fuel_normed="3.031133" electricity_normed="0"
            traveltime="0.56" CO_perVeh="8.532066" CO2_perVeh="1318.397842" HC_perVeh="0.069073" PMx_perVeh="0.019680" NOx_perVeh="0.489971" fuel_perVeh="0.566721" electricity_perVeh="0"/>
        <edge id=":12_0" sampledSeconds="599.05" CO_abs="53464.491372" CO2_abs="3037584.613078" HC_abs="315.531917" PMx_abs="59.234233" NOx_abs="1292.438352" fuel_abs="1305.723447" electricity_abs="0"
            CO_normed="500.902116" CO2_normed="28458.749358" HC_normed="2.956179" PMx_normed="0.554958" NOx_normed="12.108693" fuel_normed="12.233159" electricity_normed="0"
            traveltime="2.12" CO_perVeh="189.001444" CO2_perVeh="10738.115411" HC_perVeh="1.115432" PMx_perVeh="0.209398" NOx_perVeh="4.568878" fuel_perVeh="4.615841" electricity_perVeh="0"/>
        <edge id=":12_1" sampledSeconds="55.66" CO_abs="965.280648" CO2_abs="90200.615221" HC_abs="6.438543" PMx_abs="1.102369" NOx_abs="33.452405" fuel_abs="38.773802" electricity_abs="0"
            CO_normed="9.034622" CO2_normed="844.239882" HC_normed="0.060262" PMx_normed="0.010318" NOx_normed="0.313100" fuel_normed="0.362907" electricity_normed="0"
            traveltime="1.88" CO_perVeh="32.550612" CO2_perVeh="3041.690758" HC_perVeh="0.217117" PMx_perVeh="0.037173" NOx_perVeh="1.128062" fuel_perVeh="1.307507" electricity_perVeh="0"/>
        <edge id=":120_0" sampledSeconds="39.06" CO_abs="583.139139" CO2_abs="87655.262012" HC_abs="4.645220" PMx_abs="1.315753" NOx_abs="32.617460" fuel_abs="37.679113" electricity_abs="0"
            CO_normed="458.466748" CO2_normed="68914.981403" HC_normed="3.652094" PMx_normed="1.034451" NOx_normed="25.644001" fuel_normed="29.623497" electricity_normed="0"
            traveltime="0.02" CO_perVeh="0.224374" CO2_perVeh="33.727075" HC_perVeh="0.001787" PMx_perVeh="0.000506" NOx_perVeh="0.012550" fuel_perVeh="0.014498" electricity_perVeh="0"/>
        <edge id=":121_0" sampledSeconds="373.26" CO_abs="53064.337077" CO2_abs="1418802.821528" HC_abs="274.934274" PMx_abs="30.611524" NOx_abs="627.381384" fuel_abs="609.899712" electricity_abs="0"
            CO_normed="30341.405587" CO2_normed="811250.535254" HC_normed="157.203364" PMx_normed="17.503218" NOx_normed="358.727426" fuel_normed="348.731664" electricity_normed="0"
            traveltime="0.12" CO_perVeh="16.350083" CO2_perVeh="437.158851" HC_perVeh="0.084712" PMx_perVeh="0.009432" NOx_perVeh="0.193308" fuel_perVeh="0.187921" electricity_perVeh="0"/>
        <edge id=":122_0" sampledSeconds="135.09" CO_abs="911.647578" CO2_abs="98554.927231" HC_abs="6.444621" PMx_abs="1.688813" NOx_abs="38.600338" fuel_abs="42.364242" electricity_abs="0"
            CO_normed="20.072111" CO2_normed="2169.923446" HC_normed="0.141894" PMx_normed="0.037183" NOx_normed="0.849879" fuel_normed="0.932751" electricity_normed="0"
            traveltime="0.54" CO_perVeh="3.634562" CO2_perVeh="392.919383" HC_perVeh="0.025693" PMx_perVeh="0.006733" NOx_perVeh="0.153892" fuel_perVeh="0.168898" electricity_perVeh="0"/>
        <edge id=":123_0" sampledSeconds="310.27" CO_abs="40326.048372" CO2_abs="2475403.944803" HC_abs="243.099918" PMx_abs="50.955235" NOx_abs="1062.816101" fuel_abs="1064.060744" electricity_abs="0"
            CO_normed="153.781067" CO2_normed="9439.810595" HC_normed="0.927048" PMx_normed="0.194315" NOx_normed="4.052988" fuel_normed="4.057734" electricity_normed="0"
            traveltime="4.23" CO_perVeh="549.162598" CO2_perVeh="33710.202589" HC_perVeh="3.310550" PMx_perVeh="0.693912" NOx_perVeh="14.473495" fuel_perVeh="14.490444" electricity_perVeh="0"/>
        <edge id=":123_1" sampledSeconds="0.00" CO_abs="0" CO2_abs="0" HC_abs="0" PMx_abs="0" NOx_abs="0" fuel_abs="0" electricity_abs="0"
            CO_normed="0" CO2_normed="0" HC_normed="0" PMx_normed="0" NOx_normed="0" fuel_normed="0" electricity_normed="0"/>
        <edge id=":123_2" sampledSeconds="256.66" CO_abs="34283.249328" CO2_abs="2145046.343696" HC_abs="207.701847" PMx_abs="44.345113" NOx_abs="921.484499" fuel_abs="922.054630" electricity_abs="0"
            CO_normed="131.990954" CO2_normed="8258.456200" HC_normed="0.799655" PMx_normed="0.170729" NOx_normed="3.547727" fuel_normed="3.549922" electricity_normed="0"
            traveltime="4.03" CO_perVeh="538.864317" CO2_perVeh="33715.851198" HC_perVeh="3.264659" PMx_perVeh="0.697017" NOx_perVeh="14.483899" fuel_perVeh="14.492860" electricity_perVeh="0"/>
        <edge id=":123_3" sampledSeconds="469.90" CO_abs="22247.580347" CO2_abs="2098434.688950" HC_abs="151.055227" PMx_abs="39.077355" NOx_abs="841.506077" fuel_abs="902.018598" electricity_abs="0"
            CO_normed="87.638344" CO2_normed="8266.217653" HC_normed="0.595041" PMx_normed="0.153935" NOx_normed="3.314886" fuel_normed="3.553259" electricity_normed="0"
            traveltime="2.81" CO_perVeh="133.160781" CO2_perVeh="12559.981706" HC_perVeh="0.904127" PMx_perVeh="0.233894" NOx_perVeh="5.036755" fuel_perVeh="5.398947" electricity_perVeh="0"/>
        <edge id=":123_5" sampledSeconds="0.00" CO_abs="0" CO2_abs="0" HC_abs="0" PMx_abs="0" NOx_abs="0" fuel_abs="0" electricity_abs="0"
            CO_normed="0" CO2_normed="0" HC_normed="0" PMx_normed="0" NOx_normed="0" fuel_normed="0" electricity_normed="0"/>
        <edge id=":123_6" sampledSeconds="194.78" CO_abs="8995.942086" CO2_abs="877319.085949" HC_abs="61.646936" PMx_abs="16.135329" NOx_abs="349.779825" fuel_abs="377.118410" electricity_abs="0"
            CO_normed="34.229412" CO2_normed="3338.184697" HC_normed="0.234566" PMx_normed="0.061395" NOx_normed="1.330906" fuel_normed="1.434929" electricity_normed="0"
            traveltime="2.91" CO_perVeh="134.583336" CO2_perVeh="13125.087781" HC_perVeh="0.922266" PMx_perVeh="0.241392" NOx_perVeh="5.232863" fuel_perVeh="5.641861" electricity_perVeh="0"/>
        <edge id=":124_0" sampledSeconds="118.66" CO_abs="4075.017885" CO2_abs="370071.200913" HC_abs="27.264932" PMx_abs="7.003809" NOx_abs="149.378249" fuel_abs="159.076160" electricity_abs="0"
            CO_normed="95.398461" CO2_normed="8663.575020" HC_normed="0.638287" PMx_normed="0.163963" NOx_normed="3.497029" fuel_normed="3.724062" electricity_normed="0"
            traveltime="0.46" CO_perVeh="15.847857" CO2_perVeh="1439.217130" HC_perVeh="0.106034" PMx_perVeh="0.027238" NOx_perVeh="0.580936" fuel_perVeh="0.618652" electricity_perVeh="0"/>
        <edge id=":125_0" sampledSeconds="141.33" CO_abs="5417.850062" CO2_abs="547571.767103" HC_abs="37.532757" PMx_abs="10.190390" NOx_abs="215.860209" fuel_abs="235.375434" electricity_abs="0"
            CO_normed="340.763147" CO2_normed="34440.280965" HC_normed="2.360674" PMx_normed="0.640939" NOx_normed="13.576825" fuel_normed="14.804262" electricity_normed="0"
            traveltime="0.16" CO_perVeh="6.204829" CO2_perVeh="627.110251" HC_perVeh="0.042985" PMx_perVeh="0.011671" NOx_perVeh="0.247215" fuel_perVeh="0.269565" electricity_perVeh="0"/>
        <edge id=":125_3" sampledSeconds="0.00" CO_abs="0" CO2_abs="0" HC_abs="0" PMx_abs="0" NOx_abs="0" fuel_abs="0" electricity_abs="0"
            CO_normed="0" CO2_normed="0" HC_normed="0" PMx_normed="0" NOx_normed="0" fuel_normed="0" electricity_normed="0"/>
        <edge id=":126_0" sampledSeconds="26.87" CO_abs="214.437610" CO2_abs="14418.176745" HC_abs="1.316117" PMx_abs="0.258975" NOx_abs="5.950827" fuel_abs="6.197742" electricity_abs="0"
            CO_normed="7.061439" CO2_normed="474.791151" HC_normed="0.043340" PMx_normed="0.008528" NOx_normed="0.195961" fuel_normed="0.204092" electricity_normed="0"
            traveltime="0.56" CO_perVeh="4.487748" CO2_perVeh="301.743434" HC_perVeh="0.027544" PMx_perVeh="0.005420" NOx_perVeh="0.124539" fuel_perVeh="0.129706" electricity_perVeh="0"/>
        <edge id=":126_1" sampledSeconds="80.81" CO_abs="1317.476951" CO2_abs="211473.911808" HC_abs="10.708868" PMx_abs="3.340517" NOx_abs="77.644059" fuel_abs="90.903126" electricity_abs="0"
            CO_normed="38.601488" CO2_normed="6196.091525" HC_normed="0.313765" PMx_normed="0.097876" NOx_normed="2.274936" fuel_normed="2.663421" electricity_normed="0"
            traveltime="0.35" CO_perVeh="5.700949" CO2_perVeh="915.083951" HC_perVeh="0.046339" PMx_perVeh="0.014455" NOx_perVeh="0.335979" fuel_perVeh="0.393353" electricity_perVeh="0"/>
        <edge id=":127_0" sampledSeconds="234.58" CO_abs="5179.805512" CO2_abs="664752.905881" HC_abs="38.959601" PMx_abs="11.351901" NOx_abs="251.664530" fuel_abs="285.746842" electricity_abs="0"
            CO_normed="119.776105" CO2_normed="15371.525805" HC_normed="0.900889" PMx_normed="0.262498" NOx_normed="5.819407" fuel_normed="6.607515" electricity_normed="0"
            traveltime="0.44" CO_perVeh="9.686361" CO2_perVeh="1243.103991" HC_perVeh="0.072855" PMx_perVeh="0.021228" NOx_perVeh="0.470619" fuel_perVeh="0.534353" electricity_perVeh="0"/>
        <edge id=":128_0" sampledSeconds="229.10" CO_abs="372.938942" CO2_abs="46297.228567" HC_abs="2.773720" PMx_abs="0.738269" NOx_abs="17.590694" fuel_abs="19.901112" electricity_abs="0"
            CO_normed="5.763270" CO2_normed="715.461425" HC_normed="0.042864" PMx_normed="0.011409" NOx_normed="0.271841" fuel_normed="0.307545" electricity_normed="0"
            traveltime="0.75" CO_perVeh="1.225980" CO2_perVeh="152.195109" HC_perVeh="0.009118" PMx_perVeh="0.002427" NOx_perVeh="0.057827" fuel_perVeh="0.065422" electricity_perVeh="0"/>
        <edge id=":128_1" sampledSeconds="142.58" CO_abs="196.780573" CO2_abs="24663.015492" HC_abs="1.456537" PMx_abs="0.343009" NOx_abs="9.246883" fuel_abs="10.601584" electricity_abs="0"
            CO_normed="3.141316" CO2_normed="393.709226" HC_normed="0.023252" PMx_normed="0.005476" NOx_normed="0.147613" fuel_normed="0.169239" electricity_normed="0"
            traveltime="0.85" CO_perVeh="1.179588" CO2_perVeh="147.840759" HC_perVeh="0.008731" PMx_perVeh="0.002056" NOx_perVeh="0.055430" fuel_perVeh="0.063550" electricity_perVeh="0"/>
        <edge id=":129_0" sampledSeconds="105.71" CO_abs="5027.137326" CO2_abs="465196.903324" HC_abs="33.898886" PMx_abs="8.620933" NOx_abs="187.374230" fuel_abs="199.966351" electricity_abs="0"
            CO_normed="117.106937" CO2_normed="10836.740880" HC_normed="0.789673" PMx_normed="0.200824" NOx_normed="4.364874" fuel_normed="4.658207" electricity_normed="0"
            traveltime="0.50" CO_perVeh="23.825992" CO2_perVeh="2204.789162" HC_perVeh="0.160663" PMx_perVeh="0.040859" NOx_perVeh="0.888056" fuel_perVeh="0.947736" electricity_perVeh="0"/>
        <edge id=":13_0" sampledSeconds="59.40" CO_abs="5113.268925" CO2_abs="366694.877328" HC_abs="32.048873" PMx_abs="7.107071" NOx_abs="153.662250" fuel_abs="157.625066" electricity_abs="0"
            CO_normed="36.149055" CO2_normed="2592.406860" HC_normed="0.226575" PMx_normed="0.050245" NOx_normed="1.086339" fuel_normed="1.114355" electricity_normed="0"
            traveltime="2.10" CO_perVeh="180.864540" CO2_perVeh="12970.587198" HC_perVeh="1.133620" PMx_perVeh="0.251389" NOx_perVeh="5.435281" fuel_perVeh="5.575452" electricity_perVeh="0"/>
        <edge id=":13_1" sampledSeconds="542.88" CO_abs="12872.856178" CO2_abs="982775.857154" HC_abs="81.090399" PMx_abs="13.708370" NOx_abs="378.260419" fuel_abs="422.456963" electricity_abs="0"
            CO_normed="128.245411" CO2_normed="9790.872547" HC_normed="0.807860" PMx_normed="0.136569" NOx_normed="3.768407" fuel_normed="4.208714" electricity_normed="0"
            traveltime="1.90" CO_perVeh="44.942202" CO2_perVeh="3431.104226" HC_perVeh="0.283106" PMx_perVeh="0.047859" NOx_perVeh="1.320597" fuel_perVeh="1.474898" electricity_perVeh="0"/>
        <edge id=":132_0" sampledSeconds="41.11" CO_abs="474.630730" CO2_abs="78597.020809" HC_abs="3.936240" PMx_abs="1.128030" NOx_abs="28.935624" fuel_abs="33.785412" electricity_abs="0"
            CO_normed="895.576618" CO2_normed="148304.038426" HC_normed="7.427256" PMx_normed="2.128469" NOx_normed="54.598379" fuel_normed="63.749402" electricity_normed="0"
            traveltime="6.372525e-03" CO_perVeh="0.073581" CO2_perVeh="12.184799" HC_perVeh="0.000610" PMx_perVeh="0.000175" NOx_perVeh="0.004486" fuel_perVeh="0.005238" electricity_perVeh="0"/>