<?xml version="1.0" encoding="UTF-8"?>

<!-- generated on Tue Nov 10 03:05:09 2020 by Eclipse SUMO sumo Version 1.7.0
<configuration xmlns:xsi="http://www.w3.org/2001/XMLSchema-instance" xsi:noNamespaceSchemaLocation="http://sumo.dlr.de/xsd/sumoConfiguration.xsd">

    <input>
        <net-file value="../dataSets/Porto/8AM9AM_Routing_SaoBento/Porto.net.xml"/>
        <route-files value="../results/Porto/8AM9AM_Routing_SaoBento/length-ttime/solution3/Porto.rou.xml"/>
        <additional-files value="moreOutputInfo.xml"/>
    </input>

    <output>
        <emission-output.precision value="6"/>
        <tripinfo-output value="../results/Porto/8AM9AM_Routing_SaoBento/length-ttime/solution3/Porto-tripinfo"/>
    </output>

    <processing>
        <collision.action value="warn"/>
        <time-to-teleport value="-1"/>
    </processing>

    <emissions>
        <device.emissions.probability value="1"/>
    </emissions>

    <gui_only>
        <quit-on-end value="true"/>
        <start value="true"/>
    </gui_only>

</configuration>
-->

<meandata xmlns:xsi="http://www.w3.org/2001/XMLSchema-instance" xsi:noNamespaceSchemaLocation="http://sumo.dlr.de/xsd/meandata_file.xsd">
    <interval begin="0.00" end="8471.00" id="emissions-detector">
        <edge id=":1092997347_0" sampledSeconds="595.52" CO_abs="72668.440859" CO2_abs="3086052.662786" HC_abs="403.862102" PMx_abs="62.321109" NOx_abs="1334.638861" fuel_abs="1326.569345" electricity_abs="0"
            CO_normed="70187.695746" CO2_normed="2980701.426801" HC_normed="390.075114" PMx_normed="60.193599" NOx_normed="1289.077146" fuel_normed="1281.283105" electricity_normed="0"
            traveltime="0.07" CO_perVeh="8.327607" CO2_perVeh="353.653281" HC_perVeh="0.046282" PMx_perVeh="0.007142" NOx_perVeh="0.152946" fuel_perVeh="0.152021" electricity_perVeh="0"/>
        <edge id=":1103427051_0" sampledSeconds="19.27" CO_abs="1607.747970" CO2_abs="91009.875007" HC_abs="9.478795" PMx_abs="1.769082" NOx_abs="38.717261" fuel_abs="39.121136" electricity_abs="0"
            CO_normed="2356.067839" CO2_normed="133370.057692" HC_normed="13.890662" PMx_normed="2.592493" NOx_normed="56.738055" fuel_normed="57.329912" electricity_normed="0"
            traveltime="0.03" CO_perVeh="2.500252" CO2_perVeh="141.531873" HC_perVeh="0.014741" PMx_perVeh="0.002751" NOx_perVeh="0.060210" fuel_perVeh="0.060838" electricity_perVeh="0"/>
        <edge id=":1105984386_0" sampledSeconds="10.66" CO_abs="216.039724" CO2_abs="16155.363219" HC_abs="1.342015" PMx_abs="0.168551" NOx_abs="5.855351" fuel_abs="6.944650" electricity_abs="0"
            CO_normed="9.455450" CO2_normed="707.074729" HC_normed="0.058736" PMx_normed="0.007377" NOx_normed="0.256272" fuel_normed="0.303948" electricity_normed="0"
            traveltime="1.02" CO_perVeh="20.724617" CO2_perVeh="1549.778471" HC_perVeh="0.128739" PMx_perVeh="0.016169" NOx_perVeh="0.561702" fuel_perVeh="0.666198" electricity_perVeh="0"/>
        <edge id=":1105984390_0" sampledSeconds="10.88" CO_abs="36.561098" CO2_abs="2385.095882" HC_abs="0.220554" PMx_abs="0.032169" NOx_abs="0.917117" fuel_abs="1.025265" electricity_abs="0"
            CO_normed="1.237079" CO2_normed="80.701949" HC_normed="0.007463" PMx_normed="0.001088" NOx_normed="0.031032" fuel_normed="0.034691" electricity_normed="0"
            traveltime="1.13" CO_perVeh="3.789778" CO2_perVeh="247.229548" HC_perVeh="0.022862" PMx_perVeh="0.003335" NOx_perVeh="0.095065" fuel_perVeh="0.106275" electricity_perVeh="0"/>
        <edge id=":1105984390_1" sampledSeconds="2397.00" CO_abs="64478.101254" CO2_abs="7575467.054872" HC_abs="474.629309" PMx_abs="137.338437" NOx_abs="2887.737806" fuel_abs="3256.343028" electricity_abs="0"
            CO_normed="2086.965803" CO2_normed="245195.506389" HC_normed="15.362350" PMx_normed="4.445240" NOx_normed="93.467548" fuel_normed="105.398211" electricity_normed="0"
            traveltime="0.65" CO_perVeh="17.416875" CO2_perVeh="2046.291054" HC_perVeh="0.128207" PMx_perVeh="0.037098" NOx_perVeh="0.780038" fuel_perVeh="0.879606" electricity_perVeh="0"/>
        <edge id=":1105984395_0" sampledSeconds="4.19" CO_abs="106.999365" CO2_abs="7975.785619" HC_abs="0.664198" PMx_abs="0.083703" NOx_abs="2.893063" fuel_abs="3.428523" electricity_abs="0"
            CO_normed="49.426652" CO2_normed="3684.287086" HC_normed="0.306816" PMx_normed="0.038665" NOx_normed="1.336404" fuel_normed="1.583752" electricity_normed="0"
            traveltime="0.10" CO_perVeh="2.480207" CO2_perVeh="184.875857" HC_perVeh="0.015396" PMx_perVeh="0.001940" NOx_perVeh="0.067060" fuel_perVeh="0.079472" electricity_perVeh="0"/>
        <edge id=":1105984398_0" sampledSeconds="10.32" CO_abs="592.708271" CO2_abs="40067.177561" HC_abs="3.635936" PMx_abs="0.682845" NOx_abs="16.291699" fuel_abs="17.223176" electricity_abs="0"
            CO_normed="20.834472" CO2_normed="1408.413790" HC_normed="0.127808" PMx_normed="0.024003" NOx_normed="0.572675" fuel_normed="0.605417" electricity_normed="0"
            traveltime="1.18" CO_perVeh="67.569984" CO2_perVeh="4567.742112" HC_perVeh="0.414504" PMx_perVeh="0.077846" NOx_perVeh="1.857288" fuel_perVeh="1.963478" electricity_perVeh="0"/>
        <edge id=":1105984398_1" sampledSeconds="647.58" CO_abs="12162.670798" CO2_abs="1391802.250749" HC_abs="87.263954" PMx_abs="20.182742" NOx_abs="528.284785" fuel_abs="598.276271" electricity_abs="0"
            CO_normed="413.841779" CO2_normed="47356.861787" HC_normed="2.969206" PMx_normed="0.686729" NOx_normed="17.975190" fuel_normed="20.356690" electricity_normed="0"
            traveltime="0.95" CO_perVeh="17.877833" CO2_perVeh="2045.801373" HC_perVeh="0.128269" PMx_perVeh="0.029666" NOx_perVeh="0.776522" fuel_perVeh="0.879403" electricity_perVeh="0"/>
        <edge id=":1106006327_0" sampledSeconds="69.66" CO_abs="9182.743014" CO2_abs="290456.688050" HC_abs="48.639730" PMx_abs="6.044019" NOx_abs="127.042808" fuel_abs="124.857298" electricity_abs="0"
            CO_normed="440.460054" CO2_normed="13932.064555" HC_normed="2.333057" PMx_normed="0.289908" NOx_normed="6.093744" fuel_normed="5.988913" electricity_normed="0"
            traveltime="2.16" CO_perVeh="284.661499" CO2_perVeh="9004.045541" HC_perVeh="1.507813" PMx_perVeh="0.187362" NOx_perVeh="3.938278" fuel_perVeh="3.870528" electricity_perVeh="0"/>
        <edge id=":1106006327_1" sampledSeconds="678.67" CO_abs="92007.116404" CO2_abs="3089559.296344" HC_abs="491.777155" PMx_abs="64.481886" NOx_abs="1352.348520" fuel_abs="1328.089709" electricity_abs="0"
            CO_normed="3848.535799" CO2_normed="129232.172698" HC_normed="20.570387" PMx_normed="2.697192" NOx_normed="56.566947" fuel_normed="55.552233" electricity_normed="0"
            traveltime="2.28" CO_perVeh="308.845620" CO2_perVeh="10370.902740" HC_perVeh="1.650777" PMx_perVeh="0.216450" NOx_perVeh="4.539507" fuel_perVeh="4.458076" electricity_perVeh="0"/>
        <edge id=":1106006327_2" sampledSeconds="0.00" CO_abs="0" CO2_abs="0" HC_abs="0" PMx_abs="0" NOx_abs="0" fuel_abs="0" electricity_abs="0"
            CO_normed="0" CO2_normed="0" HC_normed="0" PMx_normed="0" NOx_normed="0" fuel_normed="0" electricity_normed="0"/>
        <edge id=":1106006327_3" sampledSeconds="0.00" CO_abs="0" CO2_abs="0" HC_abs="0" PMx_abs="0" NOx_abs="0" fuel_abs="0" electricity_abs="0"
            CO_normed="0" CO2_normed="0" HC_normed="0" PMx_normed="0" NOx_normed="0" fuel_normed="0" electricity_normed="0"/>
        <edge id=":1107381198_0" sampledSeconds="0.00" CO_abs="0" CO2_abs="0" HC_abs="0" PMx_abs="0" NOx_abs="0" fuel_abs="0" electricity_abs="0"
            CO_normed="0" CO2_normed="0" HC_normed="0" PMx_normed="0" NOx_normed="0" fuel_normed="0" electricity_normed="0"/>
        <edge id=":1107381198_1" sampledSeconds="103.77" CO_abs="5271.575750" CO2_abs="207659.082959" HC_abs="28.787030" PMx_abs="3.609990" NOx_abs="86.214681" fuel_abs="89.265449" electricity_abs="0"
            CO_normed="244.308701" CO2_normed="9623.862627" HC_normed="1.334121" PMx_normed="0.167303" NOx_normed="3.995579" fuel_normed="4.136965" electricity_normed="0"
            traveltime="1.55" CO_perVeh="78.925597" CO2_perVeh="3109.054648" HC_perVeh="0.430997" PMx_perVeh="0.054048" NOx_perVeh="1.290799" fuel_perVeh="1.336475" electricity_perVeh="0"/>
        <edge id=":1110338277_0" sampledSeconds="160.93" CO_abs="2488.111644" CO2_abs="294434.461675" HC_abs="18.057690" PMx_abs="4.119967" NOx_abs="110.768985" fuel_abs="126.564944" electricity_abs="0"
            CO_normed="3776.414455" CO2_normed="446887.727048" HC_normed="27.407662" PMx_normed="6.253218" NOx_normed="168.123322" fuel_normed="192.098167" electricity_normed="0"
            traveltime="0.02" CO_perVeh="0.336991" CO2_perVeh="39.878321" HC_perVeh="0.002446" PMx_perVeh="0.000558" NOx_perVeh="0.015003" fuel_perVeh="0.017142" electricity_perVeh="0"/>
        <edge id=":1110338293_0" sampledSeconds="6390.95" CO_abs="598122.014932" CO2_abs="10487016.005603" HC_abs="2968.751743" PMx_abs="249.866401" NOx_abs="4738.785616" fuel_abs="4508.191197" electricity_abs="0"
            CO_normed="847298.333040" CO2_normed="14855883.846917" HC_normed="4205.527200" PMx_normed="353.960195" NOx_normed="6712.953298" fuel_normed="6386.293751" electricity_normed="0"
            traveltime="0.43" CO_perVeh="40.006125" CO2_perVeh="701.436928" HC_perVeh="0.198569" PMx_perVeh="0.016713" NOx_perVeh="0.316959" fuel_perVeh="0.301536" electricity_perVeh="0"/>
        <edge id=":1110338295_0" sampledSeconds="0.00" CO_abs="0" CO2_abs="0" HC_abs="0" PMx_abs="0" NOx_abs="0" fuel_abs="0" electricity_abs="0"
            CO_normed="0" CO2_normed="0" HC_normed="0" PMx_normed="0" NOx_normed="0" fuel_normed="0" electricity_normed="0"/>
        <edge id=":1110673403_0" sampledSeconds="200.71" CO_abs="3117.764620" CO2_abs="394766.992997" HC_abs="23.236254" PMx_abs="5.323854" NOx_abs="146.921675" fuel_abs="169.693823" electricity_abs="0"
            CO_normed="4416.618515" CO2_normed="559226.055480" HC_normed="32.916427" PMx_normed="7.541759" NOx_normed="208.128923" fuel_normed="240.387897" electricity_normed="0"
            traveltime="0.02" CO_perVeh="0.360338" CO2_perVeh="45.625495" HC_perVeh="0.002686" PMx_perVeh="0.000615" NOx_perVeh="0.016981" fuel_perVeh="0.019612" electricity_perVeh="0"/>
        <edge id=":1110673412_0" sampledSeconds="942.73" CO_abs="164759.687249" CO2_abs="11284832.822992" HC_abs="1026.348291" PMx_abs="247.511660" NOx_abs="4845.605109" fuel_abs="4850.794114" electricity_abs="0"
            CO_normed="241446.425368" CO2_normed="16537313.171010" HC_normed="1504.058002" PMx_normed="362.714973" NOx_normed="7100.972646" fuel_normed="7108.576852" electricity_normed="0"
            traveltime="0.02" CO_perVeh="2.720009" CO2_perVeh="186.300732" HC_perVeh="0.016944" PMx_perVeh="0.004086" NOx_perVeh="0.079996" fuel_perVeh="0.080082" electricity_perVeh="0"/>
        <edge id=":1110673414_0" sampledSeconds="0.00" CO_abs="0" CO2_abs="0" HC_abs="0" PMx_abs="0" NOx_abs="0" fuel_abs="0" electricity_abs="0"
            CO_normed="0" CO2_normed="0" HC_normed="0" PMx_normed="0" NOx_normed="0" fuel_normed="0" electricity_normed="0"/>
        <edge id=":1110673414_1" sampledSeconds="6.91" CO_abs="480.499666" CO2_abs="19069.695559" HC_abs="2.629984" PMx_abs="0.345637" NOx_abs="8.010484" fuel_abs="8.197377" electricity_abs="0"
            CO_normed="22.613780" CO2_normed="897.478035" HC_normed="0.123775" PMx_normed="0.016267" NOx_normed="0.376998" fuel_normed="0.385794" electricity_normed="0"
            traveltime="1.51" CO_perVeh="104.956749" CO2_perVeh="4165.441483" HC_perVeh="0.574474" PMx_perVeh="0.075498" NOx_perVeh="1.749750" fuel_perVeh="1.790574" electricity_perVeh="0"/>
        <edge id=":1110673417_0" sampledSeconds="28.98" CO_abs="504.843753" CO2_abs="58439.228067" HC_abs="3.597188" PMx_abs="0.808597" NOx_abs="21.921692" fuel_abs="25.120574" electricity_abs="0"
            CO_normed="766.243449" CO2_normed="88698.088032" HC_normed="5.459752" PMx_normed="1.227274" NOx_normed="33.272379" fuel_normed="38.127590" electricity_normed="0"
            traveltime="0.02" CO_perVeh="0.384968" CO2_perVeh="44.562716" HC_perVeh="0.002743" PMx_perVeh="0.000617" NOx_perVeh="0.016716" fuel_perVeh="0.019156" electricity_perVeh="0"/>
        <edge id=":1110673446_0" sampledSeconds="1315.27" CO_abs="13981.604140" CO2_abs="1124765.320703" HC_abs="90.363509" PMx_abs="20.663620" NOx_abs="460.497433" fuel_abs="483.484906" electricity_abs="0"
            CO_normed="19806.309725" CO2_normed="1593340.083631" HC_normed="128.008748" PMx_normed="29.272039" NOx_normed="652.339653" fuel_normed="684.903656" electricity_normed="0"
            traveltime="0.02" CO_perVeh="0.242598" CO2_perVeh="19.516052" HC_perVeh="0.001568" PMx_perVeh="0.000359" NOx_perVeh="0.007990" fuel_perVeh="0.008389" electricity_perVeh="0"/>
        <edge id=":1110673451_0" sampledSeconds="36.95" CO_abs="354.022157" CO2_abs="26382.347691" HC_abs="2.206100" PMx_abs="0.321924" NOx_abs="9.862991" fuel_abs="11.340818" electricity_abs="0"
            CO_normed="557.230012" CO2_normed="41525.750901" HC_normed="3.472396" PMx_normed="0.506708" NOx_normed="15.524324" fuel_normed="17.850420" electricity_normed="0"
            traveltime="0.03" CO_perVeh="0.260836" CO2_perVeh="19.437957" HC_perVeh="0.001625" PMx_perVeh="0.000237" NOx_perVeh="0.007267" fuel_perVeh="0.008356" electricity_perVeh="0"/>
        <edge id=":1110673464_0" sampledSeconds="1028.07" CO_abs="2966.244501" CO2_abs="224973.244844" HC_abs="18.634248" PMx_abs="3.058309" NOx_abs="85.977213" fuel_abs="96.707361" electricity_abs="0"
            CO_normed="89.277099" CO2_normed="6771.174320" HC_normed="0.560848" PMx_normed="0.092048" NOx_normed="2.587715" fuel_normed="2.910668" electricity_normed="0"
            traveltime="1.22" CO_perVeh="3.517553" CO2_perVeh="266.786960" HC_perVeh="0.022098" PMx_perVeh="0.003627" NOx_perVeh="0.101957" fuel_perVeh="0.114681" electricity_perVeh="0"/>
        <edge id=":1110673464_1" sampledSeconds="2607.99" CO_abs="67386.634646" CO2_abs="8042460.847848" HC_abs="498.553763" PMx_abs="144.569187" NOx_abs="3060.562195" fuel_abs="3457.082709" electricity_abs="0"
            CO_normed="1987.364858" CO2_normed="237188.043956" HC_normed="14.703334" PMx_normed="4.263631" NOx_normed="90.262020" fuel_normed="101.956192" electricity_normed="0"
            traveltime="0.72" CO_perVeh="18.577721" CO2_perVeh="2217.214116" HC_perVeh="0.137446" PMx_perVeh="0.039856" NOx_perVeh="0.843762" fuel_perVeh="0.953078" electricity_perVeh="0"/>
        <edge id=":1110673479_0" sampledSeconds="134.24" CO_abs="6786.828795" CO2_abs="458475.003936" HC_abs="41.702042" PMx_abs="8.200460" NOx_abs="188.821119" fuel_abs="197.078338" electricity_abs="0"
            CO_normed="9614.206769" CO2_normed="649474.683889" HC_normed="59.075021" PMx_normed="11.616753" NOx_normed="267.483582" fuel_normed="279.180741" electricity_normed="0"
            traveltime="0.03" CO_perVeh="1.434797" CO2_perVeh="96.925761" HC_perVeh="0.008816" PMx_perVeh="0.001734" NOx_perVeh="0.039918" fuel_perVeh="0.041664" electricity_perVeh="0"/>
        <edge id=":1110673511_0" sampledSeconds="63.98" CO_abs="1044.352406" CO2_abs="111036.814873" HC_abs="7.306518" PMx_abs="1.563664" NOx_abs="42.073397" fuel_abs="47.730093" electricity_abs="0"
            CO_normed="1479.427326" CO2_normed="157294.508143" HC_normed="10.350397" PMx_normed="2.215083" NOx_normed="59.601082" fuel_normed="67.614345" electricity_normed="0"
            traveltime="0.02" CO_perVeh="0.400263" CO2_perVeh="42.556429" HC_perVeh="0.002800" PMx_perVeh="0.000599" NOx_perVeh="0.016125" fuel_perVeh="0.018293" electricity_perVeh="0"/>
        <edge id=":1110673517_0" sampledSeconds="182.80" CO_abs="7695.840013" CO2_abs="548345.873930" HC_abs="47.909590" PMx_abs="9.446690" NOx_abs="222.938006" fuel_abs="235.710142" electricity_abs="0"
            CO_normed="10901.910065" CO2_normed="776785.560992" HC_normed="67.868621" PMx_normed="13.382161" NOx_normed="315.813490" fuel_normed="333.906470" electricity_normed="0"
            traveltime="0.03" CO_perVeh="1.178296" CO2_perVeh="83.956202" HC_perVeh="0.007335" PMx_perVeh="0.001446" NOx_perVeh="0.034134" fuel_perVeh="0.036089" electricity_perVeh="0"/>
        <edge id=":1110673534_0" sampledSeconds="657.79" CO_abs="4737.875379" CO2_abs="398097.738648" HC_abs="30.667130" PMx_abs="5.387510" NOx_abs="151.459864" fuel_abs="171.126589" electricity_abs="0"
            CO_normed="130.071005" CO2_normed="10929.154699" HC_normed="0.841918" PMx_normed="0.147906" NOx_normed="4.158095" fuel_normed="4.698015" electricity_normed="0"
            traveltime="1.45" CO_perVeh="10.417883" CO2_perVeh="875.357668" HC_perVeh="0.067432" PMx_perVeh="0.011846" NOx_perVeh="0.333038" fuel_perVeh="0.376282" electricity_perVeh="0"/>
        <edge id=":1110673534_1" sampledSeconds="264.17" CO_abs="3984.680817" CO2_abs="505289.276169" HC_abs="29.632264" PMx_abs="6.867019" NOx_abs="188.173773" fuel_abs="217.202650" electricity_abs="0"
            CO_normed="106.369788" CO2_normed="13488.536667" HC_normed="0.791024" PMx_normed="0.183313" NOx_normed="5.023239" fuel_normed="5.798156" electricity_normed="0"
            traveltime="1.23" CO_perVeh="18.487919" CO2_perVeh="2344.415478" HC_perVeh="0.137486" PMx_perVeh="0.031861" NOx_perVeh="0.873079" fuel_perVeh="1.007766" electricity_perVeh="0"/>
        <edge id=":1110673549_0" sampledSeconds="647.09" CO_abs="1241.588335" CO2_abs="133394.909693" HC_abs="8.620240" PMx_abs="1.855330" NOx_abs="49.930521" fuel_abs="57.340959" electricity_abs="0"
            CO_normed="33.019361" CO2_normed="3547.564509" HC_normed="0.229251" PMx_normed="0.049341" NOx_normed="1.327875" fuel_normed="1.524951" electricity_normed="0"
            traveltime="1.29" CO_perVeh="2.466740" CO2_perVeh="265.023878" HC_perVeh="0.017126" PMx_perVeh="0.003686" NOx_perVeh="0.099200" fuel_perVeh="0.113923" electricity_perVeh="0"/>
        <edge id=":1110673549_1" sampledSeconds="3196.15" CO_abs="70364.842926" CO2_abs="9160070.519581" HC_abs="538.752210" PMx_abs="161.361463" NOx_abs="3429.117256" fuel_abs="3937.494771" electricity_abs="0"
            CO_normed="1810.145557" CO2_normed="235644.112319" HC_normed="13.859477" PMx_normed="4.151046" NOx_normed="88.214527" fuel_normed="101.292611" electricity_normed="0"
            traveltime="0.81" CO_perVeh="17.751783" CO2_perVeh="2310.920852" HC_perVeh="0.135917" PMx_perVeh="0.040709" NOx_perVeh="0.865105" fuel_perVeh="0.993359" electricity_perVeh="0"/>
        <edge id=":1110673556_0" sampledSeconds="471.90" CO_abs="57669.230025" CO2_abs="2746315.978304" HC_abs="327.788323" PMx_abs="55.415132" NOx_abs="1183.950332" fuel_abs="1180.524713" electricity_abs="0"
            CO_normed="1137.272918" CO2_normed="54159.051295" HC_normed="6.464189" PMx_normed="1.092821" NOx_normed="23.348234" fuel_normed="23.280678" electricity_normed="0"
            traveltime="2.78" CO_perVeh="339.954566" CO2_perVeh="16189.268630" HC_perVeh="1.932281" PMx_perVeh="0.326667" NOx_perVeh="6.979273" fuel_perVeh="6.959080" electricity_perVeh="0"/>
        <edge id=":1110673556_2" sampledSeconds="175.73" CO_abs="17803.107218" CO2_abs="763382.958332" HC_abs="99.033746" PMx_abs="14.960029" NOx_abs="327.153745" fuel_abs="328.148042" electricity_abs="0"
            CO_normed="367.101057" CO2_normed="15740.998873" HC_normed="2.042081" PMx_normed="0.308477" NOx_normed="6.745928" fuel_normed="6.766431" electricity_normed="0"
            traveltime="3.04" CO_perVeh="307.841164" CO2_perVeh="13199.982189" HC_perVeh="1.712435" PMx_perVeh="0.258680" NOx_perVeh="5.656956" fuel_perVeh="5.674149" electricity_perVeh="0"/>
        <edge id=":1110673556_3" sampledSeconds="343.76" CO_abs="35580.090812" CO2_abs="1220490.827540" HC_abs="190.496764" PMx_abs="23.905941" NOx_abs="524.502536" fuel_abs="524.646525" electricity_abs="0"
            CO_normed="1668.962865" CO2_normed="57249.822067" HC_normed="8.935672" PMx_normed="1.121361" NOx_normed="24.602952" fuel_normed="24.609706" electricity_normed="0"
            traveltime="1.83" CO_perVeh="189.773890" CO2_perVeh="6509.744263" HC_perVeh="1.016055" PMx_perVeh="0.127507" NOx_perVeh="2.797544" fuel_perVeh="2.798312" electricity_perVeh="0"/>
        <edge id=":1110673556_4" sampledSeconds="86.28" CO_abs="10070.318743" CO2_abs="396016.630548" HC_abs="55.173598" PMx_abs="7.897429" NOx_abs="170.814008" fuel_abs="170.232318" electricity_abs="0"
            CO_normed="288.582429" CO2_normed="11348.542602" HC_normed="1.581095" PMx_normed="0.226315" NOx_normed="4.894971" fuel_normed="4.878302" electricity_normed="0"
            traveltime="2.51" CO_perVeh="293.358268" CO2_perVeh="11536.353090" HC_perVeh="1.607261" PMx_perVeh="0.230060" NOx_perVeh="4.975980" fuel_perVeh="4.959034" electricity_perVeh="0"/>
        <edge id=":1110673556_5" sampledSeconds="22.86" CO_abs="985.610713" CO2_abs="45768.361041" HC_abs="5.557026" PMx_abs="0.841395" NOx_abs="19.253180" fuel_abs="19.674017" electricity_abs="0"
            CO_normed="39.366935" CO2_normed="1828.064655" HC_normed="0.221957" PMx_normed="0.033607" NOx_normed="0.769004" fuel_normed="0.785813" electricity_normed="0"
            traveltime="1.58" CO_perVeh="68.140988" CO2_perVeh="3164.232368" HC_perVeh="0.384189" PMx_perVeh="0.058170" NOx_perVeh="1.331084" fuel_perVeh="1.360179" electricity_perVeh="0"/>
        <edge id=":1110673556_6" sampledSeconds="547.78" CO_abs="64781.708333" CO2_abs="3126398.436475" HC_abs="369.198756" PMx_abs="62.935261" NOx_abs="1346.600596" fuel_abs="1343.905544" electricity_abs="0"
            CO_normed="1309.747276" CO2_normed="63209.074601" HC_normed="7.464407" PMx_normed="1.272416" NOx_normed="27.225377" fuel_normed="27.170889" electricity_normed="0"
            traveltime="2.66" CO_perVeh="314.529517" CO2_perVeh="15179.355640" HC_perVeh="1.792542" PMx_perVeh="0.305565" NOx_perVeh="6.538044" fuel_perVeh="6.524959" electricity_perVeh="0"/>
        <edge id=":1110673561_0" sampledSeconds="100.97" CO_abs="10424.988291" CO2_abs="744164.748559" HC_abs="65.378031" PMx_abs="15.089890" NOx_abs="315.135556" fuel_abs="319.880923" electricity_abs="0"
            CO_normed="264.817971" CO2_normed="18903.445586" HC_normed="1.660748" PMx_normed="0.383317" NOx_normed="8.005146" fuel_normed="8.125689" electricity_normed="0"
            traveltime="1.19" CO_perVeh="123.024980" CO2_perVeh="8781.866319" HC_perVeh="0.771524" PMx_perVeh="0.178075" NOx_perVeh="3.718905" fuel_perVeh="3.774905" electricity_perVeh="0"/>
        <edge id=":1110673561_1" sampledSeconds="5200.12" CO_abs="482005.418586" CO2_abs="33446718.979646" HC_abs="3003.903934" PMx_abs="697.988970" NOx_abs="14291.760855" fuel_abs="14377.130284" electricity_abs="0"
            CO_normed="11937.199609" CO2_normed="828331.270397" HC_normed="74.393771" PMx_normed="17.286183" NOx_normed="353.945403" fuel_normed="356.059636" electricity_normed="0"
            traveltime="1.19" CO_perVeh="110.685426" CO2_perVeh="7680.545089" HC_perVeh="0.689802" PMx_perVeh="0.160283" NOx_perVeh="3.281892" fuel_perVeh="3.301496" electricity_perVeh="0"/>
        <edge id=":1110673562_0" sampledSeconds="300.97" CO_abs="6934.914757" CO2_abs="528211.406474" HC_abs="43.625301" PMx_abs="7.202852" NOx_abs="202.204350" fuel_abs="227.057726" electricity_abs="0"
            CO_normed="10915.538909" CO2_normed="831403.465115" HC_normed="68.666118" PMx_normed="11.337271" NOx_normed="318.269153" fuel_normed="357.388307" electricity_normed="0"
            traveltime="0.03" CO_perVeh="0.621659" CO2_perVeh="47.349885" HC_perVeh="0.003911" PMx_perVeh="0.000646" NOx_perVeh="0.018126" fuel_perVeh="0.020354" electricity_perVeh="0"/>
        <edge id=":1110673564_0" sampledSeconds="27.85" CO_abs="480.484155" CO2_abs="55898.411038" HC_abs="3.455933" PMx_abs="0.761208" NOx_abs="20.926892" fuel_abs="24.028402" electricity_abs="0"
            CO_normed="2041.958396" CO2_normed="237556.699015" HC_normed="14.687000" PMx_normed="3.234978" NOx_normed="88.934968" fuel_normed="102.115743" electricity_normed="0"
            traveltime="7.866687e-03" CO_perVeh="0.135711" CO2_perVeh="15.788282" HC_perVeh="0.000976" PMx_perVeh="0.000215" NOx_perVeh="0.005911" fuel_perVeh="0.006787" electricity_perVeh="0"/>
        <edge id=":1110673588_0" sampledSeconds="63.33" CO_abs="1219.785741" CO2_abs="129859.172466" HC_abs="8.546230" PMx_abs="1.825387" NOx_abs="49.210730" fuel_abs="55.821042" electricity_abs="0"
            CO_normed="2073.534963" CO2_normed="220749.862296" HC_normed="14.527884" PMx_normed="3.103007" NOx_normed="83.654174" fuel_normed="94.891159" electricity_normed="0"
            traveltime="0.02" CO_perVeh="0.393479" CO2_perVeh="41.890056" HC_perVeh="0.002757" PMx_perVeh="0.000589" NOx_perVeh="0.015874" fuel_perVeh="0.018007" electricity_perVeh="0"/>
        <edge id=":1110673601_0" sampledSeconds="28.93" CO_abs="404.808324" CO2_abs="49088.236043" HC_abs="2.957788" PMx_abs="0.661690" NOx_abs="18.297539" fuel_abs="21.100990" electricity_abs="0"
            CO_normed="614.411338" CO2_normed="74505.307923" HC_normed="4.489281" PMx_normed="1.004301" NOx_normed="27.771701" fuel_normed="32.026732" electricity_normed="0"
            traveltime="0.02" CO_perVeh="0.308686" CO2_perVeh="37.432136" HC_perVeh="0.002255" PMx_perVeh="0.000505" NOx_perVeh="0.013953" fuel_perVeh="0.016091" electricity_perVeh="0"/>
        <edge id=":1110673617_0" sampledSeconds="856.50" CO_abs="30344.981921" CO2_abs="3142251.376390" HC_abs="213.336060" PMx_abs="58.756871" NOx_abs="1227.137620" fuel_abs="1350.707097" electricity_abs="0"
            CO_normed="42986.634760" CO2_normed="4451306.400269" HC_normed="302.211394" PMx_normed="83.234855" NOx_normed="1738.360457" fuel_normed="1913.408707" electricity_normed="0"
            traveltime="0.02" CO_perVeh="0.537328" CO2_perVeh="55.640867" HC_perVeh="0.003778" PMx_perVeh="0.001040" NOx_perVeh="0.021729" fuel_perVeh="0.023917" electricity_perVeh="0"/>
        <edge id=":1110673621_0" sampledSeconds="26.31" CO_abs="646.937771" CO2_abs="64250.036686" HC_abs="4.435451" PMx_abs="0.961968" NOx_abs="24.779394" fuel_abs="27.618353" electricity_abs="0"
            CO_normed="1099.740751" CO2_normed="109219.753072" HC_normed="7.539901" PMx_normed="1.635266" NOx_normed="42.122922" fuel_normed="46.948918" electricity_normed="0"
            traveltime="0.02" CO_perVeh="0.490104" CO2_perVeh="48.674270" HC_perVeh="0.003360" PMx_perVeh="0.000729" NOx_perVeh="0.018772" fuel_perVeh="0.020923" electricity_perVeh="0"/>
        <edge id=":1110673630_0" sampledSeconds="285.86" CO_abs="989.236770" CO2_abs="91165.608238" HC_abs="6.579062" PMx_abs="1.162450" NOx_abs="34.077420" fuel_abs="39.188558" electricity_abs="0"
            CO_normed="29.986105" CO2_normed="2763.445088" HC_normed="0.199427" PMx_normed="0.035237" NOx_normed="1.032967" fuel_normed="1.187898" electricity_normed="0"
            traveltime="1.29" CO_perVeh="4.451188" CO2_perVeh="410.210419" HC_perVeh="0.029603" PMx_perVeh="0.005231" NOx_perVeh="0.153335" fuel_perVeh="0.176334" electricity_perVeh="0"/>
        <edge id=":1110673630_1" sampledSeconds="337.82" CO_abs="1287.020658" CO2_abs="107021.473265" HC_abs="8.294605" PMx_abs="1.394658" NOx_abs="40.408874" fuel_abs="46.004419" electricity_abs="0"
            CO_normed="47.561495" CO2_normed="3954.949149" HC_normed="0.306525" PMx_normed="0.051539" NOx_normed="1.493299" fuel_normed="1.700081" electricity_normed="0"
            traveltime="1.08" CO_perVeh="4.102769" CO2_perVeh="341.163394" HC_perVeh="0.026442" PMx_perVeh="0.004446" NOx_perVeh="0.128816" fuel_perVeh="0.146653" electricity_perVeh="0"/>
        <edge id=":1110673650_0" sampledSeconds="199.32" CO_abs="3012.020679" CO2_abs="387784.506449" HC_abs="22.559273" PMx_abs="5.219956" NOx_abs="144.074643" fuel_abs="166.692328" electricity_abs="0"
            CO_normed="4266.821881" CO2_normed="549334.680367" HC_normed="31.957417" PMx_normed="7.394579" NOx_normed="204.095822" fuel_normed="236.135985" electricity_normed="0"
            traveltime="0.02" CO_perVeh="0.348117" CO2_perVeh="44.818515" HC_perVeh="0.002607" PMx_perVeh="0.000603" NOx_perVeh="0.016652" fuel_perVeh="0.019266" electricity_perVeh="0"/>
        <edge id=":1110673655_0" sampledSeconds="20.57" CO_abs="313.804943" CO2_abs="36898.395226" HC_abs="2.278357" PMx_abs="0.499534" NOx_abs="13.793184" fuel_abs="15.861089" electricity_abs="0"
            CO_normed="444.535393" CO2_normed="52270.185659" HC_normed="3.227516" PMx_normed="0.707638" NOx_normed="19.539394" fuel_normed="22.468784" electricity_normed="0"
            traveltime="0.02" CO_perVeh="0.358498" CO2_perVeh="42.153536" HC_perVeh="0.002603" PMx_perVeh="0.000571" NOx_perVeh="0.015758" fuel_perVeh="0.018120" electricity_perVeh="0"/>
        <edge id=":1110673663_0" sampledSeconds="110.76" CO_abs="1782.921038" CO2_abs="213417.762236" HC_abs="12.948954" PMx_abs="2.798388" NOx_abs="79.196059" fuel_abs="91.739541" electricity_abs="0"
            CO_normed="46.257913" CO2_normed="5537.126985" HC_normed="0.335961" PMx_normed="0.072604" NOx_normed="2.054743" fuel_normed="2.380184" electricity_normed="0"
            traveltime="1.30" CO_perVeh="20.941249" CO2_perVeh="2506.692298" HC_perVeh="0.152092" PMx_perVeh="0.032868" NOx_perVeh="0.930195" fuel_perVeh="1.077524" electricity_perVeh="0"/>
        <edge id=":1110673663_1" sampledSeconds="170.99" CO_abs="2491.941274" CO2_abs="300334.088179" HC_abs="18.251304" PMx_abs="4.114049" NOx_abs="112.378325" fuel_abs="129.101055" electricity_abs="0"
            CO_normed="64.732492" CO2_normed="7801.698225" HC_normed="0.474109" PMx_normed="0.106870" NOx_normed="2.919222" fuel_normed="3.353624" electricity_normed="0"
            traveltime="1.28" CO_perVeh="18.609726" CO2_perVeh="2242.883918" HC_perVeh="0.136300" PMx_perVeh="0.030724" NOx_perVeh="0.839237" fuel_perVeh="0.964122" electricity_perVeh="0"/>