<?xml version="1.0" encoding="UTF-8"?>

<!-- generated on Tue Nov 10 01:36:48 2020 by Eclipse SUMO sumo Version 1.7.0
<configuration xmlns:xsi="http://www.w3.org/2001/XMLSchema-instance" xsi:noNamespaceSchemaLocation="http://sumo.dlr.de/xsd/sumoConfiguration.xsd">

    <input>
        <net-file value="../dataSets/Porto/6AM7AM_Routing_SaoBento/Porto.net.xml"/>
        <route-files value="../results/Porto/6AM7AM_Routing_SaoBento/cost_PMx-cost_co2/solution6/Porto.rou.xml"/>
        <additional-files value="moreOutputInfo.xml"/>
    </input>

    <output>
        <emission-output.precision value="6"/>
        <tripinfo-output value="../results/Porto/6AM7AM_Routing_SaoBento/cost_PMx-cost_co2/solution6/Porto-tripinfo"/>
    </output>

    <processing>
        <collision.action value="warn"/>
        <time-to-teleport value="-1"/>
    </processing>

    <emissions>
        <device.emissions.probability value="1"/>
    </emissions>

    <gui_only>
        <quit-on-end value="true"/>
        <start value="true"/>
    </gui_only>

</configuration>
-->

<meandata xmlns:xsi="http://www.w3.org/2001/XMLSchema-instance" xsi:noNamespaceSchemaLocation="http://sumo.dlr.de/xsd/meandata_file.xsd">
    <interval begin="0.00" end="4699.00" id="emissions-detector">
        <edge id=":1092997347_0" sampledSeconds="311.69" CO_abs="39644.941994" CO2_abs="1572627.648268" HC_abs="217.689358" PMx_abs="32.117551" NOx_abs="682.859083" fuel_abs="676.010727" electricity_abs="0"
            CO_normed="69029.092833" CO2_normed="2738232.280448" HC_normed="379.036975" PMx_normed="55.922528" NOx_normed="1188.982520" fuel_normed="1177.058279" electricity_normed="0"
            traveltime="0.08" CO_perVeh="9.568364" CO2_perVeh="379.555959" HC_perVeh="0.052540" PMx_perVeh="0.007752" NOx_perVeh="0.164809" fuel_perVeh="0.163156" electricity_perVeh="0"/>
        <edge id=":1103427051_0" sampledSeconds="10.88" CO_abs="907.264223" CO2_abs="51943.953838" HC_abs="5.364973" PMx_abs="1.018089" NOx_abs="22.140219" fuel_abs="22.328397" electricity_abs="0"
            CO_normed="2396.805780" CO2_normed="137225.259824" HC_normed="14.173157" PMx_normed="2.689583" NOx_normed="58.489913" fuel_normed="58.987039" electricity_normed="0"
            traveltime="0.03" CO_perVeh="2.485890" CO2_perVeh="142.325648" HC_perVeh="0.014700" PMx_perVeh="0.002790" NOx_perVeh="0.060664" fuel_perVeh="0.061179" electricity_perVeh="0"/>
        <edge id=":1105984386_0" sampledSeconds="36.31" CO_abs="623.851856" CO2_abs="51833.688303" HC_abs="4.018432" PMx_abs="0.670339" NOx_abs="19.551664" fuel_abs="22.281318" electricity_abs="0"
            CO_normed="49.222005" CO2_normed="4089.685754" HC_normed="0.317055" PMx_normed="0.052890" NOx_normed="1.542629" fuel_normed="1.757999" electricity_normed="0"
            traveltime="0.94" CO_perVeh="16.112356" CO2_perVeh="1338.719846" HC_perVeh="0.103785" PMx_perVeh="0.017313" NOx_perVeh="0.504965" fuel_perVeh="0.575464" electricity_perVeh="0"/>
        <edge id=":1105984390_0" sampledSeconds="37.84" CO_abs="0" CO2_abs="0" HC_abs="0" PMx_abs="0" NOx_abs="0" fuel_abs="0" electricity_abs="0"
            CO_normed="0" CO2_normed="0" HC_normed="0" PMx_normed="0" NOx_normed="0" fuel_normed="0" electricity_normed="0"
            traveltime="1.06" CO_perVeh="0" CO2_perVeh="0" HC_perVeh="0" PMx_perVeh="0" NOx_perVeh="0" fuel_perVeh="0" electricity_perVeh="0"/>
        <edge id=":1105984390_1" sampledSeconds="645.80" CO_abs="14846.407409" CO2_abs="1920959.714423" HC_abs="113.508525" PMx_abs="34.000711" NOx_abs="719.116093" fuel_abs="825.732551" electricity_abs="0"
            CO_normed="866.270856" CO2_normed="112085.797645" HC_normed="6.623092" PMx_normed="1.983902" NOx_normed="41.959600" fuel_normed="48.180548" electricity_normed="0"
            traveltime="0.64" CO_perVeh="14.615617" CO2_perVeh="1891.098030" HC_perVeh="0.111744" PMx_perVeh="0.033472" NOx_perVeh="0.707937" fuel_perVeh="0.812896" electricity_perVeh="0"/>
        <edge id=":1105984395_0" sampledSeconds="14.34" CO_abs="323.844186" CO2_abs="25996.936762" HC_abs="2.068817" PMx_abs="0.357041" NOx_abs="9.952125" fuel_abs="11.175064" electricity_abs="0"
            CO_normed="269.677885" CO2_normed="21648.679262" HC_normed="1.722786" PMx_normed="0.297322" NOx_normed="8.287529" fuel_normed="9.305919" electricity_normed="0"
            traveltime="0.09" CO_perVeh="2.021006" CO2_perVeh="162.238379" HC_perVeh="0.012911" PMx_perVeh="0.002228" NOx_perVeh="0.062108" fuel_perVeh="0.069740" electricity_perVeh="0"/>
        <edge id=":1105984398_0" sampledSeconds="36.65" CO_abs="2568.678265" CO2_abs="174090.589928" HC_abs="15.825399" PMx_abs="3.258505" NOx_abs="72.600523" fuel_abs="74.833701" electricity_abs="0"
            CO_normed="162.772287" CO2_normed="11031.791671" HC_normed="1.002826" PMx_normed="0.206485" NOx_normed="4.600558" fuel_normed="4.742070" electricity_normed="0"
            traveltime="1.09" CO_perVeh="76.061127" CO2_perVeh="5154.996138" HC_perVeh="0.468606" PMx_perVeh="0.096488" NOx_perVeh="2.149774" fuel_perVeh="2.215901" electricity_perVeh="0"/>
        <edge id=":1105984398_1" sampledSeconds="453.68" CO_abs="7532.405914" CO2_abs="889367.531907" HC_abs="54.732620" PMx_abs="12.741019" NOx_abs="336.283911" fuel_abs="382.301148" electricity_abs="0"
            CO_normed="462.028040" CO2_normed="54552.654507" HC_normed="3.357228" PMx_normed="0.781518" NOx_normed="20.627220" fuel_normed="23.449858" electricity_normed="0"
            traveltime="0.96" CO_perVeh="15.876850" CO2_perVeh="1874.614117" HC_perVeh="0.115366" PMx_perVeh="0.026856" NOx_perVeh="0.708821" fuel_perVeh="0.805817" electricity_perVeh="0"/>
        <edge id=":1106006327_0" sampledSeconds="38.13" CO_abs="5175.644719" CO2_abs="169664.092167" HC_abs="27.563425" PMx_abs="3.546182" NOx_abs="74.310043" fuel_abs="72.932548" electricity_abs="0"
            CO_normed="447.535809" CO2_normed="14670.782261" HC_normed="2.383398" PMx_normed="0.306637" NOx_normed="6.425558" fuel_normed="6.306447" electricity_normed="0"
            traveltime="2.07" CO_perVeh="280.775240" CO2_perVeh="9204.162727" HC_perVeh="1.495297" PMx_perVeh="0.192378" NOx_perVeh="4.031270" fuel_perVeh="3.956542" electricity_perVeh="0"/>
        <edge id=":1106006327_1" sampledSeconds="162.13" CO_abs="21825.402895" CO2_abs="725830.907258" HC_abs="116.476846" PMx_abs="15.113267" NOx_abs="317.486104" fuel_abs="312.008667" electricity_abs="0"
            CO_normed="1645.756645" CO2_normed="54731.683281" HC_normed="8.783001" PMx_normed="1.139624" NOx_normed="23.940216" fuel_normed="23.527187" electricity_normed="0"
            traveltime="2.30" CO_perVeh="309.839724" CO2_perVeh="10304.105211" HC_perVeh="1.653539" PMx_perVeh="0.214552" NOx_perVeh="4.507124" fuel_perVeh="4.429365" electricity_perVeh="0"/>
        <edge id=":1106006327_2" sampledSeconds="0.00" CO_abs="0" CO2_abs="0" HC_abs="0" PMx_abs="0" NOx_abs="0" fuel_abs="0" electricity_abs="0"
            CO_normed="0" CO2_normed="0" HC_normed="0" PMx_normed="0" NOx_normed="0" fuel_normed="0" electricity_normed="0"/>
        <edge id=":1106006327_3" sampledSeconds="0.00" CO_abs="0" CO2_abs="0" HC_abs="0" PMx_abs="0" NOx_abs="0" fuel_abs="0" electricity_abs="0"
            CO_normed="0" CO2_normed="0" HC_normed="0" PMx_normed="0" NOx_normed="0" fuel_normed="0" electricity_normed="0"/>
        <edge id=":1107381198_0" sampledSeconds="0.00" CO_abs="0" CO2_abs="0" HC_abs="0" PMx_abs="0" NOx_abs="0" fuel_abs="0" electricity_abs="0"
            CO_normed="0" CO2_normed="0" HC_normed="0" PMx_normed="0" NOx_normed="0" fuel_normed="0" electricity_normed="0"/>
        <edge id=":1107381198_1" sampledSeconds="35.30" CO_abs="1371.905178" CO2_abs="57439.857700" HC_abs="7.573581" PMx_abs="1.001981" NOx_abs="23.848160" fuel_abs="24.691329" electricity_abs="0"
            CO_normed="114.617733" CO2_normed="4798.893097" HC_normed="0.632745" PMx_normed="0.083712" NOx_normed="1.992428" fuel_normed="2.062872" electricity_normed="0"
            traveltime="1.45" CO_perVeh="56.485140" CO2_perVeh="2364.958222" HC_perVeh="0.311825" PMx_perVeh="0.041254" NOx_perVeh="0.981895" fuel_perVeh="1.016610" electricity_perVeh="0"/>
        <edge id=":1110338277_0" sampledSeconds="96.39" CO_abs="1839.697312" CO2_abs="214052.910100" HC_abs="13.271039" PMx_abs="3.007171" NOx_abs="80.684644" fuel_abs="92.012309" electricity_abs="0"
            CO_normed="5033.677623" CO2_normed="585679.685922" HC_normed="36.311480" PMx_normed="8.228055" NOx_normed="220.764843" fuel_normed="251.758972" electricity_normed="0"
            traveltime="0.02" CO_perVeh="0.414610" CO2_perVeh="48.240770" HC_perVeh="0.002991" PMx_perVeh="0.000678" NOx_perVeh="0.018184" fuel_perVeh="0.020737" electricity_perVeh="0"/>
        <edge id=":1110338293_0" sampledSeconds="124.16" CO_abs="5957.499533" CO2_abs="415372.053393" HC_abs="36.876280" PMx_abs="7.206152" NOx_abs="169.426897" fuel_abs="178.550465" electricity_abs="0"
            CO_normed="15213.874100" CO2_normed="1060750.083149" HC_normed="94.172240" PMx_normed="18.402601" NOx_normed="432.671370" fuel_normed="455.970542" electricity_normed="0"
            traveltime="0.03" CO_perVeh="1.366451" CO2_perVeh="95.272461" HC_perVeh="0.008458" PMx_perVeh="0.001653" NOx_perVeh="0.038861" fuel_perVeh="0.040954" electricity_perVeh="0"/>
        <edge id=":1110338295_0" sampledSeconds="0.00" CO_abs="0" CO2_abs="0" HC_abs="0" PMx_abs="0" NOx_abs="0" fuel_abs="0" electricity_abs="0"
            CO_normed="0" CO2_normed="0" HC_normed="0" PMx_normed="0" NOx_normed="0" fuel_normed="0" electricity_normed="0"/>
        <edge id=":1110673403_0" sampledSeconds="147.37" CO_abs="2396.568330" CO2_abs="302072.132641" HC_abs="17.795471" PMx_abs="4.150242" NOx_abs="112.794495" fuel_abs="129.848074" electricity_abs="0"
            CO_normed="6120.200034" CO2_normed="771412.128473" HC_normed="45.444913" PMx_normed="10.598618" NOx_normed="288.047231" fuel_normed="331.597551" electricity_normed="0"
            traveltime="0.02" CO_perVeh="0.374659" CO2_perVeh="47.223366" HC_perVeh="0.002782" PMx_perVeh="0.000649" NOx_perVeh="0.017633" fuel_perVeh="0.020299" electricity_perVeh="0"/>
        <edge id=":1110673412_0" sampledSeconds="252.83" CO_abs="45177.654089" CO2_abs="3074846.814955" HC_abs="280.950378" PMx_abs="67.595583" NOx_abs="1321.901796" fuel_abs="1321.725224" electricity_abs="0"
            CO_normed="119350.085286" CO2_normed="8123113.893520" HC_normed="742.213208" PMx_normed="178.573650" NOx_normed="3492.193105" fuel_normed="3491.726637" electricity_normed="0"
            traveltime="0.02" CO_perVeh="2.786233" CO2_perVeh="189.634478" HC_perVeh="0.017327" PMx_perVeh="0.004169" NOx_perVeh="0.081525" fuel_perVeh="0.081515" electricity_perVeh="0"/>
        <edge id=":1110673414_0" sampledSeconds="0.00" CO_abs="0" CO2_abs="0" HC_abs="0" PMx_abs="0" NOx_abs="0" fuel_abs="0" electricity_abs="0"
            CO_normed="0" CO2_normed="0" HC_normed="0" PMx_normed="0" NOx_normed="0" fuel_normed="0" electricity_normed="0"/>
        <edge id=":1110673414_1" sampledSeconds="252.79" CO_abs="17065.391013" CO2_abs="656693.321533" HC_abs="92.982344" PMx_abs="12.257157" NOx_abs="278.103305" fuel_abs="282.288769" electricity_abs="0"
            CO_normed="1447.856596" CO2_normed="55714.970517" HC_normed="7.888779" PMx_normed="1.039918" NOx_normed="23.594754" fuel_normed="23.949856" electricity_normed="0"
            traveltime="1.58" CO_perVeh="106.503892" CO2_perVeh="4098.376317" HC_perVeh="0.580296" PMx_perVeh="0.076496" NOx_perVeh="1.735623" fuel_perVeh="1.761744" electricity_perVeh="0"/>
        <edge id=":1110673417_0" sampledSeconds="29.64" CO_abs="645.433022" CO2_abs="69147.135013" HC_abs="4.533560" PMx_abs="1.002267" NOx_abs="26.348366" fuel_abs="29.723424" electricity_abs="0"
            CO_normed="1765.997993" CO2_normed="189196.550974" HC_normed="12.404474" PMx_normed="2.742347" NOx_normed="72.092937" fuel_normed="81.327582" electricity_normed="0"
            traveltime="0.02" CO_perVeh="0.479049" CO2_perVeh="51.321929" HC_perVeh="0.003365" PMx_perVeh="0.000744" NOx_perVeh="0.019556" fuel_perVeh="0.022061" electricity_perVeh="0"/>
        <edge id=":1110673446_0" sampledSeconds="332.87" CO_abs="3532.937824" CO2_abs="287493.527515" HC_abs="22.907944" PMx_abs="5.234664" NOx_abs="117.344627" fuel_abs="123.580295" electricity_abs="0"
            CO_normed="9022.186400" CO2_normed="734182.236685" HC_normed="58.500815" PMx_normed="13.367943" NOx_normed="299.667063" fuel_normed="315.591304" electricity_normed="0"
            traveltime="0.02" CO_perVeh="0.241364" CO2_perVeh="19.641015" HC_perVeh="0.001565" PMx_perVeh="0.000358" NOx_perVeh="0.008017" fuel_perVeh="0.008443" electricity_perVeh="0"/>
        <edge id=":1110673451_0" sampledSeconds="37.26" CO_abs="439.198398" CO2_abs="31136.470468" HC_abs="2.711093" PMx_abs="0.437599" NOx_abs="12.037939" fuel_abs="13.384371" electricity_abs="0"
            CO_normed="1246.218055" CO2_normed="88349.210380" HC_normed="7.692680" PMx_normed="1.241679" NOx_normed="34.157448" fuel_normed="37.977928" electricity_normed="0"
            traveltime="0.03" CO_perVeh="0.314963" CO2_perVeh="22.328943" HC_perVeh="0.001944" PMx_perVeh="0.000314" NOx_perVeh="0.008633" fuel_perVeh="0.009598" electricity_perVeh="0"/>
        <edge id=":1110673464_0" sampledSeconds="322.42" CO_abs="695.387159" CO2_abs="54603.974966" HC_abs="4.420897" PMx_abs="0.785086" NOx_abs="21.124601" fuel_abs="23.472068" electricity_abs="0"
            CO_normed="37.730193" CO2_normed="2962.692772" HC_normed="0.239868" PMx_normed="0.042597" NOx_normed="1.146175" fuel_normed="1.273543" electricity_normed="0"
            traveltime="1.17" CO_perVeh="2.513733" CO2_perVeh="197.386165" HC_perVeh="0.015981" PMx_perVeh="0.002838" NOx_perVeh="0.076363" fuel_perVeh="0.084848" electricity_perVeh="0"/>
        <edge id=":1110673464_1" sampledSeconds="718.70" CO_abs="17531.474812" CO2_abs="2227488.159066" HC_abs="133.235846" PMx_abs="39.623940" NOx_abs="836.849189" fuel_abs="957.494906" electricity_abs="0"
            CO_normed="932.076432" CO2_normed="118426.386771" HC_normed="7.083602" PMx_normed="2.106642" NOx_normed="44.491831" fuel_normed="50.906067" electricity_normed="0"
            traveltime="0.70" CO_perVeh="17.092949" CO2_perVeh="2171.770556" HC_perVeh="0.129903" PMx_perVeh="0.038633" NOx_perVeh="0.815917" fuel_perVeh="0.933544" electricity_perVeh="0"/>
        <edge id=":1110673479_0" sampledSeconds="133.07" CO_abs="6713.486404" CO2_abs="465119.059764" HC_abs="41.516870" PMx_abs="8.240867" NOx_abs="190.850438" fuel_abs="199.934321" electricity_abs="0"
            CO_normed="17144.464110" CO2_normed="1187790.746366" HC_normed="106.023077" PMx_normed="21.044988" NOx_normed="487.381412" fuel_normed="510.579240" electricity_normed="0"
            traveltime="0.03" CO_perVeh="1.414266" CO2_perVeh="97.982214" HC_perVeh="0.008746" PMx_perVeh="0.001736" NOx_perVeh="0.040205" fuel_perVeh="0.042118" electricity_perVeh="0"/>
        <edge id=":1110673511_0" sampledSeconds="11.63" CO_abs="208.429768" CO2_abs="24738.256643" HC_abs="1.519659" PMx_abs="0.344087" NOx_abs="9.301047" fuel_abs="10.633935" electricity_abs="0"
            CO_normed="532.274358" CO2_normed="63174.947801" HC_normed="3.880805" PMx_normed="0.878707" NOx_normed="23.752408" fuel_normed="27.156250" electricity_normed="0"
            traveltime="0.02" CO_perVeh="0.412732" CO2_perVeh="48.986647" HC_perVeh="0.003009" PMx_perVeh="0.000681" NOx_perVeh="0.018418" fuel_perVeh="0.021057" electricity_perVeh="0"/>
        <edge id=":1110673517_0" sampledSeconds="17.10" CO_abs="759.006067" CO2_abs="54314.082359" HC_abs="4.728473" PMx_abs="0.923524" NOx_abs="21.993995" fuel_abs="23.347288" electricity_abs="0"
            CO_normed="1938.300234" CO2_normed="138703.764270" HC_normed="12.075267" PMx_normed="2.358436" NOx_normed="56.166831" fuel_normed="59.622784" electricity_normed="0"
            traveltime="0.03" CO_perVeh="1.218634" CO2_perVeh="87.204842" HC_perVeh="0.007592" PMx_perVeh="0.001483" NOx_perVeh="0.035313" fuel_perVeh="0.037486" electricity_perVeh="0"/>
        <edge id=":1110673534_0" sampledSeconds="474.61" CO_abs="3039.737110" CO2_abs="267808.540066" HC_abs="19.984409" PMx_abs="3.726336" NOx_abs="102.323635" fuel_abs="115.120118" electricity_abs="0"
            CO_normed="150.439584" CO2_normed="13254.108497" HC_normed="0.989048" PMx_normed="0.184420" NOx_normed="5.064097" fuel_normed="5.697408" electricity_normed="0"
            traveltime="1.43" CO_perVeh="9.157510" CO2_perVeh="806.799795" HC_perVeh="0.060205" PMx_perVeh="0.011226" NOx_perVeh="0.308260" fuel_perVeh="0.346811" electricity_perVeh="0"/>
        <edge id=":1110673534_1" sampledSeconds="200.57" CO_abs="3216.586664" CO2_abs="419765.674788" HC_abs="24.222656" PMx_abs="5.651775" NOx_abs="155.908069" fuel_abs="180.439660" electricity_abs="0"
            CO_normed="154.792263" CO2_normed="20200.443979" HC_normed="1.165670" PMx_normed="0.271981" NOx_normed="7.502786" fuel_normed="8.683324" electricity_normed="0"
            traveltime="1.23" CO_perVeh="19.661982" CO2_perVeh="2565.895494" HC_perVeh="0.148065" PMx_perVeh="0.034548" NOx_perVeh="0.953017" fuel_perVeh="1.102971" electricity_perVeh="0"/>
        <edge id=":1110673549_0" sampledSeconds="61.19" CO_abs="59.463632" CO2_abs="6595.887642" HC_abs="0.419472" PMx_abs="0.074118" NOx_abs="2.390170" fuel_abs="2.835322" electricity_abs="0"
            CO_normed="2.850833" CO2_normed="316.223055" HC_normed="0.020111" PMx_normed="0.003553" NOx_normed="0.114591" fuel_normed="0.135932" electricity_normed="0"
            traveltime="1.27" CO_perVeh="1.238874" CO2_perVeh="137.419701" HC_perVeh="0.008739" PMx_perVeh="0.001544" NOx_perVeh="0.049797" fuel_perVeh="0.059072" electricity_perVeh="0"/>
        <edge id=":1110673549_1" sampledSeconds="638.85" CO_abs="13667.493025" CO2_abs="1801168.406174" HC_abs="105.204306" PMx_abs="31.657592" NOx_abs="672.774246" fuel_abs="774.239880" electricity_abs="0"
            CO_normed="633.834499" CO2_normed="83529.779174" HC_normed="4.878884" PMx_normed="1.468131" NOx_normed="31.200128" fuel_normed="35.905630" electricity_normed="0"
            traveltime="0.80" CO_perVeh="17.204666" CO2_perVeh="2267.314208" HC_perVeh="0.132431" PMx_perVeh="0.039851" NOx_perVeh="0.846889" fuel_perVeh="0.974615" electricity_perVeh="0"/>
        <edge id=":1110673556_0" sampledSeconds="416.26" CO_abs="50838.726102" CO2_abs="2556365.612503" HC_abs="292.267870" PMx_abs="51.528285" NOx_abs="1100.737547" fuel_abs="1098.870863" electricity_abs="0"
            CO_normed="1807.359062" CO2_normed="90880.926978" HC_normed="10.390366" PMx_normed="1.831873" NOx_normed="39.132137" fuel_normed="39.065775" electricity_normed="0"
            traveltime="2.58" CO_perVeh="315.582229" CO2_perVeh="15868.681625" HC_perVeh="1.814258" PMx_perVeh="0.319863" NOx_perVeh="6.832846" fuel_perVeh="6.821259" electricity_perVeh="0"/>
        <edge id=":1110673556_2" sampledSeconds="248.41" CO_abs="23446.993642" CO2_abs="1011960.961542" HC_abs="130.524707" PMx_abs="19.489314" NOx_abs="431.327333" fuel_abs="435.002269" electricity_abs="0"
            CO_normed="871.577940" CO2_normed="37616.884445" HC_normed="4.851899" PMx_normed="0.724462" NOx_normed="16.033415" fuel_normed="16.170021" electricity_normed="0"
            traveltime="3.01" CO_perVeh="284.407540" CO2_perVeh="12274.892543" HC_perVeh="1.583240" PMx_perVeh="0.236402" NOx_perVeh="5.231918" fuel_perVeh="5.276494" electricity_perVeh="0"/>
        <edge id=":1110673556_3" sampledSeconds="366.54" CO_abs="31617.614905" CO2_abs="1120289.100374" HC_abs="170.080859" PMx_abs="21.598330" NOx_abs="479.189177" fuel_abs="481.572929" electricity_abs="0"
            CO_normed="2673.609426" CO2_normed="94732.493489" HC_normed="14.382166" PMx_normed="1.826371" NOx_normed="40.520599" fuel_normed="40.722171" electricity_normed="0"
            traveltime="1.76" CO_perVeh="151.405990" CO2_perVeh="5364.682976" HC_perVeh="0.814459" PMx_perVeh="0.103427" NOx_perVeh="2.294674" fuel_perVeh="2.306089" electricity_perVeh="0"/>
        <edge id=":1110673556_4" sampledSeconds="180.19" CO_abs="18369.818979" CO2_abs="738459.417550" HC_abs="100.965343" PMx_abs="14.359741" NOx_abs="316.121172" fuel_abs="317.435516" electricity_abs="0"
            CO_normed="948.988132" CO2_normed="38148.945525" HC_normed="5.215888" PMx_normed="0.741827" NOx_normed="16.330876" fuel_normed="16.398775" electricity_normed="0"
            traveltime="2.39" CO_perVeh="244.094776" CO2_perVeh="9812.512914" HC_perVeh="1.341609" PMx_perVeh="0.190810" NOx_perVeh="4.200560" fuel_perVeh="4.218025" electricity_perVeh="0"/>
        <edge id=":1110673556_5" sampledSeconds="24.52" CO_abs="2099.660911" CO2_abs="86839.480624" HC_abs="11.603840" PMx_abs="1.712221" NOx_abs="37.322153" fuel_abs="37.328891" electricity_abs="0"
            CO_normed="151.183568" CO2_normed="6252.772751" HC_normed="0.835521" PMx_normed="0.123286" NOx_normed="2.687337" fuel_normed="2.687822" electricity_normed="0"
            traveltime="1.70" CO_perVeh="145.161742" CO2_perVeh="6003.717179" HC_perVeh="0.802241" PMx_perVeh="0.118376" NOx_perVeh="2.580297" fuel_perVeh="2.580763" electricity_perVeh="0"/>
        <edge id=":1110673556_6" sampledSeconds="314.89" CO_abs="38157.557303" CO2_abs="1919584.655932" HC_abs="219.429321" PMx_abs="38.890181" NOx_abs="827.489878" fuel_abs="825.146026" electricity_abs="0"
            CO_normed="1390.736680" CO2_normed="69963.513922" HC_normed="7.997588" PMx_normed="1.417439" NOx_normed="30.159701" fuel_normed="30.074274" electricity_normed="0"
            traveltime="2.49" CO_perVeh="302.178135" CO2_perVeh="15201.615420" HC_perVeh="1.737709" PMx_perVeh="0.307980" NOx_perVeh="6.553075" fuel_perVeh="6.534514" electricity_perVeh="0"/>
        <edge id=":1110673561_0" sampledSeconds="101.45" CO_abs="9770.719755" CO2_abs="693602.043689" HC_abs="61.213608" PMx_abs="14.124383" NOx_abs="294.121477" fuel_abs="298.146387" electricity_abs="0"
            CO_normed="447.432650" CO2_normed="31762.266027" HC_normed="2.803168" PMx_normed="0.646801" NOx_normed="13.468767" fuel_normed="13.653081" electricity_normed="0"
            traveltime="1.20" CO_perVeh="115.303977" CO2_perVeh="8185.177326" HC_perVeh="0.722380" PMx_perVeh="0.166681" NOx_perVeh="3.470919" fuel_perVeh="3.518417" electricity_perVeh="0"/>
        <edge id=":1110673561_1" sampledSeconds="1316.62" CO_abs="122024.213204" CO2_abs="8454443.468636" HC_abs="760.225970" PMx_abs="176.725110" NOx_abs="3614.542245" fuel_abs="3634.156928" electricity_abs="0"
            CO_normed="5447.858116" CO2_normed="377454.664598" HC_normed="33.940831" PMx_normed="7.890019" NOx_normed="161.373819" fuel_normed="162.249531" electricity_normed="0"
            traveltime="1.19" CO_perVeh="110.521938" CO2_perVeh="7657.508724" HC_perVeh="0.688565" PMx_perVeh="0.160067" NOx_perVeh="3.273827" fuel_perVeh="3.291593" electricity_perVeh="0"/>
        <edge id=":1110673562_0" sampledSeconds="104.13" CO_abs="2221.895761" CO2_abs="178853.834194" HC_abs="14.185695" PMx_abs="2.354672" NOx_abs="67.771581" fuel_abs="76.882406" electricity_abs="0"
            CO_normed="6304.591787" CO2_normed="507494.741277" HC_normed="40.251671" PMx_normed="6.681342" NOx_normed="192.300719" fuel_normed="218.152533" electricity_normed="0"
            traveltime="0.03" CO_perVeh="0.566371" CO2_perVeh="45.590657" HC_perVeh="0.003616" PMx_perVeh="0.000600" NOx_perVeh="0.017275" fuel_perVeh="0.019598" electricity_perVeh="0"/>
        <edge id=":1110673564_0" sampledSeconds="28.58" CO_abs="489.584394" CO2_abs="58218.326596" HC_abs="3.549902" PMx_abs="0.789629" NOx_abs="21.755755" fuel_abs="25.025634" electricity_abs="0"
            CO_normed="3750.806172" CO2_normed="446022.506372" HC_normed="27.196527" PMx_normed="6.049510" NOx_normed="166.675292" fuel_normed="191.726503" electricity_normed="0"
            traveltime="7.856654e-03" CO_perVeh="0.134594" CO2_perVeh="16.005038" HC_perVeh="0.000976" PMx_perVeh="0.000217" NOx_perVeh="0.005981" fuel_perVeh="0.006880" electricity_perVeh="0"/>
        <edge id=":1110673588_0" sampledSeconds="11.46" CO_abs="194.870570" CO2_abs="26838.772832" HC_abs="1.477051" PMx_abs="0.362938" NOx_abs="9.931041" fuel_abs="11.536852" electricity_abs="0"
            CO_normed="597.177317" CO2_normed="82246.931001" HC_normed="4.526395" PMx_normed="1.112218" NOx_normed="30.433496" fuel_normed="35.354472" electricity_normed="0"
            traveltime="0.02" CO_perVeh="0.324784" CO2_perVeh="44.731288" HC_perVeh="0.002462" PMx_perVeh="0.000605" NOx_perVeh="0.016552" fuel_perVeh="0.019228" electricity_perVeh="0"/>
        <edge id=":1110673601_0" sampledSeconds="29.83" CO_abs="438.698337" CO2_abs="52191.404015" HC_abs="3.197018" PMx_abs="0.713313" NOx_abs="19.519433" fuel_abs="22.434908" electricity_abs="0"
            CO_normed="1200.342029" CO2_normed="142803.221395" HC_normed="8.747502" PMx_normed="1.951727" NOx_normed="53.407987" fuel_normed="61.385148" electricity_normed="0"
            traveltime="0.02" CO_perVeh="0.325608" CO2_perVeh="38.737159" HC_perVeh="0.002373" PMx_perVeh="0.000529" NOx_perVeh="0.014488" fuel_perVeh="0.016651" electricity_perVeh="0"/>
        <edge id=":1110673617_0" sampledSeconds="241.10" CO_abs="5974.265151" CO2_abs="731526.438617" HC_abs="44.717321" PMx_abs="13.141247" NOx_abs="276.551040" fuel_abs="314.449526" electricity_abs="0"
            CO_normed="15256.689042" CO2_normed="1868124.550629" HC_normed="114.196180" PMx_normed="33.559261" NOx_normed="706.238025" fuel_normed="803.020708" electricity_normed="0"
            traveltime="0.01" CO_perVeh="0.362358" CO2_perVeh="44.369428" HC_perVeh="0.002712" PMx_perVeh="0.000797" NOx_perVeh="0.016774" fuel_perVeh="0.019072" electricity_perVeh="0"/>
        <edge id=":1110673621_0" sampledSeconds="25.79" CO_abs="520.637725" CO2_abs="56566.080417" HC_abs="3.682068" PMx_abs="0.822908" NOx_abs="21.573651" fuel_abs="24.315352" electricity_abs="0"
            CO_normed="1595.484834" CO2_normed="173345.724199" HC_normed="11.283629" PMx_normed="2.521787" NOx_normed="66.112059" fuel_normed="74.513953" electricity_normed="0"
            traveltime="0.02" CO_perVeh="0.394423" CO2_perVeh="42.853091" HC_perVeh="0.002789" PMx_perVeh="0.000623" NOx_perVeh="0.016344" fuel_perVeh="0.018421" electricity_perVeh="0"/>
        <edge id=":1110673630_0" sampledSeconds="54.34" CO_abs="363.170487" CO2_abs="31300.564528" HC_abs="2.372420" PMx_abs="0.448166" NOx_abs="12.049925" fuel_abs="13.454840" electricity_abs="0"
            CO_normed="19.845388" CO2_normed="1710.413881" HC_normed="0.129640" PMx_normed="0.024490" NOx_normed="0.658466" fuel_normed="0.735237" electricity_normed="0"
            traveltime="1.27" CO_perVeh="8.477042" CO2_perVeh="730.610540" HC_perVeh="0.055376" PMx_perVeh="0.010461" NOx_perVeh="0.281267" fuel_perVeh="0.314060" electricity_perVeh="0"/>
        <edge id=":1110673630_1" sampledSeconds="7.30" CO_abs="0" CO2_abs="0" HC_abs="0" PMx_abs="0" NOx_abs="0" fuel_abs="0" electricity_abs="0"
            CO_normed="0" CO2_normed="0" HC_normed="0" PMx_normed="0" NOx_normed="0" fuel_normed="0" electricity_normed="0"
            traveltime="1.03" CO_perVeh="0" CO2_perVeh="0" HC_perVeh="0" PMx_perVeh="0" NOx_perVeh="0" fuel_perVeh="0" electricity_perVeh="0"/>
        <edge id=":1110673650_0" sampledSeconds="147.25" CO_abs="2407.412988" CO2_abs="306858.168502" HC_abs="17.924242" PMx_abs="4.116307" NOx_abs="113.996759" fuel_abs="131.905510" electricity_abs="0"
            CO_normed="6147.894414" CO2_normed="783634.394983" HC_normed="45.773761" PMx_normed="10.511956" NOx_normed="291.117495" fuel_normed="336.851697" electricity_normed="0"
            traveltime="0.02" CO_perVeh="0.376354" CO2_perVeh="47.971574" HC_perVeh="0.002802" PMx_perVeh="0.000644" NOx_perVeh="0.017821" fuel_perVeh="0.020621" electricity_perVeh="0"/>
        <edge id=":1110673655_0" sampledSeconds="44.70" CO_abs="813.517189" CO2_abs="90881.018737" HC_abs="5.773629" PMx_abs="1.278485" NOx_abs="34.346028" fuel_abs="39.065929" electricity_abs="0"
            CO_normed="2077.507186" CO2_normed="232086.023588" HC_normed="14.744317" PMx_normed="3.264911" NOx_normed="87.710647" fuel_normed="99.764024" electricity_normed="0"
            traveltime="0.02" CO_perVeh="0.435385" CO2_perVeh="48.638490" HC_perVeh="0.003090" PMx_perVeh="0.000684" NOx_perVeh="0.018382" fuel_perVeh="0.020908" electricity_perVeh="0"/>
        <edge id=":1110673663_0" sampledSeconds="108.39" CO_abs="1965.733847" CO2_abs="230356.002395" HC_abs="14.196367" PMx_abs="3.269759" NOx_abs="86.929185" fuel_abs="99.020264" electricity_abs="0"
            CO_normed="91.940714" CO2_normed="10774.141910" HC_normed="0.663988" PMx_normed="0.152932" NOx_normed="4.065826" fuel_normed="4.631346" electricity_normed="0"
            traveltime="1.27" CO_perVeh="23.088471" CO2_perVeh="2705.639920" HC_perVeh="0.166743" PMx_perVeh="0.038405" NOx_perVeh="1.021024" fuel_perVeh="1.163040" electricity_perVeh="0"/>
        <edge id=":1110673663_1" sampledSeconds="153.82" CO_abs="2367.815469" CO2_abs="309291.334619" HC_abs="17.854365" PMx_abs="4.216755" NOx_abs="115.073525" fuel_abs="132.951307" electricity_abs="0"
            CO_normed="110.882143" CO2_normed="14483.766309" HC_normed="0.836100" PMx_normed="0.197466" NOx_normed="5.388764" fuel_normed="6.225961" electricity_normed="0"
            traveltime="1.24" CO_perVeh="19.147561" CO2_perVeh="2501.113226" HC_perVeh="0.144381" PMx_perVeh="0.034099" NOx_perVeh="0.930553" fuel_perVeh="1.075123" electricity_perVeh="0"/>
        <edge id=":1110673666_0" sampledSeconds="208.86" CO_abs="4213.065653" CO2_abs="347997.018314" HC_abs="27.103647" PMx_abs="4.564254" NOx_abs="131.610367" fuel_abs="149.590524" electricity_abs="0"
            CO_normed="263.917887" CO2_normed="21799.479368" HC_normed="1.697846" PMx_normed="0.285917" NOx_normed="8.244431" fuel_normed="9.370757" electricity_normed="0"