<?xml version="1.0" encoding="UTF-8"?>

<!-- generated on Mon Nov  9 23:49:10 2020 by Eclipse SUMO sumo Version 1.7.0
<configuration xmlns:xsi="http://www.w3.org/2001/XMLSchema-instance" xsi:noNamespaceSchemaLocation="http://sumo.dlr.de/xsd/sumoConfiguration.xsd">

    <input>
        <net-file value="../dataSets/Porto/6AM7AM_Routing_SaoBento/Porto.net.xml"/>
        <route-files value="../results/Porto/6AM7AM_Routing_SaoBento/cost_PMx-length/solution19/Porto.rou.xml"/>
        <additional-files value="moreOutputInfo.xml"/>
    </input>

    <output>
        <emission-output.precision value="6"/>
        <tripinfo-output value="../results/Porto/6AM7AM_Routing_SaoBento/cost_PMx-length/solution19/Porto-tripinfo"/>
    </output>

    <processing>
        <collision.action value="warn"/>
        <time-to-teleport value="-1"/>
    </processing>

    <emissions>
        <device.emissions.probability value="1"/>
    </emissions>

    <gui_only>
        <quit-on-end value="true"/>
        <start value="true"/>
    </gui_only>

</configuration>
-->

<meandata xmlns:xsi="http://www.w3.org/2001/XMLSchema-instance" xsi:noNamespaceSchemaLocation="http://sumo.dlr.de/xsd/meandata_file.xsd">
    <interval begin="0.00" end="4699.00" id="emissions-detector">
        <edge id=":1092997347_0" sampledSeconds="266.87" CO_abs="34370.171428" CO2_abs="1361338.437590" HC_abs="188.686678" PMx_abs="27.856432" NOx_abs="591.425028" fuel_abs="585.185777" electricity_abs="0"
            CO_normed="59844.752820" CO2_normed="2370339.131789" HC_normed="328.538007" PMx_normed="48.503142" NOx_normed="1029.779111" fuel_normed="1018.915435" electricity_normed="0"
            traveltime="0.08" CO_perVeh="9.675033" CO2_perVeh="383.210043" HC_perVeh="0.053114" PMx_perVeh="0.007841" NOx_perVeh="0.166483" fuel_perVeh="0.164727" electricity_perVeh="0"/>
        <edge id=":1103427051_0" sampledSeconds="10.99" CO_abs="870.018387" CO2_abs="49717.024790" HC_abs="5.136625" PMx_abs="0.944598" NOx_abs="21.001340" fuel_abs="21.371186" electricity_abs="0"
            CO_normed="2298.409927" CO2_normed="131342.170559" HC_normed="13.569909" PMx_normed="2.495435" NOx_normed="55.481227" fuel_normed="56.458284" electricity_normed="0"
            traveltime="0.03" CO_perVeh="2.383837" CO2_perVeh="136.223896" HC_perVeh="0.014074" PMx_perVeh="0.002588" NOx_perVeh="0.057543" fuel_perVeh="0.058557" electricity_perVeh="0"/>
        <edge id=":1105984386_0" sampledSeconds="22.88" CO_abs="424.341494" CO2_abs="34352.230055" HC_abs="2.713496" PMx_abs="0.450921" NOx_abs="13.015122" fuel_abs="14.766706" electricity_abs="0"
            CO_normed="33.480607" CO2_normed="2710.396085" HC_normed="0.214095" PMx_normed="0.035578" NOx_normed="1.026895" fuel_normed="1.165095" electricity_normed="0"
            traveltime="0.96" CO_perVeh="17.809284" CO2_perVeh="1441.736488" HC_perVeh="0.113883" PMx_perVeh="0.018925" NOx_perVeh="0.546235" fuel_perVeh="0.619747" electricity_perVeh="0"/>
        <edge id=":1105984390_0" sampledSeconds="23.33" CO_abs="49.352422" CO2_abs="3106.847660" HC_abs="0.296635" PMx_abs="0.049980" NOx_abs="1.248982" fuel_abs="1.335509" electricity_abs="0"
            CO_normed="3.010342" CO2_normed="189.507924" HC_normed="0.018094" PMx_normed="0.003049" NOx_normed="0.076184" fuel_normed="0.081462" electricity_normed="0"
            traveltime="1.06" CO_perVeh="2.238108" CO2_perVeh="140.894016" HC_perVeh="0.013452" PMx_perVeh="0.002267" NOx_perVeh="0.056641" fuel_perVeh="0.060565" electricity_perVeh="0"/>
        <edge id=":1105984390_1" sampledSeconds="646.61" CO_abs="13169.270430" CO2_abs="1762949.434462" HC_abs="102.103260" PMx_abs="30.920516" NOx_abs="656.571568" fuel_abs="757.811383" electricity_abs="0"
            CO_normed="768.411836" CO2_normed="102866.078911" HC_normed="5.957608" PMx_normed="1.804177" NOx_normed="38.310198" fuel_normed="44.217426" electricity_normed="0"
            traveltime="0.64" CO_perVeh="12.967046" CO2_perVeh="1735.878035" HC_perVeh="0.100535" PMx_perVeh="0.030446" NOx_perVeh="0.646489" fuel_perVeh="0.746175" electricity_perVeh="0"/>
        <edge id=":1105984395_0" sampledSeconds="9.09" CO_abs="171.310538" CO2_abs="13379.162118" HC_abs="1.087383" PMx_abs="0.192589" NOx_abs="5.181593" fuel_abs="5.751168" electricity_abs="0"
            CO_normed="142.657073" CO2_normed="11141.358389" HC_normed="0.905507" PMx_normed="0.160376" NOx_normed="4.314918" fuel_normed="4.789225" electricity_normed="0"
            traveltime="0.09" CO_perVeh="1.737276" CO2_perVeh="135.679334" HC_perVeh="0.011027" PMx_perVeh="0.001953" NOx_perVeh="0.052547" fuel_perVeh="0.058323" electricity_perVeh="0"/>
        <edge id=":1105984398_0" sampledSeconds="23.21" CO_abs="1641.211877" CO2_abs="112957.837516" HC_abs="10.143730" PMx_abs="2.063753" NOx_abs="46.753134" fuel_abs="48.555543" electricity_abs="0"
            CO_normed="104.000495" CO2_normed="7157.924685" HC_normed="0.642789" PMx_normed="0.130776" NOx_normed="2.962658" fuel_normed="3.076873" electricity_normed="0"
            traveltime="1.09" CO_perVeh="77.051175" CO2_perVeh="5303.114236" HC_perVeh="0.476225" PMx_perVeh="0.096888" NOx_perVeh="2.194954" fuel_perVeh="2.279573" electricity_perVeh="0"/>
        <edge id=":1105984398_1" sampledSeconds="453.36" CO_abs="8107.398996" CO2_abs="975118.103024" HC_abs="59.104820" PMx_abs="13.673115" NOx_abs="366.490697" fuel_abs="419.161983" electricity_abs="0"
            CO_normed="497.297372" CO2_normed="59812.483669" HC_normed="3.625413" PMx_normed="0.838691" NOx_normed="22.480065" fuel_normed="25.710854" electricity_normed="0"
            traveltime="0.96" CO_perVeh="17.124043" CO2_perVeh="2059.595771" HC_perVeh="0.124838" PMx_perVeh="0.028880" NOx_perVeh="0.774083" fuel_perVeh="0.885333" electricity_perVeh="0"/>
        <edge id=":1106006327_0" sampledSeconds="38.90" CO_abs="5235.676377" CO2_abs="168816.956178" HC_abs="27.812224" PMx_abs="3.518698" NOx_abs="73.881646" fuel_abs="72.568482" electricity_abs="0"
            CO_normed="452.726721" CO2_normed="14597.530771" HC_normed="2.404911" PMx_normed="0.304260" NOx_normed="6.388515" fuel_normed="6.274966" electricity_normed="0"
            traveltime="2.11" CO_perVeh="284.031917" CO2_perVeh="9158.206170" HC_perVeh="1.508794" PMx_perVeh="0.190887" NOx_perVeh="4.008030" fuel_perVeh="3.936791" electricity_perVeh="0"/>
        <edge id=":1106006327_1" sampledSeconds="160.10" CO_abs="21701.315812" CO2_abs="729800.554859" HC_abs="116.019346" PMx_abs="15.229555" NOx_abs="319.433224" fuel_abs="313.714817" electricity_abs="0"
            CO_normed="1636.399789" CO2_normed="55031.016766" HC_normed="8.748503" PMx_normed="1.148393" NOx_normed="24.087040" fuel_normed="23.655840" electricity_normed="0"
            traveltime="2.27" CO_perVeh="308.078148" CO2_perVeh="10360.459475" HC_perVeh="1.647044" PMx_perVeh="0.216203" NOx_perVeh="4.534766" fuel_perVeh="4.453586" electricity_perVeh="0"/>
        <edge id=":1106006327_2" sampledSeconds="0.00" CO_abs="0" CO2_abs="0" HC_abs="0" PMx_abs="0" NOx_abs="0" fuel_abs="0" electricity_abs="0"
            CO_normed="0" CO2_normed="0" HC_normed="0" PMx_normed="0" NOx_normed="0" fuel_normed="0" electricity_normed="0"/>
        <edge id=":1106006327_3" sampledSeconds="0.00" CO_abs="0" CO2_abs="0" HC_abs="0" PMx_abs="0" NOx_abs="0" fuel_abs="0" electricity_abs="0"
            CO_normed="0" CO2_normed="0" HC_normed="0" PMx_normed="0" NOx_normed="0" fuel_normed="0" electricity_normed="0"/>
        <edge id=":1107381198_0" sampledSeconds="0.00" CO_abs="0" CO2_abs="0" HC_abs="0" PMx_abs="0" NOx_abs="0" fuel_abs="0" electricity_abs="0"
            CO_normed="0" CO2_normed="0" HC_normed="0" PMx_normed="0" NOx_normed="0" fuel_normed="0" electricity_normed="0"/>
        <edge id=":1107381198_1" sampledSeconds="36.24" CO_abs="1279.827143" CO2_abs="52968.770427" HC_abs="7.049983" PMx_abs="0.921281" NOx_abs="21.980025" fuel_abs="22.769385" electricity_abs="0"
            CO_normed="106.924945" CO2_normed="4425.349869" HC_normed="0.589001" PMx_normed="0.076970" NOx_normed="1.836352" fuel_normed="1.902300" electricity_normed="0"
            traveltime="1.49" CO_perVeh="52.694032" CO2_perVeh="2180.871160" HC_perVeh="0.290267" PMx_perVeh="0.037932" NOx_perVeh="0.904979" fuel_perVeh="0.937479" electricity_perVeh="0"/>
        <edge id=":1110338277_0" sampledSeconds="96.53" CO_abs="1376.080056" CO2_abs="179052.828731" HC_abs="10.298464" PMx_abs="2.339757" NOx_abs="66.107453" fuel_abs="76.967400" electricity_abs="0"
            CO_normed="3765.153833" CO2_normed="489914.406887" HC_normed="28.178085" PMx_normed="6.401913" NOx_normed="180.879541" fuel_normed="210.593927" electricity_normed="0"
            traveltime="0.02" CO_perVeh="0.311016" CO2_perVeh="40.468751" HC_perVeh="0.002328" PMx_perVeh="0.000529" NOx_perVeh="0.014941" fuel_perVeh="0.017396" electricity_perVeh="0"/>
        <edge id=":1110338293_0" sampledSeconds="123.86" CO_abs="5968.939528" CO2_abs="405741.968319" HC_abs="36.739180" PMx_abs="7.265777" NOx_abs="167.118191" fuel_abs="174.410674" electricity_abs="0"
            CO_normed="15243.088813" CO2_normed="1036157.399410" HC_normed="93.822124" PMx_normed="18.554867" NOx_normed="426.775545" fuel_normed="445.398613" electricity_normed="0"
            traveltime="0.03" CO_perVeh="1.369075" CO2_perVeh="93.063642" HC_perVeh="0.008427" PMx_perVeh="0.001667" NOx_perVeh="0.038331" fuel_perVeh="0.040004" electricity_perVeh="0"/>
        <edge id=":1110338295_0" sampledSeconds="0.00" CO_abs="0" CO2_abs="0" HC_abs="0" PMx_abs="0" NOx_abs="0" fuel_abs="0" electricity_abs="0"
            CO_normed="0" CO2_normed="0" HC_normed="0" PMx_normed="0" NOx_normed="0" fuel_normed="0" electricity_normed="0"/>
        <edge id=":1110673403_0" sampledSeconds="143.80" CO_abs="2077.217242" CO2_abs="269072.181127" HC_abs="15.586527" PMx_abs="3.637405" NOx_abs="100.041785" fuel_abs="115.662834" electricity_abs="0"
            CO_normed="5304.662037" CO2_normed="687139.002664" HC_normed="39.803856" PMx_normed="9.288969" NOx_normed="255.480191" fuel_normed="295.372208" electricity_normed="0"
            traveltime="0.02" CO_perVeh="0.333511" CO2_perVeh="43.201314" HC_perVeh="0.002503" PMx_perVeh="0.000584" NOx_perVeh="0.016062" fuel_perVeh="0.018570" electricity_perVeh="0"/>
        <edge id=":1110673412_0" sampledSeconds="253.07" CO_abs="45284.148109" CO2_abs="3085418.935890" HC_abs="281.716697" PMx_abs="67.842494" NOx_abs="1326.393755" fuel_abs="1326.269612" electricity_abs="0"
            CO_normed="119631.420619" CO2_normed="8151043.266142" HC_normed="744.237666" PMx_normed="179.225939" NOx_normed="3504.059939" fuel_normed="3503.731979" electricity_normed="0"
            traveltime="0.02" CO_perVeh="2.780832" CO2_perVeh="189.471009" HC_perVeh="0.017300" PMx_perVeh="0.004166" NOx_perVeh="0.081452" fuel_perVeh="0.081444" electricity_perVeh="0"/>
        <edge id=":1110673414_0" sampledSeconds="0.00" CO_abs="0" CO2_abs="0" HC_abs="0" PMx_abs="0" NOx_abs="0" fuel_abs="0" electricity_abs="0"
            CO_normed="0" CO2_normed="0" HC_normed="0" PMx_normed="0" NOx_normed="0" fuel_normed="0" electricity_normed="0"/>
        <edge id=":1110673414_1" sampledSeconds="13.70" CO_abs="1074.948760" CO2_abs="42909.848551" HC_abs="5.899568" PMx_abs="0.828372" NOx_abs="18.339240" fuel_abs="18.445321" electricity_abs="0"
            CO_normed="91.200468" CO2_normed="3640.544023" HC_normed="0.500529" PMx_normed="0.070281" NOx_normed="1.555932" fuel_normed="1.564932" electricity_normed="0"
            traveltime="1.50" CO_perVeh="117.401878" CO2_perVeh="4686.452980" HC_perVeh="0.644329" PMx_perVeh="0.090472" NOx_perVeh="2.002943" fuel_perVeh="2.014529" electricity_perVeh="0"/>
        <edge id=":1110673417_0" sampledSeconds="29.94" CO_abs="486.452741" CO2_abs="59047.385516" HC_abs="3.563293" PMx_abs="0.807729" NOx_abs="22.084640" fuel_abs="25.381997" electricity_abs="0"
            CO_normed="1331.004977" CO2_normed="161562.177254" HC_normed="9.749683" PMx_normed="2.210064" NOx_normed="60.426766" fuel_normed="69.448811" electricity_normed="0"
            traveltime="0.02" CO_perVeh="0.361052" CO2_perVeh="43.825760" HC_perVeh="0.002645" PMx_perVeh="0.000600" NOx_perVeh="0.016392" fuel_perVeh="0.018839" electricity_perVeh="0"/>
        <edge id=":1110673446_0" sampledSeconds="334.23" CO_abs="3581.939417" CO2_abs="295972.586129" HC_abs="23.290350" PMx_abs="5.323869" NOx_abs="120.288031" fuel_abs="127.225110" electricity_abs="0"
            CO_normed="9147.323475" CO2_normed="755835.504053" HC_normed="59.477377" PMx_normed="13.595750" NOx_normed="307.183734" fuel_normed="324.899195" electricity_normed="0"
            traveltime="0.02" CO_perVeh="0.244435" CO2_perVeh="20.197473" HC_perVeh="0.001589" PMx_perVeh="0.000363" NOx_perVeh="0.008209" fuel_perVeh="0.008682" electricity_perVeh="0"/>
        <edge id=":1110673451_0" sampledSeconds="37.64" CO_abs="334.602725" CO2_abs="25100.290726" HC_abs="2.092815" PMx_abs="0.326857" NOx_abs="9.518501" fuel_abs="10.789674" electricity_abs="0"
            CO_normed="949.429595" CO2_normed="71221.652057" HC_normed="5.938326" PMx_normed="0.927451" NOx_normed="27.008586" fuel_normed="30.615520" electricity_normed="0"
            traveltime="0.03" CO_perVeh="0.239954" CO2_perVeh="18.000208" HC_perVeh="0.001501" PMx_perVeh="0.000234" NOx_perVeh="0.006826" fuel_perVeh="0.007738" electricity_perVeh="0"/>
        <edge id=":1110673464_0" sampledSeconds="320.98" CO_abs="597.460540" CO2_abs="48471.648991" HC_abs="3.821816" PMx_abs="0.627717" NOx_abs="18.275034" fuel_abs="20.836118" electricity_abs="0"
            CO_normed="32.416908" CO2_normed="2629.966119" HC_normed="0.207363" PMx_normed="0.034059" NOx_normed="0.991564" fuel_normed="1.130522" electricity_normed="0"
            traveltime="1.16" CO_perVeh="2.159741" CO2_perVeh="175.218616" HC_perVeh="0.013815" PMx_perVeh="0.002269" NOx_perVeh="0.066062" fuel_perVeh="0.075320" electricity_perVeh="0"/>
        <edge id=":1110673464_1" sampledSeconds="709.08" CO_abs="17175.832968" CO2_abs="2146737.245883" HC_abs="129.739035" PMx_abs="38.397612" NOx_abs="808.451608" fuel_abs="922.783660" electricity_abs="0"
            CO_normed="913.168418" CO2_normed="114133.192737" HC_normed="6.897691" PMx_normed="2.041443" NOx_normed="42.982048" fuel_normed="49.060613" electricity_normed="0"
            traveltime="0.70" CO_perVeh="16.950580" CO2_perVeh="2118.583790" HC_perVeh="0.128038" PMx_perVeh="0.037894" NOx_perVeh="0.797849" fuel_perVeh="0.910682" electricity_perVeh="0"/>
        <edge id=":1110673479_0" sampledSeconds="133.36" CO_abs="6919.124519" CO2_abs="477857.498501" HC_abs="42.750253" PMx_abs="8.454446" NOx_abs="196.042515" fuel_abs="205.410051" electricity_abs="0"
            CO_normed="17669.609327" CO2_normed="1220321.341138" HC_normed="109.172811" PMx_normed="21.590412" NOx_normed="500.640601" fuel_normed="524.562803" electricity_normed="0"
            traveltime="0.03" CO_perVeh="1.457578" CO2_perVeh="100.665157" HC_perVeh="0.009006" PMx_perVeh="0.001781" NOx_perVeh="0.041298" fuel_perVeh="0.043272" electricity_perVeh="0"/>
        <edge id=":1110673511_0" sampledSeconds="11.65" CO_abs="185.758611" CO2_abs="22447.804049" HC_abs="1.364428" PMx_abs="0.307445" NOx_abs="8.402906" fuel_abs="9.649371" electricity_abs="0"
            CO_normed="474.378235" CO2_normed="57325.739218" HC_normed="3.484387" PMx_normed="0.785133" NOx_normed="21.458794" fuel_normed="24.641936" electricity_normed="0"
            traveltime="0.02" CO_perVeh="0.367839" CO2_perVeh="44.451097" HC_perVeh="0.002702" PMx_perVeh="0.000609" NOx_perVeh="0.016639" fuel_perVeh="0.019108" electricity_perVeh="0"/>
        <edge id=":1110673517_0" sampledSeconds="17.01" CO_abs="742.166355" CO2_abs="54790.260411" HC_abs="4.666678" PMx_abs="0.944909" NOx_abs="22.243076" fuel_abs="23.551940" electricity_abs="0"
            CO_normed="1895.296075" CO2_normed="139919.796750" HC_normed="11.917459" PMx_normed="2.413048" NOx_normed="56.802918" fuel_normed="60.145409" electricity_normed="0"
            traveltime="0.03" CO_perVeh="1.191597" CO2_perVeh="87.969377" HC_perVeh="0.007493" PMx_perVeh="0.001517" NOx_perVeh="0.035713" fuel_perVeh="0.037814" electricity_perVeh="0"/>
        <edge id=":1110673534_0" sampledSeconds="476.59" CO_abs="3069.347891" CO2_abs="260539.732205" HC_abs="19.914067" PMx_abs="3.552638" NOx_abs="99.208272" fuel_abs="111.995740" electricity_abs="0"
            CO_normed="151.905051" CO2_normed="12894.368035" HC_normed="0.985567" PMx_normed="0.175824" NOx_normed="4.909915" fuel_normed="5.542779" electricity_normed="0"
            traveltime="1.44" CO_perVeh="9.246715" CO2_perVeh="784.901790" HC_perVeh="0.059993" PMx_perVeh="0.010703" NOx_perVeh="0.298875" fuel_perVeh="0.337398" electricity_perVeh="0"/>
        <edge id=":1110673534_1" sampledSeconds="183.71" CO_abs="2628.940593" CO2_abs="351130.175675" HC_abs="20.019530" PMx_abs="4.645053" NOx_abs="129.811930" fuel_abs="150.936227" electricity_abs="0"
            CO_normed="126.512887" CO2_normed="16897.487978" HC_normed="0.963403" PMx_normed="0.223535" NOx_normed="6.246958" fuel_normed="7.263526" electricity_normed="0"
            traveltime="1.22" CO_perVeh="17.455222" CO2_perVeh="2331.378308" HC_perVeh="0.132922" PMx_perVeh="0.030841" NOx_perVeh="0.861905" fuel_perVeh="1.002162" electricity_perVeh="0"/>
        <edge id=":1110673549_0" sampledSeconds="60.11" CO_abs="70.337847" CO2_abs="12576.873508" HC_abs="0.569396" PMx_abs="0.129281" NOx_abs="4.333257" fuel_abs="5.406312" electricity_abs="0"
            CO_normed="3.372169" CO2_normed="602.966208" HC_normed="0.027298" PMx_normed="0.006198" NOx_normed="0.207747" fuel_normed="0.259192" electricity_normed="0"
            traveltime="1.25" CO_perVeh="1.465429" CO2_perVeh="262.028446" HC_perVeh="0.011863" PMx_perVeh="0.002693" NOx_perVeh="0.090280" fuel_perVeh="0.112636" electricity_perVeh="0"/>
        <edge id=":1110673549_1" sampledSeconds="638.15" CO_abs="13622.451671" CO2_abs="1804894.757967" HC_abs="105.082172" PMx_abs="31.689177" NOx_abs="673.396649" fuel_abs="775.841713" electricity_abs="0"
            CO_normed="631.745691" CO2_normed="83702.589968" HC_normed="4.873220" PMx_normed="1.469596" NOx_normed="31.228992" fuel_normed="35.979915" electricity_normed="0"
            traveltime="0.80" CO_perVeh="17.156066" CO2_perVeh="2273.077857" HC_perVeh="0.132340" PMx_perVeh="0.039909" NOx_perVeh="0.848073" fuel_perVeh="0.977092" electricity_perVeh="0"/>
        <edge id=":1110673556_0" sampledSeconds="417.09" CO_abs="52225.330695" CO2_abs="2621337.455720" HC_abs="300.185289" PMx_abs="53.160767" NOx_abs="1130.832268" fuel_abs="1126.799028" electricity_abs="0"
            CO_normed="1856.654010" CO2_normed="93190.730126" HC_normed="10.671837" PMx_normed="1.889910" NOx_normed="40.202029" fuel_normed="40.058644" electricity_normed="0"
            traveltime="2.59" CO_perVeh="324.189387" CO2_perVeh="16271.984725" HC_perVeh="1.863404" PMx_perVeh="0.329996" NOx_perVeh="7.019655" fuel_perVeh="6.994619" electricity_perVeh="0"/>
        <edge id=":1110673556_2" sampledSeconds="245.90" CO_abs="23303.648935" CO2_abs="1006711.561622" HC_abs="129.747647" PMx_abs="19.380563" NOx_abs="429.059185" fuel_abs="432.745749" electricity_abs="0"
            CO_normed="866.249492" CO2_normed="37421.752342" HC_normed="4.823014" PMx_normed="0.720419" NOx_normed="15.949103" fuel_normed="16.086141" electricity_normed="0"
            traveltime="2.98" CO_perVeh="282.668796" CO2_perVeh="12211.218328" HC_perVeh="1.573814" PMx_perVeh="0.235083" NOx_perVeh="5.204406" fuel_perVeh="5.249123" electricity_perVeh="0"/>
        <edge id=":1110673556_3" sampledSeconds="401.12" CO_abs="34747.999266" CO2_abs="1245904.986718" HC_abs="187.273525" PMx_abs="24.007852" NOx_abs="532.809879" fuel_abs="535.570453" electricity_abs="0"
            CO_normed="2938.317094" CO2_normed="105354.667829" HC_normed="15.835991" PMx_normed="2.030122" NOx_normed="45.054806" fuel_normed="45.288242" electricity_normed="0"
            traveltime="1.73" CO_perVeh="149.975644" CO2_perVeh="5377.443490" HC_perVeh="0.808290" PMx_perVeh="0.103620" NOx_perVeh="2.299658" fuel_perVeh="2.311573" electricity_perVeh="0"/>
        <edge id=":1110673556_4" sampledSeconds="213.20" CO_abs="21590.521226" CO2_abs="865327.628602" HC_abs="118.626673" PMx_abs="16.949289" NOx_abs="371.296601" fuel_abs="371.971177" electricity_abs="0"
            CO_normed="1115.370186" CO2_normed="44702.979988" HC_normed="6.128275" PMx_normed="0.875603" NOx_normed="19.181249" fuel_normed="19.216098" electricity_normed="0"
            traveltime="2.41" CO_perVeh="244.071341" CO2_perVeh="9782.148043" HC_perVeh="1.341022" PMx_perVeh="0.191604" NOx_perVeh="4.197345" fuel_perVeh="4.204970" electricity_perVeh="0"/>
        <edge id=":1110673556_5" sampledSeconds="23.24" CO_abs="1662.469598" CO2_abs="72635.734037" HC_abs="9.276539" PMx_abs="1.403716" NOx_abs="31.018232" fuel_abs="31.223221" electricity_abs="0"
            CO_normed="119.704131" CO2_normed="5230.048997" HC_normed="0.667946" PMx_normed="0.101073" NOx_normed="2.233431" fuel_normed="2.248191" electricity_normed="0"
            traveltime="1.61" CO_perVeh="114.936170" CO2_perVeh="5021.729761" HC_perVeh="0.641341" PMx_perVeh="0.097047" NOx_perVeh="2.144470" fuel_perVeh="2.158642" electricity_perVeh="0"/>
        <edge id=":1110673556_6" sampledSeconds="495.52" CO_abs="58576.415935" CO2_abs="2843957.248919" HC_abs="334.262422" PMx_abs="57.290519" NOx_abs="1224.851526" fuel_abs="1222.495779" electricity_abs="0"
            CO_normed="2134.947203" CO2_normed="103654.320201" HC_normed="12.182934" PMx_normed="2.088080" NOx_normed="44.642426" fuel_normed="44.556566" electricity_normed="0"
            traveltime="2.66" CO_perVeh="314.338445" CO2_perVeh="15261.519252" HC_perVeh="1.793751" PMx_perVeh="0.307438" NOx_perVeh="6.572917" fuel_perVeh="6.560275" electricity_perVeh="0"/>
        <edge id=":1110673561_0" sampledSeconds="99.42" CO_abs="10390.423165" CO2_abs="733529.121373" HC_abs="64.975891" PMx_abs="15.045259" NOx_abs="311.627527" fuel_abs="315.309019" electricity_abs="0"
            CO_normed="475.810860" CO2_normed="33590.655195" HC_normed="2.975455" PMx_normed="0.688971" NOx_normed="14.270426" fuel_normed="14.439013" electricity_normed="0"
            traveltime="1.17" CO_perVeh="122.617078" CO2_perVeh="8656.355595" HC_perVeh="0.766779" PMx_perVeh="0.177549" NOx_perVeh="3.677507" fuel_perVeh="3.720952" electricity_perVeh="0"/>
        <edge id=":1110673561_1" sampledSeconds="1318.39" CO_abs="121456.186021" CO2_abs="8417190.793089" HC_abs="756.558681" PMx_abs="175.712862" NOx_abs="3597.396322" fuel_abs="3618.144078" electricity_abs="0"
            CO_normed="5422.498137" CO2_normed="375791.492302" HC_normed="33.777102" PMx_normed="7.844826" NOx_normed="160.608327" fuel_normed="161.534625" electricity_normed="0"
            traveltime="1.20" CO_perVeh="110.161221" CO2_perVeh="7634.423928" HC_perVeh="0.686202" PMx_perVeh="0.159372" NOx_perVeh="3.262852" fuel_perVeh="3.281670" electricity_perVeh="0"/>
        <edge id=":1110673562_0" sampledSeconds="103.78" CO_abs="2200.758552" CO2_abs="178822.680570" HC_abs="14.094182" PMx_abs="2.370898" NOx_abs="67.814750" fuel_abs="76.868977" electricity_abs="0"
            CO_normed="6244.615313" CO2_normed="507406.343393" HC_normed="39.992003" PMx_normed="6.727383" NOx_normed="192.423211" fuel_normed="218.114427" electricity_normed="0"
            traveltime="0.03" CO_perVeh="0.560983" CO2_perVeh="45.582715" HC_perVeh="0.003593" PMx_perVeh="0.000604" NOx_perVeh="0.017286" fuel_perVeh="0.019594" electricity_perVeh="0"/>
        <edge id=":1110673564_0" sampledSeconds="28.93" CO_abs="479.405776" CO2_abs="55526.028699" HC_abs="3.456312" PMx_abs="0.775143" NOx_abs="20.904478" fuel_abs="23.868305" electricity_abs="0"
            CO_normed="3672.825691" CO2_normed="425396.261583" HC_normed="26.479514" PMx_normed="5.938527" NOx_normed="160.153483" fuel_normed="182.859968" electricity_normed="0"
            traveltime="7.952180e-03" CO_perVeh="0.131795" CO2_perVeh="15.264888" HC_perVeh="0.000950" PMx_perVeh="0.000213" NOx_perVeh="0.005747" fuel_perVeh="0.006562" electricity_perVeh="0"/>
        <edge id=":1110673588_0" sampledSeconds="11.62" CO_abs="218.436317" CO2_abs="27618.869774" HC_abs="1.620603" PMx_abs="0.364317" NOx_abs="10.226679" fuel_abs="11.872209" electricity_abs="0"
            CO_normed="669.394118" CO2_normed="84637.523889" HC_normed="4.966309" PMx_normed="1.116443" NOx_normed="31.339470" fuel_normed="36.382168" electricity_normed="0"
            traveltime="0.02" CO_perVeh="0.364061" CO2_perVeh="46.031450" HC_perVeh="0.002701" PMx_perVeh="0.000607" NOx_perVeh="0.017044" fuel_perVeh="0.019787" electricity_perVeh="0"/>
        <edge id=":1110673601_0" sampledSeconds="30.16" CO_abs="533.523019" CO2_abs="55637.112605" HC_abs="3.709223" PMx_abs="0.795275" NOx_abs="21.179509" fuel_abs="23.916062" electricity_abs="0"
            CO_normed="1459.796057" CO2_normed="152231.177893" HC_normed="10.148970" PMx_normed="2.175987" NOx_normed="57.950198" fuel_normed="65.437800" electricity_normed="0"
            traveltime="0.02" CO_perVeh="0.395988" CO2_perVeh="41.294610" HC_perVeh="0.002753" PMx_perVeh="0.000590" NOx_perVeh="0.015720" fuel_perVeh="0.017751" electricity_perVeh="0"/>
        <edge id=":1110673617_0" sampledSeconds="238.82" CO_abs="5892.102673" CO2_abs="720507.143553" HC_abs="44.053412" PMx_abs="12.942440" NOx_abs="272.356091" fuel_abs="309.712844" electricity_abs="0"
            CO_normed="15046.867860" CO2_normed="1839984.192943" HC_normed="112.500732" PMx_normed="33.051559" NOx_normed="695.525237" fuel_normed="790.924479" electricity_normed="0"
            traveltime="0.01" CO_perVeh="0.360928" CO2_perVeh="44.135548" HC_perVeh="0.002699" PMx_perVeh="0.000793" NOx_perVeh="0.016684" fuel_perVeh="0.018972" electricity_perVeh="0"/>
        <edge id=":1110673621_0" sampledSeconds="25.69" CO_abs="527.052045" CO2_abs="54864.680719" HC_abs="3.652445" PMx_abs="0.805473" NOx_abs="20.991636" fuel_abs="23.583994" electricity_abs="0"
            CO_normed="1615.141401" CO2_normed="168131.815781" HC_normed="11.192852" PMx_normed="2.468356" NOx_normed="64.328486" fuel_normed="72.272722" electricity_normed="0"
            traveltime="0.02" CO_perVeh="0.399282" CO2_perVeh="41.564152" HC_perVeh="0.002767" PMx_perVeh="0.000610" NOx_perVeh="0.015903" fuel_perVeh="0.017867" electricity_perVeh="0"/>
        <edge id=":1110673630_0" sampledSeconds="54.16" CO_abs="322.908331" CO2_abs="27457.001268" HC_abs="2.103265" PMx_abs="0.397716" NOx_abs="10.593115" fuel_abs="11.802646" electricity_abs="0"
            CO_normed="17.645269" CO2_normed="1500.383038" HC_normed="0.114933" PMx_normed="0.021733" NOx_normed="0.578859" fuel_normed="0.644954" electricity_normed="0"
            traveltime="1.26" CO_perVeh="7.537252" CO2_perVeh="640.894975" HC_perVeh="0.049094" PMx_perVeh="0.009283" NOx_perVeh="0.247262" fuel_perVeh="0.275495" electricity_perVeh="0"/>
        <edge id=":1110673630_1" sampledSeconds="7.40" CO_abs="14.940966" CO2_abs="1911.261880" HC_abs="0.111661" PMx_abs="0.023389" NOx_abs="0.698383" fuel_abs="0.821575" electricity_abs="0"
            CO_normed="0.995355" CO2_normed="127.326679" HC_normed="0.007439" PMx_normed="0.001558" NOx_normed="0.046526" fuel_normed="0.054733" electricity_normed="0"
            traveltime="1.05" CO_perVeh="2.114721" CO2_perVeh="270.517066" HC_perVeh="0.015804" PMx_perVeh="0.003311" NOx_perVeh="0.098848" fuel_perVeh="0.116284" electricity_perVeh="0"/>
        <edge id=":1110673650_0" sampledSeconds="142.81" CO_abs="2345.870491" CO2_abs="287320.626031" HC_abs="17.255483" PMx_abs="3.953522" NOx_abs="107.528885" fuel_abs="123.507056" electricity_abs="0"
            CO_normed="5990.731197" CO2_normed="733740.692140" HC_normed="44.065927" PMx_normed="10.096246" NOx_normed="274.600259" fuel_normed="315.404271" electricity_normed="0"
            traveltime="0.02" CO_perVeh="0.378395" CO2_perVeh="46.345559" HC_perVeh="0.002783" PMx_perVeh="0.000638" NOx_perVeh="0.017345" fuel_perVeh="0.019922" electricity_perVeh="0"/>
        <edge id=":1110673655_0" sampledSeconds="45.17" CO_abs="750.093994" CO2_abs="84628.296751" HC_abs="5.366747" PMx_abs="1.156232" NOx_abs="31.777742" fuel_abs="36.378197" electricity_abs="0"
            CO_normed="1915.541165" CO2_normed="216118.229625" HC_normed="13.705248" PMx_normed="2.952710" NOx_normed="81.151927" fuel_normed="92.900269" electricity_normed="0"
            traveltime="0.02" CO_perVeh="0.401442" CO2_perVeh="45.292104" HC_perVeh="0.002872" PMx_perVeh="0.000619" NOx_perVeh="0.017007" fuel_perVeh="0.019469" electricity_perVeh="0"/>
        <edge id=":1110673663_0" sampledSeconds="108.58" CO_abs="1748.335568" CO2_abs="202590.088211" HC_abs="12.611389" PMx_abs="2.830768" NOx_abs="76.275769" fuel_abs="87.084959" electricity_abs="0"
            CO_normed="81.772627" CO2_normed="9475.482893" HC_normed="0.589856" PMx_normed="0.132400" NOx_normed="3.567547" fuel_normed="4.073112" electricity_normed="0"
            traveltime="1.28" CO_perVeh="20.535026" CO2_perVeh="2379.516159" HC_perVeh="0.148127" PMx_perVeh="0.033249" NOx_perVeh="0.895895" fuel_perVeh="1.022854" electricity_perVeh="0"/>
        <edge id=":1110673663_1" sampledSeconds="153.97" CO_abs="2654.348171" CO2_abs="325203.632708" HC_abs="19.580539" PMx_abs="4.530598" NOx_abs="121.922048" fuel_abs="139.791304" electricity_abs="0"
            CO_normed="124.300148" CO2_normed="15228.921382" HC_normed="0.916935" PMx_normed="0.212163" NOx_normed="5.709473" fuel_normed="6.546270" electricity_normed="0"
            traveltime="1.25" CO_perVeh="21.480240" CO2_perVeh="2631.701510" HC_perVeh="0.158455" PMx_perVeh="0.036664" NOx_perVeh="0.986651" fuel_perVeh="1.131257" electricity_perVeh="0"/>
        <edge id=":1110673666_0" sampledSeconds="191.81" CO_abs="3796.199392" CO2_abs="305739.730684" HC_abs="24.238168" PMx_abs="4.005852" NOx_abs="115.728980" fuel_abs="131.425816" electricity_abs="0"