<?xml version="1.0" encoding="UTF-8"?>

<!-- generated on Tue Nov 10 15:36:21 2020 by Eclipse SUMO sumo Version 1.7.0
<configuration xmlns:xsi="http://www.w3.org/2001/XMLSchema-instance" xsi:noNamespaceSchemaLocation="http://sumo.dlr.de/xsd/sumoConfiguration.xsd">

    <input>
        <net-file value="../dataSets/Porto/8AM9AM_Routing_SaoBento/Porto.net.xml"/>
        <route-files value="../results/Porto/8AM9AM_Routing_SaoBento/cost_nox-length/solution13/Porto.rou.xml"/>
        <additional-files value="moreOutputInfo.xml"/>
    </input>

    <output>
        <emission-output.precision value="6"/>
        <tripinfo-output value="../results/Porto/8AM9AM_Routing_SaoBento/cost_nox-length/solution13/Porto-tripinfo"/>
    </output>

    <processing>
        <collision.action value="warn"/>
        <time-to-teleport value="-1"/>
    </processing>

    <emissions>
        <device.emissions.probability value="1"/>
    </emissions>

    <gui_only>
        <quit-on-end value="true"/>
        <start value="true"/>
    </gui_only>

</configuration>
-->

<meandata xmlns:xsi="http://www.w3.org/2001/XMLSchema-instance" xsi:noNamespaceSchemaLocation="http://sumo.dlr.de/xsd/meandata_file.xsd">
    <interval begin="0.00" end="8472.00" id="emissions-detector">
        <edge id=":1092997347_0" sampledSeconds="594.55" CO_abs="72365.118188" CO2_abs="3088567.807465" HC_abs="402.549014" PMx_abs="62.366689" NOx_abs="1335.789765" fuel_abs="1327.650191" electricity_abs="0"
            CO_normed="69886.477776" CO2_normed="2982778.593354" HC_normed="388.760958" PMx_normed="60.230514" NOx_normed="1290.036471" fuel_normed="1282.175693" electricity_normed="0"
            traveltime="0.07" CO_perVeh="8.274190" CO2_perVeh="353.145246" HC_perVeh="0.046027" PMx_perVeh="0.007131" NOx_perVeh="0.152734" fuel_perVeh="0.151803" electricity_perVeh="0"/>
        <edge id=":1103427051_0" sampledSeconds="19.57" CO_abs="1547.593122" CO2_abs="86794.870161" HC_abs="9.101521" PMx_abs="1.672809" NOx_abs="36.845588" fuel_abs="37.309323" electricity_abs="0"
            CO_normed="2267.646462" CO2_normed="127178.182321" HC_normed="13.336214" PMx_normed="2.451122" NOx_normed="53.988847" fuel_normed="54.668345" electricity_normed="0"
            traveltime="0.03" CO_perVeh="2.406703" CO2_perVeh="134.977007" HC_perVeh="0.014154" PMx_perVeh="0.002601" NOx_perVeh="0.057300" fuel_perVeh="0.058021" electricity_perVeh="0"/>
        <edge id=":1105984386_0" sampledSeconds="10.59" CO_abs="241.403293" CO2_abs="16740.200021" HC_abs="1.481943" PMx_abs="0.238663" NOx_abs="6.504021" fuel_abs="7.195966" electricity_abs="0"
            CO_normed="10.564295" CO2_normed="732.584907" HC_normed="0.064853" PMx_normed="0.010444" NOx_normed="0.284629" fuel_normed="0.314910" electricity_normed="0"
            traveltime="1.02" CO_perVeh="23.157735" CO2_perVeh="1605.881666" HC_perVeh="0.142162" PMx_perVeh="0.022895" NOx_perVeh="0.623928" fuel_perVeh="0.690307" electricity_perVeh="0"/>
        <edge id=":1105984390_0" sampledSeconds="10.81" CO_abs="24.360569" CO2_abs="1258.406409" HC_abs="0.138746" PMx_abs="0.014345" NOx_abs="0.470019" fuel_abs="0.540951" electricity_abs="0"
            CO_normed="0.824165" CO2_normed="42.574331" HC_normed="0.004694" PMx_normed="0.000485" NOx_normed="0.015902" fuel_normed="0.018301" electricity_normed="0"
            traveltime="1.12" CO_perVeh="2.525120" CO2_perVeh="130.441400" HC_perVeh="0.014382" PMx_perVeh="0.001487" NOx_perVeh="0.048720" fuel_perVeh="0.056073" electricity_perVeh="0"/>
        <edge id=":1105984390_1" sampledSeconds="2399.12" CO_abs="59787.580166" CO2_abs="7215745.984249" HC_abs="444.449407" PMx_abs="129.657724" NOx_abs="2739.143663" fuel_abs="3101.716343" electricity_abs="0"
            CO_normed="1934.919065" CO2_normed="233524.829637" HC_normed="14.383817" PMx_normed="4.196142" NOx_normed="88.647530" fuel_normed="100.381552" electricity_normed="0"
            traveltime="0.65" CO_perVeh="16.151447" CO2_perVeh="1949.313584" HC_perVeh="0.120067" PMx_perVeh="0.035027" NOx_perVeh="0.739972" fuel_perVeh="0.837920" electricity_perVeh="0"/>
        <edge id=":1105984395_0" sampledSeconds="4.11" CO_abs="92.555630" CO2_abs="7143.208794" HC_abs="0.584860" PMx_abs="0.099710" NOx_abs="2.748850" fuel_abs="3.070586" electricity_abs="0"
            CO_normed="42.749552" CO2_normed="3299.302005" HC_normed="0.270135" PMx_normed="0.046054" NOx_normed="1.269637" fuel_normed="1.418241" electricity_normed="0"
            traveltime="0.10" CO_perVeh="2.145406" CO2_perVeh="165.577024" HC_perVeh="0.013557" PMx_perVeh="0.002311" NOx_perVeh="0.063717" fuel_perVeh="0.071175" electricity_perVeh="0"/>
        <edge id=":1105984398_0" sampledSeconds="11.38" CO_abs="776.836230" CO2_abs="49825.913757" HC_abs="4.720242" PMx_abs="0.950897" NOx_abs="20.967228" fuel_abs="21.417916" electricity_abs="0"
            CO_normed="27.303588" CO2_normed="1751.239421" HC_normed="0.165903" PMx_normed="0.033421" NOx_normed="0.736939" fuel_normed="0.752779" electricity_normed="0"
            traveltime="1.20" CO_perVeh="82.159931" CO2_perVeh="5269.699705" HC_perVeh="0.499223" PMx_perVeh="0.100569" NOx_perVeh="2.217541" fuel_perVeh="2.265207" electricity_perVeh="0"/>
        <edge id=":1105984398_1" sampledSeconds="646.56" CO_abs="12132.987542" CO2_abs="1410596.300986" HC_abs="87.472345" PMx_abs="20.279889" NOx_abs="533.875171" fuel_abs="606.355162" electricity_abs="0"
            CO_normed="412.783061" CO2_normed="47990.674726" HC_normed="2.975945" PMx_normed="0.689953" NOx_normed="18.163262" fuel_normed="20.629143" electricity_normed="0"
            traveltime="0.95" CO_perVeh="17.886014" CO2_perVeh="2079.450318" HC_perVeh="0.128949" PMx_perVeh="0.029896" NOx_perVeh="0.787020" fuel_perVeh="0.893867" electricity_perVeh="0"/>
        <edge id=":1106006327_0" sampledSeconds="388.90" CO_abs="52420.955937" CO2_abs="1700633.600370" HC_abs="278.720724" PMx_abs="35.461022" NOx_abs="744.340746" fuel_abs="731.042380" electricity_abs="0"
            CO_normed="2514.130219" CO2_normed="81563.074344" HC_normed="13.367558" PMx_normed="1.700725" NOx_normed="35.698883" fuel_normed="35.061088" electricity_normed="0"
            traveltime="2.09" CO_perVeh="282.029906" CO2_perVeh="9149.576271" HC_perVeh="1.499545" PMx_perVeh="0.190784" NOx_perVeh="4.004627" fuel_perVeh="3.933080" electricity_perVeh="0"/>
        <edge id=":1106006327_1" sampledSeconds="683.14" CO_abs="92507.405785" CO2_abs="3090894.301524" HC_abs="494.070492" PMx_abs="64.496660" NOx_abs="1352.820619" fuel_abs="1328.663996" electricity_abs="0"
            CO_normed="3869.005506" CO2_normed="129272.753571" HC_normed="20.663875" PMx_normed="2.697491" NOx_normed="56.580015" fuel_normed="55.569695" electricity_normed="0"
            traveltime="2.29" CO_perVeh="310.524970" CO2_perVeh="10375.384029" HC_perVeh="1.658475" PMx_perVeh="0.216500" NOx_perVeh="4.541091" fuel_perVeh="4.460003" electricity_perVeh="0"/>
        <edge id=":1106006327_2" sampledSeconds="0.00" CO_abs="0" CO2_abs="0" HC_abs="0" PMx_abs="0" NOx_abs="0" fuel_abs="0" electricity_abs="0"
            CO_normed="0" CO2_normed="0" HC_normed="0" PMx_normed="0" NOx_normed="0" fuel_normed="0" electricity_normed="0"/>
        <edge id=":1106006327_3" sampledSeconds="0.00" CO_abs="0" CO2_abs="0" HC_abs="0" PMx_abs="0" NOx_abs="0" fuel_abs="0" electricity_abs="0"
            CO_normed="0" CO2_normed="0" HC_normed="0" PMx_normed="0" NOx_normed="0" fuel_normed="0" electricity_normed="0"/>
        <edge id=":1107381198_0" sampledSeconds="0.00" CO_abs="0" CO2_abs="0" HC_abs="0" PMx_abs="0" NOx_abs="0" fuel_abs="0" electricity_abs="0"
            CO_normed="0" CO2_normed="0" HC_normed="0" PMx_normed="0" NOx_normed="0" fuel_normed="0" electricity_normed="0"/>
        <edge id=":1107381198_1" sampledSeconds="103.59" CO_abs="4734.860525" CO2_abs="185233.399338" HC_abs="25.815318" PMx_abs="3.166599" NOx_abs="76.553766" fuel_abs="79.625534" electricity_abs="0"
            CO_normed="219.408985" CO2_normed="8583.541571" HC_normed="1.196258" PMx_normed="0.146737" NOx_normed="3.547430" fuel_normed="3.689772" electricity_normed="0"
            traveltime="1.55" CO_perVeh="70.889941" CO2_perVeh="2773.299164" HC_perVeh="0.386505" PMx_perVeh="0.047410" NOx_perVeh="1.146157" fuel_perVeh="1.192147" electricity_perVeh="0"/>
        <edge id=":1110338277_0" sampledSeconds="160.59" CO_abs="2437.169998" CO2_abs="309446.012911" HC_abs="18.107818" PMx_abs="4.101328" NOx_abs="114.737490" fuel_abs="133.017990" electricity_abs="0"
            CO_normed="3698.659446" CO2_normed="469616.571598" HC_normed="27.480502" PMx_normed="6.224193" NOx_normed="174.126098" fuel_normed="201.868662" electricity_normed="0"
            traveltime="0.02" CO_perVeh="0.330092" CO2_perVeh="41.911642" HC_perVeh="0.002453" PMx_perVeh="0.000555" NOx_perVeh="0.015540" fuel_perVeh="0.018016" electricity_perVeh="0"/>
        <edge id=":1110338293_0" sampledSeconds="6795.92" CO_abs="645005.887558" CO2_abs="11254715.011351" HC_abs="3200.223015" PMx_abs="268.759435" NOx_abs="5088.457896" fuel_abs="4838.213892" electricity_abs="0"
            CO_normed="913606.073029" CO2_normed="15941522.678967" HC_normed="4532.893788" PMx_normed="380.679087" NOx_normed="7207.447445" fuel_normed="6852.994181" electricity_normed="0"
            traveltime="0.45" CO_perVeh="43.147549" CO2_perVeh="752.882074" HC_perVeh="0.214078" PMx_perVeh="0.017979" NOx_perVeh="0.340391" fuel_perVeh="0.323651" electricity_perVeh="0"/>
        <edge id=":1110338295_0" sampledSeconds="0.00" CO_abs="0" CO2_abs="0" HC_abs="0" PMx_abs="0" NOx_abs="0" fuel_abs="0" electricity_abs="0"
            CO_normed="0" CO2_normed="0" HC_normed="0" PMx_normed="0" NOx_normed="0" fuel_normed="0" electricity_normed="0"/>
        <edge id=":1110673403_0" sampledSeconds="200.22" CO_abs="3304.602238" CO2_abs="395247.295899" HC_abs="24.111111" PMx_abs="5.494227" NOx_abs="148.442527" fuel_abs="169.900160" electricity_abs="0"
            CO_normed="4680.739714" CO2_normed="559840.362463" HC_normed="34.151716" PMx_normed="7.782191" NOx_normed="210.258537" fuel_normed="240.651785" electricity_normed="0"
            traveltime="0.02" CO_perVeh="0.381932" CO2_perVeh="45.681025" HC_perVeh="0.002787" PMx_perVeh="0.000635" NOx_perVeh="0.017156" fuel_perVeh="0.019636" electricity_perVeh="0"/>
        <edge id=":1110673412_0" sampledSeconds="940.82" CO_abs="167645.740876" CO2_abs="11431838.329177" HC_abs="1043.112357" PMx_abs="251.348472" NOx_abs="4913.761627" fuel_abs="4913.984119" electricity_abs="0"
            CO_normed="245646.782567" CO2_normed="16750764.378007" HC_normed="1528.444404" PMx_normed="368.294137" NOx_normed="7200.002384" fuel_normed="7200.328395" electricity_normed="0"
            traveltime="0.02" CO_perVeh="2.764376" CO2_perVeh="188.504028" HC_perVeh="0.017200" PMx_perVeh="0.004145" NOx_perVeh="0.081025" fuel_perVeh="0.081029" electricity_perVeh="0"/>
        <edge id=":1110673414_0" sampledSeconds="0.00" CO_abs="0" CO2_abs="0" HC_abs="0" PMx_abs="0" NOx_abs="0" fuel_abs="0" electricity_abs="0"
            CO_normed="0" CO2_normed="0" HC_normed="0" PMx_normed="0" NOx_normed="0" fuel_normed="0" electricity_normed="0"/>
        <edge id=":1110673414_1" sampledSeconds="6.82" CO_abs="339.109567" CO2_abs="13664.641925" HC_abs="1.858645" PMx_abs="0.234981" NOx_abs="5.654218" fuel_abs="5.873954" electricity_abs="0"
            CO_normed="15.957647" CO2_normed="643.023817" HC_normed="0.087463" PMx_normed="0.011058" NOx_normed="0.266073" fuel_normed="0.276414" electricity_normed="0"
            traveltime="1.49" CO_perVeh="74.072554" CO2_perVeh="2984.802046" HC_perVeh="0.405989" PMx_perVeh="0.051328" NOx_perVeh="1.235065" fuel_perVeh="1.283062" electricity_perVeh="0"/>
        <edge id=":1110673417_0" sampledSeconds="28.99" CO_abs="364.982970" CO2_abs="45578.886611" HC_abs="2.711724" PMx_abs="0.604184" NOx_abs="16.908663" fuel_abs="19.592478" electricity_abs="0"
            CO_normed="553.899692" CO2_normed="69170.710155" HC_normed="4.115323" PMx_normed="0.916912" NOx_normed="25.660659" fuel_normed="29.733627" electricity_normed="0"
            traveltime="0.02" CO_perVeh="0.278317" CO2_perVeh="34.756089" HC_perVeh="0.002068" PMx_perVeh="0.000461" NOx_perVeh="0.012894" fuel_perVeh="0.014940" electricity_perVeh="0"/>
        <edge id=":1110673446_0" sampledSeconds="1314.21" CO_abs="14023.952852" CO2_abs="1128273.697875" HC_abs="90.572210" PMx_abs="20.678864" NOx_abs="461.728587" fuel_abs="484.993047" electricity_abs="0"
            CO_normed="19863.955881" CO2_normed="1598121.385092" HC_normed="128.289250" PMx_normed="29.290176" NOx_normed="654.006497" fuel_normed="686.958991" electricity_normed="0"
            traveltime="0.02" CO_perVeh="0.243378" CO2_perVeh="19.580560" HC_perVeh="0.001572" PMx_perVeh="0.000359" NOx_perVeh="0.008013" fuel_perVeh="0.008417" electricity_perVeh="0"/>
        <edge id=":1110673451_0" sampledSeconds="36.60" CO_abs="354.187407" CO2_abs="23487.364573" HC_abs="2.155409" PMx_abs="0.367510" NOx_abs="9.348039" fuel_abs="10.096274" electricity_abs="0"
            CO_normed="557.424311" CO2_normed="36964.690862" HC_normed="3.392209" PMx_normed="0.578391" NOx_normed="14.712053" fuel_normed="15.889636" electricity_normed="0"
            traveltime="0.03" CO_perVeh="0.260958" CO2_perVeh="17.304995" HC_perVeh="0.001588" PMx_perVeh="0.000271" NOx_perVeh="0.006887" fuel_perVeh="0.007439" electricity_perVeh="0"/>
        <edge id=":1110673464_0" sampledSeconds="1020.66" CO_abs="3653.814596" CO2_abs="255827.184834" HC_abs="22.529106" PMx_abs="3.854470" NOx_abs="100.620894" fuel_abs="109.969907" electricity_abs="0"
            CO_normed="109.958388" CO2_normed="7698.897697" HC_normed="0.677994" PMx_normed="0.115997" NOx_normed="3.028099" fuel_normed="3.309449" electricity_normed="0"
            traveltime="1.21" CO_perVeh="4.332914" CO2_perVeh="303.375327" HC_perVeh="0.026716" PMx_perVeh="0.004571" NOx_perVeh="0.119322" fuel_perVeh="0.130409" electricity_perVeh="0"/>
        <edge id=":1110673464_1" sampledSeconds="2598.84" CO_abs="62547.215566" CO2_abs="7724397.702449" HC_abs="468.769875" PMx_abs="137.540392" NOx_abs="2922.114866" fuel_abs="3320.363096" electricity_abs="0"
            CO_normed="1844.423104" CO2_normed="227780.844544" HC_normed="13.823317" PMx_normed="4.055859" NOx_normed="86.168763" fuel_normed="97.912503" electricity_normed="0"
            traveltime="0.72" CO_perVeh="17.248947" CO2_perVeh="2130.194329" HC_perVeh="0.129275" PMx_perVeh="0.037930" NOx_perVeh="0.805846" fuel_perVeh="0.915673" electricity_perVeh="0"/>
        <edge id=":1110673479_0" sampledSeconds="134.31" CO_abs="6594.808820" CO2_abs="457158.781811" HC_abs="40.753715" PMx_abs="7.917260" NOx_abs="186.399960" fuel_abs="196.512822" electricity_abs="0"
            CO_normed="9341.088980" CO2_normed="647533.685285" HC_normed="57.724809" PMx_normed="11.214249" NOx_normed="264.022606" fuel_normed="278.346773" electricity_normed="0"
            traveltime="0.03" CO_perVeh="1.394202" CO2_perVeh="96.647500" HC_perVeh="0.008616" PMx_perVeh="0.001674" NOx_perVeh="0.039407" fuel_perVeh="0.041545" electricity_perVeh="0"/>
        <edge id=":1110673511_0" sampledSeconds="62.96" CO_abs="1212.053867" CO2_abs="134119.842836" HC_abs="8.607814" PMx_abs="1.880074" NOx_abs="50.693554" fuel_abs="57.652503" electricity_abs="0"
            CO_normed="1716.790179" CO2_normed="189971.448776" HC_normed="12.192371" PMx_normed="2.662994" NOx_normed="71.803901" fuel_normed="81.660770" electricity_normed="0"
            traveltime="0.02" CO_perVeh="0.464537" CO2_perVeh="51.403325" HC_perVeh="0.003299" PMx_perVeh="0.000721" NOx_perVeh="0.019429" fuel_perVeh="0.022096" electricity_perVeh="0"/>
        <edge id=":1110673517_0" sampledSeconds="182.96" CO_abs="7945.704764" CO2_abs="565970.645981" HC_abs="49.450818" PMx_abs="9.700024" NOx_abs="229.798762" fuel_abs="243.286345" electricity_abs="0"
            CO_normed="11254.539325" CO2_normed="801658.138783" HC_normed="70.043651" PMx_normed="13.739411" NOx_normed="325.493997" fuel_normed="344.598223" electricity_normed="0"
            traveltime="0.03" CO_perVeh="1.216555" CO2_perVeh="86.654954" HC_perVeh="0.007571" PMx_perVeh="0.001485" NOx_perVeh="0.035184" fuel_perVeh="0.037249" electricity_perVeh="0"/>
        <edge id=":1110673534_0" sampledSeconds="657.10" CO_abs="4676.620327" CO2_abs="392239.438524" HC_abs="30.273942" PMx_abs="5.393100" NOx_abs="149.783267" fuel_abs="168.608213" electricity_abs="0"
            CO_normed="128.374188" CO2_normed="10767.053125" HC_normed="0.831026" PMx_normed="0.148042" NOx_normed="4.111581" fuel_normed="4.628330" electricity_normed="0"
            traveltime="1.44" CO_perVeh="10.283192" CO2_perVeh="862.476138" HC_perVeh="0.066568" PMx_perVeh="0.011859" NOx_perVeh="0.329351" fuel_perVeh="0.370744" electricity_perVeh="0"/>
        <edge id=":1110673534_1" sampledSeconds="264.10" CO_abs="4168.944403" CO2_abs="512330.909999" HC_abs="30.712837" PMx_abs="7.036277" NOx_abs="191.595295" fuel_abs="220.229531" electricity_abs="0"
            CO_normed="111.275510" CO2_normed="13674.896526" HC_normed="0.819773" PMx_normed="0.187809" NOx_normed="5.113972" fuel_normed="5.878263" electricity_normed="0"
            traveltime="1.23" CO_perVeh="19.342856" CO2_perVeh="2377.086892" HC_perVeh="0.142500" PMx_perVeh="0.032647" NOx_perVeh="0.888954" fuel_perVeh="1.021810" electricity_perVeh="0"/>
        <edge id=":1110673549_0" sampledSeconds="652.40" CO_abs="1480.485210" CO2_abs="140368.382649" HC_abs="9.960976" PMx_abs="2.057189" NOx_abs="53.630851" fuel_abs="60.338529" electricity_abs="0"
            CO_normed="39.368045" CO2_normed="3732.579570" HC_normed="0.264875" PMx_normed="0.054703" NOx_normed="1.426115" fuel_normed="1.604481" electricity_normed="0"
            traveltime="1.30" CO_perVeh="2.941371" CO2_perVeh="278.878506" HC_perVeh="0.019790" PMx_perVeh="0.004087" NOx_perVeh="0.106552" fuel_perVeh="0.119878" electricity_perVeh="0"/>
        <edge id=":1110673549_1" sampledSeconds="3196.29" CO_abs="68740.025910" CO2_abs="9006866.303295" HC_abs="527.954680" PMx_abs="158.447140" NOx_abs="3368.650107" fuel_abs="3871.639469" electricity_abs="0"
            CO_normed="1768.138180" CO2_normed="231675.562884" HC_normed="13.580106" PMx_normed="4.075594" NOx_normed="86.648773" fuel_normed="99.586718" electricity_normed="0"
            traveltime="0.81" CO_perVeh="17.336783" CO2_perVeh="2271.603510" HC_perVeh="0.133154" PMx_perVeh="0.039962" NOx_perVeh="0.849600" fuel_perVeh="0.976458" electricity_perVeh="0"/>
        <edge id=":1110673556_0" sampledSeconds="465.19" CO_abs="57441.862128" CO2_abs="2766888.495336" HC_abs="327.280259" PMx_abs="55.918820" NOx_abs="1193.282539" fuel_abs="1189.367277" electricity_abs="0"
            CO_normed="1132.655373" CO2_normed="54558.313468" HC_normed="6.453408" PMx_normed="1.102624" NOx_normed="23.529493" fuel_normed="23.452290" electricity_normed="0"
            traveltime="2.74" CO_perVeh="338.614254" CO2_perVeh="16310.541640" HC_perVeh="1.929286" PMx_perVeh="0.329636" NOx_perVeh="7.034286" fuel_perVeh="7.011206" electricity_perVeh="0"/>
        <edge id=":1110673556_2" sampledSeconds="176.97" CO_abs="17928.741723" CO2_abs="763372.969165" HC_abs="99.588574" PMx_abs="14.888963" NOx_abs="326.657687" fuel_abs="328.143968" electricity_abs="0"
            CO_normed="369.648010" CO2_normed="15738.934918" HC_normed="2.053280" PMx_normed="0.306975" NOx_normed="6.734905" fuel_normed="6.765548" electricity_normed="0"
            traveltime="3.06" CO_perVeh="310.013564" CO2_perVeh="13199.809462" HC_perVeh="1.722029" PMx_perVeh="0.257451" NOx_perVeh="5.648378" fuel_perVeh="5.674078" electricity_perVeh="0"/>
        <edge id=":1110673556_3" sampledSeconds="344.13" CO_abs="34732.215019" CO2_abs="1204306.699310" HC_abs="186.313862" PMx_abs="23.814671" NOx_abs="518.970593" fuel_abs="517.688869" electricity_abs="0"
            CO_normed="1628.999072" CO2_normed="56484.001806" HC_normed="8.738432" PMx_normed="1.116948" NOx_normed="24.340590" fuel_normed="24.280475" electricity_normed="0"
            traveltime="1.84" CO_perVeh="185.251566" CO2_perVeh="6423.422815" HC_perVeh="0.993744" PMx_perVeh="0.127021" NOx_perVeh="2.768039" fuel_perVeh="2.761202" electricity_perVeh="0"/>
        <edge id=":1110673556_4" sampledSeconds="86.05" CO_abs="9775.771235" CO2_abs="381822.884925" HC_abs="53.499081" PMx_abs="7.630444" NOx_abs="164.820796" fuel_abs="164.131003" electricity_abs="0"
            CO_normed="280.108593" CO2_normed="10940.504708" HC_normed="1.532928" PMx_normed="0.218638" NOx_normed="4.722668" fuel_normed="4.702903" electricity_normed="0"
            traveltime="2.51" CO_perVeh="284.777810" CO2_perVeh="11122.875351" HC_perVeh="1.558481" PMx_perVeh="0.222282" NOx_perVeh="4.801392" fuel_perVeh="4.781297" electricity_perVeh="0"/>
        <edge id=":1110673556_5" sampledSeconds="21.77" CO_abs="1322.298839" CO2_abs="61051.093416" HC_abs="7.433548" PMx_abs="1.052154" NOx_abs="25.214182" fuel_abs="26.243578" electricity_abs="0"
            CO_normed="52.808586" CO2_normed="2438.194640" HC_normed="0.296873" PMx_normed="0.042020" NOx_normed="1.006978" fuel_normed="1.048089" electricity_normed="0"
            traveltime="1.51" CO_perVeh="91.418191" CO2_perVeh="4220.816335" HC_perVeh="0.513924" PMx_perVeh="0.072742" NOx_perVeh="1.743203" fuel_perVeh="1.814371" electricity_perVeh="0"/>
        <edge id=":1110673556_6" sampledSeconds="547.71" CO_abs="66206.781901" CO2_abs="3195314.772233" HC_abs="377.378188" PMx_abs="64.612616" NOx_abs="1378.267316" fuel_abs="1373.529285" electricity_abs="0"
            CO_normed="1338.401210" CO2_normed="64594.789777" HC_normed="7.628877" PMx_normed="1.306174" NOx_normed="27.862322" fuel_normed="27.766540" electricity_normed="0"
            traveltime="2.66" CO_perVeh="321.448564" CO2_perVeh="15513.959687" HC_perVeh="1.832255" PMx_perVeh="0.313709" NOx_perVeh="6.691793" fuel_perVeh="6.668788" electricity_perVeh="0"/>
        <edge id=":1110673561_0" sampledSeconds="103.02" CO_abs="10067.068306" CO2_abs="711695.783115" HC_abs="62.971468" PMx_abs="14.447002" NOx_abs="301.798402" fuel_abs="305.924093" electricity_abs="0"
            CO_normed="255.695820" CO2_normed="18076.527462" HC_normed="1.599427" PMx_normed="0.366943" NOx_normed="7.665448" fuel_normed="7.770237" electricity_normed="0"
            traveltime="1.22" CO_perVeh="118.801952" CO2_perVeh="8398.755759" HC_perVeh="0.743129" PMx_perVeh="0.170490" NOx_perVeh="3.561537" fuel_perVeh="3.610225" electricity_perVeh="0"/>
        <edge id=":1110673561_1" sampledSeconds="5195.43" CO_abs="482079.270458" CO2_abs="33383039.259946" HC_abs="3002.700475" PMx_abs="697.590437" NOx_abs="14272.154903" fuel_abs="14349.756684" electricity_abs="0"
            CO_normed="11937.619368" CO2_normed="826656.611164" HC_normed="74.355189" PMx_normed="17.274273" NOx_normed="353.418127" fuel_normed="355.339762" electricity_normed="0"
            traveltime="1.19" CO_perVeh="110.768567" CO2_perVeh="7670.504940" HC_perVeh="0.689938" PMx_perVeh="0.160287" NOx_perVeh="3.279349" fuel_perVeh="3.297180" electricity_perVeh="0"/>
        <edge id=":1110673562_0" sampledSeconds="301.75" CO_abs="7079.413886" CO2_abs="530267.290561" HC_abs="44.337024" PMx_abs="7.296354" NOx_abs="203.558647" fuel_abs="227.941457" electricity_abs="0"
            CO_normed="11141.664913" CO2_normed="834540.904251" HC_normed="69.778131" PMx_normed="11.483088" NOx_normed="320.362996" fuel_normed="358.736948" electricity_normed="0"
            traveltime="0.03" CO_perVeh="0.634611" CO2_perVeh="47.534066" HC_perVeh="0.003974" PMx_perVeh="0.000654" NOx_perVeh="0.018247" fuel_perVeh="0.020433" electricity_perVeh="0"/>
        <edge id=":1110673564_0" sampledSeconds="27.83" CO_abs="500.889656" CO2_abs="61504.672253" HC_abs="3.668866" PMx_abs="0.832217" NOx_abs="22.921062" fuel_abs="26.438290" electricity_abs="0"
            CO_normed="2128.426299" CO2_normed="261351.298524" HC_normed="15.590081" PMx_normed="3.536333" NOx_normed="97.398280" fuel_normed="112.344010" electricity_normed="0"
            traveltime="7.859477e-03" CO_perVeh="0.141478" CO2_perVeh="17.372235" HC_perVeh="0.001036" PMx_perVeh="0.000235" NOx_perVeh="0.006474" fuel_perVeh="0.007468" electricity_perVeh="0"/>
        <edge id=":1110673588_0" sampledSeconds="62.61" CO_abs="1208.490548" CO2_abs="129832.938113" HC_abs="8.499771" PMx_abs="1.855361" NOx_abs="49.355143" fuel_abs="55.809713" electricity_abs="0"
            CO_normed="2054.091582" CO2_normed="220679.214924" HC_normed="14.447203" PMx_normed="3.153588" NOx_normed="83.889761" fuel_normed="94.860703" electricity_normed="0"
            traveltime="0.02" CO_perVeh="0.389841" CO2_perVeh="41.882123" HC_perVeh="0.002742" PMx_perVeh="0.000599" NOx_perVeh="0.015921" fuel_perVeh="0.018003" electricity_perVeh="0"/>
        <edge id=":1110673601_0" sampledSeconds="29.15" CO_abs="442.312336" CO2_abs="49548.939044" HC_abs="3.155220" PMx_abs="0.706803" NOx_abs="18.763252" fuel_abs="21.298994" electricity_abs="0"
            CO_normed="671.255062" CO2_normed="75195.678436" HC_normed="4.788375" PMx_normed="1.072648" NOx_normed="28.475190" fuel_normed="32.323443" electricity_normed="0"
            traveltime="0.02" CO_perVeh="0.337284" CO2_perVeh="37.783444" HC_perVeh="0.002406" PMx_perVeh="0.000539" NOx_perVeh="0.014308" fuel_perVeh="0.016242" electricity_perVeh="0"/>
        <edge id=":1110673617_0" sampledSeconds="851.43" CO_abs="31584.682041" CO2_abs="3254775.218372" HC_abs="221.887001" PMx_abs="61.119621" NOx_abs="1272.147179" fuel_abs="1399.075670" electricity_abs="0"
            CO_normed="44737.509973" CO2_normed="4610163.198827" HC_normed="314.287537" PMx_normed="86.571702" NOx_normed="1801.908186" fuel_normed="1981.693583" electricity_normed="0"
            traveltime="0.02" CO_perVeh="0.559390" CO2_perVeh="57.644667" HC_perVeh="0.003930" PMx_perVeh="0.001082" NOx_perVeh="0.022531" fuel_perVeh="0.024779" electricity_perVeh="0"/>
        <edge id=":1110673621_0" sampledSeconds="26.49" CO_abs="635.345400" CO2_abs="59261.452773" HC_abs="4.270213" PMx_abs="0.919141" NOx_abs="23.110149" fuel_abs="25.473952" electricity_abs="0"
            CO_normed="1079.907195" CO2_normed="100727.681767" HC_normed="7.258153" PMx_normed="1.562280" NOx_normed="39.280707" fuel_normed="43.298503" electricity_normed="0"
            traveltime="0.02" CO_perVeh="0.481322" CO2_perVeh="44.895040" HC_perVeh="0.003235" PMx_perVeh="0.000696" NOx_perVeh="0.017508" fuel_perVeh="0.019298" electricity_perVeh="0"/>
        <edge id=":1110673630_0" sampledSeconds="286.22" CO_abs="1145.319487" CO2_abs="102802.484385" HC_abs="7.556639" PMx_abs="1.333782" NOx_abs="38.672995" fuel_abs="44.190780" electricity_abs="0"
            CO_normed="34.713243" CO2_normed="3115.818490" HC_normed="0.229033" PMx_normed="0.040425" NOx_normed="1.172132" fuel_normed="1.339369" electricity_normed="0"
            traveltime="1.29" CO_perVeh="5.153500" CO2_perVeh="462.571917" HC_perVeh="0.034002" PMx_perVeh="0.006002" NOx_perVeh="0.174014" fuel_perVeh="0.198842" electricity_perVeh="0"/>
        <edge id=":1110673630_1" sampledSeconds="338.04" CO_abs="1022.309847" CO2_abs="79352.411013" HC_abs="6.461398" PMx_abs="1.067223" NOx_abs="30.262013" fuel_abs="34.110551" electricity_abs="0"
            CO_normed="37.774720" CO2_normed="2932.100419" HC_normed="0.238751" PMx_normed="0.039434" NOx_normed="1.118192" fuel_normed="1.260397" electricity_normed="0"
            traveltime="1.08" CO_perVeh="3.258923" CO2_perVeh="252.959869" HC_perVeh="0.020598" PMx_perVeh="0.003402" NOx_perVeh="0.096469" fuel_perVeh="0.108738" electricity_perVeh="0"/>
        <edge id=":1110673650_0" sampledSeconds="199.55" CO_abs="3113.359291" CO2_abs="384517.708021" HC_abs="22.994099" PMx_abs="5.334586" NOx_abs="144.041070" fuel_abs="165.287922" electricity_abs="0"
            CO_normed="4409.857352" CO2_normed="544642.645922" HC_normed="32.569546" PMx_normed="7.556071" NOx_normed="204.024179" fuel_normed="234.118870" electricity_normed="0"
            traveltime="0.02" CO_perVeh="0.359829" CO2_perVeh="44.440926" HC_perVeh="0.002658" PMx_perVeh="0.000617" NOx_perVeh="0.016648" fuel_perVeh="0.019103" electricity_perVeh="0"/>
        <edge id=":1110673655_0" sampledSeconds="20.61" CO_abs="378.336053" CO2_abs="38181.912535" HC_abs="2.592094" PMx_abs="0.567636" NOx_abs="14.678163" fuel_abs="16.412777" electricity_abs="0"
            CO_normed="535.886761" CO2_normed="54082.029086" HC_normed="3.671521" PMx_normed="0.804018" NOx_normed="20.790599" fuel_normed="23.247560" electricity_normed="0"
            traveltime="0.02" CO_perVeh="0.432219" CO2_perVeh="43.619854" HC_perVeh="0.002961" PMx_perVeh="0.000648" NOx_perVeh="0.016769" fuel_perVeh="0.018750" electricity_perVeh="0"/>
        <edge id=":1110673663_0" sampledSeconds="112.08" CO_abs="2216.778256" CO2_abs="220374.020450" HC_abs="15.219212" PMx_abs="3.355339" NOx_abs="85.270257" fuel_abs="94.729323" electricity_abs="0"
            CO_normed="57.507556" CO2_normed="5716.932324" HC_normed="0.394816" PMx_normed="0.087044" NOx_normed="2.212077" fuel_normed="2.457464" electricity_normed="0"
            traveltime="1.32" CO_perVeh="26.037106" CO2_perVeh="2588.396833" HC_perVeh="0.178757" PMx_perVeh="0.039410" NOx_perVeh="1.001539" fuel_perVeh="1.112641" electricity_perVeh="0"/>
        <edge id=":1110673663_1" sampledSeconds="170.41" CO_abs="3115.021195" CO2_abs="364072.838509" HC_abs="22.492771" PMx_abs="5.049094" NOx_abs="136.730225" fuel_abs="156.499639" electricity_abs="0"
            CO_normed="80.908521" CO2_normed="9456.306367" HC_normed="0.584220" PMx_normed="0.131143" NOx_normed="3.551385" fuel_normed="4.064869" electricity_normed="0"
            traveltime="1.27" CO_perVeh="23.257984" CO2_perVeh="2718.312299" HC_perVeh="0.167940" PMx_perVeh="0.037699" NOx_perVeh="1.020882" fuel_perVeh="1.168488" electricity_perVeh="0"/>