<?xml version="1.0" encoding="UTF-8"?>

<!-- generated on Mon Nov  9 22:49:17 2020 by Eclipse SUMO sumo Version 1.7.0
<configuration xmlns:xsi="http://www.w3.org/2001/XMLSchema-instance" xsi:noNamespaceSchemaLocation="http://sumo.dlr.de/xsd/sumoConfiguration.xsd">

    <input>
        <net-file value="../dataSets/Porto/6AM7AM_Routing_SaoBento/Porto.net.xml"/>
        <route-files value="../results/Porto/6AM7AM_Routing_SaoBento/cost_co-length/solution18/Porto.rou.xml"/>
        <additional-files value="moreOutputInfo.xml"/>
    </input>

    <output>
        <emission-output.precision value="6"/>
        <tripinfo-output value="../results/Porto/6AM7AM_Routing_SaoBento/cost_co-length/solution18/Porto-tripinfo"/>
    </output>

    <processing>
        <collision.action value="warn"/>
        <time-to-teleport value="-1"/>
    </processing>

    <emissions>
        <device.emissions.probability value="1"/>
    </emissions>

    <gui_only>
        <quit-on-end value="true"/>
        <start value="true"/>
    </gui_only>

</configuration>
-->

<meandata xmlns:xsi="http://www.w3.org/2001/XMLSchema-instance" xsi:noNamespaceSchemaLocation="http://sumo.dlr.de/xsd/meandata_file.xsd">
    <interval begin="0.00" end="4699.00" id="emissions-detector">
        <edge id=":1092997347_0" sampledSeconds="270.50" CO_abs="34927.590060" CO2_abs="1374005.210054" HC_abs="191.520154" PMx_abs="28.136727" NOx_abs="597.128895" fuel_abs="590.630888" electricity_abs="0"
            CO_normed="60815.320578" CO2_normed="2392394.298688" HC_normed="333.471606" PMx_normed="48.991185" NOx_normed="1039.710588" fuel_normed="1028.396369" electricity_normed="0"
            traveltime="0.08" CO_perVeh="9.808673" CO2_perVeh="385.860228" HC_perVeh="0.053784" PMx_perVeh="0.007902" NOx_perVeh="0.167691" fuel_perVeh="0.165866" electricity_perVeh="0"/>
        <edge id=":1103427051_0" sampledSeconds="11.17" CO_abs="839.544304" CO2_abs="46285.967568" HC_abs="4.922270" PMx_abs="0.915071" NOx_abs="19.814097" fuel_abs="19.896291" electricity_abs="0"
            CO_normed="2217.903658" CO2_normed="122278.021915" HC_normed="13.003627" PMx_normed="2.417431" NOx_normed="52.344776" fuel_normed="52.561915" electricity_normed="0"
            traveltime="0.03" CO_perVeh="2.300339" CO2_perVeh="126.822851" HC_perVeh="0.013487" PMx_perVeh="0.002507" NOx_perVeh="0.054290" fuel_perVeh="0.054516" electricity_perVeh="0"/>
        <edge id=":1105984386_0" sampledSeconds="22.83" CO_abs="529.618077" CO2_abs="43938.147293" HC_abs="3.407248" PMx_abs="0.554046" NOx_abs="16.477390" fuel_abs="18.887350" electricity_abs="0"
            CO_normed="41.786945" CO2_normed="3466.726388" HC_normed="0.268832" PMx_normed="0.043714" NOx_normed="1.300069" fuel_normed="1.490215" electricity_normed="0"
            traveltime="0.96" CO_perVeh="22.227660" CO2_perVeh="1844.050010" HC_perVeh="0.143000" PMx_perVeh="0.023253" NOx_perVeh="0.691543" fuel_perVeh="0.792687" electricity_perVeh="0"/>
        <edge id=":1105984390_0" sampledSeconds="22.89" CO_abs="13.633646" CO2_abs="1037.615199" HC_abs="0.085500" PMx_abs="0.012906" NOx_abs="0.389550" fuel_abs="0.446033" electricity_abs="0"
            CO_normed="0.831609" CO2_normed="63.291260" HC_normed="0.005215" PMx_normed="0.000787" NOx_normed="0.023761" fuel_normed="0.027207" electricity_normed="0"
            traveltime="1.04" CO_perVeh="0.618279" CO2_perVeh="47.055340" HC_perVeh="0.003877" PMx_perVeh="0.000585" NOx_perVeh="0.017666" fuel_perVeh="0.020227" electricity_perVeh="0"/>
        <edge id=":1105984390_1" sampledSeconds="644.91" CO_abs="14279.300571" CO2_abs="1863160.017963" HC_abs="109.793170" PMx_abs="32.922746" NOx_abs="697.090127" fuel_abs="800.887143" electricity_abs="0"
            CO_normed="833.180822" CO2_normed="108713.251603" HC_normed="6.406306" PMx_normed="1.921005" NOx_normed="40.674410" fuel_normed="46.730847" electricity_normed="0"
            traveltime="0.64" CO_perVeh="14.081157" CO2_perVeh="1837.306275" HC_perVeh="0.108270" PMx_perVeh="0.032466" NOx_perVeh="0.687417" fuel_perVeh="0.789774" electricity_perVeh="0"/>
        <edge id=":1105984395_0" sampledSeconds="9.02" CO_abs="201.981399" CO2_abs="16602.312138" HC_abs="1.299116" PMx_abs="0.226397" NOx_abs="6.339152" fuel_abs="7.136682" electricity_abs="0"
            CO_normed="168.197914" CO2_normed="13825.403115" HC_normed="1.081826" PMx_normed="0.188530" NOx_normed="5.278863" fuel_normed="5.942998" electricity_normed="0"
            traveltime="0.09" CO_perVeh="2.048312" CO2_perVeh="168.365599" HC_perVeh="0.013174" PMx_perVeh="0.002296" NOx_perVeh="0.064286" fuel_perVeh="0.072374" electricity_perVeh="0"/>
        <edge id=":1105984398_0" sampledSeconds="22.67" CO_abs="1425.640640" CO2_abs="102602.649037" HC_abs="8.901635" PMx_abs="1.778291" NOx_abs="41.785439" fuel_abs="44.104406" electricity_abs="0"
            CO_normed="90.340153" CO2_normed="6501.735961" HC_normed="0.564080" PMx_normed="0.112687" NOx_normed="2.647864" fuel_normed="2.794813" electricity_normed="0"
            traveltime="1.09" CO_perVeh="68.673377" CO2_perVeh="4942.388822" HC_perVeh="0.428793" PMx_perVeh="0.085661" NOx_perVeh="2.012812" fuel_perVeh="2.124518" electricity_perVeh="0"/>
        <edge id=":1105984398_1" sampledSeconds="453.25" CO_abs="7885.382407" CO2_abs="936253.709657" HC_abs="57.296343" PMx_abs="13.098212" NOx_abs="352.131895" fuel_abs="402.455931" electricity_abs="0"
            CO_normed="483.679162" CO2_normed="57428.592029" HC_normed="3.514484" PMx_normed="0.803427" NOx_normed="21.599315" fuel_normed="24.686126" electricity_normed="0"
            traveltime="0.96" CO_perVeh="16.662374" CO2_perVeh="1978.370717" HC_perVeh="0.121071" PMx_perVeh="0.027677" NOx_perVeh="0.744080" fuel_perVeh="0.850418" electricity_perVeh="0"/>
        <edge id=":1106006327_0" sampledSeconds="133.87" CO_abs="18070.136863" CO2_abs="589672.379955" HC_abs="96.163558" PMx_abs="12.299664" NOx_abs="258.109868" fuel_abs="253.479254" electricity_abs="0"
            CO_normed="1562.517089" CO2_normed="50988.721193" HC_normed="8.315222" PMx_normed="1.063547" NOx_normed="22.318651" fuel_normed="21.918244" electricity_normed="0"
            traveltime="2.07" CO_perVeh="280.083644" CO2_perVeh="9139.808415" HC_perVeh="1.490517" PMx_perVeh="0.190642" NOx_perVeh="4.000653" fuel_perVeh="3.928880" electricity_perVeh="0"/>
        <edge id=":1106006327_1" sampledSeconds="162.79" CO_abs="22124.091444" CO2_abs="736193.377796" HC_abs="118.093145" PMx_abs="15.387101" NOx_abs="322.356634" fuel_abs="316.463026" electricity_abs="0"
            CO_normed="1668.279421" CO2_normed="55513.071136" HC_normed="8.904879" PMx_normed="1.160273" NOx_normed="24.307481" fuel_normed="23.863070" electricity_normed="0"
            traveltime="2.31" CO_perVeh="314.079993" CO2_perVeh="10451.213836" HC_perVeh="1.676484" PMx_perVeh="0.218440" NOx_perVeh="4.576268" fuel_perVeh="4.492601" electricity_perVeh="0"/>
        <edge id=":1106006327_2" sampledSeconds="0.00" CO_abs="0" CO2_abs="0" HC_abs="0" PMx_abs="0" NOx_abs="0" fuel_abs="0" electricity_abs="0"
            CO_normed="0" CO2_normed="0" HC_normed="0" PMx_normed="0" NOx_normed="0" fuel_normed="0" electricity_normed="0"/>
        <edge id=":1106006327_3" sampledSeconds="0.00" CO_abs="0" CO2_abs="0" HC_abs="0" PMx_abs="0" NOx_abs="0" fuel_abs="0" electricity_abs="0"
            CO_normed="0" CO2_normed="0" HC_normed="0" PMx_normed="0" NOx_normed="0" fuel_normed="0" electricity_normed="0"/>
        <edge id=":1107381198_0" sampledSeconds="0.00" CO_abs="0" CO2_abs="0" HC_abs="0" PMx_abs="0" NOx_abs="0" fuel_abs="0" electricity_abs="0"
            CO_normed="0" CO2_normed="0" HC_normed="0" PMx_normed="0" NOx_normed="0" fuel_normed="0" electricity_normed="0"/>
        <edge id=":1107381198_1" sampledSeconds="35.44" CO_abs="1506.409777" CO2_abs="61527.132387" HC_abs="8.266524" PMx_abs="1.007478" NOx_abs="25.126496" fuel_abs="26.448433" electricity_abs="0"
            CO_normed="125.855108" CO2_normed="5140.370166" HC_normed="0.690638" PMx_normed="0.084171" NOx_normed="2.099228" fuel_normed="2.209671" electricity_normed="0"
            traveltime="1.46" CO_perVeh="62.023068" CO2_perVeh="2533.242654" HC_perVeh="0.340356" PMx_perVeh="0.041481" NOx_perVeh="1.034528" fuel_perVeh="1.088955" electricity_perVeh="0"/>
        <edge id=":1110338277_0" sampledSeconds="96.25" CO_abs="1625.690426" CO2_abs="194099.260579" HC_abs="11.862422" PMx_abs="2.692147" NOx_abs="72.868423" fuel_abs="83.435107" electricity_abs="0"
            CO_normed="4448.123868" CO2_normed="531083.618158" HC_normed="32.457301" PMx_normed="7.366103" NOx_normed="199.378533" fuel_normed="228.290506" electricity_normed="0"
            traveltime="0.02" CO_perVeh="0.366958" CO2_perVeh="43.812965" HC_perVeh="0.002678" PMx_perVeh="0.000608" NOx_perVeh="0.016448" fuel_perVeh="0.018833" electricity_perVeh="0"/>
        <edge id=":1110338293_0" sampledSeconds="123.51" CO_abs="6487.276483" CO2_abs="439449.365990" HC_abs="39.905504" PMx_abs="7.935968" NOx_abs="181.448831" fuel_abs="188.899921" electricity_abs="0"
            CO_normed="16566.783952" CO2_normed="1122237.155113" HC_normed="101.908076" PMx_normed="20.266357" NOx_normed="463.372201" fuel_normed="482.400309" electricity_normed="0"
            traveltime="0.03" CO_perVeh="1.487967" CO2_perVeh="100.795203" HC_perVeh="0.009153" PMx_perVeh="0.001820" NOx_perVeh="0.041618" fuel_perVeh="0.043327" electricity_perVeh="0"/>
        <edge id=":1110338295_0" sampledSeconds="0.00" CO_abs="0" CO2_abs="0" HC_abs="0" PMx_abs="0" NOx_abs="0" fuel_abs="0" electricity_abs="0"
            CO_normed="0" CO2_normed="0" HC_normed="0" PMx_normed="0" NOx_normed="0" fuel_normed="0" electricity_normed="0"/>
        <edge id=":1110673403_0" sampledSeconds="143.74" CO_abs="2049.153364" CO2_abs="260413.676836" HC_abs="15.279145" PMx_abs="3.544686" NOx_abs="97.065385" fuel_abs="111.940896" electricity_abs="0"
            CO_normed="5232.994334" CO2_normed="665027.478618" HC_normed="39.018886" PMx_normed="9.052187" NOx_normed="247.879254" fuel_normed="285.867367" electricity_normed="0"
            traveltime="0.02" CO_perVeh="0.329005" CO2_perVeh="41.811134" HC_perVeh="0.002453" PMx_perVeh="0.000569" NOx_perVeh="0.015584" fuel_perVeh="0.017973" electricity_perVeh="0"/>
        <edge id=":1110673412_0" sampledSeconds="254.20" CO_abs="44348.823359" CO2_abs="3037949.245437" HC_abs="276.251255" PMx_abs="66.592829" NOx_abs="1304.422759" fuel_abs="1305.864863" electricity_abs="0"
            CO_normed="117160.484689" CO2_normed="8025638.091431" HC_normed="729.799090" PMx_normed="175.924580" NOx_normed="3446.017077" fuel_normed="3449.826820" electricity_normed="0"
            traveltime="0.02" CO_perVeh="2.723391" CO2_perVeh="186.555641" HC_perVeh="0.016964" PMx_perVeh="0.004089" NOx_perVeh="0.080103" fuel_perVeh="0.080191" electricity_perVeh="0"/>
        <edge id=":1110673414_0" sampledSeconds="0.00" CO_abs="0" CO2_abs="0" HC_abs="0" PMx_abs="0" NOx_abs="0" fuel_abs="0" electricity_abs="0"
            CO_normed="0" CO2_normed="0" HC_normed="0" PMx_normed="0" NOx_normed="0" fuel_normed="0" electricity_normed="0"/>
        <edge id=":1110673414_1" sampledSeconds="14.26" CO_abs="904.237726" CO2_abs="34719.699737" HC_abs="4.923424" PMx_abs="0.639920" NOx_abs="14.650743" fuel_abs="14.924761" electricity_abs="0"
            CO_normed="76.717056" CO2_normed="2945.677965" HC_normed="0.417712" PMx_normed="0.054292" NOx_normed="1.242994" fuel_normed="1.266242" electricity_normed="0"
            traveltime="1.56" CO_perVeh="98.757458" CO2_perVeh="3791.955595" HC_perVeh="0.537718" PMx_perVeh="0.069890" NOx_perVeh="1.600099" fuel_perVeh="1.630026" electricity_perVeh="0"/>
        <edge id=":1110673417_0" sampledSeconds="29.75" CO_abs="515.311792" CO2_abs="58712.764509" HC_abs="3.695741" PMx_abs="0.802457" NOx_abs="22.046313" fuel_abs="25.238178" electricity_abs="0"
            CO_normed="1409.967509" CO2_normed="160646.605839" HC_normed="10.112082" PMx_normed="2.195639" NOx_normed="60.321897" fuel_normed="69.055302" electricity_normed="0"
            traveltime="0.02" CO_perVeh="0.382471" CO2_perVeh="43.577400" HC_perVeh="0.002743" PMx_perVeh="0.000596" NOx_perVeh="0.016363" fuel_perVeh="0.018732" electricity_perVeh="0"/>
        <edge id=":1110673446_0" sampledSeconds="333.69" CO_abs="3341.019940" CO2_abs="274082.010133" HC_abs="21.704949" PMx_abs="4.957451" NOx_abs="111.642912" fuel_abs="117.815326" electricity_abs="0"
            CO_normed="8532.079012" CO2_normed="699932.777525" HC_normed="55.428684" PMx_normed="12.660016" NOx_normed="285.106393" fuel_normed="300.869101" electricity_normed="0"
            traveltime="0.02" CO_perVeh="0.227994" CO2_perVeh="18.703596" HC_perVeh="0.001481" PMx_perVeh="0.000338" NOx_perVeh="0.007619" fuel_perVeh="0.008040" electricity_perVeh="0"/>
        <edge id=":1110673451_0" sampledSeconds="37.29" CO_abs="353.789965" CO2_abs="28149.314945" HC_abs="2.255137" PMx_abs="0.391034" NOx_abs="10.804276" fuel_abs="12.100283" electricity_abs="0"
            CO_normed="1003.873066" CO2_normed="79873.206910" HC_normed="6.398913" PMx_normed="1.109553" NOx_normed="30.656952" fuel_normed="34.334349" electricity_normed="0"
            traveltime="0.03" CO_perVeh="0.253714" CO2_perVeh="20.186760" HC_perVeh="0.001617" PMx_perVeh="0.000280" NOx_perVeh="0.007748" fuel_perVeh="0.008677" electricity_perVeh="0"/>
        <edge id=":1110673464_0" sampledSeconds="325.88" CO_abs="646.652361" CO2_abs="50182.632381" HC_abs="4.084837" PMx_abs="0.659267" NOx_abs="19.033777" fuel_abs="21.571609" electricity_abs="0"
            CO_normed="35.085949" CO2_normed="2722.800351" HC_normed="0.221634" PMx_normed="0.035770" NOx_normed="1.032731" fuel_normed="1.170429" electricity_normed="0"
            traveltime="1.18" CO_perVeh="2.337563" CO2_perVeh="181.403595" HC_perVeh="0.014766" PMx_perVeh="0.002383" NOx_perVeh="0.068805" fuel_perVeh="0.077979" electricity_perVeh="0"/>
        <edge id=":1110673464_1" sampledSeconds="710.12" CO_abs="16560.950679" CO2_abs="2127281.129039" HC_abs="126.346297" PMx_abs="37.707631" NOx_abs="798.041304" fuel_abs="914.420574" electricity_abs="0"
            CO_normed="880.477655" CO2_normed="113098.791001" HC_normed="6.717313" PMx_normed="2.004760" NOx_normed="42.428575" fuel_normed="48.615982" electricity_normed="0"
            traveltime="0.70" CO_perVeh="16.342559" CO2_perVeh="2099.228319" HC_perVeh="0.124680" PMx_perVeh="0.037210" NOx_perVeh="0.787517" fuel_perVeh="0.902362" electricity_perVeh="0"/>
        <edge id=":1110673479_0" sampledSeconds="133.51" CO_abs="6886.844674" CO2_abs="466583.171980" HC_abs="42.361282" PMx_abs="8.407835" NOx_abs="192.549511" fuel_abs="200.563574" electricity_abs="0"
            CO_normed="17587.175162" CO2_normed="1191529.700736" HC_normed="108.179481" PMx_normed="21.471382" NOx_normed="491.720395" fuel_normed="512.186186" electricity_normed="0"
            traveltime="0.03" CO_perVeh="1.450778" CO2_perVeh="98.290114" HC_perVeh="0.008924" PMx_perVeh="0.001771" NOx_perVeh="0.040562" fuel_perVeh="0.042251" electricity_perVeh="0"/>
        <edge id=":1110673511_0" sampledSeconds="11.90" CO_abs="157.857572" CO2_abs="20046.606193" HC_abs="1.178047" PMx_abs="0.276191" NOx_abs="7.492055" fuel_abs="8.617189" electricity_abs="0"
            CO_normed="403.126380" CO2_normed="51193.716602" HC_normed="3.008418" PMx_normed="0.705318" NOx_normed="19.132722" fuel_normed="22.006015" electricity_normed="0"
            traveltime="0.02" CO_perVeh="0.312589" CO2_perVeh="39.696250" HC_perVeh="0.002333" PMx_perVeh="0.000547" NOx_perVeh="0.014836" fuel_perVeh="0.017064" electricity_perVeh="0"/>
        <edge id=":1110673517_0" sampledSeconds="17.22" CO_abs="672.843677" CO2_abs="48964.378830" HC_abs="4.212799" PMx_abs="0.840006" NOx_abs="19.862499" fuel_abs="21.047661" electricity_abs="0"
            CO_normed="1718.264339" CO2_normed="125042.039999" HC_normed="10.758371" PMx_normed="2.145153" NOx_normed="50.723555" fuel_normed="53.750146" electricity_normed="0"
            traveltime="0.03" CO_perVeh="1.080295" CO2_perVeh="78.615540" HC_perVeh="0.006764" PMx_perVeh="0.001349" NOx_perVeh="0.031891" fuel_perVeh="0.033793" electricity_perVeh="0"/>
        <edge id=":1110673534_0" sampledSeconds="477.37" CO_abs="2798.468393" CO2_abs="241078.279825" HC_abs="18.246555" PMx_abs="3.219385" NOx_abs="91.357772" fuel_abs="103.630102" electricity_abs="0"
            CO_normed="138.498958" CO2_normed="11931.201583" HC_normed="0.903040" PMx_normed="0.159331" NOx_normed="4.521386" fuel_normed="5.128756" electricity_normed="0"
            traveltime="1.44" CO_perVeh="8.430664" CO2_perVeh="726.272234" HC_perVeh="0.054970" PMx_perVeh="0.009699" NOx_perVeh="0.275224" fuel_perVeh="0.312196" electricity_perVeh="0"/>
        <edge id=":1110673534_1" sampledSeconds="184.12" CO_abs="2621.580482" CO2_abs="341565.493010" HC_abs="19.717757" PMx_abs="4.586934" NOx_abs="126.720820" fuel_abs="146.824708" electricity_abs="0"
            CO_normed="126.158695" CO2_normed="16437.205377" HC_normed="0.948880" PMx_normed="0.220738" NOx_normed="6.098204" fuel_normed="7.065667" electricity_normed="0"
            traveltime="1.22" CO_perVeh="17.406353" CO2_perVeh="2267.872249" HC_perVeh="0.130919" PMx_perVeh="0.030456" NOx_perVeh="0.841381" fuel_perVeh="0.974863" electricity_perVeh="0"/>
        <edge id=":1110673549_0" sampledSeconds="59.31" CO_abs="17.809992" CO2_abs="3960.009110" HC_abs="0.167976" PMx_abs="0.039474" NOx_abs="1.344244" fuel_abs="1.702256" electricity_abs="0"
            CO_normed="0.853855" CO2_normed="189.852564" HC_normed="0.008053" PMx_normed="0.001892" NOx_normed="0.064446" fuel_normed="0.081610" electricity_normed="0"
            traveltime="1.24" CO_perVeh="0.371056" CO2_perVeh="82.503417" HC_perVeh="0.003500" PMx_perVeh="0.000822" NOx_perVeh="0.028006" fuel_perVeh="0.035465" electricity_perVeh="0"/>
        <edge id=":1110673549_1" sampledSeconds="638.46" CO_abs="13402.321600" CO2_abs="1786210.243352" HC_abs="103.719478" PMx_abs="31.293878" NOx_abs="666.275548" fuel_abs="767.810119" electricity_abs="0"
            CO_normed="621.537087" CO2_normed="82836.089437" HC_normed="4.810025" PMx_normed="1.451264" NOx_normed="30.898748" fuel_normed="35.607448" electricity_normed="0"
            traveltime="0.80" CO_perVeh="16.870868" CO2_perVeh="2248.484844" HC_perVeh="0.130562" PMx_perVeh="0.039393" NOx_perVeh="0.838709" fuel_perVeh="0.966521" electricity_perVeh="0"/>
        <edge id=":1110673556_0" sampledSeconds="410.23" CO_abs="50079.584375" CO2_abs="2545200.864831" HC_abs="288.563219" PMx_abs="51.268915" NOx_abs="1095.197631" fuel_abs="1094.071267" electricity_abs="0"
            CO_normed="1780.370941" CO2_normed="90484.010898" HC_normed="10.258663" PMx_normed="1.822653" NOx_normed="38.935188" fuel_normed="38.895145" electricity_normed="0"
            traveltime="2.55" CO_perVeh="310.869640" CO2_perVeh="15799.365894" HC_perVeh="1.791260" PMx_perVeh="0.318252" NOx_perVeh="6.798453" fuel_perVeh="6.791461" electricity_perVeh="0"/>
        <edge id=":1110673556_2" sampledSeconds="246.61" CO_abs="24023.140887" CO2_abs="1042765.864105" HC_abs="133.884605" PMx_abs="20.134160" NOx_abs="444.855881" fuel_abs="448.243883" electricity_abs="0"
            CO_normed="892.994640" CO2_normed="38761.972550" HC_normed="4.976794" PMx_normed="0.748432" NOx_normed="16.536302" fuel_normed="16.662242" electricity_normed="0"
            traveltime="2.99" CO_perVeh="291.396095" CO2_perVeh="12648.550108" HC_perVeh="1.623995" PMx_perVeh="0.244224" NOx_perVeh="5.396017" fuel_perVeh="5.437112" electricity_perVeh="0"/>
        <edge id=":1110673556_3" sampledSeconds="418.48" CO_abs="35579.016430" CO2_abs="1275968.341578" HC_abs="191.716306" PMx_abs="24.367635" NOx_abs="544.252176" fuel_abs="548.493953" electricity_abs="0"
            CO_normed="3008.588534" CO2_normed="107896.847849" HC_normed="16.211676" PMx_normed="2.060546" NOx_normed="46.022376" fuel_normed="46.381063" electricity_normed="0"
            traveltime="1.72" CO_perVeh="145.884273" CO2_perVeh="5231.839779" HC_perVeh="0.786092" PMx_perVeh="0.099914" NOx_perVeh="2.231592" fuel_perVeh="2.248984" electricity_perVeh="0"/>
        <edge id=":1110673556_4" sampledSeconds="185.71" CO_abs="18937.869634" CO2_abs="764782.648051" HC_abs="104.192622" PMx_abs="14.979824" NOx_abs="328.102464" fuel_abs="328.750627" electricity_abs="0"
            CO_normed="978.333731" CO2_normed="39508.808319" HC_normed="5.382609" PMx_normed="0.773860" NOx_normed="16.949832" fuel_normed="16.983316" electricity_normed="0"
            traveltime="2.38" CO_perVeh="243.112660" CO2_perVeh="9817.806713" HC_perVeh="1.337560" PMx_perVeh="0.192302" NOx_perVeh="4.211977" fuel_perVeh="4.220297" electricity_perVeh="0"/>
        <edge id=":1110673556_5" sampledSeconds="23.24" CO_abs="1962.390454" CO2_abs="82458.701650" HC_abs="10.848366" PMx_abs="1.478121" NOx_abs="34.471979" fuel_abs="35.445966" electricity_abs="0"
            CO_normed="141.299573" CO2_normed="5937.340010" HC_normed="0.781124" PMx_normed="0.106430" NOx_normed="2.482114" fuel_normed="2.552244" electricity_normed="0"
            traveltime="1.61" CO_perVeh="135.671439" CO2_perVeh="5700.848509" HC_perVeh="0.750011" PMx_perVeh="0.102191" NOx_perVeh="2.383248" fuel_perVeh="2.450585" electricity_perVeh="0"/>
        <edge id=":1110673556_6" sampledSeconds="493.96" CO_abs="58803.708274" CO2_abs="2852693.492783" HC_abs="335.508308" PMx_abs="57.495851" NOx_abs="1228.853950" fuel_abs="1226.251108" electricity_abs="0"
            CO_normed="2143.231375" CO2_normed="103972.731956" HC_normed="12.228343" PMx_normed="2.095564" NOx_normed="44.788304" fuel_normed="44.693437" electricity_normed="0"
            traveltime="2.65" CO_perVeh="315.908214" CO2_perVeh="15325.382254" HC_perVeh="1.802434" PMx_perVeh="0.308882" NOx_perVeh="6.601710" fuel_perVeh="6.587727" electricity_perVeh="0"/>
        <edge id=":1110673561_0" sampledSeconds="99.91" CO_abs="9965.460260" CO2_abs="710515.877860" HC_abs="62.519676" PMx_abs="14.508028" NOx_abs="301.282565" fuel_abs="305.416766" electricity_abs="0"
            CO_normed="456.350443" CO2_normed="32536.804836" HC_normed="2.862977" PMx_normed="0.664369" NOx_normed="13.796697" fuel_normed="13.986015" electricity_normed="0"
            traveltime="1.18" CO_perVeh="117.604193" CO2_perVeh="8384.925969" HC_perVeh="0.737806" PMx_perVeh="0.171212" NOx_perVeh="3.555490" fuel_perVeh="3.604278" electricity_perVeh="0"/>
        <edge id=":1110673561_1" sampledSeconds="1316.52" CO_abs="120940.318076" CO2_abs="8377440.217685" HC_abs="753.410656" PMx_abs="175.150626" NOx_abs="3582.178469" fuel_abs="3601.056882" electricity_abs="0"
            CO_normed="5399.466844" CO2_normed="374016.799484" HC_normed="33.636557" PMx_normed="7.819725" NOx_normed="159.928915" fuel_normed="160.771755" electricity_normed="0"
            traveltime="1.19" CO_perVeh="109.583159" CO2_perVeh="7590.738761" HC_perVeh="0.682660" PMx_perVeh="0.158703" NOx_perVeh="3.245786" fuel_perVeh="3.262892" electricity_perVeh="0"/>
        <edge id=":1110673562_0" sampledSeconds="104.24" CO_abs="2356.716855" CO2_abs="185367.363303" HC_abs="14.961382" PMx_abs="2.519129" NOx_abs="70.797974" fuel_abs="79.682244" electricity_abs="0"
            CO_normed="6687.144372" CO2_normed="525976.770385" HC_normed="42.452670" PMx_normed="7.147987" NOx_normed="200.888059" fuel_normed="226.097024" electricity_normed="0"
            traveltime="0.03" CO_perVeh="0.600738" CO2_perVeh="47.250985" HC_perVeh="0.003814" PMx_perVeh="0.000642" NOx_perVeh="0.018047" fuel_perVeh="0.020311" electricity_perVeh="0"/>
        <edge id=":1110673564_0" sampledSeconds="28.51" CO_abs="425.775319" CO2_abs="53035.034035" HC_abs="3.158683" PMx_abs="0.716481" NOx_abs="19.754938" fuel_abs="22.797548" electricity_abs="0"
            CO_normed="3261.951794" CO2_normed="406312.242020" HC_normed="24.199313" PMx_normed="5.489108" NOx_normed="151.346619" fuel_normed="174.656675" electricity_normed="0"
            traveltime="7.836737e-03" CO_perVeh="0.117052" CO2_perVeh="14.580078" HC_perVeh="0.000868" PMx_perVeh="0.000197" NOx_perVeh="0.005431" fuel_perVeh="0.006267" electricity_perVeh="0"/>
        <edge id=":1110673588_0" sampledSeconds="11.61" CO_abs="200.165622" CO2_abs="22915.751986" HC_abs="1.431256" PMx_abs="0.317395" NOx_abs="8.617491" fuel_abs="9.850523" electricity_abs="0"
            CO_normed="613.403906" CO2_normed="70224.905002" HC_normed="4.386059" PMx_normed="0.972650" NOx_normed="26.408146" fuel_normed="30.186747" electricity_normed="0"
            traveltime="0.02" CO_perVeh="0.333609" CO2_perVeh="38.192920" HC_perVeh="0.002385" PMx_perVeh="0.000529" NOx_perVeh="0.014362" fuel_perVeh="0.016418" electricity_perVeh="0"/>
        <edge id=":1110673601_0" sampledSeconds="29.51" CO_abs="427.891323" CO2_abs="52908.696690" HC_abs="3.155218" PMx_abs="0.711185" NOx_abs="19.689092" fuel_abs="22.743246" electricity_abs="0"
            CO_normed="1170.772475" CO2_normed="144765.837779" HC_normed="8.633132" PMx_normed="1.945905" NOx_normed="53.872199" fuel_normed="62.228808" electricity_normed="0"
            traveltime="0.02" CO_perVeh="0.317587" CO2_perVeh="39.269543" HC_perVeh="0.002342" PMx_perVeh="0.000528" NOx_perVeh="0.014614" fuel_perVeh="0.016880" electricity_perVeh="0"/>
        <edge id=":1110673617_0" sampledSeconds="238.91" CO_abs="5792.866440" CO2_abs="735224.347966" HC_abs="43.939842" PMx_abs="13.060779" NOx_abs="276.365571" fuel_abs="316.039191" electricity_abs="0"
            CO_normed="14793.444834" CO2_normed="1877568.030558" HC_normed="112.210706" PMx_normed="33.353767" NOx_normed="705.764386" fuel_normed="807.080291" electricity_normed="0"
            traveltime="0.01" CO_perVeh="0.354774" CO2_perVeh="45.027520" HC_perVeh="0.002691" PMx_perVeh="0.000800" NOx_perVeh="0.016926" fuel_perVeh="0.019355" electricity_perVeh="0"/>
        <edge id=":1110673621_0" sampledSeconds="25.62" CO_abs="428.512127" CO2_abs="48322.059174" HC_abs="3.062081" PMx_abs="0.678741" NOx_abs="18.257921" fuel_abs="20.771621" electricity_abs="0"
            CO_normed="1313.167617" CO2_normed="148082.071101" HC_normed="9.383692" PMx_normed="2.079991" NOx_normed="55.951065" fuel_normed="63.654256" electricity_normed="0"
            traveltime="0.02" CO_perVeh="0.324630" CO2_perVeh="36.607621" HC_perVeh="0.002320" PMx_perVeh="0.000514" NOx_perVeh="0.013832" fuel_perVeh="0.015736" electricity_perVeh="0"/>
        <edge id=":1110673630_0" sampledSeconds="54.19" CO_abs="212.781113" CO2_abs="17783.833021" HC_abs="1.376010" PMx_abs="0.244833" NOx_abs="6.794765" fuel_abs="7.644566" electricity_abs="0"
            CO_normed="11.627387" CO2_normed="971.794449" HC_normed="0.075192" PMx_normed="0.013379" NOx_normed="0.371299" fuel_normed="0.417736" electricity_normed="0"
            traveltime="1.26" CO_perVeh="4.966688" CO2_perVeh="415.106118" HC_perVeh="0.032119" PMx_perVeh="0.005715" NOx_perVeh="0.158602" fuel_perVeh="0.178438" electricity_perVeh="0"/>
        <edge id=":1110673630_1" sampledSeconds="7.42" CO_abs="0" CO2_abs="0" HC_abs="0" PMx_abs="0" NOx_abs="0" fuel_abs="0" electricity_abs="0"
            CO_normed="0" CO2_normed="0" HC_normed="0" PMx_normed="0" NOx_normed="0" fuel_normed="0" electricity_normed="0"
            traveltime="1.05" CO_perVeh="0" CO2_perVeh="0" HC_perVeh="0" PMx_perVeh="0" NOx_perVeh="0" fuel_perVeh="0" electricity_perVeh="0"/>
        <edge id=":1110673650_0" sampledSeconds="143.42" CO_abs="2111.900404" CO2_abs="280972.593779" HC_abs="15.978979" PMx_abs="3.745476" NOx_abs="103.993424" fuel_abs="120.778361" electricity_abs="0"
            CO_normed="5393.233633" CO2_normed="717529.501032" HC_normed="40.806076" PMx_normed="9.564951" NOx_normed="265.571631" fuel_normed="308.435909" electricity_normed="0"
            traveltime="0.02" CO_perVeh="0.339080" CO2_perVeh="45.112003" HC_perVeh="0.002566" PMx_perVeh="0.000601" NOx_perVeh="0.016697" fuel_perVeh="0.019392" electricity_perVeh="0"/>
        <edge id=":1110673655_0" sampledSeconds="45.06" CO_abs="868.162736" CO2_abs="92648.941745" HC_abs="6.077783" PMx_abs="1.332157" NOx_abs="35.250455" fuel_abs="39.825871" electricity_abs="0"
            CO_normed="2217.057423" CO2_normed="236600.830165" HC_normed="15.521047" PMx_normed="3.401977" NOx_normed="90.020316" fuel_normed="101.704714" electricity_normed="0"
            traveltime="0.02" CO_perVeh="0.464631" CO2_perVeh="49.584662" HC_perVeh="0.003253" PMx_perVeh="0.000713" NOx_perVeh="0.018866" fuel_perVeh="0.021314" electricity_perVeh="0"/>
        <edge id=":1110673663_0" sampledSeconds="108.85" CO_abs="1676.079407" CO2_abs="210730.181554" HC_abs="12.388397" PMx_abs="2.832116" NOx_abs="78.311632" fuel_abs="90.584111" electricity_abs="0"
            CO_normed="78.393084" CO2_normed="9856.208899" HC_normed="0.579426" PMx_normed="0.132463" NOx_normed="3.662768" fuel_normed="4.236773" electricity_normed="0"
            traveltime="1.28" CO_perVeh="19.686343" CO2_perVeh="2475.125395" HC_perVeh="0.145508" PMx_perVeh="0.033265" NOx_perVeh="0.919807" fuel_perVeh="1.063953" electricity_perVeh="0"/>
        <edge id=":1110673663_1" sampledSeconds="153.34" CO_abs="2265.478329" CO2_abs="285512.639474" HC_abs="16.849822" PMx_abs="3.861160" NOx_abs="106.300610" fuel_abs="122.729939" electricity_abs="0"
            CO_normed="106.089809" CO2_normed="13370.236685" HC_normed="0.789058" PMx_normed="0.180814" NOx_normed="4.977938" fuel_normed="5.747305" electricity_normed="0"
            traveltime="1.24" CO_perVeh="18.358823" CO2_perVeh="2313.717126" HC_perVeh="0.136546" PMx_perVeh="0.031290" NOx_perVeh="0.861431" fuel_perVeh="0.994570" electricity_perVeh="0"/>
        <edge id=":1110673666_0" sampledSeconds="191.91" CO_abs="4371.132893" CO2_abs="343628.273118" HC_abs="27.765640" PMx_abs="4.772484" NOx_abs="131.880509" fuel_abs="147.712322" electricity_abs="0"
            CO_normed="273.819649" CO2_normed="21525.809291" HC_normed="1.739315" PMx_normed="0.298961" NOx_normed="8.261354" fuel_normed="9.253101" electricity_normed="0"