<?xml version="1.0" encoding="UTF-8"?>

<!-- generated on Mon Nov  9 20:05:22 2020 by Eclipse SUMO sumo Version 1.7.0
<configuration xmlns:xsi="http://www.w3.org/2001/XMLSchema-instance" xsi:noNamespaceSchemaLocation="http://sumo.dlr.de/xsd/sumoConfiguration.xsd">

    <input>
        <net-file value="../dataSets/Angeja_Estarreja/angeja_estarreja.net.xml"/>
        <route-files value="../results/angeja_estarreja/cost_co2-ttime/solution10/angeja_estarreja.rou.xml"/>
        <additional-files value="moreOutputInfo.xml"/>
    </input>

    <output>
        <emission-output.precision value="6"/>
        <tripinfo-output value="../results/angeja_estarreja/cost_co2-ttime/solution10/angeja_estarreja-tripinfo"/>
    </output>

    <processing>
        <collision.action value="warn"/>
        <time-to-teleport value="-1"/>
    </processing>

    <emissions>
        <device.emissions.probability value="1"/>
    </emissions>

    <gui_only>
        <quit-on-end value="true"/>
        <start value="true"/>
    </gui_only>

</configuration>
-->

<meandata xmlns:xsi="http://www.w3.org/2001/XMLSchema-instance" xsi:noNamespaceSchemaLocation="http://sumo.dlr.de/xsd/meandata_file.xsd">
    <interval begin="0.00" end="19078.00" id="emissions-detector">
        <edge id=":10_0" sampledSeconds="410.55" CO_abs="42975.106073" CO2_abs="2341874.907022" HC_abs="251.287067" PMx_abs="46.207485" NOx_abs="1001.424751" fuel_abs="1006.669096" electricity_abs="0"
            CO_normed="463.656982" CO2_normed="25266.410049" HC_normed="2.711128" PMx_normed="0.498531" NOx_normed="10.804338" fuel_normed="10.860919" electricity_normed="0"
            traveltime="1.93" CO_perVeh="201.837881" CO2_perVeh="10998.904068" HC_perVeh="1.180201" PMx_perVeh="0.217019" NOx_perVeh="4.703315" fuel_perVeh="4.727945" electricity_perVeh="0"/>
        <edge id=":10_1" sampledSeconds="0.00" CO_abs="0" CO2_abs="0" HC_abs="0" PMx_abs="0" NOx_abs="0" fuel_abs="0" electricity_abs="0"
            CO_normed="0" CO2_normed="0" HC_normed="0" PMx_normed="0" NOx_normed="0" fuel_normed="0" electricity_normed="0"/>
        <edge id=":100_0" sampledSeconds="0.00" CO_abs="0" CO2_abs="0" HC_abs="0" PMx_abs="0" NOx_abs="0" fuel_abs="0" electricity_abs="0"
            CO_normed="0" CO2_normed="0" HC_normed="0" PMx_normed="0" NOx_normed="0" fuel_normed="0" electricity_normed="0"/>
        <edge id=":100_1" sampledSeconds="911.66" CO_abs="22696.128327" CO2_abs="2848994.792800" HC_abs="172.603945" PMx_abs="51.599365" NOx_abs="1064.931372" fuel_abs="1224.652205" electricity_abs="0"
            CO_normed="144.882858" CO2_normed="18186.824756" HC_normed="1.101833" PMx_normed="0.329389" NOx_normed="6.798089" fuel_normed="7.817682" electricity_normed="0"
            traveltime="1.37" CO_perVeh="34.125645" CO2_perVeh="4283.716737" HC_perVeh="0.259525" PMx_perVeh="0.077584" NOx_perVeh="1.601219" fuel_perVeh="1.841373" electricity_perVeh="0"/>
        <edge id=":101_0" sampledSeconds="438.27" CO_abs="11353.853439" CO2_abs="1355076.262110" HC_abs="84.725119" PMx_abs="24.911430" NOx_abs="510.783517" fuel_abs="582.484870" electricity_abs="0"
            CO_normed="262.235138" CO2_normed="31297.621730" HC_normed="1.956860" PMx_normed="0.575369" NOx_normed="11.797350" fuel_normed="13.453406" electricity_normed="0"
            traveltime="0.38" CO_perVeh="9.808271" CO2_perVeh="1170.611841" HC_perVeh="0.073192" PMx_perVeh="0.021520" NOx_perVeh="0.441251" fuel_perVeh="0.503192" electricity_perVeh="0"/>
        <edge id=":102_0" sampledSeconds="341.66" CO_abs="7636.728440" CO2_abs="975110.923901" HC_abs="58.465582" PMx_abs="17.575953" NOx_abs="363.478205" fuel_abs="419.155531" electricity_abs="0"
            CO_normed="177.906569" CO2_normed="22716.355637" HC_normed="1.362024" PMx_normed="0.409452" NOx_normed="8.467652" fuel_normed="9.764721" electricity_normed="0"
            traveltime="0.38" CO_perVeh="8.401070" CO2_perVeh="1072.707436" HC_perVeh="0.064317" PMx_perVeh="0.019335" NOx_perVeh="0.399858" fuel_perVeh="0.461108" electricity_perVeh="0"/>
        <edge id=":103_0" sampledSeconds="434.35" CO_abs="9913.314654" CO2_abs="1271914.814304" HC_abs="76.014398" PMx_abs="22.896589" NOx_abs="473.556259" fuel_abs="546.737967" electricity_abs="0"
            CO_normed="232.376747" CO2_normed="29814.793219" HC_normed="1.781844" PMx_normed="0.536716" NOx_normed="11.100572" fuel_normed="12.816015" electricity_normed="0"
            traveltime="0.37" CO_perVeh="8.517158" CO2_perVeh="1092.782784" HC_perVeh="0.065309" PMx_perVeh="0.019672" NOx_perVeh="0.406862" fuel_perVeh="0.469737" electricity_perVeh="0"/>
        <edge id=":104_0" sampledSeconds="341.10" CO_abs="8727.975604" CO2_abs="1081011.922710" HC_abs="65.971225" PMx_abs="19.646357" NOx_abs="404.830647" fuel_abs="464.677402" electricity_abs="0"
            CO_normed="203.579788" CO2_normed="25214.573039" HC_normed="1.538777" PMx_normed="0.458251" NOx_normed="9.442664" fuel_normed="10.838587" electricity_normed="0"
            traveltime="0.38" CO_perVeh="9.597153" CO2_perVeh="1188.664684" HC_perVeh="0.072541" PMx_perVeh="0.021603" NOx_perVeh="0.445146" fuel_perVeh="0.510952" electricity_perVeh="0"/>
        <edge id=":105_0" sampledSeconds="168.70" CO_abs="4093.119209" CO2_abs="504546.210526" HC_abs="30.876058" PMx_abs="9.182761" NOx_abs="189.054613" fuel_abs="216.881248" electricity_abs="0"
            CO_normed="3510.761837" CO2_normed="432760.809189" HC_normed="26.483100" PMx_normed="7.876264" NOx_normed="162.156460" fuel_normed="186.024000" electricity_normed="0"
            traveltime="0.01" CO_perVeh="0.247520" CO2_perVeh="30.510980" HC_perVeh="0.001867" PMx_perVeh="0.000555" NOx_perVeh="0.011433" fuel_perVeh="0.013115" electricity_perVeh="0"/>
        <edge id=":106_0" sampledSeconds="134.35" CO_abs="3396.291805" CO2_abs="411234.723964" HC_abs="25.483324" PMx_abs="7.528128" NOx_abs="154.635940" fuel_abs="176.770890" electricity_abs="0"
            CO_normed="2067.345008" CO2_normed="250321.262841" HC_normed="15.511866" PMx_normed="4.582421" NOx_normed="94.127907" fuel_normed="107.601595" electricity_normed="0"
            traveltime="0.01" CO_perVeh="0.363130" CO2_perVeh="43.968974" HC_perVeh="0.002725" PMx_perVeh="0.000805" NOx_perVeh="0.016534" fuel_perVeh="0.018900" electricity_perVeh="0"/>
        <edge id=":107_0" sampledSeconds="439.11" CO_abs="10245.500217" CO2_abs="1278950.133169" HC_abs="77.710852" PMx_abs="23.188045" NOx_abs="478.610558" fuel_abs="549.761974" electricity_abs="0"
            CO_normed="236.635973" CO2_normed="29539.368816" HC_normed="1.794855" PMx_normed="0.535564" NOx_normed="11.054265" fuel_normed="12.697619" electricity_normed="0"
            traveltime="0.38" CO_perVeh="8.850782" CO2_perVeh="1104.846828" HC_perVeh="0.067132" PMx_perVeh="0.020031" NOx_perVeh="0.413457" fuel_perVeh="0.474923" electricity_perVeh="0"/>
        <edge id=":108_0" sampledSeconds="93.58" CO_abs="7969.672365" CO2_abs="580532.219296" HC_abs="50.255386" PMx_abs="11.670533" NOx_abs="244.898970" fuel_abs="249.543152" electricity_abs="0"
            CO_normed="125.009926" CO2_normed="9106.056841" HC_normed="0.788291" PMx_normed="0.183061" NOx_normed="3.841413" fuel_normed="3.914260" electricity_normed="0"
            traveltime="0.85" CO_perVeh="72.762206" CO2_perVeh="5300.193394" HC_perVeh="0.458826" PMx_perVeh="0.106551" NOx_perVeh="2.235900" fuel_perVeh="2.278301" electricity_perVeh="0"/>
        <edge id=":108_1" sampledSeconds="403.35" CO_abs="9441.403453" CO2_abs="1205978.595744" HC_abs="72.305782" PMx_abs="21.731633" NOx_abs="449.641200" fuel_abs="518.394964" electricity_abs="0"
            CO_normed="138.107258" CO2_normed="17640.851570" HC_normed="1.057677" PMx_normed="0.317887" NOx_normed="6.577276" fuel_normed="7.582994" electricity_normed="0"
            traveltime="0.60" CO_perVeh="14.025439" CO2_perVeh="1791.511076" HC_perVeh="0.107412" PMx_perVeh="0.032283" NOx_perVeh="0.667953" fuel_perVeh="0.770089" electricity_perVeh="0"/>
        <edge id=":109_0" sampledSeconds="307.35" CO_abs="185.816422" CO2_abs="30352.969592" HC_abs="1.539274" PMx_abs="0.387762" NOx_abs="10.954746" fuel_abs="13.047480" electricity_abs="0"
            CO_normed="2.793895" CO2_normed="456.380539" HC_normed="0.023144" PMx_normed="0.005830" NOx_normed="0.164713" fuel_normed="0.196179" electricity_normed="0"
            traveltime="0.85" CO_perVeh="0.516465" CO2_perVeh="84.364221" HC_perVeh="0.004278" PMx_perVeh="0.001078" NOx_perVeh="0.030448" fuel_perVeh="0.036265" electricity_perVeh="0"/>
        <edge id=":109_1" sampledSeconds="524.32" CO_abs="12048.755740" CO2_abs="1534573.707652" HC_abs="92.120499" PMx_abs="27.678515" NOx_abs="572.092698" fuel_abs="659.642958" electricity_abs="0"
            CO_normed="118.169878" CO2_normed="15050.548987" HC_normed="0.903485" PMx_normed="0.271461" NOx_normed="5.610880" fuel_normed="6.469542" electricity_normed="0"
            traveltime="0.89" CO_perVeh="20.516196" CO2_perVeh="2613.017981" HC_perVeh="0.156860" PMx_perVeh="0.047130" NOx_perVeh="0.974139" fuel_perVeh="1.123217" electricity_perVeh="0"/>
        <edge id=":11_0" sampledSeconds="288.74" CO_abs="17943.846148" CO2_abs="1274524.955301" HC_abs="111.862401" PMx_abs="23.232002" NOx_abs="526.089138" fuel_abs="547.861212" electricity_abs="0"
            CO_normed="185.533494" CO2_normed="13178.170766" HC_normed="1.156621" PMx_normed="0.240211" NOx_normed="5.439589" fuel_normed="5.664706" electricity_normed="0"
            traveltime="1.59" CO_perVeh="98.875360" CO2_perVeh="7022.971146" HC_perVeh="0.616392" PMx_perVeh="0.128015" NOx_perVeh="2.898891" fuel_perVeh="3.018861" electricity_perVeh="0"/>
        <edge id=":11_1" sampledSeconds="51.20" CO_abs="1000.815428" CO2_abs="83856.135115" HC_abs="6.469192" PMx_abs="1.115221" NOx_abs="31.797662" fuel_abs="36.046491" electricity_abs="0"
            CO_normed="10.609713" CO2_normed="888.964660" HC_normed="0.068580" PMx_normed="0.011823" NOx_normed="0.337089" fuel_normed="0.382131" electricity_normed="0"
            traveltime="1.68" CO_perVeh="32.916694" CO2_perVeh="2758.017748" HC_perVeh="0.212771" PMx_perVeh="0.036679" NOx_perVeh="1.045821" fuel_perVeh="1.185565" electricity_perVeh="0"/>
        <edge id=":110_0" sampledSeconds="94.78" CO_abs="3.163199" CO2_abs="467.749195" HC_abs="0.024861" PMx_abs="0.004523" NOx_abs="0.163384" fuel_abs="0.201068" electricity_abs="0"
            CO_normed="0.041024" CO2_normed="6.066242" HC_normed="0.000322" PMx_normed="0.000059" NOx_normed="0.002119" fuel_normed="0.002608" electricity_normed="0"
            traveltime="0.93" CO_perVeh="0.030970" CO2_perVeh="4.579605" HC_perVeh="0.000243" PMx_perVeh="0.000044" NOx_perVeh="0.001600" fuel_perVeh="0.001969" electricity_perVeh="0"/>
        <edge id=":110_1" sampledSeconds="444.12" CO_abs="10415.628393" CO2_abs="1303574.916972" HC_abs="79.010619" PMx_abs="23.616187" NOx_abs="487.273550" fuel_abs="560.347074" electricity_abs="0"
            CO_normed="133.701968" CO2_normed="16733.558906" HC_normed="1.014233" PMx_normed="0.303153" NOx_normed="6.254969" fuel_normed="7.192990" electricity_normed="0"
            traveltime="0.68" CO_perVeh="15.999963" CO2_perVeh="2002.486027" HC_perVeh="0.121372" PMx_perVeh="0.036278" NOx_perVeh="0.748525" fuel_perVeh="0.860777" electricity_perVeh="0"/>
        <edge id=":111_0" sampledSeconds="340.66" CO_abs="8819.269056" CO2_abs="1049944.290858" HC_abs="65.694796" PMx_abs="19.310376" NOx_abs="395.780959" fuel_abs="451.322690" electricity_abs="0"
            CO_normed="203.694917" CO2_normed="24250.117998" HC_normed="1.517325" PMx_normed="0.446004" NOx_normed="9.141185" fuel_normed="10.424009" electricity_normed="0"
            traveltime="0.38" CO_perVeh="9.801241" CO2_perVeh="1166.849218" HC_perVeh="0.073010" PMx_perVeh="0.021460" NOx_perVeh="0.439849" fuel_perVeh="0.501575" electricity_perVeh="0"/>
        <edge id=":114_0" sampledSeconds="107.02" CO_abs="10759.744528" CO2_abs="762528.978748" HC_abs="67.408167" PMx_abs="15.673696" NOx_abs="324.181572" fuel_abs="327.774588" electricity_abs="0"
            CO_normed="142.982627" CO2_normed="10132.991188" HC_normed="0.895764" PMx_normed="0.208282" NOx_normed="4.307940" fuel_normed="4.355686" electricity_normed="0"
            traveltime="0.99" CO_perVeh="99.539641" CO2_perVeh="7054.243785" HC_perVeh="0.623601" PMx_perVeh="0.144999" NOx_perVeh="2.999041" fuel_perVeh="3.032281" electricity_perVeh="0"/>
        <edge id=":114_1" sampledSeconds="416.29" CO_abs="9597.861640" CO2_abs="1220927.282578" HC_abs="73.354639" PMx_abs="22.022483" NOx_abs="455.470641" fuel_abs="524.820704" electricity_abs="0"
            CO_normed="126.739478" CO2_normed="16122.308459" HC_normed="0.968646" PMx_normed="0.290806" NOx_normed="6.014476" fuel_normed="6.930242" electricity_normed="0"
            traveltime="0.66" CO_perVeh="15.293922" CO2_perVeh="1945.513175" HC_perVeh="0.116889" PMx_perVeh="0.035092" NOx_perVeh="0.725780" fuel_perVeh="0.836287" electricity_perVeh="0"/>
        <edge id=":115_0" sampledSeconds="80.44" CO_abs="134.665662" CO2_abs="15190.992702" HC_abs="0.967507" PMx_abs="0.227300" NOx_abs="5.815143" fuel_abs="6.529950" electricity_abs="0"
            CO_normed="3.043267" CO2_normed="343.296469" HC_normed="0.021864" PMx_normed="0.005137" NOx_normed="0.131415" fuel_normed="0.147568" electricity_normed="0"
            traveltime="0.63" CO_perVeh="1.059710" CO2_perVeh="119.540844" HC_perVeh="0.007613" PMx_perVeh="0.001789" NOx_perVeh="0.045760" fuel_perVeh="0.051385" electricity_perVeh="0"/>
        <edge id=":115_1" sampledSeconds="72.26" CO_abs="1037.554273" CO2_abs="162116.114923" HC_abs="8.385124" PMx_abs="2.403017" NOx_abs="60.101121" fuel_abs="69.686547" electricity_abs="0"
            CO_normed="20.939623" CO2_normed="3271.781052" HC_normed="0.169226" PMx_normed="0.048497" NOx_normed="1.212944" fuel_normed="1.406394" electricity_normed="0"
            traveltime="0.59" CO_perVeh="8.494118" CO2_perVeh="1327.191730" HC_perVeh="0.068646" PMx_perVeh="0.019673" NOx_perVeh="0.492028" fuel_perVeh="0.570501" electricity_perVeh="0"/>
        <edge id=":116_0" sampledSeconds="74.84" CO_abs="138.634919" CO2_abs="17885.059391" HC_abs="1.030079" PMx_abs="0.234843" NOx_abs="6.607462" fuel_abs="7.688046" electricity_abs="0"
            CO_normed="3.497363" CO2_normed="451.188940" HC_normed="0.025986" PMx_normed="0.005924" NOx_normed="0.166687" fuel_normed="0.193947" electricity_normed="0"
            traveltime="0.57" CO_perVeh="1.046798" CO2_perVeh="135.045622" HC_perVeh="0.007778" PMx_perVeh="0.001773" NOx_perVeh="0.049891" fuel_perVeh="0.058051" electricity_perVeh="0"/>
        <edge id=":117_0" sampledSeconds="240.17" CO_abs="13487.522355" CO2_abs="1120407.877967" HC_abs="88.083175" PMx_abs="20.583342" NOx_abs="457.598209" fuel_abs="481.611589" electricity_abs="0"
            CO_normed="304.800278" CO2_normed="25319.745418" HC_normed="1.990564" PMx_normed="0.465156" NOx_normed="10.341118" fuel_normed="10.883789" electricity_normed="0"
            traveltime="0.60" CO_perVeh="33.863295" CO2_perVeh="2813.022405" HC_perVeh="0.221152" PMx_perVeh="0.051679" NOx_perVeh="1.148898" fuel_perVeh="1.209188" electricity_perVeh="0"/>
        <edge id=":117_1" sampledSeconds="75.73" CO_abs="4677.262520" CO2_abs="386014.461983" HC_abs="30.472790" PMx_abs="7.104960" NOx_abs="157.795178" fuel_abs="165.929783" electricity_abs="0"
            CO_normed="99.615675" CO2_normed="8221.281336" HC_normed="0.649005" PMx_normed="0.151320" NOx_normed="3.360699" fuel_normed="3.533949" electricity_normed="0"
            traveltime="0.64" CO_perVeh="39.543638" CO2_perVeh="3263.536297" HC_perVeh="0.257630" PMx_perVeh="0.060068" NOx_perVeh="1.334070" fuel_perVeh="1.402843" electricity_perVeh="0"/>
        <edge id=":118_0" sampledSeconds="898.32" CO_abs="13165.777727" CO2_abs="2048993.538089" HC_abs="106.099295" PMx_abs="30.324142" NOx_abs="759.264421" fuel_abs="880.771786" electricity_abs="0"
            CO_normed="39.948053" CO2_normed="6217.126274" HC_normed="0.321930" PMx_normed="0.092011" NOx_normed="2.303786" fuel_normed="2.672468" electricity_normed="0"
            traveltime="3.92" CO_perVeh="57.442282" CO2_perVeh="8939.757916" HC_perVeh="0.462911" PMx_perVeh="0.132304" NOx_perVeh="3.312670" fuel_perVeh="3.842807" electricity_perVeh="0"/>
        <edge id=":118_4" sampledSeconds="282.92" CO_abs="4120.597020" CO2_abs="636776.054253" HC_abs="33.230424" PMx_abs="9.432467" NOx_abs="236.040930" fuel_abs="273.721922" electricity_abs="0"
            CO_normed="12.527028" CO2_normed="1935.863068" HC_normed="0.101024" PMx_normed="0.028676" NOx_normed="0.717588" fuel_normed="0.832142" electricity_normed="0"
            traveltime="3.92" CO_perVeh="57.129525" CO2_perVeh="8828.505561" HC_perVeh="0.460719" PMx_perVeh="0.130775" NOx_perVeh="3.272561" fuel_perVeh="3.794985" electricity_perVeh="0"/>
        <edge id=":118_5" sampledSeconds="238.50" CO_abs="3540.043048" CO2_abs="525084.469244" HC_abs="27.898130" PMx_abs="7.967543" NOx_abs="196.016480" fuel_abs="225.710421" electricity_abs="0"
            CO_normed="10.868901" CO2_normed="1612.153066" HC_normed="0.085655" PMx_normed="0.024463" NOx_normed="0.601824" fuel_normed="0.692993" electricity_normed="0"
            traveltime="3.82" CO_perVeh="56.656471" CO2_perVeh="8403.692400" HC_perVeh="0.446494" PMx_perVeh="0.127516" NOx_perVeh="3.137138" fuel_perVeh="3.612373" electricity_perVeh="0"/>
        <edge id=":119_0" sampledSeconds="139.39" CO_abs="1861.164135" CO2_abs="300536.091173" HC_abs="15.137098" PMx_abs="4.389309" NOx_abs="110.915686" fuel_abs="129.187205" electricity_abs="0"
            CO_normed="39.909075" CO2_normed="6444.416750" HC_normed="0.324586" PMx_normed="0.094120" NOx_normed="2.378373" fuel_normed="2.770170" electricity_normed="0"
            traveltime="0.56" CO_perVeh="7.461275" CO2_perVeh="1204.827845" HC_perVeh="0.060684" PMx_perVeh="0.017596" NOx_perVeh="0.444653" fuel_perVeh="0.517902" electricity_perVeh="0"/>
        <edge id=":12_0" sampledSeconds="590.71" CO_abs="53898.598872" CO2_abs="3062353.935220" HC_abs="318.117380" PMx_abs="59.824518" NOx_abs="1303.655226" fuel_abs="1316.370521" electricity_abs="0"
            CO_normed="504.995683" CO2_normed="28692.313900" HC_normed="2.980558" PMx_normed="0.560518" NOx_normed="12.214423" fuel_normed="12.333557" electricity_normed="0"
            traveltime="2.12" CO_perVeh="193.884703" CO2_perVeh="11015.937275" HC_perVeh="1.144336" PMx_perVeh="0.215201" NOx_perVeh="4.689525" fuel_perVeh="4.735264" electricity_perVeh="0"/>
        <edge id=":12_1" sampledSeconds="55.92" CO_abs="1066.492657" CO2_abs="96700.939807" HC_abs="7.057485" PMx_abs="1.245106" NOx_abs="36.299198" fuel_abs="41.567971" electricity_abs="0"
            CO_normed="9.982447" CO2_normed="905.127632" HC_normed="0.066059" PMx_normed="0.011654" NOx_normed="0.339763" fuel_normed="0.389079" electricity_normed="0"
            traveltime="1.89" CO_perVeh="35.963622" CO2_perVeh="3260.890784" HC_perVeh="0.237988" PMx_perVeh="0.041987" NOx_perVeh="1.224060" fuel_perVeh="1.401730" electricity_perVeh="0"/>
        <edge id=":120_0" sampledSeconds="39.00" CO_abs="619.186755" CO2_abs="94850.416717" HC_abs="4.958419" PMx_abs="1.420946" NOx_abs="35.257227" fuel_abs="40.771985" electricity_abs="0"
            CO_normed="486.833071" CO2_normed="74575.754835" HC_normed="3.898537" PMx_normed="1.117213" NOx_normed="27.720852" fuel_normed="32.056808" electricity_normed="0"
            traveltime="0.02" CO_perVeh="0.238244" CO2_perVeh="36.495551" HC_perVeh="0.001908" PMx_perVeh="0.000547" NOx_perVeh="0.013566" fuel_perVeh="0.015688" electricity_perVeh="0"/>
        <edge id=":121_0" sampledSeconds="377.55" CO_abs="53859.532567" CO2_abs="1438167.752285" HC_abs="279.018503" PMx_abs="31.081812" NOx_abs="636.232647" fuel_abs="618.224087" electricity_abs="0"
            CO_normed="30797.700864" CO2_normed="822366.220369" HC_normed="159.547029" PMx_normed="17.773054" NOx_normed="363.807516" fuel_normed="353.509947" electricity_normed="0"
            traveltime="0.12" CO_perVeh="16.515620" CO2_perVeh="441.003313" HC_perVeh="0.085559" PMx_perVeh="0.009531" NOx_perVeh="0.195096" fuel_perVeh="0.189574" electricity_perVeh="0"/>
        <edge id=":122_0" sampledSeconds="135.03" CO_abs="820.343516" CO2_abs="91985.303566" HC_abs="5.870337" PMx_abs="1.559769" NOx_abs="35.824626" fuel_abs="39.540270" electricity_abs="0"
            CO_normed="18.062780" CO2_normed="2025.383559" HC_normed="0.129256" PMx_normed="0.034344" NOx_normed="0.788807" fuel_normed="0.870620" electricity_normed="0"
            traveltime="0.54" CO_perVeh="3.268618" CO2_perVeh="366.510891" HC_perVeh="0.023390" PMx_perVeh="0.006215" NOx_perVeh="0.142741" fuel_perVeh="0.157546" electricity_perVeh="0"/>
        <edge id=":123_0" sampledSeconds="308.40" CO_abs="39995.512389" CO2_abs="2467151.613312" HC_abs="241.395601" PMx_abs="50.722297" NOx_abs="1058.519829" fuel_abs="1060.513416" electricity_abs="0"
            CO_normed="152.528581" CO2_normed="9408.833955" HC_normed="0.920596" PMx_normed="0.193437" NOx_normed="4.036816" fuel_normed="4.044419" electricity_normed="0"
            traveltime="4.20" CO_perVeh="544.661338" CO2_perVeh="33597.821833" HC_perVeh="3.287340" PMx_perVeh="0.690739" NOx_perVeh="14.414988" fuel_perVeh="14.442137" electricity_perVeh="0"/>
        <edge id=":123_1" sampledSeconds="0.00" CO_abs="0" CO2_abs="0" HC_abs="0" PMx_abs="0" NOx_abs="0" fuel_abs="0" electricity_abs="0"
            CO_normed="0" CO2_normed="0" HC_normed="0" PMx_normed="0" NOx_normed="0" fuel_normed="0" electricity_normed="0"/>
        <edge id=":123_2" sampledSeconds="264.82" CO_abs="35731.400754" CO2_abs="2184807.114421" HC_abs="215.227277" PMx_abs="45.254731" NOx_abs="939.924599" fuel_abs="939.146395" electricity_abs="0"
            CO_normed="137.573566" CO2_normed="8411.976585" HC_normed="0.828671" PMx_normed="0.174240" NOx_normed="3.618912" fuel_normed="3.615915" electricity_normed="0"
            traveltime="4.16" CO_perVeh="561.626370" CO2_perVeh="34340.811229" HC_perVeh="3.382944" PMx_perVeh="0.711314" NOx_perVeh="14.773740" fuel_perVeh="14.761509" electricity_perVeh="0"/>
        <edge id=":123_3" sampledSeconds="469.01" CO_abs="23194.543223" CO2_abs="2155787.347989" HC_abs="156.481439" PMx_abs="40.438157" NOx_abs="866.659332" fuel_abs="926.671576" electricity_abs="0"
            CO_normed="91.373438" CO2_normed="8492.588117" HC_normed="0.616449" PMx_normed="0.159304" NOx_normed="3.414150" fuel_normed="3.650564" electricity_normed="0"
            traveltime="2.81" CO_perVeh="138.828737" CO2_perVeh="12903.260605" HC_perVeh="0.936605" PMx_perVeh="0.242039" NOx_perVeh="5.187307" fuel_perVeh="5.546505" electricity_perVeh="0"/>
        <edge id=":123_5" sampledSeconds="0.00" CO_abs="0" CO2_abs="0" HC_abs="0" PMx_abs="0" NOx_abs="0" fuel_abs="0" electricity_abs="0"
            CO_normed="0" CO2_normed="0" HC_normed="0" PMx_normed="0" NOx_normed="0" fuel_normed="0" electricity_normed="0"/>
        <edge id=":123_6" sampledSeconds="194.52" CO_abs="9659.156702" CO2_abs="899980.583275" HC_abs="65.312780" PMx_abs="16.880412" NOx_abs="361.839428" fuel_abs="386.859314" electricity_abs="0"
            CO_normed="36.754859" CO2_normed="3424.590817" HC_normed="0.248527" PMx_normed="0.064233" NOx_normed="1.376865" fuel_normed="1.472070" electricity_normed="0"
            traveltime="2.91" CO_perVeh="144.505325" CO2_perVeh="13464.113965" HC_perVeh="0.977109" PMx_perVeh="0.252539" NOx_perVeh="5.413280" fuel_perVeh="5.787589" electricity_perVeh="0"/>
        <edge id=":124_0" sampledSeconds="119.20" CO_abs="4223.687550" CO2_abs="371708.830119" HC_abs="27.974881" PMx_abs="7.128008" NOx_abs="150.865509" fuel_abs="159.780043" electricity_abs="0"
            CO_normed="98.884085" CO2_normed="8702.368964" HC_normed="0.654942" PMx_normed="0.166879" NOx_normed="3.532032" fuel_normed="3.740737" electricity_normed="0"
            traveltime="0.46" CO_perVeh="16.408313" CO2_perVeh="1444.026043" HC_perVeh="0.108678" PMx_perVeh="0.027691" NOx_perVeh="0.586087" fuel_perVeh="0.620718" electricity_perVeh="0"/>
        <edge id=":125_0" sampledSeconds="141.13" CO_abs="5041.713197" CO2_abs="527102.758926" HC_abs="35.340911" PMx_abs="9.684466" NOx_abs="206.562115" fuel_abs="226.576855" electricity_abs="0"
            CO_normed="317.122122" CO2_normed="33154.592238" HC_normed="2.222932" PMx_normed="0.609150" NOx_normed="12.992690" fuel_normed="14.251611" electricity_normed="0"
            traveltime="0.16" CO_perVeh="5.774056" CO2_perVeh="603.667981" HC_perVeh="0.040474" PMx_perVeh="0.011091" NOx_perVeh="0.236567" fuel_perVeh="0.259489" electricity_perVeh="0"/>
        <edge id=":125_3" sampledSeconds="0.00" CO_abs="0" CO2_abs="0" HC_abs="0" PMx_abs="0" NOx_abs="0" fuel_abs="0" electricity_abs="0"
            CO_normed="0" CO2_normed="0" HC_normed="0" PMx_normed="0" NOx_normed="0" fuel_normed="0" electricity_normed="0"/>
        <edge id=":126_0" sampledSeconds="27.41" CO_abs="68.725505" CO2_abs="4668.339857" HC_abs="0.422717" PMx_abs="0.082684" NOx_abs="1.919299" fuel_abs="2.006716" electricity_abs="0"
            CO_normed="2.263252" CO2_normed="153.736681" HC_normed="0.013921" PMx_normed="0.002723" NOx_normed="0.063206" fuel_normed="0.066085" electricity_normed="0"
            traveltime="0.57" CO_perVeh="1.426660" CO2_perVeh="96.909198" HC_perVeh="0.008775" PMx_perVeh="0.001716" NOx_perVeh="0.039842" fuel_perVeh="0.041657" electricity_perVeh="0"/>
        <edge id=":126_1" sampledSeconds="80.84" CO_abs="1317.099479" CO2_abs="198537.254248" HC_abs="10.587084" PMx_abs="3.211012" NOx_abs="73.769247" fuel_abs="85.342183" electricity_abs="0"
            CO_normed="38.592451" CO2_normed="5817.358123" HC_normed="0.310213" PMx_normed="0.094086" NOx_normed="2.161519" fuel_normed="2.500619" electricity_normed="0"
            traveltime="0.35" CO_perVeh="5.699316" CO2_perVeh="859.104811" HC_perVeh="0.045812" PMx_perVeh="0.013895" NOx_perVeh="0.319212" fuel_perVeh="0.369290" electricity_perVeh="0"/>
        <edge id=":127_0" sampledSeconds="234.39" CO_abs="4975.896182" CO2_abs="659295.307327" HC_abs="38.101314" PMx_abs="11.234055" NOx_abs="248.755263" fuel_abs="283.400877" electricity_abs="0"
            CO_normed="115.067005" CO2_normed="15246.125210" HC_normed="0.881088" PMx_normed="0.259786" NOx_normed="5.752436" fuel_normed="6.553611" electricity_normed="0"
            traveltime="0.44" CO_perVeh="9.305046" CO2_perVeh="1232.898150" HC_perVeh="0.071250" PMx_perVeh="0.021008" NOx_perVeh="0.465178" fuel_perVeh="0.529966" electricity_perVeh="0"/>
        <edge id=":128_0" sampledSeconds="230.32" CO_abs="240.989301" CO2_abs="36805.702620" HC_abs="1.933846" PMx_abs="0.549044" NOx_abs="13.666269" fuel_abs="15.821144" electricity_abs="0"
            CO_normed="3.724361" CO2_normed="568.812465" HC_normed="0.029887" PMx_normed="0.008485" NOx_normed="0.211205" fuel_normed="0.244507" electricity_normed="0"
            traveltime="0.76" CO_perVeh="0.792220" CO2_perVeh="120.993742" HC_perVeh="0.006357" PMx_perVeh="0.001805" NOx_perVeh="0.044926" fuel_perVeh="0.052010" electricity_perVeh="0"/>
        <edge id=":128_1" sampledSeconds="142.41" CO_abs="84.352784" CO2_abs="14867.848761" HC_abs="0.713489" PMx_abs="0.168444" NOx_abs="5.285621" fuel_abs="6.391090" electricity_abs="0"
            CO_normed="1.346640" CO2_normed="237.356055" HC_normed="0.011390" PMx_normed="0.002689" NOx_normed="0.084382" fuel_normed="0.102030" electricity_normed="0"
            traveltime="0.85" CO_perVeh="0.505647" CO2_perVeh="89.124302" HC_perVeh="0.004277" PMx_perVeh="0.001010" NOx_perVeh="0.031684" fuel_perVeh="0.038311" electricity_perVeh="0"/>
        <edge id=":129_0" sampledSeconds="104.73" CO_abs="6190.589428" CO2_abs="535497.116662" HC_abs="40.866509" PMx_abs="10.249950" NOx_abs="218.459375" fuel_abs="230.184890" electricity_abs="0"
            CO_normed="144.217060" CO2_normed="12475.035041" HC_normed="0.952033" PMx_normed="0.238785" NOx_normed="5.089268" fuel_normed="5.362428" electricity_normed="0"
            traveltime="0.50" CO_perVeh="29.340145" CO2_perVeh="2537.975276" HC_perVeh="0.193686" PMx_perVeh="0.048579" NOx_perVeh="1.035383" fuel_perVeh="1.090956" electricity_perVeh="0"/>
        <edge id=":13_0" sampledSeconds="60.07" CO_abs="4758.740659" CO2_abs="340789.535821" HC_abs="29.817543" PMx_abs="6.621664" NOx_abs="142.963980" fuel_abs="146.489540" electricity_abs="0"
            CO_normed="33.644426" CO2_normed="2409.391276" HC_normed="0.210811" PMx_normed="0.046815" NOx_normed="1.010759" fuel_normed="1.035685" electricity_normed="0"
            traveltime="2.12" CO_perVeh="168.324306" CO2_perVeh="12054.273631" HC_perVeh="1.054694" PMx_perVeh="0.234219" NOx_perVeh="5.056866" fuel_perVeh="5.181570" electricity_perVeh="0"/>
        <edge id=":13_1" sampledSeconds="532.63" CO_abs="14898.293581" CO2_abs="1132150.476138" HC_abs="93.874721" PMx_abs="16.547975" NOx_abs="440.514184" fuel_abs="486.666195" electricity_abs="0"
            CO_normed="148.431546" CO2_normed="11279.603541" HC_normed="0.935273" PMx_normed="0.164867" NOx_normed="4.388838" fuel_normed="4.848650" electricity_normed="0"
            traveltime="1.86" CO_perVeh="52.013486" CO2_perVeh="3952.606542" HC_perVeh="0.327739" PMx_perVeh="0.057773" NOx_perVeh="1.537940" fuel_perVeh="1.699067" electricity_perVeh="0"/>
        <edge id=":132_0" sampledSeconds="41.07" CO_abs="571.369854" CO2_abs="90725.765580" HC_abs="4.606546" PMx_abs="1.311288" NOx_abs="33.459953" fuel_abs="38.999025" electricity_abs="0"
            CO_normed="1078.169344" CO2_normed="171198.635124" HC_normed="8.692508" PMx_normed="2.474387" NOx_normed="63.138604" fuel_normed="73.590780" electricity_normed="0"
            traveltime="6.367115e-03" CO_perVeh="0.088578" CO2_perVeh="14.064920" HC_perVeh="0.000714" PMx_perVeh="0.000203" NOx_perVeh="0.005187" fuel_perVeh="0.006046" electricity_perVeh="0"/>