<?xml version="1.0" encoding="UTF-8"?>

<!-- generated on Tue Nov 10 04:08:00 2020 by Eclipse SUMO sumo Version 1.7.0
<configuration xmlns:xsi="http://www.w3.org/2001/XMLSchema-instance" xsi:noNamespaceSchemaLocation="http://sumo.dlr.de/xsd/sumoConfiguration.xsd">

    <input>
        <net-file value="../dataSets/Porto/8AM9AM_Routing_SaoBento/Porto.net.xml"/>
        <route-files value="../results/Porto/8AM9AM_Routing_SaoBento/cost_co-ttime/solution8/Porto.rou.xml"/>
        <additional-files value="moreOutputInfo.xml"/>
    </input>

    <output>
        <emission-output.precision value="6"/>
        <tripinfo-output value="../results/Porto/8AM9AM_Routing_SaoBento/cost_co-ttime/solution8/Porto-tripinfo"/>
    </output>

    <processing>
        <collision.action value="warn"/>
        <time-to-teleport value="-1"/>
    </processing>

    <emissions>
        <device.emissions.probability value="1"/>
    </emissions>

    <gui_only>
        <quit-on-end value="true"/>
        <start value="true"/>
    </gui_only>

</configuration>
-->

<meandata xmlns:xsi="http://www.w3.org/2001/XMLSchema-instance" xsi:noNamespaceSchemaLocation="http://sumo.dlr.de/xsd/meandata_file.xsd">
    <interval begin="0.00" end="8562.00" id="emissions-detector">
        <edge id=":1092997347_0" sampledSeconds="588.24" CO_abs="71695.030548" CO2_abs="3086102.558979" HC_abs="399.486034" PMx_abs="62.428365" NOx_abs="1335.025256" fuel_abs="1326.589830" electricity_abs="0"
            CO_normed="68511.528204" CO2_normed="2949069.145995" HC_normed="381.747500" PMx_normed="59.656334" NOx_normed="1275.745610" fuel_normed="1267.684746" electricity_normed="0"
            traveltime="0.07" CO_perVeh="8.214272" CO2_perVeh="353.582193" HC_perVeh="0.045770" PMx_perVeh="0.007153" NOx_perVeh="0.152957" fuel_perVeh="0.151991" electricity_perVeh="0"/>
        <edge id=":1103427051_0" sampledSeconds="19.51" CO_abs="1670.273097" CO2_abs="93118.659943" HC_abs="9.819100" PMx_abs="1.845051" NOx_abs="39.865484" fuel_abs="40.027575" electricity_abs="0"
            CO_normed="2421.680058" CO2_normed="135010.018525" HC_normed="14.236426" PMx_normed="2.675085" NOx_normed="57.799798" fuel_normed="58.034809" electricity_normed="0"
            traveltime="0.03" CO_perVeh="2.597486" CO2_perVeh="144.811301" HC_perVeh="0.015270" PMx_perVeh="0.002869" NOx_perVeh="0.061996" fuel_perVeh="0.062248" electricity_perVeh="0"/>
        <edge id=":1105984386_0" sampledSeconds="10.50" CO_abs="230.302069" CO2_abs="17918.106224" HC_abs="1.452950" PMx_abs="0.220602" NOx_abs="6.703827" fuel_abs="7.702336" electricity_abs="0"
            CO_normed="9.972542" CO2_normed="775.889999" HC_normed="0.062916" PMx_normed="0.009552" NOx_normed="0.290289" fuel_normed="0.333527" electricity_normed="0"
            traveltime="1.01" CO_perVeh="22.092799" CO2_perVeh="1718.877805" HC_perVeh="0.139381" PMx_perVeh="0.021162" NOx_perVeh="0.643096" fuel_perVeh="0.738882" electricity_perVeh="0"/>
        <edge id=":1105984390_0" sampledSeconds="10.54" CO_abs="20.151156" CO2_abs="1066.905899" HC_abs="0.115284" PMx_abs="0.011738" NOx_abs="0.395402" fuel_abs="0.458631" electricity_abs="0"
            CO_normed="0.674586" CO2_normed="35.716077" HC_normed="0.003859" PMx_normed="0.000393" NOx_normed="0.013237" fuel_normed="0.015353" electricity_normed="0"
            traveltime="1.09" CO_perVeh="2.088789" CO2_perVeh="110.591220" HC_perVeh="0.011950" PMx_perVeh="0.001217" NOx_perVeh="0.040986" fuel_perVeh="0.047540" electricity_perVeh="0"/>
        <edge id=":1105984390_1" sampledSeconds="2394.05" CO_abs="62082.669119" CO2_abs="7395221.222207" HC_abs="459.214867" PMx_abs="133.476046" NOx_abs="2811.834050" fuel_abs="3178.864169" electricity_abs="0"
            CO_normed="1988.075766" CO2_normed="236817.461380" HC_normed="14.705456" PMx_normed="4.274309" NOx_normed="90.043473" fuel_normed="101.796893" electricity_normed="0"
            traveltime="0.65" CO_perVeh="16.762811" CO2_perVeh="1996.768175" HC_perVeh="0.123992" PMx_perVeh="0.036040" NOx_perVeh="0.759217" fuel_perVeh="0.858318" electricity_perVeh="0"/>
        <edge id=":1105984395_0" sampledSeconds="4.16" CO_abs="107.404831" CO2_abs="7773.717313" HC_abs="0.668883" PMx_abs="0.120444" NOx_abs="3.076161" fuel_abs="3.341603" electricity_abs="0"
            CO_normed="49.086636" CO2_normed="3552.779004" HC_normed="0.305696" PMx_normed="0.055046" NOx_normed="1.405881" fuel_normed="1.527194" electricity_normed="0"
            traveltime="0.10" CO_perVeh="2.489606" CO2_perVeh="180.191986" HC_perVeh="0.015504" PMx_perVeh="0.002792" NOx_perVeh="0.071304" fuel_perVeh="0.077457" electricity_perVeh="0"/>
        <edge id=":1105984398_0" sampledSeconds="10.36" CO_abs="688.790050" CO2_abs="47214.464532" HC_abs="4.244543" PMx_abs="0.822454" NOx_abs="19.298445" fuel_abs="20.295457" electricity_abs="0"
            CO_normed="23.954540" CO2_normed="1642.010935" HC_normed="0.147615" PMx_normed="0.028603" NOx_normed="0.671156" fuel_normed="0.705830" electricity_normed="0"
            traveltime="1.13" CO_perVeh="75.287567" CO2_perVeh="5160.733927" HC_perVeh="0.463946" PMx_perVeh="0.089898" NOx_perVeh="2.109399" fuel_perVeh="2.218376" electricity_perVeh="0"/>
        <edge id=":1105984398_1" sampledSeconds="644.44" CO_abs="12652.932963" CO2_abs="1433856.282917" HC_abs="90.574222" PMx_abs="20.932173" NOx_abs="545.468614" fuel_abs="616.353377" electricity_abs="0"
            CO_normed="425.947473" CO2_normed="48269.240185" HC_normed="3.049084" PMx_normed="0.704659" NOx_normed="18.362618" fuel_normed="20.748878" electricity_normed="0"
            traveltime="0.95" CO_perVeh="18.722259" CO2_perVeh="2121.644721" HC_perVeh="0.134021" PMx_perVeh="0.030973" NOx_perVeh="0.807118" fuel_perVeh="0.912004" electricity_perVeh="0"/>
        <edge id=":1106006327_0" sampledSeconds="131.73" CO_abs="17560.695804" CO2_abs="570538.759563" HC_abs="93.393845" PMx_abs="11.915680" NOx_abs="249.840478" fuel_abs="245.254431" electricity_abs="0"
            CO_normed="833.365035" CO2_normed="27075.638622" HC_normed="4.432123" PMx_normed="0.565474" NOx_normed="11.856496" fuel_normed="11.638859" electricity_normed="0"
            traveltime="2.09" CO_perVeh="278.826123" CO2_perVeh="9058.929786" HC_perVeh="1.482894" PMx_perVeh="0.189195" NOx_perVeh="3.966930" fuel_perVeh="3.894113" electricity_perVeh="0"/>
        <edge id=":1106006327_1" sampledSeconds="687.51" CO_abs="92640.706507" CO2_abs="3076950.945166" HC_abs="494.309941" PMx_abs="64.096228" NOx_abs="1346.075889" fuel_abs="1322.670881" electricity_abs="0"
            CO_normed="3833.852743" CO2_normed="127336.861588" HC_normed="20.456575" PMx_normed="2.652565" NOx_normed="55.706146" fuel_normed="54.737551" electricity_normed="0"
            traveltime="2.31" CO_perVeh="310.972428" CO2_perVeh="10328.579557" HC_perVeh="1.659279" PMx_perVeh="0.215156" NOx_perVeh="4.518451" fuel_perVeh="4.439886" electricity_perVeh="0"/>
        <edge id=":1106006327_2" sampledSeconds="0.00" CO_abs="0" CO2_abs="0" HC_abs="0" PMx_abs="0" NOx_abs="0" fuel_abs="0" electricity_abs="0"
            CO_normed="0" CO2_normed="0" HC_normed="0" PMx_normed="0" NOx_normed="0" fuel_normed="0" electricity_normed="0"/>
        <edge id=":1106006327_3" sampledSeconds="0.00" CO_abs="0" CO2_abs="0" HC_abs="0" PMx_abs="0" NOx_abs="0" fuel_abs="0" electricity_abs="0"
            CO_normed="0" CO2_normed="0" HC_normed="0" PMx_normed="0" NOx_normed="0" fuel_normed="0" electricity_normed="0"/>
        <edge id=":1107381198_0" sampledSeconds="0.00" CO_abs="0" CO2_abs="0" HC_abs="0" PMx_abs="0" NOx_abs="0" fuel_abs="0" electricity_abs="0"
            CO_normed="0" CO2_normed="0" HC_normed="0" PMx_normed="0" NOx_normed="0" fuel_normed="0" electricity_normed="0"/>
        <edge id=":1107381198_1" sampledSeconds="103.00" CO_abs="4366.788531" CO2_abs="174647.927332" HC_abs="23.910093" PMx_abs="3.040845" NOx_abs="72.514297" fuel_abs="75.075034" electricity_abs="0"
            CO_normed="200.225830" CO2_normed="8007.950455" HC_normed="1.096325" PMx_normed="0.139429" NOx_normed="3.324923" fuel_normed="3.442338" electricity_normed="0"
            traveltime="1.54" CO_perVeh="65.379197" CO2_perVeh="2614.814351" HC_perVeh="0.357980" PMx_perVeh="0.045527" NOx_perVeh="1.085678" fuel_perVeh="1.124017" electricity_perVeh="0"/>
        <edge id=":1110338277_0" sampledSeconds="160.47" CO_abs="2556.521120" CO2_abs="301809.272571" HC_abs="18.560301" PMx_abs="4.221665" NOx_abs="113.573846" fuel_abs="129.735072" electricity_abs="0"
            CO_normed="3839.004584" CO2_normed="453212.442543" HC_normed="27.871109" PMx_normed="6.339472" NOx_normed="170.548372" fuel_normed="194.816907" electricity_normed="0"
            traveltime="0.02" CO_perVeh="0.346920" CO2_perVeh="40.955478" HC_perVeh="0.002519" PMx_perVeh="0.000573" NOx_perVeh="0.015412" fuel_perVeh="0.017605" electricity_perVeh="0"/>
        <edge id=":1110338293_0" sampledSeconds="6911.81" CO_abs="693662.532136" CO2_abs="12041559.719703" HC_abs="3440.319833" PMx_abs="288.702221" NOx_abs="5450.177552" fuel_abs="5176.466723" electricity_abs="0"
            CO_normed="972196.961649" CO2_normed="16876748.030418" HC_normed="4821.751693" PMx_normed="404.628201" NOx_normed="7638.651089" fuel_normed="7255.033950" electricity_normed="0"
            traveltime="0.46" CO_perVeh="46.359017" CO2_perVeh="804.764347" HC_perVeh="0.229924" PMx_perVeh="0.019295" NOx_perVeh="0.364248" fuel_perVeh="0.345955" electricity_perVeh="0"/>
        <edge id=":1110338295_0" sampledSeconds="0.00" CO_abs="0" CO2_abs="0" HC_abs="0" PMx_abs="0" NOx_abs="0" fuel_abs="0" electricity_abs="0"
            CO_normed="0" CO2_normed="0" HC_normed="0" PMx_normed="0" NOx_normed="0" fuel_normed="0" electricity_normed="0"/>
        <edge id=":1110673403_0" sampledSeconds="200.71" CO_abs="3171.010547" CO2_abs="384286.824880" HC_abs="23.176921" PMx_abs="5.334270" NOx_abs="144.145838" fuel_abs="165.188690" electricity_abs="0"
            CO_normed="4444.303499" CO2_normed="538594.008241" HC_normed="32.483422" PMx_normed="7.476201" NOx_normed="202.026402" fuel_normed="231.518837" electricity_normed="0"
            traveltime="0.02" CO_perVeh="0.366492" CO2_perVeh="44.414242" HC_perVeh="0.002679" PMx_perVeh="0.000617" NOx_perVeh="0.016660" fuel_perVeh="0.019092" electricity_perVeh="0"/>
        <edge id=":1110673412_0" sampledSeconds="950.50" CO_abs="169225.128633" CO2_abs="11548066.263452" HC_abs="1053.161415" PMx_abs="253.837829" NOx_abs="4962.851991" fuel_abs="4963.944825" electricity_abs="0"
            CO_normed="245354.559069" CO2_normed="16743203.146391" HC_normed="1526.947899" PMx_normed="368.032036" NOx_normed="7195.493789" fuel_normed="7197.078257" electricity_normed="0"
            traveltime="0.02" CO_perVeh="2.761830" CO2_perVeh="188.469599" HC_perVeh="0.017188" PMx_perVeh="0.004143" NOx_perVeh="0.080996" fuel_perVeh="0.081014" electricity_perVeh="0"/>
        <edge id=":1110673414_0" sampledSeconds="0.00" CO_abs="0" CO2_abs="0" HC_abs="0" PMx_abs="0" NOx_abs="0" fuel_abs="0" electricity_abs="0"
            CO_normed="0" CO2_normed="0" HC_normed="0" PMx_normed="0" NOx_normed="0" fuel_normed="0" electricity_normed="0"/>
        <edge id=":1110673414_1" sampledSeconds="7.07" CO_abs="292.609266" CO2_abs="12726.625518" HC_abs="1.630050" PMx_abs="0.239630" NOx_abs="5.399391" fuel_abs="5.470682" electricity_abs="0"
            CO_normed="13.624720" CO2_normed="592.587917" HC_normed="0.075900" PMx_normed="0.011158" NOx_normed="0.251411" fuel_normed="0.254731" electricity_normed="0"
            traveltime="1.55" CO_perVeh="63.915377" CO2_perVeh="2779.908767" HC_perVeh="0.356056" PMx_perVeh="0.052343" NOx_perVeh="1.179403" fuel_perVeh="1.194975" electricity_perVeh="0"/>
        <edge id=":1110673417_0" sampledSeconds="28.55" CO_abs="506.454574" CO2_abs="59349.958304" HC_abs="3.653514" PMx_abs="0.818466" NOx_abs="22.260073" fuel_abs="25.512062" electricity_abs="0"
            CO_normed="760.518431" CO2_normed="89122.972726" HC_normed="5.486305" PMx_normed="1.229050" NOx_normed="33.426879" fuel_normed="38.310234" electricity_normed="0"
            traveltime="0.02" CO_perVeh="0.386196" CO2_perVeh="45.257192" HC_perVeh="0.002786" PMx_perVeh="0.000624" NOx_perVeh="0.016974" fuel_perVeh="0.019454" electricity_perVeh="0"/>
        <edge id=":1110673446_0" sampledSeconds="1327.54" CO_abs="14191.131878" CO2_abs="1167430.579162" HC_abs="92.224101" PMx_abs="21.106610" NOx_abs="475.258003" fuel_abs="501.825027" electricity_abs="0"
            CO_normed="19889.463038" CO2_normed="1636202.633724" HC_normed="129.255924" PMx_normed="29.581794" NOx_normed="666.093908" fuel_normed="703.328699" electricity_normed="0"
            traveltime="0.02" CO_perVeh="0.243462" CO2_perVeh="20.028359" HC_perVeh="0.001582" PMx_perVeh="0.000362" NOx_perVeh="0.008153" fuel_perVeh="0.008609" electricity_perVeh="0"/>
        <edge id=":1110673451_0" sampledSeconds="36.41" CO_abs="305.832128" CO2_abs="19897.953272" HC_abs="1.844108" PMx_abs="0.270091" NOx_abs="7.656543" fuel_abs="8.553398" electricity_abs="0"
            CO_normed="476.262755" CO2_normed="30986.456860" HC_normed="2.871771" PMx_normed="0.420605" NOx_normed="11.923294" fuel_normed="13.319938" electricity_normed="0"
            traveltime="0.03" CO_perVeh="0.225331" CO2_perVeh="14.660392" HC_perVeh="0.001359" PMx_perVeh="0.000199" NOx_perVeh="0.005641" fuel_perVeh="0.006302" electricity_perVeh="0"/>
        <edge id=":1110673464_0" sampledSeconds="1023.90" CO_abs="3128.131357" CO2_abs="228103.599402" HC_abs="19.458209" PMx_abs="3.203392" NOx_abs="88.056081" fuel_abs="98.052904" electricity_abs="0"
            CO_normed="93.148864" CO2_normed="6792.422922" HC_normed="0.579423" PMx_normed="0.095390" NOx_normed="2.622116" fuel_normed="2.919800" electricity_normed="0"
            traveltime="1.21" CO_perVeh="3.709526" CO2_perVeh="270.498945" HC_perVeh="0.023075" PMx_perVeh="0.003799" NOx_perVeh="0.104422" fuel_perVeh="0.116277" electricity_perVeh="0"/>
        <edge id=":1110673464_1" sampledSeconds="2604.12" CO_abs="65339.818032" CO2_abs="7747997.009886" HC_abs="482.486414" PMx_abs="139.681280" NOx_abs="2950.886532" fuel_abs="3330.506100" electricity_abs="0"
            CO_normed="1906.519348" CO2_normed="226075.104833" HC_normed="14.078241" PMx_normed="4.075693" NOx_normed="86.102509" fuel_normed="97.179247" electricity_normed="0"
            traveltime="0.72" CO_perVeh="18.016878" CO2_perVeh="2136.441734" HC_perVeh="0.133041" PMx_perVeh="0.038516" NOx_perVeh="0.813681" fuel_perVeh="0.918358" electricity_perVeh="0"/>
        <edge id=":1110673479_0" sampledSeconds="135.17" CO_abs="6494.909733" CO2_abs="447971.416074" HC_abs="40.103866" PMx_abs="7.867606" NOx_abs="183.370964" fuel_abs="192.563430" electricity_abs="0"
            CO_normed="9102.886801" CO2_normed="627850.618184" HC_normed="56.207240" PMx_normed="11.026778" NOx_normed="257.002051" fuel_normed="269.885676" electricity_normed="0"
            traveltime="0.03" CO_perVeh="1.373083" CO2_perVeh="94.705208" HC_perVeh="0.008478" PMx_perVeh="0.001663" NOx_perVeh="0.038766" fuel_perVeh="0.040710" electricity_perVeh="0"/>
        <edge id=":1110673511_0" sampledSeconds="63.52" CO_abs="925.126184" CO2_abs="105912.303380" HC_abs="6.645644" PMx_abs="1.414472" NOx_abs="39.558427" fuel_abs="45.527347" electricity_abs="0"
            CO_normed="1296.602921" CO2_normed="148440.509292" HC_normed="9.314147" PMx_normed="1.982442" NOx_normed="55.442785" fuel_normed="63.808475" electricity_normed="0"
            traveltime="0.02" CO_perVeh="0.354568" CO2_perVeh="40.592387" HC_perVeh="0.002547" PMx_perVeh="0.000542" NOx_perVeh="0.015161" fuel_perVeh="0.017449" electricity_perVeh="0"/>
        <edge id=":1110673517_0" sampledSeconds="183.06" CO_abs="7996.707422" CO2_abs="571222.497499" HC_abs="49.831359" PMx_abs="9.913892" NOx_abs="232.693682" fuel_abs="245.543685" electricity_abs="0"
            CO_normed="11207.718882" CO2_normed="800592.147861" HC_normed="69.840727" PMx_normed="13.894734" NOx_normed="326.129897" fuel_normed="344.139712" electricity_normed="0"
            traveltime="0.03" CO_perVeh="1.224361" CO2_perVeh="87.458788" HC_perVeh="0.007630" PMx_perVeh="0.001518" NOx_perVeh="0.035627" fuel_perVeh="0.037595" electricity_perVeh="0"/>
        <edge id=":1110673534_0" sampledSeconds="738.59" CO_abs="6023.460702" CO2_abs="490555.681621" HC_abs="38.692973" PMx_abs="6.970363" NOx_abs="188.954044" fuel_abs="210.870263" electricity_abs="0"
            CO_normed="163.607196" CO2_normed="13324.307014" HC_normed="1.050965" PMx_normed="0.189327" NOx_normed="5.132306" fuel_normed="5.727587" electricity_normed="0"
            traveltime="1.46" CO_perVeh="11.879276" CO2_perVeh="967.458200" HC_perVeh="0.076309" PMx_perVeh="0.013747" NOx_perVeh="0.372649" fuel_perVeh="0.415872" electricity_perVeh="0"/>
        <edge id=":1110673534_1" sampledSeconds="200.85" CO_abs="3151.301702" CO2_abs="401160.609320" HC_abs="23.440375" PMx_abs="5.366716" NOx_abs="148.853149" fuel_abs="172.442223" electricity_abs="0"
            CO_normed="83.228908" CO2_normed="10595.037450" HC_normed="0.619083" PMx_normed="0.141740" NOx_normed="3.931355" fuel_normed="4.554365" electricity_normed="0"
            traveltime="1.23" CO_perVeh="19.262916" CO2_perVeh="2452.168583" HC_perVeh="0.143284" PMx_perVeh="0.032805" NOx_perVeh="0.909892" fuel_perVeh="1.054085" electricity_perVeh="0"/>
        <edge id=":1110673549_0" sampledSeconds="646.83" CO_abs="1263.700918" CO2_abs="130545.407128" HC_abs="8.667910" PMx_abs="1.837819" NOx_abs="49.217163" fuel_abs="56.116064" electricity_abs="0"
            CO_normed="33.250241" CO2_normed="3434.884192" HC_normed="0.228068" PMx_normed="0.048356" NOx_normed="1.294992" fuel_normed="1.476514" electricity_normed="0"
            traveltime="1.29" CO_perVeh="2.510672" CO2_perVeh="259.362596" HC_perVeh="0.017221" PMx_perVeh="0.003651" NOx_perVeh="0.097783" fuel_perVeh="0.111489" electricity_perVeh="0"/>
        <edge id=":1110673549_1" sampledSeconds="3199.66" CO_abs="67054.609041" CO2_abs="9043732.235860" HC_abs="520.858986" PMx_abs="157.735460" NOx_abs="3367.573852" fuel_abs="3887.487438" electricity_abs="0"
            CO_normed="1706.655517" CO2_normed="230178.592278" HC_normed="13.256760" PMx_normed="4.014640" NOx_normed="85.710566" fuel_normed="98.943264" electricity_normed="0"
            traveltime="0.81" CO_perVeh="16.912370" CO2_perVeh="2280.990736" HC_perVeh="0.131370" PMx_perVeh="0.039784" NOx_perVeh="0.849362" fuel_perVeh="0.980494" electricity_perVeh="0"/>
        <edge id=":1110673556_0" sampledSeconds="461.89" CO_abs="58169.279037" CO2_abs="2819125.248760" HC_abs="331.895937" PMx_abs="57.238601" NOx_abs="1217.464741" fuel_abs="1211.820924" electricity_abs="0"
            CO_normed="1134.942042" CO2_normed="55004.012743" HC_normed="6.475629" PMx_normed="1.116784" NOx_normed="23.753980" fuel_normed="23.643864" electricity_normed="0"
            traveltime="2.72" CO_perVeh="342.902307" CO2_perVeh="16618.472279" HC_perVeh="1.956495" PMx_perVeh="0.337416" NOx_perVeh="7.176838" fuel_perVeh="7.143568" electricity_perVeh="0"/>
        <edge id=":1110673556_2" sampledSeconds="177.80" CO_abs="18215.955802" CO2_abs="774919.768264" HC_abs="101.145765" PMx_abs="15.000761" NOx_abs="330.851317" fuel_abs="333.107670" electricity_abs="0"
            CO_normed="371.621857" CO2_normed="15809.059187" HC_normed="2.063464" PMx_normed="0.306029" NOx_normed="6.749664" fuel_normed="6.795696" electricity_normed="0"
            traveltime="3.07" CO_perVeh="314.979906" CO2_perVeh="13399.470119" HC_perVeh="1.748955" PMx_perVeh="0.259385" NOx_perVeh="5.720892" fuel_perVeh="5.759908" electricity_perVeh="0"/>
        <edge id=":1110673556_3" sampledSeconds="343.05" CO_abs="35486.930612" CO2_abs="1250197.916566" HC_abs="190.850041" PMx_abs="24.764196" NOx_abs="538.953410" fuel_abs="537.415337" electricity_abs="0"
            CO_normed="1646.901090" CO2_normed="58020.016826" HC_normed="8.857096" PMx_normed="1.149273" NOx_normed="25.012108" fuel_normed="24.940729" electricity_normed="0"
            traveltime="1.80" CO_perVeh="186.248568" CO2_perVeh="6561.502172" HC_perVeh="1.001652" PMx_perVeh="0.129972" NOx_perVeh="2.828627" fuel_perVeh="2.820555" electricity_perVeh="0"/>
        <edge id=":1110673556_4" sampledSeconds="83.79" CO_abs="9824.364721" CO2_abs="370104.071771" HC_abs="53.430548" PMx_abs="7.380304" NOx_abs="159.678396" fuel_abs="159.093855" electricity_abs="0"
            CO_normed="278.541945" CO2_normed="10493.249260" HC_normed="1.514871" PMx_normed="0.209248" NOx_normed="4.527227" fuel_normed="4.510654" electricity_normed="0"
            traveltime="2.64" CO_perVeh="310.042835" CO2_perVeh="11679.952725" HC_perVeh="1.686191" PMx_perVeh="0.232912" NOx_perVeh="5.039221" fuel_perVeh="5.020773" electricity_perVeh="0"/>
        <edge id=":1110673556_5" sampledSeconds="22.75" CO_abs="1589.467138" CO2_abs="69381.411084" HC_abs="8.851905" PMx_abs="1.259863" NOx_abs="29.111717" fuel_abs="29.824441" electricity_abs="0"
            CO_normed="62.811216" CO2_normed="2741.755843" HC_normed="0.349802" PMx_normed="0.049786" NOx_normed="1.150412" fuel_normed="1.178577" electricity_normed="0"
            traveltime="1.57" CO_perVeh="109.889086" CO2_perVeh="4796.739532" HC_perVeh="0.611984" PMx_perVeh="0.087102" NOx_perVeh="2.012662" fuel_perVeh="2.061937" electricity_perVeh="0"/>
        <edge id=":1110673556_6" sampledSeconds="539.49" CO_abs="63449.612334" CO2_abs="3101386.728562" HC_abs="362.537829" PMx_abs="62.281493" NOx_abs="1334.684408" fuel_abs="1333.153627" electricity_abs="0"
            CO_normed="1269.180932" CO2_normed="62036.957399" HC_normed="7.251835" PMx_normed="1.245815" NOx_normed="26.697657" fuel_normed="26.667037" electricity_normed="0"
            traveltime="2.62" CO_perVeh="308.062568" CO2_perVeh="15057.951095" HC_perVeh="1.760205" PMx_perVeh="0.302391" NOx_perVeh="6.480202" fuel_perVeh="6.472770" electricity_perVeh="0"/>
        <edge id=":1110673561_0" sampledSeconds="102.48" CO_abs="9299.297059" CO2_abs="676253.045515" HC_abs="58.597838" PMx_abs="13.501651" NOx_abs="284.855306" fuel_abs="290.689114" electricity_abs="0"
            CO_normed="233.712240" CO2_normed="16995.759239" HC_normed="1.472695" PMx_normed="0.339327" NOx_normed="7.159054" fuel_normed="7.305671" electricity_normed="0"
            traveltime="1.21" CO_perVeh="109.740731" CO2_perVeh="7980.442308" HC_perVeh="0.691511" PMx_perVeh="0.159333" NOx_perVeh="3.361569" fuel_perVeh="3.430414" electricity_perVeh="0"/>
        <edge id=":1110673561_1" sampledSeconds="5249.44" CO_abs="485609.853943" CO2_abs="33753156.442717" HC_abs="3027.557992" PMx_abs="703.983491" NOx_abs="14418.300836" fuel_abs="14508.853039" electricity_abs="0"
            CO_normed="11898.644375" CO2_normed="827035.946181" HC_normed="74.182671" PMx_normed="17.249339" NOx_normed="353.284088" fuel_normed="355.502841" electricity_normed="0"
            traveltime="1.19" CO_perVeh="110.307001" CO2_perVeh="7667.079690" HC_perVeh="0.687714" PMx_perVeh="0.159911" NOx_perVeh="3.275138" fuel_perVeh="3.295708" electricity_perVeh="0"/>
        <edge id=":1110673562_0" sampledSeconds="300.62" CO_abs="6718.951218" CO2_abs="521456.901523" HC_abs="42.464621" PMx_abs="6.982180" NOx_abs="198.656889" fuel_abs="224.154325" electricity_abs="0"
            CO_normed="10463.211427" CO2_normed="812048.433424" HC_normed="66.128818" PMx_normed="10.873130" NOx_normed="309.362126" fuel_normed="349.068481" electricity_normed="0"
            traveltime="0.03" CO_perVeh="0.602296" CO2_perVeh="46.744145" HC_perVeh="0.003807" PMx_perVeh="0.000626" NOx_perVeh="0.017808" fuel_perVeh="0.020094" electricity_perVeh="0"/>
        <edge id=":1110673564_0" sampledSeconds="27.48" CO_abs="439.181906" CO2_abs="55030.322589" HC_abs="3.257986" PMx_abs="0.752416" NOx_abs="20.533888" fuel_abs="23.655223" electricity_abs="0"
            CO_normed="1846.595261" CO2_normed="231381.874937" HC_normed="13.698611" PMx_normed="3.163628" NOx_normed="86.337300" fuel_normed="99.461346" electricity_normed="0"
            traveltime="7.761375e-03" CO_perVeh="0.124048" CO2_perVeh="15.543437" HC_perVeh="0.000920" PMx_perVeh="0.000213" NOx_perVeh="0.005800" fuel_perVeh="0.006681" electricity_perVeh="0"/>
        <edge id=":1110673588_0" sampledSeconds="62.75" CO_abs="1174.607685" CO2_abs="127166.177559" HC_abs="8.277423" PMx_abs="1.763788" NOx_abs="48.008258" fuel_abs="54.663459" electricity_abs="0"
            CO_normed="1975.513977" CO2_normed="213874.440183" HC_normed="13.921383" PMx_normed="2.966427" NOx_normed="80.742691" fuel_normed="91.935740" electricity_normed="0"
            traveltime="0.02" CO_perVeh="0.378906" CO2_perVeh="41.021348" HC_perVeh="0.002670" PMx_perVeh="0.000569" NOx_perVeh="0.015487" fuel_perVeh="0.017633" electricity_perVeh="0"/>
        <edge id=":1110673601_0" sampledSeconds="28.76" CO_abs="479.043415" CO2_abs="59612.569033" HC_abs="3.523720" PMx_abs="0.788076" NOx_abs="22.108303" fuel_abs="25.624976" electricity_abs="0"
            CO_normed="719.356415" CO2_normed="89517.322604" HC_normed="5.291401" PMx_normed="1.183416" NOx_normed="33.198973" fuel_normed="38.479792" electricity_normed="0"
            traveltime="0.02" CO_perVeh="0.365294" CO2_perVeh="45.457445" HC_perVeh="0.002687" PMx_perVeh="0.000601" NOx_perVeh="0.016859" fuel_perVeh="0.019540" electricity_perVeh="0"/>
        <edge id=":1110673617_0" sampledSeconds="855.10" CO_abs="31456.327517" CO2_abs="3178451.064905" HC_abs="219.554687" PMx_abs="60.026598" NOx_abs="1247.256700" fuel_abs="1366.267218" electricity_abs="0"
            CO_normed="44087.354613" CO2_normed="4454731.695733" HC_normed="307.715049" PMx_normed="84.129780" NOx_normed="1748.082271" fuel_normed="1914.880474" electricity_normed="0"
            traveltime="0.02" CO_perVeh="0.557463" CO2_perVeh="56.327931" HC_perVeh="0.003891" PMx_perVeh="0.001064" NOx_perVeh="0.022104" fuel_perVeh="0.024213" electricity_perVeh="0"/>
        <edge id=":1110673621_0" sampledSeconds="25.94" CO_abs="619.102575" CO2_abs="63727.709915" HC_abs="4.284202" PMx_abs="0.934948" NOx_abs="24.410562" fuel_abs="27.393840" electricity_abs="0"
            CO_normed="1041.237687" CO2_normed="107180.451153" HC_normed="7.205385" PMx_normed="1.572442" NOx_normed="41.054905" fuel_normed="46.072330" electricity_normed="0"
            traveltime="0.02" CO_perVeh="0.469017" CO2_perVeh="48.278568" HC_perVeh="0.003246" PMx_perVeh="0.000708" NOx_perVeh="0.018493" fuel_perVeh="0.020753" electricity_perVeh="0"/>
        <edge id=":1110673630_0" sampledSeconds="286.33" CO_abs="1493.873971" CO2_abs="127107.313529" HC_abs="9.716464" PMx_abs="1.764843" NOx_abs="48.618998" fuel_abs="54.638363" electricity_abs="0"
            CO_normed="44.801569" CO2_normed="3811.972891" HC_normed="0.291399" PMx_normed="0.052928" NOx_normed="1.458093" fuel_normed="1.638615" electricity_normed="0"
            traveltime="1.29" CO_perVeh="6.721862" CO2_perVeh="571.934366" HC_perVeh="0.043720" PMx_perVeh="0.007941" NOx_perVeh="0.218767" fuel_perVeh="0.245852" electricity_perVeh="0"/>
        <edge id=":1110673630_1" sampledSeconds="338.44" CO_abs="1202.681770" CO2_abs="101319.613953" HC_abs="7.771866" PMx_abs="1.273667" NOx_abs="37.961105" fuel_abs="43.553466" electricity_abs="0"
            CO_normed="43.972399" CO2_normed="3704.443397" HC_normed="0.284155" PMx_normed="0.046568" NOx_normed="1.387932" fuel_normed="1.592400" electricity_normed="0"
            traveltime="1.08" CO_perVeh="3.833913" CO2_perVeh="322.986988" HC_perVeh="0.024775" PMx_perVeh="0.004060" NOx_perVeh="0.121013" fuel_perVeh="0.138840" electricity_perVeh="0"/>
        <edge id=":1110673650_0" sampledSeconds="200.33" CO_abs="2891.967266" CO2_abs="359744.859373" HC_abs="21.316231" PMx_abs="4.882891" NOx_abs="134.139913" fuel_abs="154.639245" electricity_abs="0"
            CO_normed="4053.212706" CO2_normed="504197.420285" HC_normed="29.875587" PMx_normed="6.843576" NOx_normed="188.002681" fuel_normed="216.733349" electricity_normed="0"
            traveltime="0.02" CO_perVeh="0.334267" CO2_perVeh="41.581016" HC_perVeh="0.002464" PMx_perVeh="0.000564" NOx_perVeh="0.015505" fuel_perVeh="0.017874" electricity_perVeh="0"/>
        <edge id=":1110673655_0" sampledSeconds="20.92" CO_abs="259.715888" CO2_abs="32756.178640" HC_abs="1.914909" PMx_abs="0.400739" NOx_abs="11.947938" fuel_abs="14.080571" electricity_abs="0"
            CO_normed="364.002646" CO2_normed="45909.150161" HC_normed="2.683825" PMx_normed="0.561653" NOx_normed="16.745533" fuel_normed="19.734507" electricity_normed="0"
            traveltime="0.02" CO_perVeh="0.296705" CO2_perVeh="37.421377" HC_perVeh="0.002188" PMx_perVeh="0.000458" NOx_perVeh="0.013650" fuel_perVeh="0.016086" electricity_perVeh="0"/>
        <edge id=":1110673663_0" sampledSeconds="110.31" CO_abs="1773.015411" CO2_abs="201675.905906" HC_abs="12.686601" PMx_abs="2.769407" NOx_abs="75.771732" fuel_abs="86.692076" electricity_abs="0"
            CO_normed="45.511997" CO2_normed="5176.871633" HC_normed="0.325656" PMx_normed="0.071089" NOx_normed="1.945004" fuel_normed="2.225322" electricity_normed="0"
            traveltime="1.30" CO_perVeh="20.824902" CO2_perVeh="2368.778656" HC_perVeh="0.149010" PMx_perVeh="0.032528" NOx_perVeh="0.889975" fuel_perVeh="1.018239" electricity_perVeh="0"/>
        <edge id=":1110673663_1" sampledSeconds="170.29" CO_abs="2752.219476" CO2_abs="327225.549808" HC_abs="20.043805" PMx_abs="4.517035" NOx_abs="122.721157" fuel_abs="140.660539" electricity_abs="0"
            CO_normed="70.733808" CO2_normed="8409.906822" HC_normed="0.515139" PMx_normed="0.116091" NOx_normed="3.154013" fuel_normed="3.615066" electricity_normed="0"
            traveltime="1.27" CO_perVeh="20.565308" CO2_perVeh="2445.115432" HC_perVeh="0.149773" PMx_perVeh="0.033752" NOx_perVeh="0.917005" fuel_perVeh="1.051053" electricity_perVeh="0"/>