<?xml version="1.0" encoding="UTF-8"?>

<!-- generated on Mon Nov  9 23:34:53 2020 by Eclipse SUMO sumo Version 1.7.0
<configuration xmlns:xsi="http://www.w3.org/2001/XMLSchema-instance" xsi:noNamespaceSchemaLocation="http://sumo.dlr.de/xsd/sumoConfiguration.xsd">

    <input>
        <net-file value="../dataSets/Porto/6AM7AM_Routing_SaoBento/Porto.net.xml"/>
        <route-files value="../results/Porto/6AM7AM_Routing_SaoBento/cost_PMx-length/solution9/Porto.rou.xml"/>
        <additional-files value="moreOutputInfo.xml"/>
    </input>

    <output>
        <emission-output.precision value="6"/>
        <tripinfo-output value="../results/Porto/6AM7AM_Routing_SaoBento/cost_PMx-length/solution9/Porto-tripinfo"/>
    </output>

    <processing>
        <collision.action value="warn"/>
        <time-to-teleport value="-1"/>
    </processing>

    <emissions>
        <device.emissions.probability value="1"/>
    </emissions>

    <gui_only>
        <quit-on-end value="true"/>
        <start value="true"/>
    </gui_only>

</configuration>
-->

<meandata xmlns:xsi="http://www.w3.org/2001/XMLSchema-instance" xsi:noNamespaceSchemaLocation="http://sumo.dlr.de/xsd/meandata_file.xsd">
    <interval begin="0.00" end="4698.00" id="emissions-detector">
        <edge id=":1092997347_0" sampledSeconds="270.28" CO_abs="34712.621259" CO2_abs="1366080.911009" HC_abs="190.340652" PMx_abs="27.910131" NOx_abs="593.358051" fuel_abs="587.224620" electricity_abs="0"
            CO_normed="60453.885857" CO2_normed="2379102.944983" HC_normed="331.488422" PMx_normed="48.606986" NOx_normed="1033.364770" fuel_normed="1022.683073" electricity_normed="0"
            traveltime="0.08" CO_perVeh="9.747344" CO2_perVeh="383.597076" HC_perVeh="0.053448" PMx_perVeh="0.007837" NOx_perVeh="0.166616" fuel_perVeh="0.164893" electricity_perVeh="0"/>
        <edge id=":1103427051_0" sampledSeconds="11.03" CO_abs="883.719881" CO2_abs="48560.626645" HC_abs="5.179446" PMx_abs="0.971128" NOx_abs="20.863166" fuel_abs="20.874052" electricity_abs="0"
            CO_normed="2335.103398" CO2_normed="128314.510887" HC_normed="13.685946" PMx_normed="2.566066" NOx_normed="55.127932" fuel_normed="55.156696" electricity_normed="0"
            traveltime="0.03" CO_perVeh="2.421379" CO2_perVeh="133.055383" HC_perVeh="0.014192" PMx_perVeh="0.002661" NOx_perVeh="0.057165" fuel_perVeh="0.057195" electricity_perVeh="0"/>
        <edge id=":1105984386_0" sampledSeconds="22.77" CO_abs="452.421295" CO2_abs="38846.989082" HC_abs="2.939804" PMx_abs="0.483303" NOx_abs="14.511607" fuel_abs="16.698851" electricity_abs="0"
            CO_normed="35.703706" CO2_normed="3065.685657" HC_normed="0.232000" PMx_normed="0.038141" NOx_normed="1.145212" fuel_normed="1.317822" electricity_normed="0"
            traveltime="0.96" CO_perVeh="18.987771" CO2_perVeh="1630.378043" HC_perVeh="0.123381" PMx_perVeh="0.020284" NOx_perVeh="0.609041" fuel_perVeh="0.700838" electricity_perVeh="0"/>
        <edge id=":1105984390_0" sampledSeconds="24.02" CO_abs="0" CO2_abs="0" HC_abs="0" PMx_abs="0" NOx_abs="0" fuel_abs="0" electricity_abs="0"
            CO_normed="0" CO2_normed="0" HC_normed="0" PMx_normed="0" NOx_normed="0" fuel_normed="0" electricity_normed="0"
            traveltime="1.09" CO_perVeh="0" CO2_perVeh="0" HC_perVeh="0" PMx_perVeh="0" NOx_perVeh="0" fuel_perVeh="0" electricity_perVeh="0"/>
        <edge id=":1105984390_1" sampledSeconds="646.64" CO_abs="15384.353765" CO2_abs="1948267.448361" HC_abs="116.475936" PMx_abs="34.659183" NOx_abs="731.844353" fuel_abs="837.470738" electricity_abs="0"
            CO_normed="897.850482" CO2_normed="113703.369976" HC_normed="6.797684" PMx_normed="2.022754" NOx_normed="42.711369" fuel_normed="48.875859" electricity_normed="0"
            traveltime="0.64" CO_perVeh="15.149166" CO2_perVeh="1918.483414" HC_perVeh="0.114695" PMx_perVeh="0.034129" NOx_perVeh="0.720656" fuel_perVeh="0.824668" electricity_perVeh="0"/>
        <edge id=":1105984395_0" sampledSeconds="9.06" CO_abs="120.749009" CO2_abs="9630.476788" HC_abs="0.769711" PMx_abs="0.131196" NOx_abs="3.680220" fuel_abs="4.139767" electricity_abs="0"
            CO_normed="100.573887" CO2_normed="8021.386630" HC_normed="0.641105" PMx_normed="0.109275" NOx_normed="3.065317" fuel_normed="3.448082" electricity_normed="0"
            traveltime="0.09" CO_perVeh="1.224527" CO2_perVeh="97.663565" HC_perVeh="0.007806" PMx_perVeh="0.001330" NOx_perVeh="0.037321" fuel_perVeh="0.041982" electricity_perVeh="0"/>
        <edge id=":1105984398_0" sampledSeconds="22.75" CO_abs="1394.349694" CO2_abs="95350.627960" HC_abs="8.601345" PMx_abs="1.735063" NOx_abs="39.447728" fuel_abs="40.987003" electricity_abs="0"
            CO_normed="88.376112" CO2_normed="6043.475211" HC_normed="0.545167" PMx_normed="0.109971" NOx_normed="2.500260" fuel_normed="2.597822" electricity_normed="0"
            traveltime="1.11" CO_perVeh="68.281070" CO2_perVeh="4669.304231" HC_perVeh="0.421206" PMx_perVeh="0.084966" NOx_perVeh="1.931749" fuel_perVeh="2.007127" electricity_perVeh="0"/>
        <edge id=":1105984398_1" sampledSeconds="450.69" CO_abs="8211.936243" CO2_abs="951656.308879" HC_abs="59.324763" PMx_abs="13.720848" NOx_abs="360.604816" fuel_abs="409.076422" electricity_abs="0"
            CO_normed="503.816769" CO2_normed="58385.792703" HC_normed="3.639679" PMx_normed="0.841798" NOx_normed="22.123741" fuel_normed="25.097560" electricity_normed="0"
            traveltime="0.96" CO_perVeh="17.402440" CO2_perVeh="2016.715832" HC_perVeh="0.125719" PMx_perVeh="0.029077" NOx_perVeh="0.764181" fuel_perVeh="0.866900" electricity_perVeh="0"/>
        <edge id=":1106006327_0" sampledSeconds="37.27" CO_abs="5105.028258" CO2_abs="170522.689452" HC_abs="27.266891" PMx_abs="3.573570" NOx_abs="74.746309" fuel_abs="73.301531" electricity_abs="0"
            CO_normed="441.523595" CO2_normed="14748.163380" HC_normed="2.358258" PMx_normed="0.309071" NOx_normed="6.464657" fuel_normed="6.339702" electricity_normed="0"
            traveltime="2.02" CO_perVeh="276.944345" CO2_perVeh="9250.741052" HC_perVeh="1.479210" PMx_perVeh="0.193864" NOx_perVeh="4.054937" fuel_perVeh="3.976559" electricity_perVeh="0"/>
        <edge id=":1106006327_1" sampledSeconds="162.87" CO_abs="22073.529943" CO2_abs="733643.856133" HC_abs="117.798730" PMx_abs="15.317734" NOx_abs="321.149288" fuel_abs="315.367124" electricity_abs="0"
            CO_normed="1664.821096" CO2_normed="55332.598435" HC_normed="8.884569" PMx_normed="1.155288" NOx_normed="24.221595" fuel_normed="23.785495" electricity_normed="0"
            traveltime="2.31" CO_perVeh="313.362207" CO2_perVeh="10415.020090" HC_perVeh="1.672305" PMx_perVeh="0.217455" NOx_perVeh="4.559128" fuel_perVeh="4.477043" electricity_perVeh="0"/>
        <edge id=":1106006327_2" sampledSeconds="0.00" CO_abs="0" CO2_abs="0" HC_abs="0" PMx_abs="0" NOx_abs="0" fuel_abs="0" electricity_abs="0"
            CO_normed="0" CO2_normed="0" HC_normed="0" PMx_normed="0" NOx_normed="0" fuel_normed="0" electricity_normed="0"/>
        <edge id=":1106006327_3" sampledSeconds="0.00" CO_abs="0" CO2_abs="0" HC_abs="0" PMx_abs="0" NOx_abs="0" fuel_abs="0" electricity_abs="0"
            CO_normed="0" CO2_normed="0" HC_normed="0" PMx_normed="0" NOx_normed="0" fuel_normed="0" electricity_normed="0"/>
        <edge id=":1107381198_0" sampledSeconds="0.00" CO_abs="0" CO2_abs="0" HC_abs="0" PMx_abs="0" NOx_abs="0" fuel_abs="0" electricity_abs="0"
            CO_normed="0" CO2_normed="0" HC_normed="0" PMx_normed="0" NOx_normed="0" fuel_normed="0" electricity_normed="0"/>
        <edge id=":1107381198_1" sampledSeconds="36.50" CO_abs="1552.883959" CO2_abs="64172.342599" HC_abs="8.547385" PMx_abs="1.092843" NOx_abs="26.473601" fuel_abs="27.585440" electricity_abs="0"
            CO_normed="129.765474" CO2_normed="5362.509148" HC_normed="0.714255" PMx_normed="0.091323" NOx_normed="2.212245" fuel_normed="2.305155" electricity_normed="0"
            traveltime="1.50" CO_perVeh="63.936539" CO2_perVeh="2642.153294" HC_perVeh="0.351920" PMx_perVeh="0.044995" NOx_perVeh="1.089992" fuel_perVeh="1.135769" electricity_perVeh="0"/>
        <edge id=":1110338277_0" sampledSeconds="96.52" CO_abs="1479.732172" CO2_abs="174323.461541" HC_abs="10.742148" PMx_abs="2.441374" NOx_abs="65.617528" fuel_abs="74.934301" electricity_abs="0"
            CO_normed="4049.622803" CO2_normed="477075.702082" HC_normed="29.398324" PMx_normed="6.681374" NOx_normed="179.577253" fuel_normed="205.074714" electricity_normed="0"
            traveltime="0.02" CO_perVeh="0.334423" CO2_perVeh="39.397569" HC_perVeh="0.002428" PMx_perVeh="0.000552" NOx_perVeh="0.014830" fuel_perVeh="0.016935" electricity_perVeh="0"/>
        <edge id=":1110338293_0" sampledSeconds="123.94" CO_abs="6237.152343" CO2_abs="426903.463639" HC_abs="38.433605" PMx_abs="7.502591" NOx_abs="174.873520" fuel_abs="183.507257" electricity_abs="0"
            CO_normed="15931.423609" CO2_normed="1090430.303038" HC_normed="98.170128" PMx_normed="19.163707" NOx_normed="446.675657" fuel_normed="468.728625" electricity_normed="0"
            traveltime="0.03" CO_perVeh="1.430603" CO2_perVeh="97.918012" HC_perVeh="0.008815" PMx_perVeh="0.001721" NOx_perVeh="0.040110" fuel_perVeh="0.042091" electricity_perVeh="0"/>
        <edge id=":1110338295_0" sampledSeconds="0.00" CO_abs="0" CO2_abs="0" HC_abs="0" PMx_abs="0" NOx_abs="0" fuel_abs="0" electricity_abs="0"
            CO_normed="0" CO2_normed="0" HC_normed="0" PMx_normed="0" NOx_normed="0" fuel_normed="0" electricity_normed="0"/>
        <edge id=":1110673403_0" sampledSeconds="143.60" CO_abs="2302.029318" CO2_abs="282717.084649" HC_abs="16.914186" PMx_abs="3.920907" NOx_abs="105.929098" fuel_abs="121.528134" electricity_abs="0"
            CO_normed="5880.023800" CO2_normed="722138.147252" HC_normed="43.203539" PMx_normed="10.015089" NOx_normed="270.572410" fuel_normed="310.416690" electricity_normed="0"
            traveltime="0.02" CO_perVeh="0.369606" CO2_perVeh="45.392093" HC_perVeh="0.002716" PMx_perVeh="0.000630" NOx_perVeh="0.017008" fuel_perVeh="0.019512" electricity_perVeh="0"/>
        <edge id=":1110673412_0" sampledSeconds="252.65" CO_abs="45120.016801" CO2_abs="3070313.459970" HC_abs="280.606245" PMx_abs="67.556507" NOx_abs="1320.162147" fuel_abs="1319.776495" electricity_abs="0"
            CO_normed="119223.191441" CO2_normed="8112864.209195" HC_normed="741.461871" PMx_normed="178.508408" NOx_normed="3488.339667" fuel_normed="3487.320636" electricity_normed="0"
            traveltime="0.02" CO_perVeh="2.777713" CO2_perVeh="189.016984" HC_perVeh="0.017275" PMx_perVeh="0.004159" NOx_perVeh="0.081273" fuel_perVeh="0.081249" electricity_perVeh="0"/>
        <edge id=":1110673414_0" sampledSeconds="0.00" CO_abs="0" CO2_abs="0" HC_abs="0" PMx_abs="0" NOx_abs="0" fuel_abs="0" electricity_abs="0"
            CO_normed="0" CO2_normed="0" HC_normed="0" PMx_normed="0" NOx_normed="0" fuel_normed="0" electricity_normed="0"/>
        <edge id=":1110673414_1" sampledSeconds="132.72" CO_abs="8665.381871" CO2_abs="326063.381238" HC_abs="47.005520" PMx_abs="5.927405" NOx_abs="137.077552" fuel_abs="140.163290" electricity_abs="0"
            CO_normed="735.342122" CO2_normed="27669.656381" HC_normed="3.988877" PMx_normed="0.502998" NOx_normed="11.632367" fuel_normed="11.894221" electricity_normed="0"
            traveltime="1.58" CO_perVeh="103.243697" CO2_perVeh="3884.882349" HC_perVeh="0.560047" PMx_perVeh="0.070622" NOx_perVeh="1.633211" fuel_perVeh="1.669976" electricity_perVeh="0"/>
        <edge id=":1110673417_0" sampledSeconds="29.76" CO_abs="428.129966" CO2_abs="52392.112107" HC_abs="3.140345" PMx_abs="0.710136" NOx_abs="19.550079" fuel_abs="22.521180" electricity_abs="0"
            CO_normed="1171.674783" CO2_normed="143382.901222" HC_normed="8.594268" PMx_normed="1.943448" NOx_normed="53.503226" fuel_normed="61.634320" electricity_normed="0"
            traveltime="0.02" CO_perVeh="0.317764" CO2_perVeh="38.886127" HC_perVeh="0.002331" PMx_perVeh="0.000527" NOx_perVeh="0.014510" fuel_perVeh="0.016716" electricity_perVeh="0"/>
        <edge id=":1110673446_0" sampledSeconds="333.56" CO_abs="3361.930650" CO2_abs="271913.902184" HC_abs="21.753003" PMx_abs="5.018269" NOx_abs="111.384708" fuel_abs="116.883242" electricity_abs="0"
            CO_normed="8587.306895" CO2_normed="694543.811454" HC_normed="55.563227" PMx_normed="12.818055" NOx_normed="284.507554" fuel_normed="298.552343" electricity_normed="0"
            traveltime="0.02" CO_perVeh="0.229300" CO2_perVeh="18.545814" HC_perVeh="0.001484" PMx_perVeh="0.000342" NOx_perVeh="0.007597" fuel_perVeh="0.007972" electricity_perVeh="0"/>
        <edge id=":1110673451_0" sampledSeconds="37.09" CO_abs="344.670819" CO2_abs="24001.737391" HC_abs="2.117714" PMx_abs="0.339092" NOx_abs="9.299762" fuel_abs="10.317425" electricity_abs="0"
            CO_normed="978.205816" CO2_normed="68119.021969" HC_normed="6.010257" PMx_normed="0.962372" NOx_normed="26.393534" fuel_normed="29.281752" electricity_normed="0"
            traveltime="0.03" CO_perVeh="0.247174" CO2_perVeh="17.212401" HC_perVeh="0.001519" PMx_perVeh="0.000243" NOx_perVeh="0.006669" fuel_perVeh="0.007399" electricity_perVeh="0"/>
        <edge id=":1110673464_0" sampledSeconds="326.25" CO_abs="950.320464" CO2_abs="68575.426706" HC_abs="5.897770" PMx_abs="0.981171" NOx_abs="26.608682" fuel_abs="29.477899" electricity_abs="0"
            CO_normed="51.573294" CO2_normed="3721.545304" HC_normed="0.320068" PMx_normed="0.053248" NOx_normed="1.444036" fuel_normed="1.599747" electricity_normed="0"
            traveltime="1.18" CO_perVeh="3.435283" CO2_perVeh="247.891120" HC_perVeh="0.021320" PMx_perVeh="0.003547" NOx_perVeh="0.096187" fuel_perVeh="0.106559" electricity_perVeh="0"/>
        <edge id=":1110673464_1" sampledSeconds="710.49" CO_abs="15753.762471" CO2_abs="2046795.841881" HC_abs="120.791564" PMx_abs="36.176965" NOx_abs="766.343226" fuel_abs="879.823742" electricity_abs="0"
            CO_normed="837.741057" CO2_normed="108842.882198" HC_normed="6.423358" PMx_normed="1.923790" NOx_normed="40.751991" fuel_normed="46.786568" electricity_normed="0"
            traveltime="0.70" CO_perVeh="15.551652" CO2_perVeh="2020.536752" HC_perVeh="0.119242" PMx_perVeh="0.035713" NOx_perVeh="0.756512" fuel_perVeh="0.868536" electricity_perVeh="0"/>
        <edge id=":1110673479_0" sampledSeconds="133.60" CO_abs="6686.964131" CO2_abs="463117.345285" HC_abs="41.355083" PMx_abs="8.233485" NOx_abs="190.216129" fuel_abs="199.073830" electricity_abs="0"
            CO_normed="17080.368150" CO2_normed="1182930.639299" HC_normed="105.632397" PMx_normed="21.030613" NOx_normed="485.864954" fuel_normed="508.489988" electricity_normed="0"
            traveltime="0.03" CO_perVeh="1.408672" CO2_perVeh="97.560005" HC_perVeh="0.008712" PMx_perVeh="0.001734" NOx_perVeh="0.040071" fuel_perVeh="0.041937" electricity_perVeh="0"/>
        <edge id=":1110673511_0" sampledSeconds="11.81" CO_abs="190.686393" CO2_abs="24515.256139" HC_abs="1.429953" PMx_abs="0.338477" NOx_abs="9.154109" fuel_abs="10.538071" electricity_abs="0"
            CO_normed="487.066139" CO2_normed="62618.789627" HC_normed="3.652499" PMx_normed="0.864563" NOx_normed="23.382142" fuel_normed="26.917167" electricity_normed="0"
            traveltime="0.02" CO_perVeh="0.377597" CO2_perVeh="48.545062" HC_perVeh="0.002832" PMx_perVeh="0.000670" NOx_perVeh="0.018127" fuel_perVeh="0.020867" electricity_perVeh="0"/>
        <edge id=":1110673517_0" sampledSeconds="17.32" CO_abs="668.656821" CO2_abs="50023.377529" HC_abs="4.213989" PMx_abs="0.829815" NOx_abs="20.088831" fuel_abs="21.502908" electricity_abs="0"
            CO_normed="1707.935687" CO2_normed="127773.633535" HC_normed="10.763701" PMx_normed="2.119578" NOx_normed="51.312466" fuel_normed="54.924414" electricity_normed="0"
            traveltime="0.03" CO_perVeh="1.073573" CO2_perVeh="80.315832" HC_perVeh="0.006766" PMx_perVeh="0.001332" NOx_perVeh="0.032254" fuel_perVeh="0.034524" electricity_perVeh="0"/>
        <edge id=":1110673534_0" sampledSeconds="476.79" CO_abs="2546.722194" CO2_abs="228165.839517" HC_abs="16.806715" PMx_abs="3.029113" NOx_abs="86.252694" fuel_abs="98.079501" electricity_abs="0"
            CO_normed="126.066619" CO2_normed="11294.555799" HC_normed="0.831958" PMx_normed="0.149946" NOx_normed="4.269639" fuel_normed="4.855084" electricity_normed="0"
            traveltime="1.44" CO_perVeh="7.672253" CO2_perVeh="687.372226" HC_perVeh="0.050632" PMx_perVeh="0.009126" NOx_perVeh="0.259845" fuel_perVeh="0.295474" electricity_perVeh="0"/>
        <edge id=":1110673534_1" sampledSeconds="184.02" CO_abs="2957.919253" CO2_abs="377188.013537" HC_abs="22.069546" PMx_abs="5.158126" NOx_abs="140.576297" fuel_abs="162.137245" electricity_abs="0"
            CO_normed="142.374673" CO2_normed="18155.336719" HC_normed="1.062282" PMx_normed="0.248278" NOx_normed="6.766413" fuel_normed="7.804215" electricity_normed="0"
            traveltime="1.22" CO_perVeh="19.639522" CO2_perVeh="2504.392996" HC_perVeh="0.146534" PMx_perVeh="0.034248" NOx_perVeh="0.933376" fuel_perVeh="1.076533" electricity_perVeh="0"/>
        <edge id=":1110673549_0" sampledSeconds="58.89" CO_abs="42.587641" CO2_abs="8092.220648" HC_abs="0.382989" PMx_abs="0.111602" NOx_abs="2.952761" fuel_abs="3.478493" electricity_abs="0"
            CO_normed="2.042191" CO2_normed="388.043515" HC_normed="0.018365" PMx_normed="0.005352" NOx_normed="0.141593" fuel_normed="0.166803" electricity_normed="0"
            traveltime="1.23" CO_perVeh="0.887277" CO2_perVeh="168.594524" HC_perVeh="0.007979" PMx_perVeh="0.002325" NOx_perVeh="0.061518" fuel_perVeh="0.072471" electricity_perVeh="0"/>
        <edge id=":1110673549_1" sampledSeconds="638.12" CO_abs="13811.112527" CO2_abs="1829239.277843" HC_abs="106.609950" PMx_abs="32.167492" NOx_abs="682.268939" fuel_abs="786.306305" electricity_abs="0"
            CO_normed="640.631234" CO2_normed="84849.632065" HC_normed="4.945124" PMx_normed="1.492096" NOx_normed="31.647182" fuel_normed="36.472976" electricity_normed="0"
            traveltime="0.80" CO_perVeh="17.390742" CO2_perVeh="2303.350172" HC_perVeh="0.134242" PMx_perVeh="0.040505" NOx_perVeh="0.859103" fuel_perVeh="0.990105" electricity_perVeh="0"/>
        <edge id=":1110673556_0" sampledSeconds="416.16" CO_abs="51137.294576" CO2_abs="2577729.938215" HC_abs="294.136343" PMx_abs="51.950650" NOx_abs="1109.964797" fuel_abs="1108.054357" electricity_abs="0"
            CO_normed="1818.360387" CO2_normed="91659.952822" HC_normed="10.459018" PMx_normed="1.847282" NOx_normed="39.468572" fuel_normed="39.400640" electricity_normed="0"
            traveltime="2.58" CO_perVeh="317.435389" CO2_perVeh="16001.290520" HC_perVeh="1.825855" PMx_perVeh="0.322484" NOx_perVeh="6.890120" fuel_perVeh="6.878261" electricity_perVeh="0"/>
        <edge id=":1110673556_2" sampledSeconds="246.82" CO_abs="23916.975104" CO2_abs="1033406.150421" HC_abs="133.173801" PMx_abs="19.926443" NOx_abs="440.619304" fuel_abs="444.220654" electricity_abs="0"
            CO_normed="889.237457" CO2_normed="38422.227443" HC_normed="4.951426" PMx_normed="0.740869" NOx_normed="16.382305" fuel_normed="16.516204" electricity_normed="0"
            traveltime="2.99" CO_perVeh="290.108325" CO2_perVeh="12535.018574" HC_perVeh="1.615373" PMx_perVeh="0.241704" NOx_perVeh="5.344628" fuel_perVeh="5.388311" electricity_perVeh="0"/>
        <edge id=":1110673556_3" sampledSeconds="412.28" CO_abs="35037.721446" CO2_abs="1247709.416918" HC_abs="188.589527" PMx_abs="23.848233" NOx_abs="532.357910" fuel_abs="536.346612" electricity_abs="0"
            CO_normed="2963.446876" CO2_normed="105529.709719" HC_normed="15.950667" PMx_normed="2.017054" NOx_normed="45.026170" fuel_normed="45.363529" electricity_normed="0"
            traveltime="1.73" CO_perVeh="147.348519" CO2_perVeh="5247.148720" HC_perVeh="0.793099" PMx_perVeh="0.100292" NOx_perVeh="2.238791" fuel_perVeh="2.255566" electricity_perVeh="0"/>
        <edge id=":1110673556_4" sampledSeconds="198.98" CO_abs="20684.121576" CO2_abs="834704.732194" HC_abs="113.757252" PMx_abs="16.202210" NOx_abs="357.150742" fuel_abs="358.807677" electricity_abs="0"
            CO_normed="1068.772865" CO2_normed="43130.174271" HC_normed="5.877971" PMx_normed="0.837187" NOx_normed="18.454398" fuel_normed="18.540014" electricity_normed="0"
            traveltime="2.39" CO_perVeh="248.670917" CO2_perVeh="10035.078861" HC_perVeh="1.367625" PMx_perVeh="0.194788" NOx_perVeh="4.293777" fuel_perVeh="4.313697" electricity_perVeh="0"/>
        <edge id=":1110673556_5" sampledSeconds="25.54" CO_abs="2051.815618" CO2_abs="80636.933687" HC_abs="11.228629" PMx_abs="1.548275" NOx_abs="34.404661" fuel_abs="34.662808" electricity_abs="0"
            CO_normed="147.769972" CO2_normed="5807.401671" HC_normed="0.808676" PMx_normed="0.111505" NOx_normed="2.477794" fuel_normed="2.496385" electricity_normed="0"
            traveltime="1.77" CO_perVeh="141.853919" CO2_perVeh="5574.899119" HC_perVeh="0.776300" PMx_perVeh="0.107041" NOx_perVeh="2.378594" fuel_perVeh="2.396441" electricity_perVeh="0"/>
        <edge id=":1110673556_6" sampledSeconds="309.80" CO_abs="37159.584442" CO2_abs="1900471.591933" HC_abs="214.402902" PMx_abs="38.245648" NOx_abs="817.362706" fuel_abs="816.930038" electricity_abs="0"
            CO_normed="1354.651634" CO2_normed="69281.639888" HC_normed="7.816052" PMx_normed="1.394244" NOx_normed="29.796935" fuel_normed="29.781162" electricity_normed="0"
            traveltime="2.45" CO_perVeh="294.274017" CO2_perVeh="15050.206216" HC_perVeh="1.697899" PMx_perVeh="0.302875" NOx_perVeh="6.472855" fuel_perVeh="6.469429" electricity_perVeh="0"/>
        <edge id=":1110673561_0" sampledSeconds="101.21" CO_abs="9631.133519" CO2_abs="689225.626089" HC_abs="60.444393" PMx_abs="13.931435" NOx_abs="291.560742" fuel_abs="296.265267" electricity_abs="0"
            CO_normed="441.134426" CO2_normed="31568.573952" HC_normed="2.768532" PMx_normed="0.638101" NOx_normed="13.354345" fuel_normed="13.569826" electricity_normed="0"
            traveltime="1.19" CO_perVeh="113.656724" CO2_perVeh="8133.531350" HC_perVeh="0.713303" PMx_perVeh="0.164404" NOx_perVeh="3.440700" fuel_perVeh="3.496218" electricity_perVeh="0"/>
        <edge id=":1110673561_1" sampledSeconds="1313.74" CO_abs="122668.176819" CO2_abs="8488117.882729" HC_abs="763.954165" PMx_abs="177.658129" NOx_abs="3630.412001" fuel_abs="3648.631707" electricity_abs="0"
            CO_normed="5477.774063" CO2_normed="379038.746561" HC_normed="34.114539" PMx_normed="7.933362" NOx_normed="162.116836" fuel_normed="162.930441" electricity_normed="0"
            traveltime="1.19" CO_perVeh="111.154765" CO2_perVeh="7691.438561" HC_perVeh="0.692251" PMx_perVeh="0.160983" NOx_perVeh="3.289668" fuel_perVeh="3.306178" electricity_perVeh="0"/>
        <edge id=":1110673562_0" sampledSeconds="104.06" CO_abs="2194.053491" CO2_abs="172768.481493" HC_abs="13.932079" PMx_abs="2.341418" NOx_abs="65.939682" fuel_abs="74.266481" electricity_abs="0"
            CO_normed="6226.914975" CO2_normed="490332.003670" HC_normed="39.540453" PMx_normed="6.645148" NOx_normed="187.142562" fuel_normed="210.774744" electricity_normed="0"
            traveltime="0.03" CO_perVeh="0.559274" CO2_perVeh="44.039472" HC_perVeh="0.003551" PMx_perVeh="0.000597" NOx_perVeh="0.016808" fuel_perVeh="0.018931" electricity_perVeh="0"/>
        <edge id=":1110673564_0" sampledSeconds="28.44" CO_abs="513.617245" CO2_abs="57861.788365" HC_abs="3.672676" PMx_abs="0.818727" NOx_abs="21.881195" fuel_abs="24.872344" electricity_abs="0"
            CO_normed="3935.764327" CO2_normed="443385.351458" HC_normed="28.143111" PMx_normed="6.273768" NOx_normed="167.671996" fuel_normed="190.592672" electricity_normed="0"
            traveltime="7.818117e-03" CO_perVeh="0.141201" CO2_perVeh="15.907021" HC_perVeh="0.001010" PMx_perVeh="0.000225" NOx_perVeh="0.006015" fuel_perVeh="0.006838" electricity_perVeh="0"/>
        <edge id=":1110673588_0" sampledSeconds="11.62" CO_abs="256.558170" CO2_abs="30437.577456" HC_abs="1.866156" PMx_abs="0.426328" NOx_abs="11.447692" fuel_abs="13.083829" electricity_abs="0"
            CO_normed="786.385195" CO2_normed="93295.256571" HC_normed="5.720019" PMx_normed="1.306751" NOx_normed="35.088713" fuel_normed="40.103692" electricity_normed="0"
            traveltime="0.02" CO_perVeh="0.427597" CO2_perVeh="50.729296" HC_perVeh="0.003110" PMx_perVeh="0.000711" NOx_perVeh="0.019079" fuel_perVeh="0.021806" electricity_perVeh="0"/>
        <edge id=":1110673601_0" sampledSeconds="29.60" CO_abs="656.511206" CO2_abs="70582.636837" HC_abs="4.584621" PMx_abs="1.041342" NOx_abs="26.967152" fuel_abs="30.340453" electricity_abs="0"
            CO_normed="1796.691860" CO2_normed="193165.399117" HC_normed="12.546855" PMx_normed="2.849869" NOx_normed="73.801730" fuel_normed="83.033534" electricity_normed="0"
            traveltime="0.02" CO_perVeh="0.487271" CO2_perVeh="52.387378" HC_perVeh="0.003403" PMx_perVeh="0.000773" NOx_perVeh="0.020015" fuel_perVeh="0.022519" electricity_perVeh="0"/>
        <edge id=":1110673617_0" sampledSeconds="238.23" CO_abs="6113.948458" CO2_abs="746335.679298" HC_abs="45.776873" PMx_abs="13.431094" NOx_abs="282.308395" fuel_abs="320.815328" electricity_abs="0"
            CO_normed="15616.726585" CO2_normed="1906349.116982" HC_normed="116.926879" PMx_normed="34.306752" NOx_normed="721.094239" fuel_normed="819.451667" electricity_normed="0"
            traveltime="0.01" CO_perVeh="0.374742" CO2_perVeh="45.745132" HC_perVeh="0.002806" PMx_perVeh="0.000823" NOx_perVeh="0.017304" fuel_perVeh="0.019664" electricity_perVeh="0"/>
        <edge id=":1110673621_0" sampledSeconds="25.96" CO_abs="523.098092" CO2_abs="53513.039162" HC_abs="3.608776" PMx_abs="0.788765" NOx_abs="20.524510" fuel_abs="23.002982" electricity_abs="0"
            CO_normed="1603.365798" CO2_normed="164024.641109" HC_normed="11.061383" PMx_normed="2.417671" NOx_normed="62.910377" fuel_normed="70.507225" electricity_normed="0"
            traveltime="0.02" CO_perVeh="0.396286" CO2_perVeh="40.540181" HC_perVeh="0.002734" PMx_perVeh="0.000598" NOx_perVeh="0.015549" fuel_perVeh="0.017427" electricity_perVeh="0"/>
        <edge id=":1110673630_0" sampledSeconds="53.94" CO_abs="324.297367" CO2_abs="31382.721709" HC_abs="2.186738" PMx_abs="0.376671" NOx_abs="11.583152" fuel_abs="13.490236" electricity_abs="0"
            CO_normed="17.724945" CO2_normed="1715.268375" HC_normed="0.119519" PMx_normed="0.020587" NOx_normed="0.633094" fuel_normed="0.737329" electricity_normed="0"
            traveltime="1.26" CO_perVeh="7.569674" CO2_perVeh="732.528234" HC_perVeh="0.051042" PMx_perVeh="0.008792" NOx_perVeh="0.270371" fuel_perVeh="0.314886" electricity_perVeh="0"/>
        <edge id=":1110673630_1" sampledSeconds="7.36" CO_abs="38.844466" CO2_abs="3086.124725" HC_abs="0.248260" PMx_abs="0.046804" NOx_abs="1.209747" fuel_abs="1.326598" electricity_abs="0"
            CO_normed="2.588337" CO2_normed="205.638829" HC_normed="0.016542" PMx_normed="0.003119" NOx_normed="0.080609" fuel_normed="0.088396" electricity_normed="0"
            traveltime="1.04" CO_perVeh="5.497986" CO2_perVeh="436.805346" HC_perVeh="0.035138" PMx_perVeh="0.006625" NOx_perVeh="0.171226" fuel_perVeh="0.187765" electricity_perVeh="0"/>
        <edge id=":1110673650_0" sampledSeconds="143.42" CO_abs="2001.256989" CO2_abs="262609.947125" HC_abs="15.050524" PMx_abs="3.483020" NOx_abs="97.183321" fuel_abs="112.885067" electricity_abs="0"
            CO_normed="5111.767532" CO2_normed="670778.919859" HC_normed="38.443229" PMx_normed="8.896602" NOx_normed="248.233259" fuel_normed="288.339891" electricity_normed="0"
            traveltime="0.02" CO_perVeh="0.321315" CO2_perVeh="42.163759" HC_perVeh="0.002416" PMx_perVeh="0.000559" NOx_perVeh="0.015603" fuel_perVeh="0.018124" electricity_perVeh="0"/>
        <edge id=":1110673655_0" sampledSeconds="45.05" CO_abs="758.923608" CO2_abs="89297.516818" HC_abs="5.505009" PMx_abs="1.208526" NOx_abs="33.374043" fuel_abs="38.385297" electricity_abs="0"
            CO_normed="1938.502192" CO2_normed="228090.719841" HC_normed="14.061327" PMx_normed="3.086913" NOx_normed="85.246597" fuel_normed="98.046737" electricity_normed="0"
            traveltime="0.02" CO_perVeh="0.406167" CO2_perVeh="47.791018" HC_perVeh="0.002946" PMx_perVeh="0.000647" NOx_perVeh="0.017861" fuel_perVeh="0.020543" electricity_perVeh="0"/>
        <edge id=":1110673663_0" sampledSeconds="108.44" CO_abs="1900.314734" CO2_abs="228114.472166" HC_abs="13.854093" PMx_abs="3.140161" NOx_abs="85.436698" fuel_abs="98.056841" electricity_abs="0"
            CO_normed="88.899870" CO2_normed="10671.572760" HC_normed="0.648117" PMx_normed="0.146902" NOx_normed="3.996870" fuel_normed="4.587261" electricity_normed="0"
            traveltime="1.27" CO_perVeh="22.320093" CO2_perVeh="2679.312090" HC_perVeh="0.162723" PMx_perVeh="0.036883" NOx_perVeh="1.003494" fuel_perVeh="1.151724" electricity_perVeh="0"/>
        <edge id=":1110673663_1" sampledSeconds="154.75" CO_abs="2518.878238" CO2_abs="314251.873655" HC_abs="18.703226" PMx_abs="4.394574" NOx_abs="117.872221" fuel_abs="135.083544" electricity_abs="0"
            CO_normed="117.981351" CO2_normed="14719.195199" HC_normed="0.876038" PMx_normed="0.205837" NOx_normed="5.520999" fuel_normed="6.327157" electricity_normed="0"
            traveltime="1.25" CO_perVeh="20.340250" CO2_perVeh="2537.622322" HC_perVeh="0.151031" PMx_perVeh="0.035487" NOx_perVeh="0.951833" fuel_perVeh="1.090816" electricity_perVeh="0"/>
        <edge id=":1110673666_0" sampledSeconds="191.47" CO_abs="4551.615517" CO2_abs="361544.182141" HC_abs="28.971802" PMx_abs="4.879692" NOx_abs="137.820295" fuel_abs="155.413846" electricity_abs="0"
            CO_normed="285.186262" CO2_normed="22652.931341" HC_normed="1.815259" PMx_normed="0.305742" NOx_normed="8.635276" fuel_normed="9.737618" electricity_normed="0"