<?xml version="1.0" encoding="UTF-8"?>

<!-- generated on Tue Nov 10 15:00:34 2020 by Eclipse SUMO sumo Version 1.7.0
<configuration xmlns:xsi="http://www.w3.org/2001/XMLSchema-instance" xsi:noNamespaceSchemaLocation="http://sumo.dlr.de/xsd/sumoConfiguration.xsd">

    <input>
        <net-file value="../dataSets/Porto/8AM9AM_Routing_SaoBento/Porto.net.xml"/>
        <route-files value="../results/Porto/8AM9AM_Routing_SaoBento/cost_nox-length/solution1/Porto.rou.xml"/>
        <additional-files value="moreOutputInfo.xml"/>
    </input>

    <output>
        <emission-output.precision value="6"/>
        <tripinfo-output value="../results/Porto/8AM9AM_Routing_SaoBento/cost_nox-length/solution1/Porto-tripinfo"/>
    </output>

    <processing>
        <collision.action value="warn"/>
        <time-to-teleport value="-1"/>
    </processing>

    <emissions>
        <device.emissions.probability value="1"/>
    </emissions>

    <gui_only>
        <quit-on-end value="true"/>
        <start value="true"/>
    </gui_only>

</configuration>
-->

<meandata xmlns:xsi="http://www.w3.org/2001/XMLSchema-instance" xsi:noNamespaceSchemaLocation="http://sumo.dlr.de/xsd/meandata_file.xsd">
    <interval begin="0.00" end="8652.00" id="emissions-detector">
        <edge id=":1092997347_0" sampledSeconds="594.96" CO_abs="71786.063869" CO2_abs="3059437.679183" HC_abs="399.234638" PMx_abs="61.840598" NOx_abs="1323.436411" fuel_abs="1315.128339" electricity_abs="0"
            CO_normed="67884.942506" CO2_normed="2893176.471299" HC_normed="377.538745" PMx_normed="58.479950" NOx_normed="1251.515961" fuel_normed="1243.659380" electricity_normed="0"
            traveltime="0.07" CO_perVeh="8.228627" CO2_perVeh="350.694419" HC_perVeh="0.045763" PMx_perVeh="0.007089" NOx_perVeh="0.151702" fuel_perVeh="0.150749" electricity_perVeh="0"/>
        <edge id=":1103427051_0" sampledSeconds="19.28" CO_abs="1663.416662" CO2_abs="93888.604434" HC_abs="9.803665" PMx_abs="1.842451" NOx_abs="40.060158" fuel_abs="40.358551" electricity_abs="0"
            CO_normed="2386.651675" CO2_normed="134710.322494" HC_normed="14.066189" PMx_normed="2.643528" NOx_normed="57.477868" fuel_normed="57.906000" electricity_normed="0"
            traveltime="0.03" CO_perVeh="2.586823" CO2_perVeh="146.008662" HC_perVeh="0.015246" PMx_perVeh="0.002865" NOx_perVeh="0.062299" fuel_perVeh="0.062763" electricity_perVeh="0"/>
        <edge id=":1105984386_0" sampledSeconds="10.54" CO_abs="287.427754" CO2_abs="21352.379278" HC_abs="1.788630" PMx_abs="0.256411" NOx_abs="7.965392" fuel_abs="9.178622" electricity_abs="0"
            CO_normed="12.316731" CO2_normed="914.983021" HC_normed="0.076646" PMx_normed="0.010988" NOx_normed="0.341330" fuel_normed="0.393318" electricity_normed="0"
            traveltime="1.01" CO_perVeh="27.572846" CO2_perVeh="2048.326445" HC_perVeh="0.171583" PMx_perVeh="0.024597" NOx_perVeh="0.764117" fuel_perVeh="0.880502" electricity_perVeh="0"/>
        <edge id=":1105984390_0" sampledSeconds="10.43" CO_abs="0" CO2_abs="0" HC_abs="0" PMx_abs="0" NOx_abs="0" fuel_abs="0" electricity_abs="0"
            CO_normed="0" CO2_normed="0" HC_normed="0" PMx_normed="0" NOx_normed="0" fuel_normed="0" electricity_normed="0"
            traveltime="1.08" CO_perVeh="0" CO2_perVeh="0" HC_perVeh="0" PMx_perVeh="0" NOx_perVeh="0" fuel_perVeh="0" electricity_perVeh="0"/>
        <edge id=":1105984390_1" sampledSeconds="2395.22" CO_abs="61877.776756" CO2_abs="7541927.541093" HC_abs="461.596679" PMx_abs="135.133994" NOx_abs="2857.122355" fuel_abs="3241.927133" electricity_abs="0"
            CO_normed="1960.902342" CO2_normed="239003.147056" HC_normed="14.627966" PMx_normed="4.282387" NOx_normed="90.542004" fuel_normed="102.736440" electricity_normed="0"
            traveltime="0.65" CO_perVeh="16.708981" CO2_perVeh="2036.561868" HC_perVeh="0.124646" PMx_perVeh="0.036491" NOx_perVeh="0.771514" fuel_perVeh="0.875424" electricity_perVeh="0"/>
        <edge id=":1105984395_0" sampledSeconds="4.10" CO_abs="126.719743" CO2_abs="9365.347298" HC_abs="0.793040" PMx_abs="0.141322" NOx_abs="3.679013" fuel_abs="4.025784" electricity_abs="0"
            CO_normed="57.311589" CO2_normed="4235.669344" HC_normed="0.358669" PMx_normed="0.063916" NOx_normed="1.663909" fuel_normed="1.820743" electricity_normed="0"
            traveltime="0.10" CO_perVeh="2.937318" CO2_perVeh="217.085400" HC_perVeh="0.018382" PMx_perVeh="0.003276" NOx_perVeh="0.085278" fuel_perVeh="0.093316" electricity_perVeh="0"/>
        <edge id=":1105984398_0" sampledSeconds="11.12" CO_abs="539.520521" CO2_abs="38256.511584" HC_abs="3.350000" PMx_abs="0.638272" NOx_abs="15.437837" fuel_abs="16.444849" electricity_abs="0"
            CO_normed="18.568108" CO2_normed="1316.633969" HC_normed="0.115293" PMx_normed="0.021967" NOx_normed="0.531308" fuel_normed="0.565965" electricity_normed="0"
            traveltime="1.17" CO_perVeh="56.947375" CO2_perVeh="4038.044559" HC_perVeh="0.353599" PMx_perVeh="0.067371" NOx_perVeh="1.629492" fuel_perVeh="1.735784" electricity_perVeh="0"/>
        <edge id=":1105984398_1" sampledSeconds="647.89" CO_abs="10829.407546" CO2_abs="1284113.422967" HC_abs="78.919026" PMx_abs="18.272383" NOx_abs="484.600337" fuel_abs="551.985749" electricity_abs="0"
            CO_normed="360.768200" CO2_normed="42778.636434" HC_normed="2.629089" PMx_normed="0.608722" NOx_normed="16.143856" fuel_normed="18.388716" electricity_normed="0"
            traveltime="0.95" CO_perVeh="15.962326" CO2_perVeh="1892.757033" HC_perVeh="0.116325" PMx_perVeh="0.026933" NOx_perVeh="0.714291" fuel_perVeh="0.813616" electricity_perVeh="0"/>
        <edge id=":1106006327_0" sampledSeconds="703.59" CO_abs="95228.455926" CO2_abs="3094879.536382" HC_abs="506.482313" PMx_abs="64.636367" NOx_abs="1355.175504" fuel_abs="1330.379219" electricity_abs="0"
            CO_normed="4472.177277" CO2_normed="145343.634987" HC_normed="23.785734" PMx_normed="3.035493" NOx_normed="63.642585" fuel_normed="62.478087" electricity_normed="0"
            traveltime="2.09" CO_perVeh="283.072855" CO2_perVeh="9199.733171" HC_perVeh="1.505552" PMx_perVeh="0.192136" NOx_perVeh="4.028348" fuel_perVeh="3.954640" electricity_perVeh="0"/>
        <edge id=":1106006327_1" sampledSeconds="678.36" CO_abs="91864.690099" CO2_abs="3085025.823783" HC_abs="491.015781" PMx_abs="64.358191" NOx_abs="1350.215716" fuel_abs="1326.140967" electricity_abs="0"
            CO_normed="3762.191487" CO2_normed="126342.971149" HC_normed="20.108873" PMx_normed="2.635701" NOx_normed="55.296220" fuel_normed="54.310271" electricity_normed="0"
            traveltime="2.28" CO_perVeh="308.367529" CO2_perVeh="10355.684970" HC_perVeh="1.648221" PMx_perVeh="0.216035" NOx_perVeh="4.532347" fuel_perVeh="4.451534" electricity_perVeh="0"/>
        <edge id=":1106006327_2" sampledSeconds="0.00" CO_abs="0" CO2_abs="0" HC_abs="0" PMx_abs="0" NOx_abs="0" fuel_abs="0" electricity_abs="0"
            CO_normed="0" CO2_normed="0" HC_normed="0" PMx_normed="0" NOx_normed="0" fuel_normed="0" electricity_normed="0"/>
        <edge id=":1106006327_3" sampledSeconds="0.00" CO_abs="0" CO2_abs="0" HC_abs="0" PMx_abs="0" NOx_abs="0" fuel_abs="0" electricity_abs="0"
            CO_normed="0" CO2_normed="0" HC_normed="0" PMx_normed="0" NOx_normed="0" fuel_normed="0" electricity_normed="0"/>
        <edge id=":1107381198_0" sampledSeconds="0.00" CO_abs="0" CO2_abs="0" HC_abs="0" PMx_abs="0" NOx_abs="0" fuel_abs="0" electricity_abs="0"
            CO_normed="0" CO2_normed="0" HC_normed="0" PMx_normed="0" NOx_normed="0" fuel_normed="0" electricity_normed="0"/>
        <edge id=":1107381198_1" sampledSeconds="103.43" CO_abs="5154.133896" CO2_abs="202426.573008" HC_abs="28.118774" PMx_abs="3.453713" NOx_abs="83.613260" fuel_abs="87.016288" electricity_abs="0"
            CO_normed="233.868834" CO2_normed="9185.106095" HC_normed="1.275889" PMx_normed="0.156712" NOx_normed="3.793952" fuel_normed="3.948364" electricity_normed="0"
            traveltime="1.55" CO_perVeh="77.167267" CO2_perVeh="3030.713941" HC_perVeh="0.420992" PMx_perVeh="0.051709" NOx_perVeh="1.251851" fuel_perVeh="1.302801" electricity_perVeh="0"/>
        <edge id=":1110338277_0" sampledSeconds="161.09" CO_abs="2499.794454" CO2_abs="291588.555147" HC_abs="18.055827" PMx_abs="4.128421" NOx_abs="110.015921" fuel_abs="125.341566" electricity_abs="0"
            CO_normed="3714.772816" CO2_normed="433309.721339" HC_normed="26.831524" PMx_normed="6.134962" NOx_normed="163.487102" fuel_normed="186.261491" electricity_normed="0"
            traveltime="0.02" CO_perVeh="0.338573" CO2_perVeh="39.492870" HC_perVeh="0.002445" PMx_perVeh="0.000559" NOx_perVeh="0.014901" fuel_perVeh="0.016976" electricity_perVeh="0"/>
        <edge id=":1110338293_0" sampledSeconds="6422.66" CO_abs="608120.674631" CO2_abs="10636422.459151" HC_abs="3017.814900" PMx_abs="253.829949" NOx_abs="4808.364304" fuel_abs="4572.419214" electricity_abs="0"
            CO_normed="843440.602817" CO2_normed="14752319.638213" HC_normed="4185.596256" PMx_normed="352.052634" NOx_normed="6669.021227" fuel_normed="6341.774222" electricity_normed="0"
            traveltime="0.43" CO_perVeh="40.636758" CO2_perVeh="710.763087" HC_perVeh="0.201661" PMx_perVeh="0.016962" NOx_perVeh="0.321312" fuel_perVeh="0.305545" electricity_perVeh="0"/>
        <edge id=":1110338295_0" sampledSeconds="0.00" CO_abs="0" CO2_abs="0" HC_abs="0" PMx_abs="0" NOx_abs="0" fuel_abs="0" electricity_abs="0"
            CO_normed="0" CO2_normed="0" HC_normed="0" PMx_normed="0" NOx_normed="0" fuel_normed="0" electricity_normed="0"/>
        <edge id=":1110673403_0" sampledSeconds="200.53" CO_abs="3116.600818" CO2_abs="382704.521457" HC_abs="22.896412" PMx_abs="5.239498" NOx_abs="143.029557" fuel_abs="164.508609" electricity_abs="0"
            CO_normed="4322.608624" CO2_normed="530796.839747" HC_normed="31.756466" PMx_normed="7.266988" NOx_normed="198.376639" fuel_normed="228.167280" electricity_normed="0"
            traveltime="0.02" CO_perVeh="0.360204" CO2_perVeh="44.231366" HC_perVeh="0.002646" PMx_perVeh="0.000606" NOx_perVeh="0.016531" fuel_perVeh="0.019013" electricity_perVeh="0"/>
        <edge id=":1110673412_0" sampledSeconds="940.00" CO_abs="166149.598428" CO2_abs="11350358.209312" HC_abs="1034.320820" PMx_abs="249.325962" NOx_abs="4876.461356" fuel_abs="4878.960014" electricity_abs="0"
            CO_normed="238389.590743" CO2_normed="16285367.367132" HC_normed="1484.031977" PMx_normed="357.730109" NOx_normed="6996.692366" fuel_normed="7000.277412" electricity_normed="0"
            traveltime="0.02" CO_perVeh="2.744186" CO2_perVeh="187.466594" HC_perVeh="0.017083" PMx_perVeh="0.004118" NOx_perVeh="0.080541" fuel_perVeh="0.080583" electricity_perVeh="0"/>
        <edge id=":1110673414_0" sampledSeconds="0.00" CO_abs="0" CO2_abs="0" HC_abs="0" PMx_abs="0" NOx_abs="0" fuel_abs="0" electricity_abs="0"
            CO_normed="0" CO2_normed="0" HC_normed="0" PMx_normed="0" NOx_normed="0" fuel_normed="0" electricity_normed="0"/>
        <edge id=":1110673414_1" sampledSeconds="238.06" CO_abs="15519.846672" CO2_abs="605899.498606" HC_abs="84.730047" PMx_abs="11.097582" NOx_abs="255.176865" fuel_abs="260.454472" electricity_abs="0"
            CO_normed="715.131101" CO2_normed="27918.934048" HC_normed="3.904233" PMx_normed="0.511360" NOx_normed="11.758165" fuel_normed="12.001349" electricity_normed="0"
            traveltime="1.54" CO_perVeh="100.694230" CO2_perVeh="3931.133133" HC_perVeh="0.549737" PMx_perVeh="0.072002" NOx_perVeh="1.655612" fuel_perVeh="1.689853" electricity_perVeh="0"/>
        <edge id=":1110673417_0" sampledSeconds="29.06" CO_abs="374.556716" CO2_abs="50532.649987" HC_abs="2.868042" PMx_abs="0.662367" NOx_abs="18.646178" fuel_abs="21.721887" electricity_abs="0"
            CO_normed="556.603006" CO2_normed="75093.099842" HC_normed="4.262000" PMx_normed="0.984298" NOx_normed="27.708804" fuel_normed="32.279404" electricity_normed="0"
            traveltime="0.02" CO_perVeh="0.285617" CO2_perVeh="38.533571" HC_perVeh="0.002187" PMx_perVeh="0.000505" NOx_perVeh="0.014219" fuel_perVeh="0.016564" electricity_perVeh="0"/>
        <edge id=":1110673446_0" sampledSeconds="1313.58" CO_abs="13831.851694" CO2_abs="1118497.849254" HC_abs="89.433708" PMx_abs="20.473822" NOx_abs="457.346470" fuel_abs="480.790854" electricity_abs="0"
            CO_normed="19184.260325" CO2_normed="1551314.631420" HC_normed="124.041203" PMx_normed="28.396425" NOx_normed="634.322427" fuel_normed="666.838910" electricity_normed="0"
            traveltime="0.02" CO_perVeh="0.239933" CO2_perVeh="19.401885" HC_perVeh="0.001551" PMx_perVeh="0.000355" NOx_perVeh="0.007933" fuel_perVeh="0.008340" electricity_perVeh="0"/>
        <edge id=":1110673451_0" sampledSeconds="36.76" CO_abs="433.295147" CO2_abs="31268.435835" HC_abs="2.684853" PMx_abs="0.425159" NOx_abs="11.986888" fuel_abs="13.441114" electricity_abs="0"
            CO_normed="667.737936" CO2_normed="48186.832848" HC_normed="4.137545" PMx_normed="0.655199" NOx_normed="18.472627" fuel_normed="20.713691" electricity_normed="0"
            traveltime="0.03" CO_perVeh="0.319243" CO2_perVeh="23.037924" HC_perVeh="0.001978" PMx_perVeh="0.000313" NOx_perVeh="0.008832" fuel_perVeh="0.009903" electricity_perVeh="0"/>
        <edge id=":1110673464_0" sampledSeconds="1034.66" CO_abs="3656.682257" CO2_abs="270006.369410" HC_abs="22.842026" PMx_abs="3.872910" NOx_abs="104.613519" fuel_abs="116.065134" electricity_abs="0"
            CO_normed="107.755270" CO2_normed="7956.559274" HC_normed="0.673110" PMx_normed="0.114127" NOx_normed="3.082756" fuel_normed="3.420212" electricity_normed="0"
            traveltime="1.23" CO_perVeh="4.336313" CO2_perVeh="320.189766" HC_perVeh="0.027087" PMx_perVeh="0.004593" NOx_perVeh="0.124057" fuel_perVeh="0.137637" electricity_perVeh="0"/>
        <edge id=":1110673464_1" sampledSeconds="2606.11" CO_abs="64491.691249" CO2_abs="7848089.794736" HC_abs="480.669940" PMx_abs="140.257827" NOx_abs="2976.111433" fuel_abs="3373.532267" electricity_abs="0"
            CO_normed="1862.197655" CO2_normed="226613.601321" HC_normed="13.879345" PMx_normed="4.049945" NOx_normed="85.935221" fuel_normed="97.410748" electricity_normed="0"
            traveltime="0.72" CO_perVeh="17.776403" CO2_perVeh="2163.236887" HC_perVeh="0.132491" PMx_perVeh="0.038660" NOx_perVeh="0.820331" fuel_perVeh="0.929876" electricity_perVeh="0"/>
        <edge id=":1110673479_0" sampledSeconds="135.29" CO_abs="5987.633794" CO2_abs="412571.657929" HC_abs="36.939266" PMx_abs="7.128732" NOx_abs="168.150576" fuel_abs="177.346795" electricity_abs="0"
            CO_normed="8304.623847" CO2_normed="572221.439568" HC_normed="51.233379" PMx_normed="9.887284" NOx_normed="233.218552" fuel_normed="245.973363" electricity_normed="0"
            traveltime="0.03" CO_perVeh="1.265843" CO2_perVeh="87.221567" HC_perVeh="0.007809" PMx_perVeh="0.001507" NOx_perVeh="0.035549" fuel_perVeh="0.037493" electricity_perVeh="0"/>
        <edge id=":1110673511_0" sampledSeconds="63.49" CO_abs="1184.194091" CO2_abs="123686.255637" HC_abs="8.245048" PMx_abs="1.828332" NOx_abs="47.423010" fuel_abs="53.167445" electricity_abs="0"
            CO_normed="1642.432858" CO2_normed="171548.204767" HC_normed="11.435573" PMx_normed="2.535828" NOx_normed="65.773939" fuel_normed="73.741255" electricity_normed="0"
            traveltime="0.02" CO_perVeh="0.453862" CO2_perVeh="47.404768" HC_perVeh="0.003160" PMx_perVeh="0.000701" NOx_perVeh="0.018176" fuel_perVeh="0.020377" electricity_perVeh="0"/>
        <edge id=":1110673517_0" sampledSeconds="182.59" CO_abs="8048.474824" CO2_abs="576426.729879" HC_abs="50.160685" PMx_abs="9.854502" NOx_abs="233.873291" fuel_abs="247.780965" electricity_abs="0"
            CO_normed="11162.933181" CO2_normed="799482.288320" HC_normed="69.570991" PMx_normed="13.667825" NOx_normed="324.373497" fuel_normed="343.662920" electricity_normed="0"
            traveltime="0.03" CO_perVeh="1.232287" CO2_perVeh="88.255598" HC_perVeh="0.007680" PMx_perVeh="0.001509" NOx_perVeh="0.035808" fuel_perVeh="0.037937" electricity_perVeh="0"/>
        <edge id=":1110673534_0" sampledSeconds="659.25" CO_abs="4906.586341" CO2_abs="386952.619931" HC_abs="31.222779" PMx_abs="5.509096" NOx_abs="149.296742" fuel_abs="166.335549" electricity_abs="0"
            CO_normed="131.884719" CO2_normed="10400.945606" HC_normed="0.839241" PMx_normed="0.148080" NOx_normed="4.012965" fuel_normed="4.470953" electricity_normed="0"
            traveltime="1.45" CO_perVeh="10.788853" CO2_perVeh="850.851211" HC_perVeh="0.068654" PMx_perVeh="0.012114" NOx_perVeh="0.328281" fuel_perVeh="0.365747" electricity_perVeh="0"/>
        <edge id=":1110673534_1" sampledSeconds="263.51" CO_abs="4347.006133" CO2_abs="533606.210276" HC_abs="31.927839" PMx_abs="7.374270" NOx_abs="199.668438" fuel_abs="229.374824" electricity_abs="0"
            CO_normed="113.614348" CO2_normed="13946.454105" HC_normed="0.834473" PMx_normed="0.192736" NOx_normed="5.218580" fuel_normed="5.994993" electricity_normed="0"
            traveltime="1.22" CO_perVeh="20.169018" CO2_perVeh="2475.798948" HC_perVeh="0.148137" PMx_perVeh="0.034215" NOx_perVeh="0.926411" fuel_perVeh="1.064242" electricity_perVeh="0"/>
        <edge id=":1110673549_0" sampledSeconds="651.39" CO_abs="1969.943387" CO2_abs="176435.071426" HC_abs="13.030518" PMx_abs="2.665840" NOx_abs="68.045200" fuel_abs="75.842058" electricity_abs="0"
            CO_normed="51.293574" CO2_normed="4594.033234" HC_normed="0.339290" PMx_normed="0.069413" NOx_normed="1.771767" fuel_normed="1.974783" electricity_normed="0"
            traveltime="1.29" CO_perVeh="3.913808" CO2_perVeh="350.534417" HC_perVeh="0.025889" PMx_perVeh="0.005296" NOx_perVeh="0.135190" fuel_perVeh="0.150680" electricity_perVeh="0"/>
        <edge id=":1110673549_1" sampledSeconds="3194.68" CO_abs="70210.396803" CO2_abs="9159549.576490" HC_abs="538.167364" PMx_abs="161.301733" NOx_abs="3427.766286" fuel_abs="3937.270900" electricity_abs="0"
            CO_normed="1768.387248" CO2_normed="230701.312153" HC_normed="13.554806" PMx_normed="4.062702" NOx_normed="86.335051" fuel_normed="99.167929" electricity_normed="0"
            traveltime="0.81" CO_perVeh="17.709839" CO2_perVeh="2310.400732" HC_perVeh="0.135747" PMx_perVeh="0.040687" NOx_perVeh="0.864618" fuel_perVeh="0.993135" electricity_perVeh="0"/>
        <edge id=":1110673556_0" sampledSeconds="472.15" CO_abs="57558.905138" CO2_abs="2737836.681943" HC_abs="327.077253" PMx_abs="55.220425" NOx_abs="1180.195119" fuel_abs="1176.879912" electricity_abs="0"
            CO_normed="1111.350988" CO2_normed="52862.324149" HC_normed="6.315228" PMx_normed="1.066199" NOx_normed="22.787282" fuel_normed="22.723272" electricity_normed="0"
            traveltime="2.78" CO_perVeh="339.304238" CO2_perVeh="16139.285279" HC_perVeh="1.928089" PMx_perVeh="0.325519" NOx_perVeh="6.957137" fuel_perVeh="6.937594" electricity_perVeh="0"/>
        <edge id=":1110673556_2" sampledSeconds="175.15" CO_abs="16795.012605" CO2_abs="716523.732288" HC_abs="93.314113" PMx_abs="13.914582" NOx_abs="306.200805" fuel_abs="308.005392" electricity_abs="0"
            CO_normed="339.069193" CO2_normed="14465.670805" HC_normed="1.883889" PMx_normed="0.280917" NOx_normed="6.181791" fuel_normed="6.218223" electricity_normed="0"
            traveltime="3.03" CO_perVeh="290.409767" CO2_perVeh="12389.719211" HC_perVeh="1.613534" PMx_perVeh="0.240603" NOx_perVeh="5.294649" fuel_perVeh="5.325853" electricity_perVeh="0"/>
        <edge id=":1110673556_3" sampledSeconds="360.14" CO_abs="36077.000347" CO2_abs="1242709.105521" HC_abs="193.293434" PMx_abs="24.394117" NOx_abs="534.350448" fuel_abs="534.197184" electricity_abs="0"
            CO_normed="1656.869155" CO2_normed="57072.549417" HC_normed="8.877177" PMx_normed="1.120322" NOx_normed="24.540532" fuel_normed="24.533493" electricity_normed="0"
            traveltime="1.83" CO_perVeh="183.474919" CO2_perVeh="6319.980880" HC_perVeh="0.983022" PMx_perVeh="0.124060" NOx_perVeh="2.717518" fuel_perVeh="2.716739" electricity_perVeh="0"/>
        <edge id=":1110673556_4" sampledSeconds="67.79" CO_abs="7836.420795" CO2_abs="300478.529966" HC_abs="42.735435" PMx_abs="5.931113" NOx_abs="129.230572" fuel_abs="129.164422" electricity_abs="0"
            CO_normed="219.868284" CO2_normed="8430.596131" HC_normed="1.199038" PMx_normed="0.166411" NOx_normed="3.625852" fuel_normed="3.623996" electricity_normed="0"
            traveltime="2.57" CO_perVeh="297.337847" CO2_perVeh="11401.077272" HC_perVeh="1.621514" PMx_perVeh="0.225045" NOx_perVeh="4.903404" fuel_perVeh="4.900894" electricity_perVeh="0"/>
        <edge id=":1110673556_5" sampledSeconds="22.17" CO_abs="1402.032035" CO2_abs="63202.665026" HC_abs="7.850672" PMx_abs="1.118412" NOx_abs="26.313501" fuel_abs="27.168439" electricity_abs="0"
            CO_normed="54.827987" CO2_normed="2471.608917" HC_normed="0.307009" PMx_normed="0.043737" NOx_normed="1.029018" fuel_normed="1.062451" electricity_normed="0"
            traveltime="1.53" CO_perVeh="96.930610" CO2_perVeh="4369.566965" HC_perVeh="0.542763" PMx_perVeh="0.077322" NOx_perVeh="1.819205" fuel_perVeh="1.878312" electricity_perVeh="0"/>
        <edge id=":1110673556_6" sampledSeconds="213.69" CO_abs="25823.770516" CO2_abs="1304356.180912" HC_abs="148.594500" PMx_abs="26.218456" NOx_abs="560.672488" fuel_abs="560.686295" electricity_abs="0"
            CO_normed="511.178915" CO2_normed="25819.598155" HC_normed="2.941413" PMx_normed="0.518992" NOx_normed="11.098455" fuel_normed="11.098728" electricity_normed="0"
            traveltime="2.49" CO_perVeh="300.912277" CO2_perVeh="15199.050348" HC_perVeh="1.731502" PMx_perVeh="0.305511" NOx_perVeh="6.533253" fuel_perVeh="6.533414" electricity_perVeh="0"/>
        <edge id=":1110673561_0" sampledSeconds="102.89" CO_abs="9849.288101" CO2_abs="705254.446376" HC_abs="61.817230" PMx_abs="14.178267" NOx_abs="297.929431" fuel_abs="303.155399" electricity_abs="0"
            CO_normed="244.959840" CO2_normed="17540.254156" HC_normed="1.537445" PMx_normed="0.352625" NOx_normed="7.409748" fuel_normed="7.539722" electricity_normed="0"
            traveltime="1.21" CO_perVeh="116.231159" CO2_perVeh="8322.686987" HC_perVeh="0.729503" PMx_perVeh="0.167317" NOx_perVeh="3.515856" fuel_perVeh="3.577528" electricity_perVeh="0"/>
        <edge id=":1110673561_1" sampledSeconds="5186.37" CO_abs="481473.422284" CO2_abs="33369893.202432" HC_abs="2999.569629" PMx_abs="697.255201" NOx_abs="14264.846215" fuel_abs="14344.105686" electricity_abs="0"
            CO_normed="11674.573540" CO2_normed="809139.724412" HC_normed="72.732356" PMx_normed="16.906763" NOx_normed="345.888243" fuel_normed="347.810095" electricity_normed="0"
            traveltime="1.19" CO_perVeh="110.661920" CO2_perVeh="7669.741027" HC_perVeh="0.689422" PMx_perVeh="0.160257" NOx_perVeh="3.278634" fuel_perVeh="3.296851" electricity_perVeh="0"/>
        <edge id=":1110673562_0" sampledSeconds="300.66" CO_abs="6712.756282" CO2_abs="516565.290544" HC_abs="42.367210" PMx_abs="7.126818" NOx_abs="198.212339" fuel_abs="222.051331" electricity_abs="0"
            CO_normed="10344.823983" CO2_normed="796063.015171" HC_normed="65.290816" PMx_normed="10.982922" NOx_normed="305.458990" fuel_normed="342.196534" electricity_normed="0"
            traveltime="0.03" CO_perVeh="0.601742" CO2_perVeh="46.305723" HC_perVeh="0.003798" PMx_perVeh="0.000639" NOx_perVeh="0.017768" fuel_perVeh="0.019905" electricity_perVeh="0"/>
        <edge id=":1110673564_0" sampledSeconds="27.89" CO_abs="372.816832" CO2_abs="47320.960741" HC_abs="2.773372" PMx_abs="0.629332" NOx_abs="17.546565" fuel_abs="20.341315" electricity_abs="0"
            CO_normed="1551.248956" CO2_normed="196897.201417" HC_normed="11.539688" PMx_normed="2.618579" NOx_normed="73.009287" fuel_normed="84.637925" electricity_normed="0"
            traveltime="7.878012e-03" CO_perVeh="0.105301" CO2_perVeh="13.365615" HC_perVeh="0.000783" PMx_perVeh="0.000178" NOx_perVeh="0.004956" fuel_perVeh="0.005745" electricity_perVeh="0"/>
        <edge id=":1110673588_0" sampledSeconds="62.88" CO_abs="1090.924212" CO2_abs="121742.923524" HC_abs="7.766456" PMx_abs="1.692697" NOx_abs="45.906107" fuel_abs="52.332199" electricity_abs="0"
            CO_normed="1815.685235" CO2_normed="202623.451081" HC_normed="12.926140" PMx_normed="2.817249" NOx_normed="76.404061" fuel_normed="87.099360" electricity_normed="0"
            traveltime="0.02" CO_perVeh="0.351911" CO2_perVeh="39.271911" HC_perVeh="0.002505" PMx_perVeh="0.000546" NOx_perVeh="0.014808" fuel_perVeh="0.016881" electricity_perVeh="0"/>
        <edge id=":1110673601_0" sampledSeconds="29.03" CO_abs="526.038303" CO2_abs="59398.986361" HC_abs="3.757260" PMx_abs="0.818946" NOx_abs="22.322025" fuel_abs="25.533152" electricity_abs="0"
            CO_normed="781.709386" CO2_normed="88268.753261" HC_normed="5.583406" PMx_normed="1.216979" NOx_normed="33.171228" fuel_normed="37.943063" electricity_normed="0"
            traveltime="0.02" CO_perVeh="0.401129" CO2_perVeh="45.294578" HC_perVeh="0.002865" PMx_perVeh="0.000624" NOx_perVeh="0.017022" fuel_perVeh="0.019470" electricity_perVeh="0"/>
        <edge id=":1110673617_0" sampledSeconds="855.31" CO_abs="31958.688333" CO2_abs="3207149.871339" HC_abs="222.364696" PMx_abs="60.643394" NOx_abs="1260.134569" fuel_abs="1378.603415" electricity_abs="0"
            CO_normed="44325.503929" CO2_normed="4448196.770234" HC_normed="308.411507" PMx_normed="84.110117" NOx_normed="1747.759458" fuel_normed="1912.071311" electricity_normed="0"
            traveltime="0.02" CO_perVeh="0.566790" CO2_perVeh="56.879073" HC_perVeh="0.003944" PMx_perVeh="0.001076" NOx_perVeh="0.022349" fuel_perVeh="0.024450" electricity_perVeh="0"/>
        <edge id=":1110673621_0" sampledSeconds="26.54" CO_abs="534.101228" CO2_abs="58208.186029" HC_abs="3.779196" PMx_abs="0.843048" NOx_abs="22.170934" fuel_abs="25.021228" electricity_abs="0"
            CO_normed="888.934083" CO2_normed="96879.089092" HC_normed="6.289924" PMx_normed="1.403132" NOx_normed="36.900306" fuel_normed="41.644207" electricity_normed="0"
            traveltime="0.02" CO_perVeh="0.404622" CO2_perVeh="44.097111" HC_perVeh="0.002863" PMx_perVeh="0.000639" NOx_perVeh="0.016796" fuel_perVeh="0.018955" electricity_perVeh="0"/>
        <edge id=":1110673630_0" sampledSeconds="286.86" CO_abs="1694.298758" CO2_abs="145306.084702" HC_abs="11.038749" PMx_abs="1.972680" NOx_abs="55.246573" fuel_abs="62.461350" electricity_abs="0"
            CO_normed="50.283786" CO2_normed="4312.427205" HC_normed="0.327611" PMx_normed="0.058546" NOx_normed="1.639620" fuel_normed="1.853742" electricity_normed="0"
            traveltime="1.29" CO_perVeh="7.623697" CO2_perVeh="653.821886" HC_perVeh="0.049670" PMx_perVeh="0.008876" NOx_perVeh="0.248588" fuel_perVeh="0.281052" electricity_perVeh="0"/>
        <edge id=":1110673630_1" sampledSeconds="338.08" CO_abs="1072.628854" CO2_abs="92865.136477" HC_abs="6.996237" PMx_abs="1.196862" NOx_abs="34.907344" fuel_abs="39.919144" electricity_abs="0"
            CO_normed="38.809462" CO2_normed="3360.012174" HC_normed="0.253135" PMx_normed="0.043304" NOx_normed="1.263005" fuel_normed="1.444340" electricity_normed="0"
            traveltime="1.08" CO_perVeh="3.419336" CO2_perVeh="296.036302" HC_perVeh="0.022303" PMx_perVeh="0.003815" NOx_perVeh="0.111278" fuel_perVeh="0.127255" electricity_perVeh="0"/>
        <edge id=":1110673650_0" sampledSeconds="199.93" CO_abs="2936.068879" CO2_abs="368808.640263" HC_abs="21.792970" PMx_abs="5.006373" NOx_abs="137.471592" fuel_abs="158.535377" electricity_abs="0"
            CO_normed="4072.217585" CO2_normed="511523.772903" HC_normed="30.226034" PMx_normed="6.943652" NOx_normed="190.667950" fuel_normed="219.882632" electricity_normed="0"
            traveltime="0.02" CO_perVeh="0.339778" CO2_perVeh="42.680556" HC_perVeh="0.002522" PMx_perVeh="0.000579" NOx_perVeh="0.015909" fuel_perVeh="0.018347" electricity_perVeh="0"/>
        <edge id=":1110673655_0" sampledSeconds="20.64" CO_abs="365.618259" CO2_abs="44572.385961" HC_abs="2.692561" PMx_abs="0.599957" NOx_abs="16.614023" fuel_abs="19.159816" electricity_abs="0"
            CO_normed="507.098833" CO2_normed="61820.230182" HC_normed="3.734481" PMx_normed="0.832117" NOx_normed="23.043027" fuel_normed="26.573948" electricity_normed="0"
            traveltime="0.02" CO_perVeh="0.417690" CO2_perVeh="50.920471" HC_perVeh="0.003076" PMx_perVeh="0.000685" NOx_perVeh="0.018980" fuel_perVeh="0.021889" electricity_perVeh="0"/>
        <edge id=":1110673663_0" sampledSeconds="111.10" CO_abs="2120.055762" CO2_abs="233864.920038" HC_abs="15.053637" PMx_abs="3.334136" NOx_abs="88.709663" fuel_abs="100.528660" electricity_abs="0"
            CO_normed="53.854175" CO2_normed="5940.693889" HC_normed="0.382396" PMx_normed="0.084695" NOx_normed="2.253425" fuel_normed="2.553654" electricity_normed="0"
            traveltime="1.30" CO_perVeh="24.901055" CO2_perVeh="2746.853813" HC_perVeh="0.176812" PMx_perVeh="0.039161" NOx_perVeh="1.041937" fuel_perVeh="1.180757" electricity_perVeh="0"/>
        <edge id=":1110673663_1" sampledSeconds="170.94" CO_abs="2227.592192" CO2_abs="303264.430500" HC_abs="17.038293" PMx_abs="3.927904" NOx_abs="111.544919" fuel_abs="130.360825" electricity_abs="0"
            CO_normed="56.655017" CO2_normed="7713.014825" HC_normed="0.433340" PMx_normed="0.099900" NOx_normed="2.836955" fuel_normed="3.315506" electricity_normed="0"
            traveltime="1.28" CO_perVeh="16.624885" CO2_perVeh="2263.312004" HC_perVeh="0.127160" PMx_perVeh="0.029315" NOx_perVeh="0.832478" fuel_perVeh="0.972904" electricity_perVeh="0"/>
        <edge id=":1110673666_0" sampledSeconds="274.50" CO_abs="6140.170024" CO2_abs="474792.910343" HC_abs="38.810628" PMx_abs="6.568844" NOx_abs="182.198673" fuel_abs="204.094966" electricity_abs="0"