<?xml version="1.0" encoding="UTF-8"?>

<!-- generated on Mon Nov  9 22:15:19 2020 by Eclipse SUMO sumo Version 1.7.0
<configuration xmlns:xsi="http://www.w3.org/2001/XMLSchema-instance" xsi:noNamespaceSchemaLocation="http://sumo.dlr.de/xsd/sumoConfiguration.xsd">

    <input>
        <net-file value="../dataSets/Porto/6AM7AM_Routing_SaoBento/Porto.net.xml"/>
        <route-files value="../results/Porto/6AM7AM_Routing_SaoBento/cost_hc-ttime/solution6/Porto.rou.xml"/>
        <additional-files value="moreOutputInfo.xml"/>
    </input>

    <output>
        <emission-output.precision value="6"/>
        <tripinfo-output value="../results/Porto/6AM7AM_Routing_SaoBento/cost_hc-ttime/solution6/Porto-tripinfo"/>
    </output>

    <processing>
        <collision.action value="warn"/>
        <time-to-teleport value="-1"/>
    </processing>

    <emissions>
        <device.emissions.probability value="1"/>
    </emissions>

    <gui_only>
        <quit-on-end value="true"/>
        <start value="true"/>
    </gui_only>

</configuration>
-->

<meandata xmlns:xsi="http://www.w3.org/2001/XMLSchema-instance" xsi:noNamespaceSchemaLocation="http://sumo.dlr.de/xsd/meandata_file.xsd">
    <interval begin="0.00" end="4700.00" id="emissions-detector">
        <edge id=":1092997347_0" sampledSeconds="265.34" CO_abs="33989.016739" CO2_abs="1350231.100179" HC_abs="186.669158" PMx_abs="27.508202" NOx_abs="585.758546" fuel_abs="580.411275" electricity_abs="0"
            CO_normed="59168.501094" CO2_normed="2350499.013852" HC_normed="324.955981" PMx_normed="47.886619" NOx_normed="1019.695727" fuel_normed="1010.387132" electricity_normed="0"
            traveltime="0.07" CO_perVeh="9.541509" CO2_perVeh="379.041315" HC_perVeh="0.052402" PMx_perVeh="0.007722" NOx_perVeh="0.164436" fuel_perVeh="0.162935" electricity_perVeh="0"/>
        <edge id=":1103427051_0" sampledSeconds="10.96" CO_abs="836.354219" CO2_abs="46835.837981" HC_abs="4.922050" PMx_abs="0.929380" NOx_abs="20.059854" fuel_abs="20.132641" electricity_abs="0"
            CO_normed="2209.006009" CO2_normed="123704.340963" HC_normed="13.000279" PMx_normed="2.454709" NOx_normed="52.982740" fuel_normed="53.174986" electricity_normed="0"
            traveltime="0.03" CO_perVeh="2.291598" CO2_perVeh="128.329488" HC_perVeh="0.013486" PMx_perVeh="0.002546" NOx_perVeh="0.054964" fuel_perVeh="0.055163" electricity_perVeh="0"/>
        <edge id=":1105984386_0" sampledSeconds="23.12" CO_abs="312.213874" CO2_abs="28194.049503" HC_abs="2.056246" PMx_abs="0.326640" NOx_abs="10.357903" fuel_abs="12.119580" electricity_abs="0"
            CO_normed="24.628480" CO2_normed="2224.041418" HC_normed="0.162204" PMx_normed="0.025766" NOx_normed="0.817066" fuel_normed="0.956033" electricity_normed="0"
            traveltime="0.97" CO_perVeh="13.103374" CO2_perVeh="1183.282420" HC_perVeh="0.086299" PMx_perVeh="0.013709" NOx_perVeh="0.434713" fuel_perVeh="0.508649" electricity_perVeh="0"/>
        <edge id=":1105984390_0" sampledSeconds="23.04" CO_abs="42.431382" CO2_abs="3197.491374" HC_abs="0.265256" PMx_abs="0.039202" NOx_abs="1.196846" fuel_abs="1.374485" electricity_abs="0"
            CO_normed="2.587630" CO2_normed="194.995408" HC_normed="0.016176" PMx_normed="0.002391" NOx_normed="0.072988" fuel_normed="0.083821" electricity_normed="0"
            traveltime="1.04" CO_perVeh="1.924242" CO2_perVeh="145.004664" HC_perVeh="0.012029" PMx_perVeh="0.001778" NOx_perVeh="0.054276" fuel_perVeh="0.062332" electricity_perVeh="0"/>
        <edge id=":1105984390_1" sampledSeconds="645.58" CO_abs="13840.346018" CO2_abs="1826686.846778" HC_abs="106.515230" PMx_abs="32.109148" NOx_abs="681.973046" fuel_abs="785.209087" electricity_abs="0"
            CO_normed="807.396504" CO2_normed="106562.406190" HC_normed="6.213719" PMx_normed="1.873133" NOx_normed="39.783879" fuel_normed="45.806302" electricity_normed="0"
            traveltime="0.64" CO_perVeh="13.644114" CO2_perVeh="1800.787634" HC_perVeh="0.105005" PMx_perVeh="0.031654" NOx_perVeh="0.672304" fuel_perVeh="0.774076" electricity_perVeh="0"/>
        <edge id=":1105984395_0" sampledSeconds="8.94" CO_abs="218.258507" CO2_abs="16791.201682" HC_abs="1.375844" PMx_abs="0.224006" NOx_abs="6.400397" fuel_abs="7.217896" electricity_abs="0"
            CO_normed="181.713836" CO2_normed="13979.723880" HC_normed="1.145476" PMx_normed="0.186499" NOx_normed="5.328730" fuel_normed="6.009349" electricity_normed="0"
            traveltime="0.09" CO_perVeh="2.213380" CO2_perVeh="170.281146" HC_perVeh="0.013953" PMx_perVeh="0.002272" NOx_perVeh="0.064907" fuel_perVeh="0.073197" electricity_perVeh="0"/>
        <edge id=":1105984398_0" sampledSeconds="23.01" CO_abs="1374.172642" CO2_abs="97985.221849" HC_abs="8.563754" PMx_abs="1.727612" NOx_abs="40.117101" fuel_abs="42.119539" electricity_abs="0"
            CO_normed="87.060196" CO2_normed="6207.817233" HC_normed="0.542553" PMx_normed="0.109452" NOx_normed="2.541604" fuel_normed="2.668468" electricity_normed="0"
            traveltime="1.11" CO_perVeh="66.009651" CO2_perVeh="4706.810525" HC_perVeh="0.411368" PMx_perVeh="0.082987" NOx_perVeh="1.927062" fuel_perVeh="2.023251" electricity_perVeh="0"/>
        <edge id=":1105984398_1" sampledSeconds="453.44" CO_abs="8130.355175" CO2_abs="954376.609270" HC_abs="58.827554" PMx_abs="13.674443" NOx_abs="360.800862" fuel_abs="410.245799" electricity_abs="0"
            CO_normed="498.599367" CO2_normed="58527.771892" HC_normed="3.607638" PMx_normed="0.838594" NOx_normed="22.126350" fuel_normed="25.158593" electricity_normed="0"
            traveltime="0.95" CO_perVeh="17.104262" CO2_perVeh="2007.772962" HC_perVeh="0.123759" PMx_perVeh="0.028768" NOx_perVeh="0.759036" fuel_perVeh="0.863056" electricity_perVeh="0"/>
        <edge id=":1106006327_0" sampledSeconds="286.76" CO_abs="38744.060899" CO2_abs="1267379.408937" HC_abs="206.266867" PMx_abs="26.478601" NOx_abs="555.041655" fuel_abs="544.801336" electricity_abs="0"
            CO_normed="3349.469748" CO2_normed="109566.444267" HC_normed="17.832014" PMx_normed="2.289106" NOx_normed="47.984005" fuel_normed="47.098718" electricity_normed="0"
            traveltime="2.07" CO_perVeh="280.245228" CO2_perVeh="9167.263910" HC_perVeh="1.491978" PMx_perVeh="0.191526" NOx_perVeh="4.014751" fuel_perVeh="3.940681" electricity_perVeh="0"/>
        <edge id=":1106006327_1" sampledSeconds="159.02" CO_abs="21592.192249" CO2_abs="730065.345915" HC_abs="115.533390" PMx_abs="15.241390" NOx_abs="319.596495" fuel_abs="313.828531" electricity_abs="0"
            CO_normed="1627.824847" CO2_normed="55039.270508" HC_normed="8.710006" PMx_normed="1.149041" NOx_normed="24.094224" fuel_normed="23.659380" electricity_normed="0"
            traveltime="2.26" CO_perVeh="306.528998" CO2_perVeh="10364.218526" HC_perVeh="1.640145" PMx_perVeh="0.216371" NOx_perVeh="4.537084" fuel_perVeh="4.455200" electricity_perVeh="0"/>
        <edge id=":1106006327_2" sampledSeconds="0.00" CO_abs="0" CO2_abs="0" HC_abs="0" PMx_abs="0" NOx_abs="0" fuel_abs="0" electricity_abs="0"
            CO_normed="0" CO2_normed="0" HC_normed="0" PMx_normed="0" NOx_normed="0" fuel_normed="0" electricity_normed="0"/>
        <edge id=":1106006327_3" sampledSeconds="0.00" CO_abs="0" CO2_abs="0" HC_abs="0" PMx_abs="0" NOx_abs="0" fuel_abs="0" electricity_abs="0"
            CO_normed="0" CO2_normed="0" HC_normed="0" PMx_normed="0" NOx_normed="0" fuel_normed="0" electricity_normed="0"/>
        <edge id=":1107381198_0" sampledSeconds="0.00" CO_abs="0" CO2_abs="0" HC_abs="0" PMx_abs="0" NOx_abs="0" fuel_abs="0" electricity_abs="0"
            CO_normed="0" CO2_normed="0" HC_normed="0" PMx_normed="0" NOx_normed="0" fuel_normed="0" electricity_normed="0"/>
        <edge id=":1107381198_1" sampledSeconds="36.84" CO_abs="1055.499088" CO2_abs="42325.948450" HC_abs="5.782707" PMx_abs="0.740968" NOx_abs="17.603214" fuel_abs="18.194436" electricity_abs="0"
            CO_normed="88.164382" CO2_normed="3535.428071" HC_normed="0.483022" PMx_normed="0.061892" NOx_normed="1.470372" fuel_normed="1.519756" electricity_normed="0"
            traveltime="1.52" CO_perVeh="43.457824" CO2_perVeh="1742.676667" HC_perVeh="0.238090" PMx_perVeh="0.030508" NOx_perVeh="0.724773" fuel_perVeh="0.749115" electricity_perVeh="0"/>
        <edge id=":1110338277_0" sampledSeconds="97.35" CO_abs="1419.934639" CO2_abs="171525.754499" HC_abs="10.398362" PMx_abs="2.330857" NOx_abs="64.096468" fuel_abs="73.731764" electricity_abs="0"
            CO_normed="3884.319680" CO2_normed="469219.389206" HC_normed="28.445367" PMx_normed="6.376205" NOx_normed="175.339882" fuel_normed="201.697835" electricity_normed="0"
            traveltime="0.02" CO_perVeh="0.320008" CO2_perVeh="38.656491" HC_perVeh="0.002343" PMx_perVeh="0.000525" NOx_perVeh="0.014445" fuel_perVeh="0.016617" electricity_perVeh="0"/>
        <edge id=":1110338293_0" sampledSeconds="124.35" CO_abs="6163.634788" CO2_abs="420022.687701" HC_abs="37.960773" PMx_abs="7.510266" NOx_abs="172.908956" fuel_abs="180.549334" electricity_abs="0"
            CO_normed="15736.939884" CO2_normed="1072398.351576" HC_normed="96.921123" PMx_normed="19.175147" NOx_normed="441.469675" fuel_normed="460.977024" electricity_normed="0"
            traveltime="0.03" CO_perVeh="1.413732" CO2_perVeh="96.339162" HC_perVeh="0.008707" PMx_perVeh="0.001723" NOx_perVeh="0.039660" fuel_perVeh="0.041412" electricity_perVeh="0"/>
        <edge id=":1110338295_0" sampledSeconds="0.00" CO_abs="0" CO2_abs="0" HC_abs="0" PMx_abs="0" NOx_abs="0" fuel_abs="0" electricity_abs="0"
            CO_normed="0" CO2_normed="0" HC_normed="0" PMx_normed="0" NOx_normed="0" fuel_normed="0" electricity_normed="0"/>
        <edge id=":1110673403_0" sampledSeconds="143.78" CO_abs="2253.057645" CO2_abs="279341.405839" HC_abs="16.662859" PMx_abs="3.836884" NOx_abs="104.459032" fuel_abs="120.077118" electricity_abs="0"
            CO_normed="5752.487603" CO2_normed="713212.100015" HC_normed="42.543470" PMx_normed="9.796299" NOx_normed="266.703912" fuel_normed="306.579875" electricity_normed="0"
            traveltime="0.02" CO_perVeh="0.361744" CO2_perVeh="44.850255" HC_perVeh="0.002675" PMx_perVeh="0.000616" NOx_perVeh="0.016772" fuel_perVeh="0.019279" electricity_perVeh="0"/>
        <edge id=":1110673412_0" sampledSeconds="252.86" CO_abs="44568.500075" CO2_abs="3049197.440723" HC_abs="277.554478" PMx_abs="66.916215" NOx_abs="1309.676962" fuel_abs="1310.699848" electricity_abs="0"
            CO_normed="117715.774225" CO2_normed="8053639.608659" HC_normed="733.085929" PMx_normed="176.741287" NOx_normed="3459.161456" fuel_normed="3461.863136" electricity_normed="0"
            traveltime="0.02" CO_perVeh="2.741292" CO2_perVeh="187.548184" HC_perVeh="0.017072" PMx_perVeh="0.004116" NOx_perVeh="0.080555" fuel_perVeh="0.080618" electricity_perVeh="0"/>
        <edge id=":1110673414_0" sampledSeconds="0.00" CO_abs="0" CO2_abs="0" HC_abs="0" PMx_abs="0" NOx_abs="0" fuel_abs="0" electricity_abs="0"
            CO_normed="0" CO2_normed="0" HC_normed="0" PMx_normed="0" NOx_normed="0" fuel_normed="0" electricity_normed="0"/>
        <edge id=":1110673414_1" sampledSeconds="14.35" CO_abs="679.603403" CO2_abs="26223.059171" HC_abs="3.707253" PMx_abs="0.503152" NOx_abs="11.192720" fuel_abs="11.272325" electricity_abs="0"
            CO_normed="57.646433" CO2_normed="2224.335266" HC_normed="0.314463" PMx_normed="0.042679" NOx_normed="0.949407" fuel_normed="0.956160" electricity_normed="0"
            traveltime="1.57" CO_perVeh="74.223739" CO2_perVeh="2863.984329" HC_perVeh="0.404892" PMx_perVeh="0.054952" NOx_perVeh="1.222427" fuel_perVeh="1.231121" electricity_perVeh="0"/>
        <edge id=":1110673417_0" sampledSeconds="29.96" CO_abs="471.914936" CO2_abs="51077.966124" HC_abs="3.324337" PMx_abs="0.727988" NOx_abs="19.392153" fuel_abs="21.956268" electricity_abs="0"
            CO_normed="1290.952712" CO2_normed="139726.959001" HC_normed="9.093932" PMx_normed="1.991457" NOx_normed="53.048444" fuel_normed="60.062738" electricity_normed="0"
            traveltime="0.02" CO_perVeh="0.350262" CO2_perVeh="37.910750" HC_perVeh="0.002467" PMx_perVeh="0.000540" NOx_perVeh="0.014393" fuel_perVeh="0.016296" electricity_perVeh="0"/>
        <edge id=":1110673446_0" sampledSeconds="333.82" CO_abs="3736.612834" CO2_abs="290358.975828" HC_abs="23.938330" PMx_abs="5.485976" NOx_abs="120.020610" fuel_abs="124.811838" electricity_abs="0"
            CO_normed="9540.288087" CO2_normed="741342.065945" HC_normed="61.119140" PMx_normed="14.006746" NOx_normed="306.435601" fuel_normed="318.668522" electricity_normed="0"
            traveltime="0.02" CO_perVeh="0.255057" CO2_perVeh="19.819561" HC_perVeh="0.001634" PMx_perVeh="0.000374" NOx_perVeh="0.008192" fuel_perVeh="0.008520" electricity_perVeh="0"/>
        <edge id=":1110673451_0" sampledSeconds="37.60" CO_abs="224.417577" CO2_abs="16495.320319" HC_abs="1.396464" PMx_abs="0.218261" NOx_abs="6.278726" fuel_abs="7.090719" electricity_abs="0"
            CO_normed="636.645610" CO2_normed="46795.234948" HC_normed="3.961601" PMx_normed="0.619181" NOx_normed="17.811989" fuel_normed="20.115514" electricity_normed="0"
            traveltime="0.03" CO_perVeh="0.160937" CO2_perVeh="11.829313" HC_perVeh="0.001001" PMx_perVeh="0.000157" NOx_perVeh="0.004503" fuel_perVeh="0.005085" electricity_perVeh="0"/>
        <edge id=":1110673464_0" sampledSeconds="325.48" CO_abs="850.566709" CO2_abs="66495.820399" HC_abs="5.393625" PMx_abs="0.917218" NOx_abs="25.439257" fuel_abs="28.583964" electricity_abs="0"
            CO_normed="46.140078" CO2_normed="3607.150766" HC_normed="0.292584" PMx_normed="0.049756" NOx_normed="1.379985" fuel_normed="1.550574" electricity_normed="0"
            traveltime="1.18" CO_perVeh="3.074686" CO2_perVeh="240.373618" HC_perVeh="0.019497" PMx_perVeh="0.003316" NOx_perVeh="0.091960" fuel_perVeh="0.103327" electricity_perVeh="0"/>
        <edge id=":1110673464_1" sampledSeconds="709.06" CO_abs="16315.308706" CO2_abs="2109323.260089" HC_abs="124.755535" PMx_abs="37.312200" NOx_abs="790.507878" fuel_abs="906.701361" electricity_abs="0"
            CO_normed="867.233324" CO2_normed="112120.184510" HC_normed="6.631328" PMx_normed="1.983314" NOx_normed="42.019111" fuel_normed="48.195327" electricity_normed="0"
            traveltime="0.70" CO_perVeh="16.102422" CO2_perVeh="2081.800274" HC_perVeh="0.123128" PMx_perVeh="0.036825" NOx_perVeh="0.780193" fuel_perVeh="0.894870" electricity_perVeh="0"/>
        <edge id=":1110673479_0" sampledSeconds="133.84" CO_abs="6674.899696" CO2_abs="462107.069240" HC_abs="41.250321" PMx_abs="8.083236" NOx_abs="188.975245" fuel_abs="198.639758" electricity_abs="0"
            CO_normed="17042.297096" CO2_normed="1179847.836359" HC_normed="105.319968" PMx_normed="20.638049" NOx_normed="482.489987" fuel_normed="507.165340" electricity_normed="0"
            traveltime="0.03" CO_perVeh="1.406132" CO2_perVeh="97.347342" HC_perVeh="0.008690" PMx_perVeh="0.001703" NOx_perVeh="0.039809" fuel_perVeh="0.041845" electricity_perVeh="0"/>
        <edge id=":1110673511_0" sampledSeconds="11.72" CO_abs="245.544037" CO2_abs="31283.547274" HC_abs="1.838938" PMx_abs="0.425112" NOx_abs="11.652331" fuel_abs="13.447484" electricity_abs="0"
            CO_normed="626.920946" CO2_normed="79872.886657" HC_normed="4.695160" PMx_normed="1.085392" NOx_normed="29.750632" fuel_normed="34.334003" electricity_normed="0"
            traveltime="0.02" CO_perVeh="0.486226" CO2_perVeh="61.947618" HC_perVeh="0.003641" PMx_perVeh="0.000842" NOx_perVeh="0.023074" fuel_perVeh="0.026629" electricity_perVeh="0"/>
        <edge id=":1110673517_0" sampledSeconds="17.02" CO_abs="785.989757" CO2_abs="57267.619318" HC_abs="4.927752" PMx_abs="1.007846" NOx_abs="23.396869" fuel_abs="24.616824" electricity_abs="0"
            CO_normed="2006.782359" CO2_normed="146215.198260" HC_normed="12.581495" PMx_normed="2.573224" NOx_normed="59.736686" fuel_normed="62.851466" electricity_normed="0"
            traveltime="0.03" CO_perVeh="1.261958" CO2_perVeh="91.946940" HC_perVeh="0.007912" PMx_perVeh="0.001618" NOx_perVeh="0.037565" fuel_perVeh="0.039524" electricity_perVeh="0"/>
        <edge id=":1110673534_0" sampledSeconds="474.84" CO_abs="2699.089268" CO2_abs="240285.433684" HC_abs="17.758076" PMx_abs="3.094375" NOx_abs="90.230952" fuel_abs="103.289396" electricity_abs="0"
            CO_normed="133.552166" CO2_normed="11889.432641" HC_normed="0.878678" PMx_normed="0.153111" NOx_normed="4.464669" fuel_normed="5.110806" electricity_normed="0"
            traveltime="1.43" CO_perVeh="8.131274" CO2_perVeh="723.883706" HC_perVeh="0.053498" PMx_perVeh="0.009322" NOx_perVeh="0.271830" fuel_perVeh="0.311170" electricity_perVeh="0"/>
        <edge id=":1110673534_1" sampledSeconds="184.40" CO_abs="2644.549735" CO2_abs="341050.366869" HC_abs="19.773946" PMx_abs="4.605900" NOx_abs="126.724229" fuel_abs="146.603250" electricity_abs="0"
            CO_normed="127.236970" CO2_normed="16408.923884" HC_normed="0.951382" PMx_normed="0.221603" NOx_normed="6.097071" fuel_normed="7.053508" electricity_normed="0"
            traveltime="1.22" CO_perVeh="17.558861" CO2_perVeh="2264.451996" HC_perVeh="0.131292" PMx_perVeh="0.030582" NOx_perVeh="0.841403" fuel_perVeh="0.973393" electricity_perVeh="0"/>
        <edge id=":1110673549_0" sampledSeconds="61.25" CO_abs="25.335254" CO2_abs="3413.997779" HC_abs="0.192810" PMx_abs="0.039049" NOx_abs="1.229760" fuel_abs="1.467544" electricity_abs="0"
            CO_normed="1.214376" CO2_normed="163.640615" HC_normed="0.009242" PMx_normed="0.001872" NOx_normed="0.058945" fuel_normed="0.070343" electricity_normed="0"
            traveltime="1.28" CO_perVeh="0.527838" CO2_perVeh="71.127736" HC_perVeh="0.004017" PMx_perVeh="0.000814" NOx_perVeh="0.025621" fuel_perVeh="0.030575" electricity_perVeh="0"/>
        <edge id=":1110673549_1" sampledSeconds="638.07" CO_abs="14964.998101" CO2_abs="1893007.478883" HC_abs="113.369864" PMx_abs="33.682495" NOx_abs="711.405248" fuel_abs="813.717013" electricity_abs="0"
            CO_normed="693.859064" CO2_normed="87770.167997" HC_normed="5.256446" PMx_normed="1.561704" NOx_normed="32.984634" fuel_normed="37.728366" electricity_normed="0"
            traveltime="0.80" CO_perVeh="18.849985" CO2_perVeh="2384.441520" HC_perVeh="0.142801" PMx_perVeh="0.042427" NOx_perVeh="0.896090" fuel_perVeh="1.024962" electricity_perVeh="0"/>
        <edge id=":1110673556_0" sampledSeconds="414.29" CO_abs="51461.269128" CO2_abs="2599240.448360" HC_abs="296.163329" PMx_abs="52.574758" NOx_abs="1120.428029" fuel_abs="1117.300417" electricity_abs="0"
            CO_normed="1829.101731" CO2_normed="92385.502435" HC_normed="10.526613" PMx_normed="1.868679" NOx_normed="39.823675" fuel_normed="39.712509" electricity_normed="0"
            traveltime="2.57" CO_perVeh="319.446466" CO2_perVeh="16134.817278" HC_perVeh="1.838438" PMx_perVeh="0.326358" NOx_perVeh="6.955071" fuel_perVeh="6.935656" electricity_perVeh="0"/>
        <edge id=":1110673556_2" sampledSeconds="243.31" CO_abs="22177.005249" CO2_abs="969050.178588" HC_abs="123.742725" PMx_abs="18.657367" NOx_abs="412.935612" fuel_abs="416.556388" electricity_abs="0"
            CO_normed="824.194193" CO2_normed="36014.129094" HC_normed="4.598819" PMx_normed="0.693389" NOx_normed="15.346487" fuel_normed="15.481051" electricity_normed="0"
            traveltime="2.95" CO_perVeh="269.002824" CO2_perVeh="11754.392969" HC_perVeh="1.500976" PMx_perVeh="0.226310" NOx_perVeh="5.008830" fuel_perVeh="5.052749" electricity_perVeh="0"/>
        <edge id=":1110673556_3" sampledSeconds="419.61" CO_abs="36139.510862" CO2_abs="1291251.530333" HC_abs="194.612497" PMx_abs="24.620695" NOx_abs="550.536668" fuel_abs="555.063832" electricity_abs="0"
            CO_normed="3055.334158" CO2_normed="109165.974102" HC_normed="16.453079" PMx_normed="2.081502" NOx_normed="46.543892" fuel_normed="46.926631" electricity_normed="0"
            traveltime="1.73" CO_perVeh="149.114427" CO2_perVeh="5327.804054" HC_perVeh="0.802986" PMx_perVeh="0.101587" NOx_perVeh="2.271557" fuel_perVeh="2.290236" electricity_perVeh="0"/>
        <edge id=":1110673556_4" sampledSeconds="191.24" CO_abs="19907.680251" CO2_abs="795307.670521" HC_abs="109.293087" PMx_abs="15.447653" NOx_abs="340.406253" fuel_abs="341.872536" electricity_abs="0"
            CO_normed="1028.215505" CO2_normed="41076.994790" HC_normed="5.644899" PMx_normed="0.797859" NOx_normed="17.581706" fuel_normed="17.657439" electricity_normed="0"
            traveltime="2.41" CO_perVeh="251.303114" CO2_perVeh="10039.506941" HC_perVeh="1.379653" PMx_perVeh="0.195002" NOx_perVeh="4.297093" fuel_perVeh="4.315602" electricity_perVeh="0"/>
        <edge id=":1110673556_5" sampledSeconds="25.02" CO_abs="2353.460770" CO2_abs="93962.674380" HC_abs="12.915247" PMx_abs="1.805953" NOx_abs="40.104643" fuel_abs="40.391011" electricity_abs="0"
            CO_normed="169.422068" CO2_normed="6764.230278" HC_normed="0.929749" PMx_normed="0.130008" NOx_normed="2.887072" fuel_normed="2.907688" electricity_normed="0"
            traveltime="1.73" CO_perVeh="162.708399" CO2_perVeh="6496.184895" HC_perVeh="0.892906" PMx_perVeh="0.124856" NOx_perVeh="2.772667" fuel_perVeh="2.792465" electricity_perVeh="0"/>
        <edge id=":1110673556_6" sampledSeconds="465.05" CO_abs="54691.360121" CO2_abs="2766521.051788" HC_abs="314.791211" PMx_abs="55.601059" NOx_abs="1189.791712" fuel_abs="1189.207594" electricity_abs="0"
            CO_normed="1992.923623" CO2_normed="100810.532891" HC_normed="11.470822" PMx_normed="2.026073" NOx_normed="43.355367" fuel_normed="43.334082" electricity_normed="0"
            traveltime="2.50" CO_perVeh="293.490082" CO2_perVeh="14845.973620" HC_perVeh="1.689263" PMx_perVeh="0.298372" NOx_perVeh="6.384776" fuel_perVeh="6.381641" electricity_perVeh="0"/>
        <edge id=":1110673561_0" sampledSeconds="99.02" CO_abs="10144.217911" CO2_abs="723814.161555" HC_abs="63.646498" PMx_abs="14.733566" NOx_abs="306.673424" fuel_abs="311.133121" electricity_abs="0"
            CO_normed="464.437493" CO2_normed="33138.723679" HC_normed="2.913957" PMx_normed="0.674554" NOx_normed="14.040573" fuel_normed="14.244754" electricity_normed="0"
            traveltime="1.17" CO_perVeh="119.711617" CO2_perVeh="8541.709640" HC_perVeh="0.751090" PMx_perVeh="0.173870" NOx_perVeh="3.619044" fuel_perVeh="3.671673" electricity_perVeh="0"/>
        <edge id=":1110673561_1" sampledSeconds="1314.87" CO_abs="121227.225814" CO2_abs="8390549.498528" HC_abs="755.062850" PMx_abs="175.508661" NOx_abs="3588.381778" fuel_abs="3606.691881" electricity_abs="0"
            CO_normed="5411.124497" CO2_normed="374522.370117" HC_normed="33.703148" PMx_normed="7.834042" NOx_normed="160.171780" fuel_normed="160.989074" electricity_normed="0"
            traveltime="1.19" CO_perVeh="110.074005" CO2_perVeh="7618.597075" HC_perVeh="0.685595" PMx_perVeh="0.159361" NOx_perVeh="3.258241" fuel_perVeh="3.274867" electricity_perVeh="0"/>
        <edge id=":1110673562_0" sampledSeconds="104.03" CO_abs="2264.190834" CO2_abs="179467.963313" HC_abs="14.401525" PMx_abs="2.421241" NOx_abs="68.412977" fuel_abs="77.146334" electricity_abs="0"
            CO_normed="6423.236409" CO2_normed="509128.973937" HC_normed="40.855389" PMx_normed="6.868768" NOx_normed="194.079367" fuel_normed="218.854848" electricity_normed="0"
            traveltime="0.03" CO_perVeh="0.577153" CO2_perVeh="45.747201" HC_perVeh="0.003671" PMx_perVeh="0.000617" NOx_perVeh="0.017439" fuel_perVeh="0.019665" electricity_perVeh="0"/>
        <edge id=":1110673564_0" sampledSeconds="28.85" CO_abs="492.293749" CO2_abs="56422.004822" HC_abs="3.537513" PMx_abs="0.767323" NOx_abs="21.144796" fuel_abs="24.253481" electricity_abs="0"
            CO_normed="3770.760629" CO2_normed="432168.547572" HC_normed="27.095843" PMx_normed="5.877366" NOx_normed="161.960139" fuel_normed="185.771343" electricity_normed="0"
            traveltime="7.930837e-03" CO_perVeh="0.135338" CO2_perVeh="15.511204" HC_perVeh="0.000973" PMx_perVeh="0.000211" NOx_perVeh="0.005813" fuel_perVeh="0.006668" electricity_perVeh="0"/>
        <edge id=":1110673588_0" sampledSeconds="11.74" CO_abs="145.272018" CO2_abs="18699.977932" HC_abs="1.094857" PMx_abs="0.259581" NOx_abs="6.995447" fuel_abs="8.038327" electricity_abs="0"
            CO_normed="445.088735" CO2_normed="57293.549409" HC_normed="3.354457" PMx_normed="0.795312" NOx_normed="21.432858" fuel_normed="24.628066" electricity_normed="0"
            traveltime="0.02" CO_perVeh="0.242120" CO2_perVeh="31.166630" HC_perVeh="0.001825" PMx_perVeh="0.000433" NOx_perVeh="0.011659" fuel_perVeh="0.013397" electricity_perVeh="0"/>
        <edge id=":1110673601_0" sampledSeconds="29.76" CO_abs="456.358798" CO2_abs="60315.230358" HC_abs="3.446858" PMx_abs="0.760895" NOx_abs="22.122646" fuel_abs="25.927057" electricity_abs="0"
            CO_normed="1248.397928" CO2_normed="164996.070888" HC_normed="9.429094" PMx_normed="2.081475" NOx_normed="60.517875" fuel_normed="70.925079" electricity_normed="0"
            traveltime="0.02" CO_perVeh="0.338716" CO2_perVeh="44.766771" HC_perVeh="0.002558" PMx_perVeh="0.000565" NOx_perVeh="0.016420" fuel_perVeh="0.019243" electricity_perVeh="0"/>
        <edge id=":1110673617_0" sampledSeconds="238.80" CO_abs="5791.391140" CO2_abs="714751.815362" HC_abs="43.435026" PMx_abs="12.802088" NOx_abs="269.779203" fuel_abs="307.238917" electricity_abs="0"
            CO_normed="14786.530570" CO2_normed="1824898.251987" HC_normed="110.897939" PMx_normed="32.686183" NOx_normed="688.797966" fuel_normed="784.439788" electricity_normed="0"
            traveltime="0.01" CO_perVeh="0.354685" CO2_perVeh="43.773846" HC_perVeh="0.002660" PMx_perVeh="0.000784" NOx_perVeh="0.016522" fuel_perVeh="0.018816" electricity_perVeh="0"/>
        <edge id=":1110673621_0" sampledSeconds="25.65" CO_abs="577.636253" CO2_abs="57921.173267" HC_abs="3.979524" PMx_abs="0.878090" NOx_abs="22.372401" fuel_abs="24.897827" electricity_abs="0"
            CO_normed="1769.779158" CO2_normed="177460.615966" HC_normed="12.192583" PMx_normed="2.690320" NOx_normed="68.545229" fuel_normed="76.282705" electricity_normed="0"
            traveltime="0.02" CO_perVeh="0.437603" CO2_perVeh="43.879677" HC_perVeh="0.003015" PMx_perVeh="0.000665" NOx_perVeh="0.016949" fuel_perVeh="0.018862" electricity_perVeh="0"/>
        <edge id=":1110673630_0" sampledSeconds="54.36" CO_abs="174.452828" CO2_abs="16089.665330" HC_abs="1.159764" PMx_abs="0.201161" NOx_abs="5.986943" fuel_abs="6.916329" electricity_abs="0"
            CO_normed="9.530916" CO2_normed="879.029884" HC_normed="0.063362" PMx_normed="0.010990" NOx_normed="0.327086" fuel_normed="0.377861" electricity_normed="0"
            traveltime="1.27" CO_perVeh="4.072038" CO2_perVeh="375.561248" HC_perVeh="0.027071" PMx_perVeh="0.004695" NOx_perVeh="0.139746" fuel_perVeh="0.161439" electricity_perVeh="0"/>
        <edge id=":1110673630_1" sampledSeconds="7.42" CO_abs="2.951047" CO2_abs="193.698249" HC_abs="0.017760" PMx_abs="0.002248" NOx_abs="0.072089" fuel_abs="0.083264" electricity_abs="0"
            CO_normed="0.196554" CO2_normed="12.901271" HC_normed="0.001183" PMx_normed="0.000150" NOx_normed="0.004801" fuel_normed="0.005546" electricity_normed="0"
            traveltime="1.05" CO_perVeh="0.417687" CO2_perVeh="27.415752" HC_perVeh="0.002514" PMx_perVeh="0.000318" NOx_perVeh="0.010203" fuel_perVeh="0.011785" electricity_perVeh="0"/>
        <edge id=":1110673650_0" sampledSeconds="143.09" CO_abs="2277.858739" CO2_abs="289549.582099" HC_abs="16.962468" PMx_abs="3.943518" NOx_abs="107.870561" fuel_abs="124.465196" electricity_abs="0"
            CO_normed="5815.809547" CO2_normed="739275.528764" HC_normed="43.308430" PMx_normed="10.068558" NOx_normed="275.414198" fuel_normed="317.783480" electricity_normed="0"
            traveltime="0.02" CO_perVeh="0.365725" CO2_perVeh="46.489095" HC_perVeh="0.002723" PMx_perVeh="0.000633" NOx_perVeh="0.017319" fuel_perVeh="0.019984" electricity_perVeh="0"/>
        <edge id=":1110673655_0" sampledSeconds="44.99" CO_abs="929.320607" CO2_abs="100988.721576" HC_abs="6.523189" PMx_abs="1.422683" NOx_abs="38.209436" fuel_abs="43.410820" electricity_abs="0"
            CO_normed="2372.733465" CO2_normed="257843.544449" HC_normed="16.654951" PMx_normed="3.632383" NOx_normed="97.556008" fuel_normed="110.836135" electricity_normed="0"
            traveltime="0.02" CO_perVeh="0.497362" CO2_perVeh="54.048018" HC_perVeh="0.003491" PMx_perVeh="0.000761" NOx_perVeh="0.020449" fuel_perVeh="0.023233" electricity_perVeh="0"/>
        <edge id=":1110673663_0" sampledSeconds="107.78" CO_abs="1804.659929" CO2_abs="218370.313811" HC_abs="13.249861" PMx_abs="3.002268" NOx_abs="81.758657" fuel_abs="93.868240" electricity_abs="0"
            CO_normed="84.389054" CO2_normed="10211.377779" HC_normed="0.619587" PMx_normed="0.140391" NOx_normed="3.823178" fuel_normed="4.389443" electricity_normed="0"
            traveltime="1.27" CO_perVeh="21.196582" CO2_perVeh="2564.862353" HC_perVeh="0.155626" PMx_perVeh="0.035263" NOx_perVeh="0.960294" fuel_perVeh="1.102527" electricity_perVeh="0"/>
        <edge id=":1110673663_1" sampledSeconds="153.29" CO_abs="2524.086908" CO2_abs="304146.359543" HC_abs="18.466907" PMx_abs="4.291015" NOx_abs="114.446877" fuel_abs="130.739610" electricity_abs="0"
            CO_normed="118.175010" CO2_normed="14239.802507" HC_normed="0.864601" PMx_normed="0.200901" NOx_normed="5.358279" fuel_normed="6.121087" electricity_normed="0"
            traveltime="1.24" CO_perVeh="20.497465" CO2_perVeh="2469.894895" HC_perVeh="0.149965" PMx_perVeh="0.034846" NOx_perVeh="0.929394" fuel_perVeh="1.061703" electricity_perVeh="0"/>
        <edge id=":1110673666_0" sampledSeconds="192.07" CO_abs="4071.420456" CO2_abs="320651.786091" HC_abs="25.866103" PMx_abs="4.406621" NOx_abs="122.782609" fuel_abs="137.835693" electricity_abs="0"