<?xml version="1.0" encoding="UTF-8"?>

<!-- generated on Sun Nov  1 00:06:20 2020 by Eclipse SUMO sumo Version 1.7.0
<configuration xmlns:xsi="http://www.w3.org/2001/XMLSchema-instance" xsi:noNamespaceSchemaLocation="http://sumo.dlr.de/xsd/sumoConfiguration.xsd">

    <input>
        <net-file value="../dataSets/Porto/8AM9AM_Routing_SaoBento/Porto.net.xml"/>
        <route-files value="../results/Porto/8AM9AM_Routing_SaoBento_fewerv/cost_co-ttime/solution5/Porto.rou.xml"/>
        <additional-files value="moreOutputInfo.xml"/>
    </input>

    <output>
        <emission-output.precision value="6"/>
        <tripinfo-output value="../results/Porto/8AM9AM_Routing_SaoBento_fewerv/cost_co-ttime/solution5/Porto-tripinfo"/>
    </output>

    <processing>
        <collision.action value="warn"/>
        <time-to-teleport value="-1"/>
    </processing>

    <emissions>
        <device.emissions.probability value="1"/>
    </emissions>

    <gui_only>
        <quit-on-end value="true"/>
        <start value="true"/>
    </gui_only>

</configuration>
-->

<meandata xmlns:xsi="http://www.w3.org/2001/XMLSchema-instance" xsi:noNamespaceSchemaLocation="http://sumo.dlr.de/xsd/meandata_file.xsd">
    <interval begin="0.00" end="8561.00" id="emissions-detector">
        <edge id=":1092997347_0" sampledSeconds="615.61" CO_abs="74552.347756" CO2_abs="3115726.193708" HC_abs="413.125944" PMx_abs="63.034745" NOx_abs="1348.339371" fuel_abs="1339.325623" electricity_abs="0"
            CO_normed="71250.292532" CO2_normed="2977725.174775" HC_normed="394.827866" PMx_normed="60.242824" NOx_normed="1288.619038" fuel_normed="1280.004524" electricity_normed="0"
            traveltime="0.07" CO_perVeh="8.551923" CO2_perVeh="357.405913" HC_perVeh="0.047390" PMx_perVeh="0.007231" NOx_perVeh="0.154668" fuel_perVeh="0.153634" electricity_perVeh="0"/>
        <edge id=":1103427051_0" sampledSeconds="19.53" CO_abs="1572.648292" CO2_abs="88315.095477" HC_abs="9.257096" PMx_abs="1.729643" NOx_abs="37.660600" fuel_abs="37.962759" electricity_abs="0"
            CO_normed="2280.403052" CO2_normed="128060.427890" HC_normed="13.423160" PMx_normed="2.508051" NOx_normed="54.609380" fuel_normed="55.047522" electricity_normed="0"
            traveltime="0.03" CO_perVeh="2.445667" CO2_perVeh="137.341150" HC_perVeh="0.014396" PMx_perVeh="0.002690" NOx_perVeh="0.058567" fuel_perVeh="0.059037" electricity_perVeh="0"/>
        <edge id=":1105984386_0" sampledSeconds="10.68" CO_abs="212.950247" CO2_abs="16758.275440" HC_abs="1.342233" PMx_abs="0.176975" NOx_abs="6.076942" fuel_abs="7.203810" electricity_abs="0"
            CO_normed="9.222251" CO2_normed="725.751761" HC_normed="0.058128" PMx_normed="0.007664" NOx_normed="0.263175" fuel_normed="0.311976" electricity_normed="0"
            traveltime="1.02" CO_perVeh="20.428244" CO2_perVeh="1607.615634" HC_perVeh="0.128760" PMx_perVeh="0.016977" NOx_perVeh="0.582959" fuel_perVeh="0.691059" electricity_perVeh="0"/>
        <edge id=":1105984390_0" sampledSeconds="10.27" CO_abs="5.429821" CO2_abs="369.792384" HC_abs="0.033114" PMx_abs="0.004955" NOx_abs="0.141693" fuel_abs="0.158960" electricity_abs="0"
            CO_normed="0.181792" CO2_normed="12.380732" HC_normed="0.001109" PMx_normed="0.000166" NOx_normed="0.004744" fuel_normed="0.005322" electricity_normed="0"
            traveltime="1.06" CO_perVeh="0.562834" CO2_perVeh="38.331207" HC_perVeh="0.003432" PMx_perVeh="0.000514" NOx_perVeh="0.014687" fuel_perVeh="0.016477" electricity_perVeh="0"/>
        <edge id=":1105984390_1" sampledSeconds="2401.52" CO_abs="61410.673178" CO2_abs="7367957.460178" HC_abs="455.657687" PMx_abs="132.601052" NOx_abs="2799.849348" fuel_abs="3167.144896" electricity_abs="0"
            CO_normed="1966.786125" CO2_normed="235971.953229" HC_normed="14.593249" PMx_normed="4.246785" NOx_normed="89.670159" fuel_normed="101.433453" electricity_normed="0"
            traveltime="0.65" CO_perVeh="16.584478" CO2_perVeh="1989.779944" HC_perVeh="0.123054" PMx_perVeh="0.035810" NOx_perVeh="0.756123" fuel_perVeh="0.855315" electricity_perVeh="0"/>
        <edge id=":1105984395_0" sampledSeconds="4.09" CO_abs="49.986357" CO2_abs="4616.471415" HC_abs="0.330754" PMx_abs="0.049306" NOx_abs="1.668563" fuel_abs="1.984456" electricity_abs="0"
            CO_normed="22.847656" CO2_normed="2110.086831" HC_normed="0.151180" PMx_normed="0.022536" NOx_normed="0.762663" fuel_normed="0.907051" electricity_normed="0"
            traveltime="0.09" CO_perVeh="1.158666" CO2_perVeh="107.008156" HC_perVeh="0.007667" PMx_perVeh="0.001143" NOx_perVeh="0.038677" fuel_perVeh="0.045999" electricity_perVeh="0"/>
        <edge id=":1105984398_0" sampledSeconds="10.35" CO_abs="578.125690" CO2_abs="37266.660043" HC_abs="3.513184" PMx_abs="0.689746" NOx_abs="15.543972" fuel_abs="16.019289" electricity_abs="0"
            CO_normed="20.108236" CO2_normed="1296.200470" HC_normed="0.122195" PMx_normed="0.023991" NOx_normed="0.540647" fuel_normed="0.557179" electricity_normed="0"
            traveltime="1.21" CO_perVeh="67.568863" CO2_perVeh="4355.568176" HC_perVeh="0.410606" PMx_perVeh="0.080615" NOx_perVeh="1.816713" fuel_perVeh="1.872266" electricity_perVeh="0"/>
        <edge id=":1105984398_1" sampledSeconds="642.75" CO_abs="11598.032142" CO2_abs="1372205.515305" HC_abs="84.196561" PMx_abs="19.546805" NOx_abs="517.952877" fuel_abs="589.852737" electricity_abs="0"
            CO_normed="390.480970" CO2_normed="46199.228792" HC_normed="2.834718" PMx_normed="0.658099" NOx_normed="17.438367" fuel_normed="19.859082" electricity_normed="0"
            traveltime="0.95" CO_perVeh="17.154840" CO2_perVeh="2029.651791" HC_perVeh="0.124537" PMx_perVeh="0.028912" NOx_perVeh="0.766113" fuel_perVeh="0.872461" electricity_perVeh="0"/>
        <edge id=":1106006327_0" sampledSeconds="67.02" CO_abs="9027.588398" CO2_abs="294220.580868" HC_abs="48.031742" PMx_abs="6.131773" NOx_abs="128.760335" fuel_abs="126.475015" electricity_abs="0"
            CO_normed="428.465671" CO2_normed="13964.240838" HC_normed="2.279673" PMx_normed="0.291025" NOx_normed="6.111198" fuel_normed="6.002733" electricity_normed="0"
            traveltime="2.08" CO_perVeh="279.851766" CO2_perVeh="9120.724770" HC_perVeh="1.488966" PMx_perVeh="0.190083" NOx_perVeh="3.991521" fuel_perVeh="3.920677" electricity_perVeh="0"/>
        <edge id=":1106006327_1" sampledSeconds="682.85" CO_abs="92268.855571" CO2_abs="3082106.774755" HC_abs="492.764784" PMx_abs="64.257776" NOx_abs="1348.677275" fuel_abs="1324.886654" electricity_abs="0"
            CO_normed="3818.910055" CO2_normed="127565.129970" HC_normed="20.395012" PMx_normed="2.659561" NOx_normed="55.820322" fuel_normed="54.835653" electricity_normed="0"
            traveltime="2.29" CO_perVeh="309.724215" CO2_perVeh="10345.886429" HC_perVeh="1.654092" PMx_perVeh="0.215698" NOx_perVeh="4.527183" fuel_perVeh="4.447324" electricity_perVeh="0"/>
        <edge id=":1106006327_2" sampledSeconds="0.00" CO_abs="0" CO2_abs="0" HC_abs="0" PMx_abs="0" NOx_abs="0" fuel_abs="0" electricity_abs="0"
            CO_normed="0" CO2_normed="0" HC_normed="0" PMx_normed="0" NOx_normed="0" fuel_normed="0" electricity_normed="0"/>
        <edge id=":1106006327_3" sampledSeconds="0.00" CO_abs="0" CO2_abs="0" HC_abs="0" PMx_abs="0" NOx_abs="0" fuel_abs="0" electricity_abs="0"
            CO_normed="0" CO2_normed="0" HC_normed="0" PMx_normed="0" NOx_normed="0" fuel_normed="0" electricity_normed="0"/>
        <edge id=":1107381198_0" sampledSeconds="0.00" CO_abs="0" CO2_abs="0" HC_abs="0" PMx_abs="0" NOx_abs="0" fuel_abs="0" electricity_abs="0"
            CO_normed="0" CO2_normed="0" HC_normed="0" PMx_normed="0" NOx_normed="0" fuel_normed="0" electricity_normed="0"/>
        <edge id=":1107381198_1" sampledSeconds="104.00" CO_abs="4769.145477" CO2_abs="186614.157251" HC_abs="26.006480" PMx_abs="3.207396" NOx_abs="77.236871" fuel_abs="80.219048" electricity_abs="0"
            CO_normed="218.700229" CO2_normed="8557.625086" HC_normed="1.192587" PMx_normed="0.147083" NOx_normed="3.541876" fuel_normed="3.678631" electricity_normed="0"
            traveltime="1.56" CO_perVeh="71.403252" CO2_perVeh="2793.971757" HC_perVeh="0.389367" PMx_perVeh="0.048021" NOx_perVeh="1.156384" fuel_perVeh="1.201033" electricity_perVeh="0"/>
        <edge id=":1110338277_0" sampledSeconds="160.37" CO_abs="2640.292023" CO2_abs="325199.005711" HC_abs="19.460942" PMx_abs="4.454334" NOx_abs="121.588163" fuel_abs="139.789396" electricity_abs="0"
            CO_normed="3965.262437" CO2_normed="488392.719708" HC_normed="29.226973" PMx_normed="6.689640" NOx_normed="182.604413" fuel_normed="209.939520" electricity_normed="0"
            traveltime="0.02" CO_perVeh="0.357602" CO2_perVeh="44.045083" HC_perVeh="0.002636" PMx_perVeh="0.000603" NOx_perVeh="0.016468" fuel_perVeh="0.018933" electricity_perVeh="0"/>
        <edge id=":1110338293_0" sampledSeconds="6601.68" CO_abs="620790.196839" CO2_abs="10842379.607629" HC_abs="3080.296807" PMx_abs="258.737584" NOx_abs="4901.183214" fuel_abs="4660.957531" electricity_abs="0"
            CO_normed="870164.976296" CO2_normed="15197822.134277" HC_normed="4317.668694" PMx_normed="362.673870" NOx_normed="6870.015017" fuel_normed="6533.289379" electricity_normed="0"
            traveltime="0.44" CO_perVeh="41.489034" CO2_perVeh="724.624613" HC_perVeh="0.205864" PMx_perVeh="0.017292" NOx_perVeh="0.327559" fuel_perVeh="0.311504" electricity_perVeh="0"/>
        <edge id=":1110338295_0" sampledSeconds="0.00" CO_abs="0" CO2_abs="0" HC_abs="0" PMx_abs="0" NOx_abs="0" fuel_abs="0" electricity_abs="0"
            CO_normed="0" CO2_normed="0" HC_normed="0" PMx_normed="0" NOx_normed="0" fuel_normed="0" electricity_normed="0"/>
        <edge id=":1110673403_0" sampledSeconds="201.21" CO_abs="3154.549173" CO2_abs="391736.482922" HC_abs="23.336835" PMx_abs="5.350389" NOx_abs="146.259730" fuel_abs="168.391078" electricity_abs="0"
            CO_normed="4421.748636" CO2_normed="549099.146719" HC_normed="32.711368" PMx_normed="7.499669" NOx_normed="205.013055" fuel_normed="236.034684" electricity_normed="0"
            traveltime="0.02" CO_perVeh="0.364589" CO2_perVeh="45.275242" HC_perVeh="0.002697" PMx_perVeh="0.000618" NOx_perVeh="0.016904" fuel_perVeh="0.019462" electricity_perVeh="0"/>
        <edge id=":1110673412_0" sampledSeconds="957.00" CO_abs="168692.029974" CO2_abs="11523821.480639" HC_abs="1050.118744" PMx_abs="253.033861" NOx_abs="4951.281435" fuel_abs="4953.523393" electricity_abs="0"
            CO_normed="244610.204217" CO2_normed="16710002.992842" HC_normed="1522.714265" PMx_normed="366.909240" NOx_normed="7179.556516" fuel_normed="7182.807445" electricity_normed="0"
            traveltime="0.02" CO_perVeh="2.745443" CO2_perVeh="187.548823" HC_perVeh="0.017091" PMx_perVeh="0.004118" NOx_perVeh="0.080582" fuel_perVeh="0.080618" electricity_perVeh="0"/>
        <edge id=":1110673414_0" sampledSeconds="0.00" CO_abs="0" CO2_abs="0" HC_abs="0" PMx_abs="0" NOx_abs="0" fuel_abs="0" electricity_abs="0"
            CO_normed="0" CO2_normed="0" HC_normed="0" PMx_normed="0" NOx_normed="0" fuel_normed="0" electricity_normed="0"/>
        <edge id=":1110673414_1" sampledSeconds="54.69" CO_abs="3824.365603" CO2_abs="148330.672957" HC_abs="20.863978" PMx_abs="2.760633" NOx_abs="62.760214" fuel_abs="63.761992" electricity_abs="0"
            CO_normed="178.094151" CO2_normed="6907.505199" HC_normed="0.971600" PMx_normed="0.128558" NOx_normed="2.922636" fuel_normed="2.969287" electricity_normed="0"
            traveltime="1.56" CO_perVeh="108.960754" CO2_perVeh="4226.118435" HC_perVeh="0.594440" PMx_perVeh="0.078654" NOx_perVeh="1.788114" fuel_perVeh="1.816655" electricity_perVeh="0"/>
        <edge id=":1110673417_0" sampledSeconds="28.53" CO_abs="559.035468" CO2_abs="68455.985236" HC_abs="4.109115" PMx_abs="0.920957" NOx_abs="25.494583" fuel_abs="29.426381" electricity_abs="0"
            CO_normed="839.574685" CO2_normed="102809.062213" HC_normed="6.171181" PMx_normed="1.383118" NOx_normed="38.288459" fuel_normed="44.193340" electricity_normed="0"
            traveltime="0.02" CO_perVeh="0.426291" CO2_perVeh="52.200975" HC_perVeh="0.003133" PMx_perVeh="0.000702" NOx_perVeh="0.019441" fuel_perVeh="0.022439" electricity_perVeh="0"/>
        <edge id=":1110673446_0" sampledSeconds="1328.49" CO_abs="14358.063357" CO2_abs="1142108.791214" HC_abs="92.451891" PMx_abs="21.080523" NOx_abs="468.569238" fuel_abs="490.940010" electricity_abs="0"
            CO_normed="20125.775060" CO2_normed="1600900.069450" HC_normed="129.590315" PMx_normed="29.548683" NOx_normed="656.796035" fuel_normed="688.153267" electricity_normed="0"
            traveltime="0.02" CO_perVeh="0.246671" CO2_perVeh="19.621373" HC_perVeh="0.001588" PMx_perVeh="0.000362" NOx_perVeh="0.008050" fuel_perVeh="0.008434" electricity_perVeh="0"/>
        <edge id=":1110673451_0" sampledSeconds="36.31" CO_abs="346.600409" CO2_abs="23993.455248" HC_abs="2.128304" PMx_abs="0.349722" NOx_abs="9.367172" fuel_abs="10.313850" electricity_abs="0"
            CO_normed="539.812964" CO2_normed="37368.617760" HC_normed="3.314729" PMx_normed="0.544675" NOx_normed="14.588907" fuel_normed="16.063311" electricity_normed="0"
            traveltime="0.03" CO_perVeh="0.255368" CO2_perVeh="17.677872" HC_perVeh="0.001568" PMx_perVeh="0.000258" NOx_perVeh="0.006902" fuel_perVeh="0.007599" electricity_perVeh="0"/>
        <edge id=":1110673464_0" sampledSeconds="1033.29" CO_abs="4207.991598" CO2_abs="304070.937545" HC_abs="26.168660" PMx_abs="4.560750" NOx_abs="119.135424" fuel_abs="130.707923" electricity_abs="0"
            CO_normed="125.319361" CO2_normed="9055.620630" HC_normed="0.779336" PMx_normed="0.135825" NOx_normed="3.548005" fuel_normed="3.892649" electricity_normed="0"
            traveltime="1.23" CO_perVeh="4.990089" CO2_perVeh="360.585576" HC_perVeh="0.031032" PMx_perVeh="0.005408" NOx_perVeh="0.141278" fuel_perVeh="0.155001" electricity_perVeh="0"/>
        <edge id=":1110673464_1" sampledSeconds="2611.18" CO_abs="66973.631493" CO2_abs="7955222.691342" HC_abs="494.614135" PMx_abs="143.152304" NOx_abs="3029.534490" fuel_abs="3419.582972" electricity_abs="0"
            CO_normed="1954.419878" CO2_normed="232148.757882" HC_normed="14.433795" PMx_normed="4.177461" NOx_normed="88.407666" fuel_normed="99.790034" electricity_normed="0"
            traveltime="0.72" CO_perVeh="18.458042" CO2_perVeh="2192.472342" HC_perVeh="0.136316" PMx_perVeh="0.039453" NOx_perVeh="0.834945" fuel_perVeh="0.942443" electricity_perVeh="0"/>
        <edge id=":1110673479_0" sampledSeconds="134.15" CO_abs="6863.269941" CO2_abs="468717.379731" HC_abs="42.302495" PMx_abs="8.418362" NOx_abs="193.121339" fuel_abs="201.480985" electricity_abs="0"
            CO_normed="9620.282595" CO2_normed="657003.686108" HC_normed="59.295636" PMx_normed="11.800063" NOx_normed="270.699225" fuel_normed="282.416986" electricity_normed="0"
            traveltime="0.03" CO_perVeh="1.450957" CO2_perVeh="99.091092" HC_perVeh="0.008943" PMx_perVeh="0.001780" NOx_perVeh="0.040828" fuel_perVeh="0.042595" electricity_perVeh="0"/>
        <edge id=":1110673511_0" sampledSeconds="62.98" CO_abs="1124.807632" CO2_abs="124499.614551" HC_abs="7.995460" PMx_abs="1.743608" NOx_abs="47.059714" fuel_abs="53.517172" electricity_abs="0"
            CO_normed="1576.648941" CO2_normed="174511.783041" HC_normed="11.207280" PMx_normed="2.444025" NOx_normed="65.963856" fuel_normed="75.015310" electricity_normed="0"
            traveltime="0.02" CO_perVeh="0.431098" CO2_perVeh="47.716237" HC_perVeh="0.003064" PMx_perVeh="0.000668" NOx_perVeh="0.018036" fuel_perVeh="0.020511" electricity_perVeh="0"/>
        <edge id=":1110673517_0" sampledSeconds="181.95" CO_abs="8717.837315" CO2_abs="614612.390961" HC_abs="54.162665" PMx_abs="10.841376" NOx_abs="251.614444" fuel_abs="264.194929" electricity_abs="0"
            CO_normed="12219.839712" CO2_normed="861505.512385" HC_normed="75.920100" PMx_normed="15.196416" NOx_normed="352.689327" fuel_normed="370.323461" electricity_normed="0"
            traveltime="0.03" CO_perVeh="1.334778" CO2_perVeh="94.102598" HC_perVeh="0.008293" PMx_perVeh="0.001660" NOx_perVeh="0.038524" fuel_perVeh="0.040451" electricity_perVeh="0"/>
        <edge id=":1110673534_0" sampledSeconds="738.72" CO_abs="5483.600220" CO2_abs="459700.554591" HC_abs="35.436035" PMx_abs="6.129193" NOx_abs="174.283752" fuel_abs="197.607371" electricity_abs="0"
            CO_normed="148.961087" CO2_normed="12487.689022" HC_normed="0.962614" PMx_normed="0.166499" NOx_normed="4.734389" fuel_normed="5.367971" electricity_normed="0"
            traveltime="1.46" CO_perVeh="10.814567" CO2_perVeh="906.605555" HC_perVeh="0.069886" PMx_perVeh="0.012088" NOx_perVeh="0.343716" fuel_perVeh="0.389714" electricity_perVeh="0"/>
        <edge id=":1110673534_1" sampledSeconds="199.57" CO_abs="2688.587197" CO2_abs="367459.816062" HC_abs="20.541360" PMx_abs="4.786483" NOx_abs="135.165338" fuel_abs="157.955719" electricity_abs="0"
            CO_normed="71.016468" CO2_normed="9706.100719" HC_normed="0.542580" PMx_normed="0.126430" NOx_normed="3.570264" fuel_normed="4.172250" electricity_normed="0"
            traveltime="1.22" CO_perVeh="16.434488" CO2_perVeh="2246.166237" HC_perVeh="0.125563" PMx_perVeh="0.029258" NOx_perVeh="0.826223" fuel_perVeh="0.965534" electricity_perVeh="0"/>
        <edge id=":1110673549_0" sampledSeconds="651.49" CO_abs="1568.927005" CO2_abs="144411.145932" HC_abs="10.433971" PMx_abs="2.054028" NOx_abs="54.796913" fuel_abs="62.076475" electricity_abs="0"
            CO_normed="41.286110" CO2_normed="3800.160531" HC_normed="0.274569" PMx_normed="0.054051" NOx_normed="1.441974" fuel_normed="1.633534" electricity_normed="0"
            traveltime="1.29" CO_perVeh="3.117084" CO2_perVeh="286.910522" HC_perVeh="0.020730" PMx_perVeh="0.004081" NOx_perVeh="0.108868" fuel_perVeh="0.123331" electricity_perVeh="0"/>
        <edge id=":1110673549_1" sampledSeconds="3198.85" CO_abs="69128.895420" CO2_abs="8940322.247433" HC_abs="528.169601" PMx_abs="157.815898" NOx_abs="3350.782312" fuel_abs="3843.034803" electricity_abs="0"
            CO_normed="1759.655204" CO2_normed="227573.209062" HC_normed="13.444398" PMx_normed="4.017156" NOx_normed="85.293154" fuel_normed="97.823293" electricity_normed="0"
            traveltime="0.81" CO_perVeh="17.435645" CO2_perVeh="2254.922222" HC_perVeh="0.133215" PMx_perVeh="0.039804" NOx_perVeh="0.845132" fuel_perVeh="0.969288" electricity_perVeh="0"/>
        <edge id=":1110673556_0" sampledSeconds="466.86" CO_abs="57651.126011" CO2_abs="2767506.586089" HC_abs="328.247960" PMx_abs="55.969986" NOx_abs="1193.886015" fuel_abs="1189.633068" electricity_abs="0"
            CO_normed="1124.963737" CO2_normed="54003.187226" HC_normed="6.405201" PMx_normed="1.092159" NOx_normed="23.296656" fuel_normed="23.213667" electricity_normed="0"
            traveltime="2.75" CO_perVeh="339.848895" CO2_perVeh="16314.235661" HC_perVeh="1.934996" PMx_perVeh="0.329939" NOx_perVeh="7.037865" fuel_perVeh="7.012794" electricity_perVeh="0"/>
        <edge id=":1110673556_2" sampledSeconds="174.85" CO_abs="17368.576943" CO2_abs="747133.329465" HC_abs="96.643747" PMx_abs="14.475164" NOx_abs="319.015103" fuel_abs="321.163189" electricity_abs="0"
            CO_normed="354.375957" CO2_normed="15243.971304" HC_normed="1.971850" PMx_normed="0.295341" NOx_normed="6.508955" fuel_normed="6.552783" electricity_normed="0"
            traveltime="3.02" CO_perVeh="300.327514" CO2_perVeh="12919.002886" HC_perVeh="1.671108" PMx_perVeh="0.250296" NOx_perVeh="5.516227" fuel_perVeh="5.553370" electricity_perVeh="0"/>
        <edge id=":1110673556_3" sampledSeconds="350.88" CO_abs="35653.985677" CO2_abs="1228113.935765" HC_abs="191.035252" PMx_abs="24.155785" NOx_abs="528.416735" fuel_abs="527.923155" electricity_abs="0"
            CO_normed="1654.847171" CO2_normed="57001.786282" HC_normed="8.866727" PMx_normed="1.121169" NOx_normed="24.525980" fuel_normed="24.503071" electricity_normed="0"
            traveltime="1.84" CO_perVeh="187.125335" CO2_perVeh="6445.597253" HC_perVeh="1.002624" PMx_perVeh="0.126779" NOx_perVeh="2.773327" fuel_perVeh="2.770736" electricity_perVeh="0"/>
        <edge id=":1110673556_4" sampledSeconds="79.37" CO_abs="9171.288732" CO2_abs="360175.828807" HC_abs="50.228209" PMx_abs="7.141680" NOx_abs="155.091088" fuel_abs="154.825809" electricity_abs="0"
            CO_normed="260.056204" CO2_normed="10212.954966" HC_normed="1.424244" PMx_normed="0.202506" NOx_normed="4.397681" fuel_normed="4.390159" electricity_normed="0"
            traveltime="2.50" CO_perVeh="289.432695" CO2_perVeh="11366.631642" HC_perVeh="1.585130" PMx_perVeh="0.225381" NOx_perVeh="4.894452" fuel_perVeh="4.886080" electricity_perVeh="0"/>
        <edge id=":1110673556_5" sampledSeconds="22.14" CO_abs="1093.620120" CO2_abs="50860.433266" HC_abs="6.153753" PMx_abs="0.860582" NOx_abs="20.896112" fuel_abs="21.863013" electricity_abs="0"
            CO_normed="43.221802" CO2_normed="2010.094296" HC_normed="0.243207" PMx_normed="0.034012" NOx_normed="0.825851" fuel_normed="0.864065" electricity_normed="0"
            traveltime="1.53" CO_perVeh="75.608305" CO2_perVeh="3516.276868" HC_perVeh="0.425445" PMx_perVeh="0.059497" NOx_perVeh="1.444669" fuel_perVeh="1.511517" electricity_perVeh="0"/>
        <edge id=":1110673556_6" sampledSeconds="489.72" CO_abs="58780.066923" CO2_abs="2804701.413423" HC_abs="334.219934" PMx_abs="56.499948" NOx_abs="1208.388877" fuel_abs="1205.622191" electricity_abs="0"
            CO_normed="1175.913478" CO2_normed="56108.922070" HC_normed="6.686173" PMx_normed="1.130299" NOx_normed="24.174194" fuel_normed="24.118846" electricity_normed="0"
            traveltime="2.70" CO_perVeh="323.956467" CO2_perVeh="15457.640801" HC_perVeh="1.841997" PMx_perVeh="0.311390" NOx_perVeh="6.659832" fuel_perVeh="6.644584" electricity_perVeh="0"/>
        <edge id=":1110673561_0" sampledSeconds="120.83" CO_abs="11838.059990" CO2_abs="836958.249896" HC_abs="74.044758" PMx_abs="17.012110" NOx_abs="354.908448" fuel_abs="359.768435" electricity_abs="0"
            CO_normed="297.551812" CO2_normed="21037.099319" HC_normed="1.861129" PMx_normed="0.427603" NOx_normed="8.920689" fuel_normed="9.042846" electricity_normed="0"
            traveltime="1.22" CO_perVeh="119.743776" CO2_perVeh="8465.959910" HC_perVeh="0.748974" PMx_perVeh="0.172080" NOx_perVeh="3.589953" fuel_perVeh="3.639112" electricity_perVeh="0"/>
        <edge id=":1110673561_1" sampledSeconds="5258.75" CO_abs="484806.811916" CO2_abs="33571269.297961" HC_abs="3019.555050" PMx_abs="701.377296" NOx_abs="14352.593555" fuel_abs="14430.667811" electricity_abs="0"
            CO_normed="11880.355423" CO2_normed="822675.345046" HC_normed="73.995221" PMx_normed="17.187489" NOx_normed="351.715175" fuel_normed="353.628411" electricity_normed="0"
            traveltime="1.20" CO_perVeh="110.172257" CO2_perVeh="7629.064624" HC_perVeh="0.686193" PMx_perVeh="0.159388" NOx_perVeh="3.261624" fuel_perVeh="3.279367" electricity_perVeh="0"/>
        <edge id=":1110673562_0" sampledSeconds="300.46" CO_abs="6834.113498" CO2_abs="514824.034827" HC_abs="42.868724" PMx_abs="7.118564" NOx_abs="197.818457" fuel_abs="221.302913" electricity_abs="0"
            CO_normed="10643.793167" CO2_normed="801812.926569" HC_normed="66.765913" PMx_normed="11.086810" NOx_normed="308.092446" fuel_normed="344.668322" electricity_normed="0"
            traveltime="0.03" CO_perVeh="0.612620" CO2_perVeh="46.149565" HC_perVeh="0.003843" PMx_perVeh="0.000638" NOx_perVeh="0.017733" fuel_perVeh="0.019838" electricity_perVeh="0"/>
        <edge id=":1110673564_0" sampledSeconds="27.64" CO_abs="398.552789" CO2_abs="53352.312425" HC_abs="3.024667" PMx_abs="0.676507" NOx_abs="19.547329" fuel_abs="22.933977" electricity_abs="0"
            CO_normed="1675.960801" CO2_normed="224352.674605" HC_normed="12.719077" PMx_normed="2.844791" NOx_normed="82.198790" fuel_normed="96.440037" electricity_normed="0"
            traveltime="7.807634e-03" CO_perVeh="0.112570" CO2_perVeh="15.069146" HC_perVeh="0.000854" PMx_perVeh="0.000191" NOx_perVeh="0.005521" fuel_perVeh="0.006478" electricity_perVeh="0"/>
        <edge id=":1110673588_0" sampledSeconds="62.87" CO_abs="1181.984987" CO2_abs="125504.409643" HC_abs="8.279562" PMx_abs="1.802579" NOx_abs="47.783065" fuel_abs="53.949058" electricity_abs="0"
            CO_normed="1988.153698" CO2_normed="211104.251706" HC_normed="13.926608" PMx_normed="3.032022" NOx_normed="80.373337" fuel_normed="90.744823" electricity_normed="0"
            traveltime="0.02" CO_perVeh="0.381285" CO2_perVeh="40.485293" HC_perVeh="0.002671" PMx_perVeh="0.000581" NOx_perVeh="0.015414" fuel_perVeh="0.017403" electricity_perVeh="0"/>
        <edge id=":1110673601_0" sampledSeconds="28.68" CO_abs="506.647599" CO2_abs="55854.274507" HC_abs="3.593412" PMx_abs="0.791519" NOx_abs="21.130988" fuel_abs="24.009405" electricity_abs="0"
            CO_normed="760.897156" CO2_normed="83883.469982" HC_normed="5.396683" PMx_normed="1.188724" NOx_normed="31.735093" fuel_normed="36.057978" electricity_normed="0"
            traveltime="0.02" CO_perVeh="0.386343" CO2_perVeh="42.591565" HC_perVeh="0.002740" PMx_perVeh="0.000604" NOx_perVeh="0.016113" fuel_perVeh="0.018308" electricity_perVeh="0"/>
        <edge id=":1110673617_0" sampledSeconds="857.47" CO_abs="30280.400913" CO2_abs="3111375.894137" HC_abs="212.273603" PMx_abs="58.310902" NOx_abs="1216.936067" fuel_abs="1337.435057" electricity_abs="0"
            CO_normed="42444.201723" CO2_normed="4361232.417900" HC_normed="297.545057" PMx_normed="81.734707" NOx_normed="1705.785866" fuel_normed="1874.689952" electricity_normed="0"
            traveltime="0.02" CO_perVeh="0.535919" CO2_perVeh="55.066794" HC_perVeh="0.003757" PMx_perVeh="0.001032" NOx_perVeh="0.021538" fuel_perVeh="0.023671" electricity_perVeh="0"/>
        <edge id=":1110673621_0" sampledSeconds="30.59" CO_abs="833.097081" CO2_abs="82748.093798" HC_abs="5.709466" PMx_abs="1.237106" NOx_abs="31.894837" fuel_abs="35.569883" electricity_abs="0"
            CO_normed="1401.308020" CO2_normed="139186.140718" HC_normed="9.603587" PMx_normed="2.080871" NOx_normed="53.648599" fuel_normed="59.830196" electricity_normed="0"
            traveltime="0.02" CO_perVeh="0.540972" CO2_perVeh="53.732528" HC_perVeh="0.003707" PMx_perVeh="0.000803" NOx_perVeh="0.020711" fuel_perVeh="0.023097" electricity_perVeh="0"/>
        <edge id=":1110673630_0" sampledSeconds="285.29" CO_abs="1507.712119" CO2_abs="150168.275917" HC_abs="10.275344" PMx_abs="1.919669" NOx_abs="55.992852" fuel_abs="64.551420" electricity_abs="0"
            CO_normed="45.221859" CO2_normed="4504.101665" HC_normed="0.308196" PMx_normed="0.057578" NOx_normed="1.679433" fuel_normed="1.936136" electricity_normed="0"
            traveltime="1.28" CO_perVeh="6.784129" CO2_perVeh="675.699889" HC_perVeh="0.046235" PMx_perVeh="0.008638" NOx_perVeh="0.251946" fuel_perVeh="0.290457" electricity_perVeh="0"/>
        <edge id=":1110673630_1" sampledSeconds="337.63" CO_abs="1647.650837" CO2_abs="130516.471744" HC_abs="10.469751" PMx_abs="1.715430" NOx_abs="49.493110" fuel_abs="56.104049" electricity_abs="0"
            CO_normed="60.248376" CO2_normed="4772.495069" HC_normed="0.382839" PMx_normed="0.062727" NOx_normed="1.809776" fuel_normed="2.051513" electricity_normed="0"
            traveltime="1.08" CO_perVeh="5.252387" CO2_perVeh="416.060825" HC_perVeh="0.033376" PMx_perVeh="0.005468" NOx_perVeh="0.157774" fuel_perVeh="0.178849" electricity_perVeh="0"/>
        <edge id=":1110673650_0" sampledSeconds="200.19" CO_abs="3009.719832" CO2_abs="370531.884704" HC_abs="22.148650" PMx_abs="5.094961" NOx_abs="138.534260" fuel_abs="159.276074" electricity_abs="0"
            CO_normed="4218.740566" CO2_normed="519376.546718" HC_normed="31.045883" PMx_normed="7.141635" NOx_normed="194.184221" fuel_normed="223.258135" electricity_normed="0"
            traveltime="0.02" CO_perVeh="0.347852" CO2_perVeh="42.824618" HC_perVeh="0.002560" PMx_perVeh="0.000589" NOx_perVeh="0.016011" fuel_perVeh="0.018409" electricity_perVeh="0"/>
        <edge id=":1110673655_0" sampledSeconds="20.71" CO_abs="285.870387" CO2_abs="38520.444612" HC_abs="2.167938" PMx_abs="0.496330" NOx_abs="14.150048" fuel_abs="16.558350" electricity_abs="0"
            CO_normed="400.706067" CO2_normed="53994.315541" HC_normed="3.038811" PMx_normed="0.695709" NOx_normed="19.834199" fuel_normed="23.209928" electricity_normed="0"
            traveltime="0.02" CO_perVeh="0.326585" CO2_perVeh="44.006601" HC_perVeh="0.002477" PMx_perVeh="0.000567" NOx_perVeh="0.016165" fuel_perVeh="0.018917" electricity_perVeh="0"/>
        <edge id=":1110673663_0" sampledSeconds="129.02" CO_abs="1838.958727" CO2_abs="227907.373417" HC_abs="13.540360" PMx_abs="2.954293" NOx_abs="84.202052" fuel_abs="97.968045" electricity_abs="0"
            CO_normed="47.210227" CO2_normed="5850.897397" HC_normed="0.347612" PMx_normed="0.075843" NOx_normed="2.161657" fuel_normed="2.515061" electricity_normed="0"
            traveltime="1.30" CO_perVeh="18.513804" CO2_perVeh="2294.468243" HC_perVeh="0.136318" PMx_perVeh="0.029742" NOx_perVeh="0.847708" fuel_perVeh="0.986298" electricity_perVeh="0"/>
        <edge id=":1110673663_1" sampledSeconds="170.04" CO_abs="2902.957346" CO2_abs="362227.166386" HC_abs="21.522425" PMx_abs="4.860037" NOx_abs="134.777553" fuel_abs="155.706376" electricity_abs="0"
            CO_normed="74.616583" CO2_normed="9310.558279" HC_normed="0.553205" PMx_normed="0.124921" NOx_normed="3.464274" fuel_normed="4.002221" electricity_normed="0"
            traveltime="1.27" CO_perVeh="21.766737" CO2_perVeh="2716.024584" HC_perVeh="0.161378" PMx_perVeh="0.036441" NOx_perVeh="1.010579" fuel_perVeh="1.167506" electricity_perVeh="0"/>