<?xml version="1.0" encoding="UTF-8"?>

<!-- generated on Fri Oct  2 15:57:28 2020 by Eclipse SUMO Version 1.1.0
<configuration xmlns:xsi="http://www.w3.org/2001/XMLSchema-instance" xsi:noNamespaceSchemaLocation="http://sumo.dlr.de/xsd/sumoConfiguration.xsd">

    <input>
        <net-file value="../dataSets/Angeja_Estarreja/angeja_estarreja.net.xml"/>
        <route-files value="../results/angeja_estarreja/cost_co2-cost_hc/solution11/angeja_estarreja.rou.xml"/>
        <additional-files value="moreOutputInfo.xml"/>
    </input>

    <output>
        <emission-output.precision value="6"/>
        <tripinfo-output value="../results/angeja_estarreja/cost_co2-cost_hc/solution11/angeja_estarreja-tripinfo"/>
    </output>

    <processing>
        <collision.action value="warn"/>
        <time-to-teleport value="-1"/>
    </processing>

    <emissions>
        <device.emissions.probability value="1"/>
    </emissions>

    <gui_only>
        <quit-on-end value="true"/>
        <start value="true"/>
    </gui_only>

</configuration>
-->

<meandata xmlns:xsi="http://www.w3.org/2001/XMLSchema-instance" xsi:noNamespaceSchemaLocation="http://sumo.dlr.de/xsd/meandata_file.xsd">
    <interval begin="0.00" end="19078.00" id="emissions-detector">
        <edge id=":10_0" sampledSeconds="390.06" CO_abs="39661.472353" CO2_abs="2189572.149834" HC_abs="232.587800" PMx_abs="43.110448" NOx_abs="935.230169" fuel_abs="941.200581" electricity_abs="0"
            CO_normed="427.906299" CO2_normed="23623.220695" HC_normed="2.509382" PMx_normed="0.465117" NOx_normed="10.090167" fuel_normed="10.154582" electricity_normed="0"
            traveltime="1.89" CO_perVeh="192.534625" CO2_perVeh="10629.168027" HC_perVeh="1.129086" PMx_perVeh="0.209278" NOx_perVeh="4.540028" fuel_perVeh="4.569011" electricity_perVeh="0"/>
        <edge id=":10_1" sampledSeconds="0.00" CO_abs="0" CO2_abs="0" HC_abs="0" PMx_abs="0" NOx_abs="0" fuel_abs="0" electricity_abs="0"
            CO_normed="0" CO2_normed="0" HC_normed="0" PMx_normed="0" NOx_normed="0" fuel_normed="0" electricity_normed="0"/>
        <edge id=":100_0" sampledSeconds="0.00" CO_abs="0" CO2_abs="0" HC_abs="0" PMx_abs="0" NOx_abs="0" fuel_abs="0" electricity_abs="0"
            CO_normed="0" CO2_normed="0" HC_normed="0" PMx_normed="0" NOx_normed="0" fuel_normed="0" electricity_normed="0"/>
        <edge id=":100_1" sampledSeconds="911.63" CO_abs="22459.535034" CO2_abs="2852716.630806" HC_abs="171.608281" PMx_abs="51.502976" NOx_abs="1064.137044" fuel_abs="1226.252192" electricity_abs="0"
            CO_normed="143.372543" CO2_normed="18210.583457" HC_normed="1.095478" PMx_normed="0.328774" NOx_normed="6.793018" fuel_normed="7.827896" electricity_normed="0"
            traveltime="1.37" CO_perVeh="33.769906" CO2_perVeh="4289.312851" HC_perVeh="0.258028" PMx_perVeh="0.077439" NOx_perVeh="1.600025" fuel_perVeh="1.843779" electricity_perVeh="0"/>
        <edge id=":101_0" sampledSeconds="438.40" CO_abs="10761.845466" CO2_abs="1356895.916813" HC_abs="81.957106" PMx_abs="24.542937" NOx_abs="506.720520" fuel_abs="583.267357" electricity_abs="0"
            CO_normed="248.561781" CO2_normed="31339.649523" HC_normed="1.892929" PMx_normed="0.566858" NOx_normed="11.703509" fuel_normed="13.471479" electricity_normed="0"
            traveltime="0.38" CO_perVeh="9.296837" CO2_perVeh="1172.181863" HC_perVeh="0.070800" PMx_perVeh="0.021202" NOx_perVeh="0.437741" fuel_perVeh="0.503867" electricity_perVeh="0"/>
        <edge id=":102_0" sampledSeconds="341.40" CO_abs="8724.530169" CO2_abs="1039159.979840" HC_abs="65.010103" PMx_abs="19.106164" NOx_abs="391.827702" fuel_abs="446.687003" electricity_abs="0"
            CO_normed="203.248190" CO2_normed="24208.453713" HC_normed="1.514487" PMx_normed="0.445101" NOx_normed="9.128087" fuel_normed="10.406099" electricity_normed="0"
            traveltime="0.38" CO_perVeh="9.597747" CO2_perVeh="1143.167008" HC_perVeh="0.071517" PMx_perVeh="0.021018" NOx_perVeh="0.431045" fuel_perVeh="0.491395" electricity_perVeh="0"/>
        <edge id=":103_0" sampledSeconds="434.32" CO_abs="10580.596592" CO2_abs="1338257.597823" HC_abs="80.710789" PMx_abs="24.187176" NOx_abs="499.616492" fuel_abs="575.255607" electricity_abs="0"
            CO_normed="248.018418" CO2_normed="31369.925960" HC_normed="1.891931" PMx_normed="0.566969" NOx_normed="11.711447" fuel_normed="13.484493" electricity_normed="0"
            traveltime="0.37" CO_perVeh="9.090442" CO2_perVeh="1149.779464" HC_perVeh="0.069344" PMx_perVeh="0.020781" NOx_perVeh="0.429251" fuel_perVeh="0.494237" electricity_perVeh="0"/>
        <edge id=":104_0" sampledSeconds="341.07" CO_abs="8652.130819" CO2_abs="1070179.062025" HC_abs="65.394798" PMx_abs="19.459920" NOx_abs="400.971963" fuel_abs="460.020839" electricity_abs="0"
            CO_normed="201.810711" CO2_normed="24961.896865" HC_normed="1.525332" PMx_normed="0.453902" NOx_normed="9.352660" fuel_normed="10.729973" electricity_normed="0"
            traveltime="0.38" CO_perVeh="9.513755" CO2_perVeh="1176.753031" HC_perVeh="0.071907" PMx_perVeh="0.021398" NOx_perVeh="0.440903" fuel_perVeh="0.505832" electricity_perVeh="0"/>
        <edge id=":105_0" sampledSeconds="168.85" CO_abs="3582.050365" CO2_abs="463347.119504" HC_abs="27.558665" PMx_abs="8.319286" NOx_abs="172.381433" fuel_abs="199.171729" electricity_abs="0"
            CO_normed="3072.406417" CO2_normed="397423.407784" HC_normed="23.637696" PMx_normed="7.135642" NOx_normed="147.855492" fuel_normed="170.834141" electricity_normed="0"
            traveltime="0.01" CO_perVeh="0.216614" CO2_perVeh="28.019584" HC_perVeh="0.001667" PMx_perVeh="0.000503" NOx_perVeh="0.010424" fuel_perVeh="0.012044" electricity_perVeh="0"/>
        <edge id=":106_0" sampledSeconds="134.37" CO_abs="3485.481105" CO2_abs="420197.362624" HC_abs="26.095947" PMx_abs="7.701559" NOx_abs="158.061512" fuel_abs="180.623513" electricity_abs="0"
            CO_normed="2121.635117" CO2_normed="255776.879542" HC_normed="15.884773" PMx_normed="4.687989" NOx_normed="96.213075" fuel_normed="109.946712" electricity_normed="0"
            traveltime="0.01" CO_perVeh="0.372666" CO2_perVeh="44.927258" HC_perVeh="0.002790" PMx_perVeh="0.000823" NOx_perVeh="0.016900" fuel_perVeh="0.019312" electricity_perVeh="0"/>
        <edge id=":107_0" sampledSeconds="438.88" CO_abs="10224.061774" CO2_abs="1305713.300638" HC_abs="78.258661" PMx_abs="23.528722" NOx_abs="486.684192" fuel_abs="561.266356" electricity_abs="0"
            CO_normed="236.140819" CO2_normed="30157.506344" HC_normed="1.807507" PMx_normed="0.543433" NOx_normed="11.240738" fuel_normed="12.963331" electricity_normed="0"
            traveltime="0.38" CO_perVeh="8.832268" CO2_perVeh="1127.967546" HC_perVeh="0.067605" PMx_perVeh="0.020326" NOx_perVeh="0.420432" fuel_perVeh="0.484862" electricity_perVeh="0"/>
        <edge id=":108_0" sampledSeconds="94.05" CO_abs="8142.976228" CO2_abs="596440.976329" HC_abs="51.376113" PMx_abs="11.931064" NOx_abs="251.190986" fuel_abs="256.381617" electricity_abs="0"
            CO_normed="127.728319" CO2_normed="9355.596902" HC_normed="0.805871" PMx_normed="0.187147" NOx_normed="3.940108" fuel_normed="4.021526" electricity_normed="0"
            traveltime="0.85" CO_perVeh="74.017236" CO2_perVeh="5421.471408" HC_perVeh="0.466994" PMx_perVeh="0.108450" NOx_perVeh="2.283251" fuel_perVeh="2.330433" electricity_perVeh="0"/>
        <edge id=":108_1" sampledSeconds="402.78" CO_abs="9201.084125" CO2_abs="1151262.690196" HC_abs="69.836296" PMx_abs="20.864578" NOx_abs="430.435606" fuel_abs="494.875027" electricity_abs="0"
            CO_normed="134.591907" CO2_normed="16840.476529" HC_normed="1.021554" PMx_normed="0.305204" NOx_normed="6.296339" fuel_normed="7.238948" electricity_normed="0"
            traveltime="0.60" CO_perVeh="13.668438" CO2_perVeh="1710.229243" HC_perVeh="0.103744" PMx_perVeh="0.030995" NOx_perVeh="0.639423" fuel_perVeh="0.735149" electricity_perVeh="0"/>
        <edge id=":109_0" sampledSeconds="307.07" CO_abs="176.814966" CO2_abs="24891.924653" HC_abs="1.370583" PMx_abs="0.336813" NOx_abs="9.142887" fuel_abs="10.699991" electricity_abs="0"
            CO_normed="2.658551" CO2_normed="374.269475" HC_normed="0.020608" PMx_normed="0.005064" NOx_normed="0.137470" fuel_normed="0.160883" electricity_normed="0"
            traveltime="0.85" CO_perVeh="0.491446" CO2_perVeh="69.185581" HC_perVeh="0.003809" PMx_perVeh="0.000936" NOx_perVeh="0.025412" fuel_perVeh="0.029740" electricity_perVeh="0"/>
        <edge id=":109_1" sampledSeconds="524.29" CO_abs="13354.049054" CO2_abs="1611088.997778" HC_abs="100.028239" PMx_abs="29.521168" NOx_abs="606.079161" fuel_abs="692.533030" electricity_abs="0"
            CO_normed="130.971727" CO2_normed="15800.983532" HC_normed="0.981041" PMx_normed="0.289533" NOx_normed="5.944207" fuel_normed="6.792116" electricity_normed="0"
            traveltime="0.89" CO_perVeh="22.738765" CO2_perVeh="2743.300890" HC_perVeh="0.170324" PMx_perVeh="0.050268" NOx_perVeh="1.032008" fuel_perVeh="1.179219" electricity_perVeh="0"/>
        <edge id=":11_0" sampledSeconds="275.90" CO_abs="17032.617531" CO2_abs="1228718.472386" HC_abs="106.596513" PMx_abs="22.162550" NOx_abs="505.384200" fuel_abs="528.171216" electricity_abs="0"
            CO_normed="176.111689" CO2_normed="12704.546729" HC_normed="1.102173" PMx_normed="0.229154" NOx_normed="5.225507" fuel_normed="5.461117" electricity_normed="0"
            traveltime="1.59" CO_perVeh="97.934868" CO2_perVeh="7064.937656" HC_perVeh="0.612913" PMx_perVeh="0.127431" NOx_perVeh="2.905880" fuel_perVeh="3.036901" electricity_perVeh="0"/>
        <edge id=":11_1" sampledSeconds="50.98" CO_abs="1091.922746" CO2_abs="101189.313924" HC_abs="7.263379" PMx_abs="1.234207" NOx_abs="37.510706" fuel_abs="43.497436" electricity_abs="0"
            CO_normed="11.575548" CO2_normed="1072.714881" HC_normed="0.077000" PMx_normed="0.013084" NOx_normed="0.397654" fuel_normed="0.461119" electricity_normed="0"
            traveltime="1.68" CO_perVeh="35.913202" CO2_perVeh="3328.103821" HC_perVeh="0.238892" PMx_perVeh="0.040593" NOx_perVeh="1.233722" fuel_perVeh="1.430625" electricity_perVeh="0"/>
        <edge id=":110_0" sampledSeconds="94.50" CO_abs="0" CO2_abs="0" HC_abs="0" PMx_abs="0" NOx_abs="0" fuel_abs="0" electricity_abs="0"
            CO_normed="0" CO2_normed="0" HC_normed="0" PMx_normed="0" NOx_normed="0" fuel_normed="0" electricity_normed="0"
            traveltime="0.93" CO_perVeh="0" CO2_perVeh="0" HC_perVeh="0" PMx_perVeh="0" NOx_perVeh="0" fuel_perVeh="0" electricity_perVeh="0"/>
        <edge id=":110_1" sampledSeconds="443.88" CO_abs="10702.545789" CO2_abs="1320220.462743" HC_abs="80.851580" PMx_abs="24.033735" NOx_abs="494.865987" fuel_abs="567.502144" electricity_abs="0"
            CO_normed="137.385031" CO2_normed="16947.232257" HC_normed="1.037865" PMx_normed="0.308513" NOx_normed="6.352431" fuel_normed="7.284837" electricity_normed="0"
            traveltime="0.68" CO_perVeh="16.440711" CO2_perVeh="2028.056036" HC_perVeh="0.124200" PMx_perVeh="0.036919" NOx_perVeh="0.760188" fuel_perVeh="0.871768" electricity_perVeh="0"/>
        <edge id=":111_0" sampledSeconds="340.94" CO_abs="7507.144933" CO2_abs="984931.789305" HC_abs="58.087628" PMx_abs="17.622707" NOx_abs="365.424519" fuel_abs="423.377180" electricity_abs="0"
            CO_normed="173.389343" CO2_normed="22748.551822" HC_normed="1.341625" PMx_normed="0.407024" NOx_normed="8.440055" fuel_normed="9.778563" electricity_normed="0"
            traveltime="0.38" CO_perVeh="8.343050" CO2_perVeh="1094.601866" HC_perVeh="0.064556" PMx_perVeh="0.019585" NOx_perVeh="0.406114" fuel_perVeh="0.470519" electricity_perVeh="0"/>
        <edge id=":114_0" sampledSeconds="107.81" CO_abs="10336.258609" CO2_abs="738968.192125" HC_abs="64.851235" PMx_abs="15.066550" NOx_abs="313.296012" fuel_abs="317.647047" electricity_abs="0"
            CO_normed="137.355065" CO2_normed="9819.899817" HC_normed="0.861786" PMx_normed="0.200214" NOx_normed="4.163285" fuel_normed="4.221105" electricity_normed="0"
            traveltime="1.00" CO_perVeh="95.621924" CO2_perVeh="6836.280223" HC_perVeh="0.599946" PMx_perVeh="0.139382" NOx_perVeh="2.898338" fuel_perVeh="2.938590" electricity_perVeh="0"/>
        <edge id=":114_1" sampledSeconds="416.33" CO_abs="10804.548937" CO2_abs="1292679.738689" HC_abs="80.659351" PMx_abs="23.728833" NOx_abs="487.285180" fuel_abs="555.663477" electricity_abs="0"
            CO_normed="142.673747" CO2_normed="17069.797509" HC_normed="1.065104" PMx_normed="0.313339" NOx_normed="6.434586" fuel_normed="7.337520" electricity_normed="0"
            traveltime="0.66" CO_perVeh="17.216755" CO2_perVeh="2059.849979" HC_perVeh="0.128528" PMx_perVeh="0.037811" NOx_perVeh="0.776476" fuel_perVeh="0.885435" electricity_perVeh="0"/>
        <edge id=":115_0" sampledSeconds="79.94" CO_abs="110.445082" CO2_abs="11976.669306" HC_abs="0.782634" PMx_abs="0.182527" NOx_abs="4.614465" fuel_abs="5.148249" electricity_abs="0"
            CO_normed="2.495914" CO2_normed="270.656985" HC_normed="0.017686" PMx_normed="0.004125" NOx_normed="0.104281" fuel_normed="0.116344" electricity_normed="0"
            traveltime="0.63" CO_perVeh="0.869114" CO2_perVeh="94.246714" HC_perVeh="0.006159" PMx_perVeh="0.001436" NOx_perVeh="0.036312" fuel_perVeh="0.040513" electricity_perVeh="0"/>
        <edge id=":115_1" sampledSeconds="72.10" CO_abs="1111.392513" CO2_abs="173046.832921" HC_abs="8.987269" PMx_abs="2.548296" NOx_abs="64.195263" fuel_abs="74.385197" electricity_abs="0"
            CO_normed="22.429806" CO2_normed="3492.381675" HC_normed="0.181378" PMx_normed="0.051429" NOx_normed="1.295570" fuel_normed="1.501221" electricity_normed="0"
            traveltime="0.59" CO_perVeh="9.098608" CO2_perVeh="1416.677951" HC_perVeh="0.073576" PMx_perVeh="0.020862" NOx_perVeh="0.525546" fuel_perVeh="0.608967" electricity_perVeh="0"/>
        <edge id=":116_0" sampledSeconds="74.86" CO_abs="68.371604" CO2_abs="12204.641420" HC_abs="0.589251" PMx_abs="0.137790" NOx_abs="4.336241" fuel_abs="5.246286" electricity_abs="0"
            CO_normed="1.724820" CO2_normed="307.888227" HC_normed="0.014865" PMx_normed="0.003476" NOx_normed="0.109391" fuel_normed="0.132349" electricity_normed="0"
            traveltime="0.57" CO_perVeh="0.516257" CO2_perVeh="92.154203" HC_perVeh="0.004449" PMx_perVeh="0.001040" NOx_perVeh="0.032742" fuel_perVeh="0.039613" electricity_perVeh="0"/>
        <edge id=":117_0" sampledSeconds="238.44" CO_abs="13036.196287" CO2_abs="1106580.018134" HC_abs="85.605843" PMx_abs="19.995490" NOx_abs="449.418343" fuel_abs="475.667928" electricity_abs="0"
            CO_normed="294.600902" CO2_normed="25007.253960" HC_normed="1.934580" PMx_normed="0.451872" NOx_normed="10.156264" fuel_normed="10.749470" electricity_normed="0"
            traveltime="0.60" CO_perVeh="33.071851" CO2_perVeh="2807.310414" HC_perVeh="0.217176" PMx_perVeh="0.050727" NOx_perVeh="1.140141" fuel_perVeh="1.206734" electricity_perVeh="0"/>
        <edge id=":117_1" sampledSeconds="76.08" CO_abs="4412.510428" CO2_abs="367806.916124" HC_abs="28.816267" PMx_abs="6.708459" NOx_abs="149.877999" fuel_abs="158.103262" electricity_abs="0"
            CO_normed="93.977022" CO2_normed="7833.499603" HC_normed="0.613725" PMx_normed="0.142876" NOx_normed="3.192080" fuel_normed="3.367261" electricity_normed="0"
            traveltime="0.64" CO_perVeh="37.305307" CO2_perVeh="3109.601684" HC_perVeh="0.243625" PMx_perVeh="0.056716" NOx_perVeh="1.267135" fuel_perVeh="1.336675" electricity_perVeh="0"/>
        <edge id=":118_0" sampledSeconds="898.02" CO_abs="13302.836927" CO2_abs="2079548.428763" HC_abs="107.400813" PMx_abs="30.744935" NOx_abs="770.338461" fuel_abs="893.905984" electricity_abs="0"
            CO_normed="40.363923" CO2_normed="6309.836968" HC_normed="0.325879" PMx_normed="0.093287" NOx_normed="2.337387" fuel_normed="2.712320" electricity_normed="0"
            traveltime="3.92" CO_perVeh="58.022911" CO2_perVeh="9070.354980" HC_perVeh="0.468450" PMx_perVeh="0.134100" NOx_perVeh="3.359981" fuel_perVeh="3.898945" electricity_perVeh="0"/>
        <edge id=":118_4" sampledSeconds="283.31" CO_abs="3944.011331" CO2_abs="611635.898983" HC_abs="31.518637" PMx_abs="9.000011" NOx_abs="226.109110" fuel_abs="262.915320" electricity_abs="0"
            CO_normed="11.990190" CO2_normed="1859.434474" HC_normed="0.095820" PMx_normed="0.027361" NOx_normed="0.687394" fuel_normed="0.799289" electricity_normed="0"
            traveltime="3.93" CO_perVeh="54.681432" CO2_perVeh="8479.977359" HC_perVeh="0.436988" PMx_perVeh="0.124780" NOx_perVeh="3.134872" fuel_perVeh="3.645169" electricity_perVeh="0"/>
        <edge id=":118_5" sampledSeconds="238.16" CO_abs="3879.101659" CO2_abs="557553.931205" HC_abs="30.135717" PMx_abs="8.549663" NOx_abs="208.982797" fuel_abs="239.667526" electricity_abs="0"
            CO_normed="11.909904" CO2_normed="1711.843203" HC_normed="0.092525" PMx_normed="0.026250" NOx_normed="0.641634" fuel_normed="0.735845" electricity_normed="0"
            traveltime="3.81" CO_perVeh="62.082920" CO2_perVeh="8923.348544" HC_perVeh="0.482306" PMx_perVeh="0.136833" NOx_perVeh="3.344656" fuel_perVeh="3.835749" electricity_perVeh="0"/>
        <edge id=":119_0" sampledSeconds="139.02" CO_abs="2359.978299" CO2_abs="340744.887203" HC_abs="18.570959" PMx_abs="5.205454" NOx_abs="127.766483" fuel_abs="146.471046" electricity_abs="0"
            CO_normed="50.605182" CO2_normed="7306.616819" HC_normed="0.398218" PMx_normed="0.111621" NOx_normed="2.739706" fuel_normed="3.140789" electricity_normed="0"
            traveltime="0.56" CO_perVeh="9.460985" CO2_perVeh="1366.022052" HC_perVeh="0.074450" PMx_perVeh="0.020868" NOx_perVeh="0.512207" fuel_perVeh="0.587192" electricity_perVeh="0"/>
        <edge id=":12_0" sampledSeconds="595.14" CO_abs="54217.600742" CO2_abs="3092977.433712" HC_abs="320.300798" PMx_abs="60.394421" NOx_abs="1316.331189" fuel_abs="1329.534082" electricity_abs="0"
            CO_normed="507.984528" CO2_normed="28979.236656" HC_normed="3.001015" PMx_normed="0.565857" NOx_normed="12.333188" fuel_normed="12.456891" electricity_normed="0"
            traveltime="2.11" CO_perVeh="191.872429" CO2_perVeh="10945.838365" HC_perVeh="1.133523" PMx_perVeh="0.213732" NOx_perVeh="4.658407" fuel_perVeh="4.705131" electricity_perVeh="0"/>
        <edge id=":12_1" sampledSeconds="55.74" CO_abs="1053.281495" CO2_abs="97256.053502" HC_abs="7.002210" PMx_abs="1.207353" NOx_abs="36.196464" fuel_abs="41.806647" electricity_abs="0"
            CO_normed="9.858789" CO2_normed="910.323536" HC_normed="0.065541" PMx_normed="0.011301" NOx_normed="0.338801" fuel_normed="0.391313" electricity_normed="0"
            traveltime="1.88" CO_perVeh="35.518123" CO2_perVeh="3279.609994" HC_perVeh="0.236124" PMx_perVeh="0.040714" NOx_perVeh="1.220595" fuel_perVeh="1.409779" electricity_perVeh="0"/>
        <edge id=":120_0" sampledSeconds="39.09" CO_abs="569.857996" CO2_abs="89420.462184" HC_abs="4.597917" PMx_abs="1.316592" NOx_abs="33.086815" fuel_abs="38.437911" electricity_abs="0"
            CO_normed="448.048535" CO2_normed="70306.475142" HC_normed="3.615093" PMx_normed="1.035165" NOx_normed="26.014374" fuel_normed="30.221651" electricity_normed="0"
            traveltime="0.02" CO_perVeh="0.219264" CO2_perVeh="34.406270" HC_perVeh="0.001769" PMx_perVeh="0.000507" NOx_perVeh="0.012731" fuel_perVeh="0.014790" electricity_perVeh="0"/>
        <edge id=":121_0" sampledSeconds="375.29" CO_abs="53466.642280" CO2_abs="1429823.932744" HC_abs="277.031255" PMx_abs="30.878745" NOx_abs="632.419386" fuel_abs="614.637299" electricity_abs="0"
            CO_normed="30573.040216" CO2_normed="817595.097301" HC_normed="158.410690" PMx_normed="17.656937" NOx_normed="361.627035" fuel_normed="351.458967" electricity_normed="0"
            traveltime="0.12" CO_perVeh="16.421227" CO2_perVeh="439.142290" HC_perVeh="0.085085" PMx_perVeh="0.009484" NOx_perVeh="0.194235" fuel_perVeh="0.188774" electricity_perVeh="0"/>
        <edge id=":122_0" sampledSeconds="134.92" CO_abs="1057.907554" CO2_abs="109177.865396" HC_abs="7.394924" PMx_abs="1.936567" NOx_abs="43.191751" fuel_abs="46.930501" electricity_abs="0"
            CO_normed="23.293597" CO2_normed="2403.938945" HC_normed="0.162826" PMx_normed="0.042640" NOx_normed="0.951020" fuel_normed="1.033342" electricity_normed="0"
            traveltime="0.54" CO_perVeh="4.221456" CO2_perVeh="435.661467" HC_perVeh="0.029509" PMx_perVeh="0.007728" NOx_perVeh="0.172352" fuel_perVeh="0.187271" electricity_perVeh="0"/>
        <edge id=":123_0" sampledSeconds="313.55" CO_abs="40410.334304" CO2_abs="2467395.919849" HC_abs="243.266151" PMx_abs="50.730946" NOx_abs="1059.464895" fuel_abs="1060.618693" electricity_abs="0"
            CO_normed="154.110564" CO2_normed="9409.765653" HC_normed="0.927730" PMx_normed="0.193470" NOx_normed="4.040420" fuel_normed="4.044820" electricity_normed="0"
            traveltime="4.27" CO_perVeh="550.310409" CO2_perVeh="33601.148815" HC_perVeh="3.312813" PMx_perVeh="0.690857" NOx_perVeh="14.427858" fuel_perVeh="14.443570" electricity_perVeh="0"/>
        <edge id=":123_1" sampledSeconds="0.00" CO_abs="0" CO2_abs="0" HC_abs="0" PMx_abs="0" NOx_abs="0" fuel_abs="0" electricity_abs="0"
            CO_normed="0" CO2_normed="0" HC_normed="0" PMx_normed="0" NOx_normed="0" fuel_normed="0" electricity_normed="0"/>
        <edge id=":123_2" sampledSeconds="258.36" CO_abs="34622.906340" CO2_abs="2154693.127430" HC_abs="209.490759" PMx_abs="44.562816" NOx_abs="925.767345" fuel_abs="926.201461" electricity_abs="0"
            CO_normed="133.305625" CO2_normed="8296.031268" HC_normed="0.806584" PMx_normed="0.171576" NOx_normed="3.564403" fuel_normed="3.566075" electricity_normed="0"
            traveltime="4.06" CO_perVeh="544.203048" CO2_perVeh="33867.479402" HC_perVeh="3.292777" PMx_perVeh="0.700439" NOx_perVeh="14.551217" fuel_perVeh="14.558040" electricity_perVeh="0"/>
        <edge id=":123_3" sampledSeconds="468.60" CO_abs="23161.422694" CO2_abs="2157150.227505" HC_abs="156.762285" PMx_abs="40.452726" NOx_abs="867.326179" fuel_abs="927.257446" electricity_abs="0"
            CO_normed="91.242962" CO2_normed="8497.957095" HC_normed="0.617555" PMx_normed="0.159361" NOx_normed="3.416777" fuel_normed="3.652872" electricity_normed="0"
            traveltime="2.80" CO_perVeh="138.630498" CO2_perVeh="12911.417991" HC_perVeh="0.938286" PMx_perVeh="0.242126" NOx_perVeh="5.191299" fuel_perVeh="5.550011" electricity_perVeh="0"/>
        <edge id=":123_5" sampledSeconds="0.00" CO_abs="0" CO2_abs="0" HC_abs="0" PMx_abs="0" NOx_abs="0" fuel_abs="0" electricity_abs="0"
            CO_normed="0" CO2_normed="0" HC_normed="0" PMx_normed="0" NOx_normed="0" fuel_normed="0" electricity_normed="0"/>
        <edge id=":123_6" sampledSeconds="194.55" CO_abs="9238.623364" CO2_abs="863849.506259" HC_abs="62.415782" PMx_abs="16.143140" NOx_abs="347.142590" fuel_abs="371.328284" electricity_abs="0"
            CO_normed="35.154653" CO2_normed="3287.105457" HC_normed="0.237503" PMx_normed="0.061428" NOx_normed="1.320941" fuel_normed="1.412972" electricity_normed="0"
            traveltime="2.91" CO_perVeh="138.213957" CO2_perVeh="12923.576816" HC_perVeh="0.933768" PMx_perVeh="0.241509" NOx_perVeh="5.193409" fuel_perVeh="5.555238" electricity_perVeh="0"/>
        <edge id=":124_0" sampledSeconds="118.92" CO_abs="3905.831962" CO2_abs="348462.442522" HC_abs="25.970739" PMx_abs="6.635270" NOx_abs="141.125913" fuel_abs="149.787546" electricity_abs="0"
            CO_normed="91.442517" CO2_normed="8158.129426" HC_normed="0.608021" PMx_normed="0.155344" NOx_normed="3.304010" fuel_normed="3.506795" electricity_normed="0"
            traveltime="0.46" CO_perVeh="15.182185" CO2_perVeh="1354.492830" HC_perVeh="0.100950" PMx_perVeh="0.025792" NOx_perVeh="0.548564" fuel_perVeh="0.582232" electricity_perVeh="0"/>
        <edge id=":125_0" sampledSeconds="141.45" CO_abs="5526.999639" CO2_abs="554704.974218" HC_abs="38.209917" PMx_abs="10.349691" NOx_abs="219.000881" fuel_abs="238.441643" electricity_abs="0"
            CO_normed="347.646481" CO2_normed="34890.762609" HC_normed="2.403391" PMx_normed="0.650992" NOx_normed="13.775084" fuel_normed="14.997902" electricity_normed="0"
            traveltime="0.16" CO_perVeh="6.329834" CO2_perVeh="635.279604" HC_perVeh="0.043760" PMx_perVeh="0.011853" NOx_perVeh="0.250812" fuel_perVeh="0.273077" electricity_perVeh="0"/>
        <edge id=":125_3" sampledSeconds="0.00" CO_abs="0" CO2_abs="0" HC_abs="0" PMx_abs="0" NOx_abs="0" fuel_abs="0" electricity_abs="0"
            CO_normed="0" CO2_normed="0" HC_normed="0" PMx_normed="0" NOx_normed="0" fuel_normed="0" electricity_normed="0"/>
        <edge id=":126_0" sampledSeconds="27.66" CO_abs="175.272747" CO2_abs="13435.440319" HC_abs="1.105242" PMx_abs="0.186984" NOx_abs="5.171100" fuel_abs="5.775371" electricity_abs="0"
            CO_normed="5.772041" CO2_normed="442.452790" HC_normed="0.036398" PMx_normed="0.006158" NOx_normed="0.170293" fuel_normed="0.190193" electricity_normed="0"
            traveltime="0.57" CO_perVeh="3.595418" CO2_perVeh="275.604852" HC_perVeh="0.022672" PMx_perVeh="0.003836" NOx_perVeh="0.106076" fuel_perVeh="0.118472" electricity_perVeh="0"/>
        <edge id=":126_1" sampledSeconds="80.91" CO_abs="1209.472169" CO2_abs="185496.662215" HC_abs="9.739973" PMx_abs="2.992780" NOx_abs="68.626430" fuel_abs="79.736630" electricity_abs="0"
            CO_normed="35.438854" CO2_normed="5435.254551" HC_normed="0.285392" PMx_normed="0.087692" NOx_normed="2.010829" fuel_normed="2.336370" electricity_normed="0"
            traveltime="0.35" CO_perVeh="5.233594" CO2_perVeh="802.675929" HC_perVeh="0.042147" PMx_perVeh="0.012950" NOx_perVeh="0.296958" fuel_perVeh="0.345034" electricity_perVeh="0"/>
        <edge id=":127_0" sampledSeconds="235.16" CO_abs="4519.392841" CO2_abs="635004.850736" HC_abs="35.258676" PMx_abs="10.544036" NOx_abs="237.499521" fuel_abs="272.959712" electricity_abs="0"
            CO_normed="104.510419" CO2_normed="14684.411304" HC_normed="0.815353" PMx_normed="0.243830" NOx_normed="5.492148" fuel_normed="6.312161" electricity_normed="0"
            traveltime="0.44" CO_perVeh="8.451393" CO2_perVeh="1187.477074" HC_perVeh="0.065935" PMx_perVeh="0.019718" NOx_perVeh="0.444131" fuel_perVeh="0.510442" electricity_perVeh="0"/>
        <edge id=":128_0" sampledSeconds="229.28" CO_abs="455.850557" CO2_abs="57508.655792" HC_abs="3.407956" PMx_abs="0.912051" NOx_abs="21.854732" fuel_abs="24.720401" electricity_abs="0"
            CO_normed="7.044927" CO2_normed="888.765543" HC_normed="0.052668" PMx_normed="0.014095" NOx_normed="0.337753" fuel_normed="0.382041" electricity_normed="0"
            traveltime="0.75" CO_perVeh="1.498539" CO2_perVeh="189.050973" HC_perVeh="0.011203" PMx_perVeh="0.002998" NOx_perVeh="0.071844" fuel_perVeh="0.081265" electricity_perVeh="0"/>
        <edge id=":128_1" sampledSeconds="142.71" CO_abs="165.886377" CO2_abs="22306.117068" HC_abs="1.269159" PMx_abs="0.300716" NOx_abs="8.284151" fuel_abs="9.588461" electricity_abs="0"
            CO_normed="2.648274" CO2_normed="356.103430" HC_normed="0.020261" PMx_normed="0.004801" NOx_normed="0.132251" fuel_normed="0.153074" electricity_normed="0"
            traveltime="0.86" CO_perVeh="0.994395" CO2_perVeh="133.712492" HC_perVeh="0.007608" PMx_perVeh="0.001803" NOx_perVeh="0.049659" fuel_perVeh="0.057477" electricity_perVeh="0"/>
        <edge id=":129_0" sampledSeconds="104.66" CO_abs="5618.098284" CO2_abs="528331.255026" HC_abs="38.078433" PMx_abs="9.705493" NOx_abs="212.123190" fuel_abs="227.104917" electricity_abs="0"
            CO_normed="130.880206" CO2_normed="12308.097868" HC_normed="0.887082" PMx_normed="0.226101" NOx_normed="4.941659" fuel_normed="5.290676" electricity_normed="0"
            traveltime="0.50" CO_perVeh="26.626837" CO2_perVeh="2504.012853" HC_perVeh="0.180472" PMx_perVeh="0.045999" NOx_perVeh="1.005353" fuel_perVeh="1.076358" electricity_perVeh="0"/>
        <edge id=":13_0" sampledSeconds="59.68" CO_abs="4980.015268" CO2_abs="360660.252435" HC_abs="31.282995" PMx_abs="6.902176" NOx_abs="150.524924" fuel_abs="155.031158" electricity_abs="0"
            CO_normed="35.208843" CO2_normed="2549.877782" HC_normed="0.221172" PMx_normed="0.048799" NOx_normed="1.064215" fuel_normed="1.096074" electricity_normed="0"
            traveltime="2.11" CO_perVeh="176.151144" CO2_perVeh="12757.132816" HC_perVeh="1.106530" PMx_perVeh="0.244141" NOx_perVeh="5.324308" fuel_perVeh="5.483701" electricity_perVeh="0"/>
        <edge id=":13_1" sampledSeconds="540.13" CO_abs="11964.369591" CO2_abs="917958.853923" HC_abs="75.470387" PMx_abs="12.782272" NOx_abs="353.076792" fuel_abs="394.594657" electricity_abs="0"
            CO_normed="119.200891" CO2_normed="9145.614613" HC_normed="0.751911" PMx_normed="0.127350" NOx_normed="3.517700" fuel_normed="3.931343" electricity_normed="0"
            traveltime="1.89" CO_perVeh="41.770459" CO2_perVeh="3204.812653" HC_perVeh="0.263485" PMx_perVeh="0.044626" NOx_perVeh="1.232675" fuel_perVeh="1.377624" electricity_perVeh="0"/>
        <edge id=":132_0" sampledSeconds="41.19" CO_abs="533.229964" CO2_abs="79520.698033" HC_abs="4.251721" PMx_abs="1.181200" NOx_abs="29.678142" fuel_abs="34.182434" electricity_abs="0"
            CO_normed="1006.199743" CO2_normed="150054.781904" HC_normed="8.022955" PMx_normed="2.228912" NOx_normed="56.002365" fuel_normed="64.501920" electricity_normed="0"
            traveltime="6.386289e-03" CO_perVeh="0.082665" CO2_perVeh="12.327835" HC_perVeh="0.000659" PMx_perVeh="0.000183" NOx_perVeh="0.004601" fuel_perVeh="0.005299" electricity_perVeh="0"/>
        <edge id=":133_0" sampledSeconds="44.56" CO_abs="755.979222" CO2_abs="99833.283286" HC_abs="5.711430" PMx_abs="1.361124" NOx_abs="37.158533" fuel_abs="42.914109" electricity_abs="0"