<?xml version="1.0" encoding="UTF-8"?>

<!-- generated on Mon Nov  9 21:20:17 2020 by Eclipse SUMO sumo Version 1.7.0
<configuration xmlns:xsi="http://www.w3.org/2001/XMLSchema-instance" xsi:noNamespaceSchemaLocation="http://sumo.dlr.de/xsd/sumoConfiguration.xsd">

    <input>
        <net-file value="../dataSets/Porto/6AM7AM_Routing_SaoBento/Porto.net.xml"/>
        <route-files value="../results/Porto/6AM7AM_Routing_SaoBento/length-ttime/solution8/Porto.rou.xml"/>
        <additional-files value="moreOutputInfo.xml"/>
    </input>

    <output>
        <emission-output.precision value="6"/>
        <tripinfo-output value="../results/Porto/6AM7AM_Routing_SaoBento/length-ttime/solution8/Porto-tripinfo"/>
    </output>

    <processing>
        <collision.action value="warn"/>
        <time-to-teleport value="-1"/>
    </processing>

    <emissions>
        <device.emissions.probability value="1"/>
    </emissions>

    <gui_only>
        <quit-on-end value="true"/>
        <start value="true"/>
    </gui_only>

</configuration>
-->

<meandata xmlns:xsi="http://www.w3.org/2001/XMLSchema-instance" xsi:noNamespaceSchemaLocation="http://sumo.dlr.de/xsd/meandata_file.xsd">
    <interval begin="0.00" end="4700.00" id="emissions-detector">
        <edge id=":1092997347_0" sampledSeconds="273.80" CO_abs="35561.053356" CO2_abs="1387513.095285" HC_abs="194.721939" PMx_abs="28.453367" NOx_abs="603.312423" fuel_abs="596.437579" electricity_abs="0"
            CO_normed="61905.121896" CO2_normed="2415399.972449" HC_normed="338.974362" PMx_normed="49.531974" NOx_normed="1050.253734" fuel_normed="1038.285921" electricity_normed="0"
            traveltime="0.08" CO_perVeh="9.991205" CO2_perVeh="389.834560" HC_perVeh="0.054709" PMx_perVeh="0.007994" NOx_perVeh="0.169506" fuel_perVeh="0.167575" electricity_perVeh="0"/>
        <edge id=":1103427051_0" sampledSeconds="10.78" CO_abs="901.962108" CO2_abs="51976.543072" HC_abs="5.341847" PMx_abs="1.019117" NOx_abs="22.157350" fuel_abs="22.342400" electricity_abs="0"
            CO_normed="2382.291701" CO2_normed="137282.138708" HC_normed="14.109061" PMx_normed="2.691725" NOx_normed="58.522716" fuel_normed="59.011474" electricity_normed="0"
            traveltime="0.03" CO_perVeh="2.471363" CO2_perVeh="142.414942" HC_perVeh="0.014637" PMx_perVeh="0.002792" NOx_perVeh="0.060711" fuel_perVeh="0.061218" electricity_perVeh="0"/>
        <edge id=":1105984386_0" sampledSeconds="22.84" CO_abs="466.947150" CO2_abs="35800.989132" HC_abs="2.948957" PMx_abs="0.520308" NOx_abs="13.919574" fuel_abs="15.389413" electricity_abs="0"
            CO_normed="36.834361" CO2_normed="2824.102392" HC_normed="0.232624" PMx_normed="0.041044" NOx_normed="1.098023" fuel_normed="1.213969" electricity_normed="0"
            traveltime="0.96" CO_perVeh="19.597410" CO2_perVeh="1502.539784" HC_perVeh="0.123765" PMx_perVeh="0.021837" NOx_perVeh="0.584194" fuel_perVeh="0.645882" electricity_perVeh="0"/>
        <edge id=":1105984390_0" sampledSeconds="23.08" CO_abs="1.312132" CO2_abs="82.326341" HC_abs="0.007878" PMx_abs="0.001312" NOx_abs="0.033029" fuel_abs="0.035389" electricity_abs="0"
            CO_normed="0.080019" CO2_normed="5.020579" HC_normed="0.000480" PMx_normed="0.000080" NOx_normed="0.002014" fuel_normed="0.002158" electricity_normed="0"
            traveltime="1.05" CO_perVeh="0.059505" CO2_perVeh="3.733459" HC_perVeh="0.000357" PMx_perVeh="0.000060" NOx_perVeh="0.001498" fuel_perVeh="0.001605" electricity_perVeh="0"/>
        <edge id=":1105984390_1" sampledSeconds="645.70" CO_abs="14814.344903" CO2_abs="1861285.104119" HC_abs="111.948280" PMx_abs="33.212720" NOx_abs="699.887299" fuel_abs="800.080984" electricity_abs="0"
            CO_normed="864.216131" CO2_normed="108580.745326" HC_normed="6.530664" PMx_normed="1.937512" NOx_normed="40.828933" fuel_normed="46.673876" electricity_normed="0"
            traveltime="0.64" CO_perVeh="14.588020" CO2_perVeh="1832.849491" HC_perVeh="0.110238" PMx_perVeh="0.032705" NOx_perVeh="0.689195" fuel_perVeh="0.787858" electricity_perVeh="0"/>
        <edge id=":1105984395_0" sampledSeconds="9.07" CO_abs="169.531438" CO2_abs="13936.138573" HC_abs="1.086955" PMx_abs="0.172127" NOx_abs="5.206554" fuel_abs="5.990626" electricity_abs="0"
            CO_normed="141.145508" CO2_normed="11602.705565" HC_normed="0.904958" PMx_normed="0.143306" NOx_normed="4.334781" fuel_normed="4.987570" electricity_normed="0"
            traveltime="0.09" CO_perVeh="1.719234" CO2_perVeh="141.327684" HC_perVeh="0.011023" PMx_perVeh="0.001746" NOx_perVeh="0.052800" fuel_perVeh="0.060751" electricity_perVeh="0"/>
        <edge id=":1105984398_0" sampledSeconds="22.12" CO_abs="1546.651174" CO2_abs="106342.488545" HC_abs="9.559165" PMx_abs="1.956572" NOx_abs="44.115386" fuel_abs="45.711878" electricity_abs="0"
            CO_normed="97.987509" CO2_normed="6737.288752" HC_normed="0.605617" PMx_normed="0.123958" NOx_normed="2.794914" fuel_normed="2.896059" electricity_normed="0"
            traveltime="1.09" CO_perVeh="76.303570" CO2_perVeh="5246.374624" HC_perVeh="0.471599" PMx_perVeh="0.096527" NOx_perVeh="2.176419" fuel_perVeh="2.255182" electricity_perVeh="0"/>
        <edge id=":1105984398_1" sampledSeconds="450.41" CO_abs="8442.274376" CO2_abs="966830.756838" HC_abs="60.685242" PMx_abs="14.064131" NOx_abs="367.222068" fuel_abs="415.599146" electricity_abs="0"
            CO_normed="517.728016" CO2_normed="59291.530665" HC_normed="3.721562" PMx_normed="0.862492" NOx_normed="22.520134" fuel_normed="25.486890" electricity_normed="0"
            traveltime="0.95" CO_perVeh="17.835882" CO2_perVeh="2042.610590" HC_perVeh="0.128209" PMx_perVeh="0.029713" NOx_perVeh="0.775825" fuel_perVeh="0.878031" electricity_perVeh="0"/>
        <edge id=":1106006327_0" sampledSeconds="38.43" CO_abs="5226.904516" CO2_abs="170571.839198" HC_abs="27.818273" PMx_abs="3.568893" NOx_abs="74.728037" fuel_abs="73.322771" electricity_abs="0"
            CO_normed="451.872058" CO2_normed="14746.136620" HC_normed="2.404922" PMx_normed="0.308535" NOx_normed="6.460327" fuel_normed="6.338840" electricity_normed="0"
            traveltime="2.08" CO_perVeh="283.556050" CO2_perVeh="9253.407392" HC_perVeh="1.509123" PMx_perVeh="0.193610" NOx_perVeh="4.053946" fuel_perVeh="3.977711" electricity_perVeh="0"/>
        <edge id=":1106006327_1" sampledSeconds="161.34" CO_abs="21822.556518" CO2_abs="729703.136020" HC_abs="116.563440" PMx_abs="15.218508" NOx_abs="319.341705" fuel_abs="313.673060" electricity_abs="0"
            CO_normed="1645.191897" CO2_normed="55011.963681" HC_normed="8.787661" PMx_normed="1.147316" NOx_normed="24.075015" fuel_normed="23.647659" electricity_normed="0"
            traveltime="2.29" CO_perVeh="309.799316" CO2_perVeh="10359.076489" HC_perVeh="1.654768" PMx_perVeh="0.216046" NOx_perVeh="4.533467" fuel_perVeh="4.452993" electricity_perVeh="0"/>
        <edge id=":1106006327_2" sampledSeconds="0.00" CO_abs="0" CO2_abs="0" HC_abs="0" PMx_abs="0" NOx_abs="0" fuel_abs="0" electricity_abs="0"
            CO_normed="0" CO2_normed="0" HC_normed="0" PMx_normed="0" NOx_normed="0" fuel_normed="0" electricity_normed="0"/>
        <edge id=":1106006327_3" sampledSeconds="0.00" CO_abs="0" CO2_abs="0" HC_abs="0" PMx_abs="0" NOx_abs="0" fuel_abs="0" electricity_abs="0"
            CO_normed="0" CO2_normed="0" HC_normed="0" PMx_normed="0" NOx_normed="0" fuel_normed="0" electricity_normed="0"/>
        <edge id=":1107381198_0" sampledSeconds="0.00" CO_abs="0" CO2_abs="0" HC_abs="0" PMx_abs="0" NOx_abs="0" fuel_abs="0" electricity_abs="0"
            CO_normed="0" CO2_normed="0" HC_normed="0" PMx_normed="0" NOx_normed="0" fuel_normed="0" electricity_normed="0"/>
        <edge id=":1107381198_1" sampledSeconds="36.50" CO_abs="1382.653775" CO2_abs="58138.364585" HC_abs="7.645572" PMx_abs="1.049715" NOx_abs="24.376191" fuel_abs="24.991532" electricity_abs="0"
            CO_normed="115.491162" CO2_normed="4856.217372" HC_normed="0.638624" PMx_normed="0.087681" NOx_normed="2.036110" fuel_normed="2.087508" electricity_normed="0"
            traveltime="1.50" CO_perVeh="56.927690" CO2_perVeh="2393.717687" HC_perVeh="0.314789" PMx_perVeh="0.043220" NOx_perVeh="1.003635" fuel_perVeh="1.028971" electricity_perVeh="0"/>
        <edge id=":1110338277_0" sampledSeconds="96.33" CO_abs="1529.986343" CO2_abs="191927.295327" HC_abs="11.365334" PMx_abs="2.615502" NOx_abs="71.609846" fuel_abs="82.501489" electricity_abs="0"
            CO_normed="4185.372975" CO2_normed="525029.075361" HC_normed="31.090579" PMx_normed="7.154869" NOx_normed="195.893195" fuel_normed="225.687963" electricity_normed="0"
            traveltime="0.02" CO_perVeh="0.344811" CO2_perVeh="43.254355" HC_perVeh="0.002561" PMx_perVeh="0.000589" NOx_perVeh="0.016139" fuel_perVeh="0.018593" electricity_perVeh="0"/>
        <edge id=":1110338293_0" sampledSeconds="123.42" CO_abs="6155.087227" CO2_abs="424281.794024" HC_abs="38.012977" PMx_abs="7.521317" NOx_abs="174.163607" fuel_abs="182.380184" electricity_abs="0"
            CO_normed="15715.116324" CO2_normed="1083272.665593" HC_normed="97.054409" PMx_normed="19.203363" NOx_normed="444.673040" fuel_normed="465.651534" electricity_normed="0"
            traveltime="0.03" CO_perVeh="1.411771" CO2_perVeh="97.316058" HC_perVeh="0.008719" PMx_perVeh="0.001725" NOx_perVeh="0.039947" fuel_perVeh="0.041832" electricity_perVeh="0"/>
        <edge id=":1110338295_0" sampledSeconds="0.00" CO_abs="0" CO2_abs="0" HC_abs="0" PMx_abs="0" NOx_abs="0" fuel_abs="0" electricity_abs="0"
            CO_normed="0" CO2_normed="0" HC_normed="0" PMx_normed="0" NOx_normed="0" fuel_normed="0" electricity_normed="0"/>
        <edge id=":1110673403_0" sampledSeconds="143.61" CO_abs="2437.857370" CO2_abs="295386.997050" HC_abs="17.892035" PMx_abs="4.130384" NOx_abs="110.971580" fuel_abs="126.974375" electricity_abs="0"
            CO_normed="6224.316689" CO2_normed="754179.566936" HC_normed="45.681792" PMx_normed="10.545662" NOx_normed="283.331693" fuel_normed="324.189894" electricity_normed="0"
            traveltime="0.02" CO_perVeh="0.391414" CO2_perVeh="47.426331" HC_perVeh="0.002873" PMx_perVeh="0.000663" NOx_perVeh="0.017817" fuel_perVeh="0.020387" electricity_perVeh="0"/>
        <edge id=":1110673412_0" sampledSeconds="253.65" CO_abs="44462.756340" CO2_abs="3044479.894634" HC_abs="276.942143" PMx_abs="66.765421" NOx_abs="1307.369515" fuel_abs="1308.672044" electricity_abs="0"
            CO_normed="117436.480429" CO2_normed="8041179.472253" HC_normed="731.468609" PMx_normed="176.343006" NOx_normed="3453.066951" fuel_normed="3456.507234" electricity_normed="0"
            traveltime="0.02" CO_perVeh="2.731685" CO2_perVeh="187.045516" HC_perVeh="0.017015" PMx_perVeh="0.004102" NOx_perVeh="0.080322" fuel_perVeh="0.080402" electricity_perVeh="0"/>
        <edge id=":1110673414_0" sampledSeconds="0.00" CO_abs="0" CO2_abs="0" HC_abs="0" PMx_abs="0" NOx_abs="0" fuel_abs="0" electricity_abs="0"
            CO_normed="0" CO2_normed="0" HC_normed="0" PMx_normed="0" NOx_normed="0" fuel_normed="0" electricity_normed="0"/>
        <edge id=":1110673414_1" sampledSeconds="14.37" CO_abs="1066.149490" CO2_abs="40178.588405" HC_abs="5.784055" PMx_abs="0.726202" NOx_abs="16.860791" fuel_abs="17.271381" electricity_abs="0"
            CO_normed="90.434678" CO2_normed="3408.094019" HC_normed="0.490625" PMx_normed="0.061599" NOx_normed="1.430194" fuel_normed="1.465021" electricity_normed="0"
            traveltime="1.57" CO_perVeh="116.440855" CO2_perVeh="4388.154975" HC_perVeh="0.631713" PMx_perVeh="0.079313" NOx_perVeh="1.841472" fuel_perVeh="1.886316" electricity_perVeh="0"/>
        <edge id=":1110673417_0" sampledSeconds="29.65" CO_abs="480.796882" CO2_abs="55698.572139" HC_abs="3.464852" PMx_abs="0.770324" NOx_abs="20.942417" fuel_abs="23.942483" electricity_abs="0"
            CO_normed="1315.249829" CO2_normed="152366.914667" HC_normed="9.478319" PMx_normed="2.107270" NOx_normed="57.289286" fuel_normed="65.496155" electricity_normed="0"
            traveltime="0.02" CO_perVeh="0.356854" CO2_perVeh="41.340226" HC_perVeh="0.002572" PMx_perVeh="0.000572" NOx_perVeh="0.015544" fuel_perVeh="0.017770" electricity_perVeh="0"/>
        <edge id=":1110673446_0" sampledSeconds="334.53" CO_abs="3602.770466" CO2_abs="282612.118218" HC_abs="23.114681" PMx_abs="5.278661" NOx_abs="116.378205" fuel_abs="121.481888" electricity_abs="0"
            CO_normed="9198.562892" CO2_normed="721562.855024" HC_normed="59.016206" PMx_normed="13.477432" NOx_normed="297.135844" fuel_normed="310.166524" electricity_normed="0"
            traveltime="0.02" CO_perVeh="0.245891" CO2_perVeh="19.288395" HC_perVeh="0.001578" PMx_perVeh="0.000360" NOx_perVeh="0.007943" fuel_perVeh="0.008291" electricity_perVeh="0"/>
        <edge id=":1110673451_0" sampledSeconds="37.09" CO_abs="389.626031" CO2_abs="26629.304273" HC_abs="2.391037" PMx_abs="0.422578" NOx_abs="10.625667" fuel_abs="11.446850" electricity_abs="0"
            CO_normed="1105.322074" CO2_normed="75544.125597" HC_normed="6.783084" PMx_normed="1.198802" NOx_normed="30.143736" fuel_normed="32.473333" electricity_normed="0"
            traveltime="0.03" CO_perVeh="0.279413" CO2_perVeh="19.096712" HC_perVeh="0.001715" PMx_perVeh="0.000303" NOx_perVeh="0.007620" fuel_perVeh="0.008209" electricity_perVeh="0"/>
        <edge id=":1110673464_0" sampledSeconds="324.12" CO_abs="534.206997" CO2_abs="40462.495698" HC_abs="3.357798" PMx_abs="0.563665" NOx_abs="15.550909" fuel_abs="17.393253" electricity_abs="0"
            CO_normed="28.978741" CO2_normed="2194.939794" HC_normed="0.182148" PMx_normed="0.030577" NOx_normed="0.843579" fuel_normed="0.943519" electricity_normed="0"
            traveltime="1.17" CO_perVeh="1.931088" CO2_perVeh="146.266584" HC_perVeh="0.012138" PMx_perVeh="0.002038" NOx_perVeh="0.056214" fuel_perVeh="0.062874" electricity_perVeh="0"/>
        <edge id=":1110673464_1" sampledSeconds="708.91" CO_abs="16377.172782" CO2_abs="2072584.450885" HC_abs="124.194412" PMx_abs="36.914030" NOx_abs="778.932441" fuel_abs="890.908886" electricity_abs="0"
            CO_normed="870.521683" CO2_normed="110167.348667" HC_normed="6.601501" PMx_normed="1.962150" NOx_normed="41.403824" fuel_normed="47.355884" electricity_normed="0"
            traveltime="0.70" CO_perVeh="16.160512" CO2_perVeh="2045.165302" HC_perVeh="0.122551" PMx_perVeh="0.036426" NOx_perVeh="0.768628" fuel_perVeh="0.879123" electricity_perVeh="0"/>
        <edge id=":1110673479_0" sampledSeconds="134.45" CO_abs="6230.746298" CO2_abs="426322.351635" HC_abs="38.400747" PMx_abs="7.547348" NOx_abs="175.028599" fuel_abs="183.257376" electricity_abs="0"
            CO_normed="15908.288420" CO2_normed="1088482.599920" HC_normed="98.044460" PMx_normed="19.269824" NOx_normed="446.881530" fuel_normed="467.891172" electricity_normed="0"
            traveltime="0.03" CO_perVeh="1.312565" CO2_perVeh="89.808795" HC_perVeh="0.008089" PMx_perVeh="0.001590" NOx_perVeh="0.036871" fuel_perVeh="0.038605" electricity_perVeh="0"/>
        <edge id=":1110673511_0" sampledSeconds="11.81" CO_abs="229.991042" CO2_abs="24996.356231" HC_abs="1.625233" PMx_abs="0.362805" NOx_abs="9.513526" fuel_abs="10.744873" electricity_abs="0"
            CO_normed="587.211171" CO2_normed="63820.483994" HC_normed="4.149532" PMx_normed="0.926311" NOx_normed="24.289853" fuel_normed="27.433718" electricity_normed="0"
            traveltime="0.02" CO_perVeh="0.455428" CO2_perVeh="49.497735" HC_perVeh="0.003218" PMx_perVeh="0.000718" NOx_perVeh="0.018839" fuel_perVeh="0.021277" electricity_perVeh="0"/>
        <edge id=":1110673517_0" sampledSeconds="17.25" CO_abs="734.869782" CO2_abs="53618.547236" HC_abs="4.605263" PMx_abs="0.923371" NOx_abs="21.768289" fuel_abs="23.048280" electricity_abs="0"
            CO_normed="1876.263272" CO2_normed="136898.418476" HC_normed="11.758118" PMx_normed="2.357543" NOx_normed="55.578610" fuel_normed="58.846671" electricity_normed="0"
            traveltime="0.03" CO_perVeh="1.179882" CO2_perVeh="86.088114" HC_perVeh="0.007394" PMx_perVeh="0.001483" NOx_perVeh="0.034950" fuel_perVeh="0.037006" electricity_perVeh="0"/>
        <edge id=":1110673534_0" sampledSeconds="477.01" CO_abs="2767.112116" CO2_abs="249344.183034" HC_abs="18.284839" PMx_abs="3.257585" NOx_abs="93.875645" fuel_abs="107.183307" electricity_abs="0"
            CO_normed="136.917967" CO2_normed="12337.663683" HC_normed="0.904742" PMx_normed="0.161187" NOx_normed="4.645010" fuel_normed="5.303479" electricity_normed="0"
            traveltime="1.44" CO_perVeh="8.336200" CO2_perVeh="751.174087" HC_perVeh="0.055085" PMx_perVeh="0.009814" NOx_perVeh="0.282810" fuel_perVeh="0.322900" electricity_perVeh="0"/>
        <edge id=":1110673534_1" sampledSeconds="184.19" CO_abs="2916.449773" CO2_abs="345066.450188" HC_abs="21.144400" PMx_abs="4.862576" NOx_abs="129.882169" fuel_abs="148.329458" electricity_abs="0"
            CO_normed="140.318871" CO2_normed="16602.149319" HC_normed="1.017319" PMx_normed="0.233953" NOx_normed="6.249008" fuel_normed="7.136561" electricity_normed="0"
            traveltime="1.22" CO_perVeh="19.364179" CO2_perVeh="2291.117348" HC_perVeh="0.140391" PMx_perVeh="0.032286" NOx_perVeh="0.862371" fuel_perVeh="0.984854" electricity_perVeh="0"/>
        <edge id=":1110673549_0" sampledSeconds="60.62" CO_abs="40.666284" CO2_abs="5597.783180" HC_abs="0.309994" PMx_abs="0.052997" NOx_abs="1.949260" fuel_abs="2.406283" electricity_abs="0"
            CO_normed="1.949227" CO2_normed="268.314375" HC_normed="0.014859" PMx_normed="0.002540" NOx_normed="0.093432" fuel_normed="0.115339" electricity_normed="0"
            traveltime="1.26" CO_perVeh="0.847247" CO2_perVeh="116.625044" HC_perVeh="0.006458" PMx_perVeh="0.001104" NOx_perVeh="0.040611" fuel_perVeh="0.050133" electricity_perVeh="0"/>
        <edge id=":1110673549_1" sampledSeconds="639.03" CO_abs="13956.748990" CO2_abs="1833966.150655" HC_abs="107.316057" PMx_abs="32.271732" NOx_abs="685.050390" fuel_abs="788.338130" electricity_abs="0"
            CO_normed="647.111127" CO2_normed="85032.689485" HC_normed="4.975759" PMx_normed="1.496294" NOx_normed="31.762678" fuel_normed="36.551662" electricity_normed="0"
            traveltime="0.80" CO_perVeh="17.579086" CO2_perVeh="2309.954063" HC_perVeh="0.135169" PMx_perVeh="0.040648" NOx_perVeh="0.862848" fuel_perVeh="0.992944" electricity_perVeh="0"/>
        <edge id=":1110673556_0" sampledSeconds="416.68" CO_abs="50986.854215" CO2_abs="2566924.864233" HC_abs="293.176120" PMx_abs="51.635064" NOx_abs="1104.513571" fuel_abs="1103.409946" electricity_abs="0"
            CO_normed="1812.239475" CO2_normed="91236.900935" HC_normed="10.420438" PMx_normed="1.835279" NOx_normed="39.258023" fuel_normed="39.218797" electricity_normed="0"
            traveltime="2.59" CO_perVeh="316.501529" CO2_perVeh="15934.217889" HC_perVeh="1.819894" PMx_perVeh="0.320525" NOx_perVeh="6.856282" fuel_perVeh="6.849431" electricity_perVeh="0"/>
        <edge id=":1110673556_2" sampledSeconds="247.42" CO_abs="23780.225480" CO2_abs="1025271.363793" HC_abs="132.345594" PMx_abs="19.703554" NOx_abs="436.735406" fuel_abs="440.723973" electricity_abs="0"
            CO_normed="883.776846" CO2_normed="38103.553425" HC_normed="4.918539" PMx_normed="0.732270" NOx_normed="16.230992" fuel_normed="16.379224" electricity_normed="0"
            traveltime="3.00" CO_perVeh="288.449578" CO2_perVeh="12436.345171" HC_perVeh="1.605327" PMx_perVeh="0.239000" NOx_perVeh="5.297517" fuel_perVeh="5.345897" electricity_perVeh="0"/>
        <edge id=":1110673556_3" sampledSeconds="416.09" CO_abs="35577.416222" CO2_abs="1281662.470380" HC_abs="191.838224" PMx_abs="24.433387" NOx_abs="546.401745" fuel_abs="550.941588" electricity_abs="0"
            CO_normed="3007.813123" CO2_normed="108355.288464" HC_normed="16.218534" PMx_normed="2.065666" NOx_normed="46.194314" fuel_normed="46.578125" electricity_normed="0"
            traveltime="1.73" CO_perVeh="147.724265" CO2_perVeh="5321.708715" HC_perVeh="0.796549" PMx_perVeh="0.101452" NOx_perVeh="2.268765" fuel_perVeh="2.287615" electricity_perVeh="0"/>
        <edge id=":1110673556_4" sampledSeconds="197.88" CO_abs="20799.284919" CO2_abs="823063.155759" HC_abs="114.044460" PMx_abs="16.232391" NOx_abs="353.910082" fuel_abs="353.803353" electricity_abs="0"
            CO_normed="1074.266161" CO2_normed="42510.543044" HC_normed="5.890304" PMx_normed="0.838390" NOx_normed="18.279168" fuel_normed="18.273656" electricity_normed="0"
            traveltime="2.46" CO_perVeh="258.253986" CO2_perVeh="10219.550394" HC_perVeh="1.416031" PMx_perVeh="0.201549" NOx_perVeh="4.394319" fuel_perVeh="4.392994" electricity_perVeh="0"/>
        <edge id=":1110673556_5" sampledSeconds="24.00" CO_abs="1778.351449" CO2_abs="72937.342791" HC_abs="9.802591" PMx_abs="1.382962" NOx_abs="30.991085" fuel_abs="31.353003" electricity_abs="0"
            CO_normed="128.020821" CO2_normed="5250.648577" HC_normed="0.705674" PMx_normed="0.099557" NOx_normed="2.231001" fuel_normed="2.257055" electricity_normed="0"
            traveltime="1.66" CO_perVeh="122.947755" CO2_perVeh="5042.581724" HC_perVeh="0.677710" PMx_perVeh="0.095612" NOx_perVeh="2.142594" fuel_perVeh="2.167615" electricity_perVeh="0"/>
        <edge id=":1110673556_6" sampledSeconds="469.29" CO_abs="55911.996953" CO2_abs="2806865.739187" HC_abs="321.326380" PMx_abs="56.561865" NOx_abs="1207.972388" fuel_abs="1206.550175" electricity_abs="0"
            CO_normed="2037.402970" CO2_normed="102280.671509" HC_normed="11.708960" PMx_normed="2.061084" NOx_normed="44.017861" fuel_normed="43.966037" electricity_normed="0"
            traveltime="2.52" CO_perVeh="300.040382" CO2_perVeh="15062.475195" HC_perVeh="1.724333" PMx_perVeh="0.303528" NOx_perVeh="6.482339" fuel_perVeh="6.474707" electricity_perVeh="0"/>
        <edge id=":1110673561_0" sampledSeconds="100.17" CO_abs="9979.249179" CO2_abs="709363.081515" HC_abs="62.532517" PMx_abs="14.453865" NOx_abs="300.716206" fuel_abs="304.921292" electricity_abs="0"
            CO_normed="456.884652" CO2_normed="32477.103095" HC_normed="2.862956" PMx_normed="0.661748" NOx_normed="13.767831" fuel_normed="13.960355" electricity_normed="0"
            traveltime="1.18" CO_perVeh="117.764826" CO2_perVeh="8371.172870" HC_perVeh="0.737944" PMx_perVeh="0.170570" NOx_perVeh="3.548743" fuel_perVeh="3.598367" electricity_perVeh="0"/>
        <edge id=":1110673561_1" sampledSeconds="1318.99" CO_abs="120219.651138" CO2_abs="8330852.160687" HC_abs="748.934867" PMx_abs="173.976947" NOx_abs="3561.044962" fuel_abs="3581.031177" electricity_abs="0"
            CO_normed="5366.150177" CO2_normed="371857.706920" HC_normed="33.429618" PMx_normed="7.765672" NOx_normed="158.951568" fuel_normed="159.843677" electricity_normed="0"
            traveltime="1.20" CO_perVeh="109.127714" CO2_perVeh="7562.215011" HC_perVeh="0.679835" PMx_perVeh="0.157925" NOx_perVeh="3.232489" fuel_perVeh="3.250631" electricity_perVeh="0"/>
        <edge id=":1110673562_0" sampledSeconds="103.95" CO_abs="2270.210724" CO2_abs="184475.629879" HC_abs="14.525838" PMx_abs="2.377226" NOx_abs="69.522701" fuel_abs="79.299066" electricity_abs="0"
            CO_normed="6440.314111" CO2_normed="523335.120225" HC_normed="41.208052" PMx_normed="6.743904" NOx_normed="197.227521" fuel_normed="224.961889" electricity_normed="0"
            traveltime="0.03" CO_perVeh="0.578687" CO2_perVeh="47.023678" HC_perVeh="0.003703" PMx_perVeh="0.000606" NOx_perVeh="0.017722" fuel_perVeh="0.020214" electricity_perVeh="0"/>
        <edge id=":1110673564_0" sampledSeconds="28.45" CO_abs="552.887673" CO2_abs="63248.554539" HC_abs="3.980625" PMx_abs="0.895401" NOx_abs="23.925751" fuel_abs="27.187880" electricity_abs="0"
            CO_normed="4234.884305" CO2_normed="484457.013488" HC_normed="30.489892" PMx_normed="6.858393" NOx_normed="183.261069" fuel_normed="208.247590" electricity_normed="0"
            traveltime="7.821277e-03" CO_perVeh="0.151997" CO2_perVeh="17.387919" HC_perVeh="0.001094" PMx_perVeh="0.000246" NOx_perVeh="0.006578" fuel_perVeh="0.007474" electricity_perVeh="0"/>
        <edge id=":1110673588_0" sampledSeconds="11.64" CO_abs="321.695767" CO2_abs="33229.267937" HC_abs="2.238727" PMx_abs="0.499482" NOx_abs="12.784332" fuel_abs="14.283837" electricity_abs="0"
            CO_normed="985.621074" CO2_normed="101808.820914" HC_normed="6.859080" PMx_normed="1.530328" NOx_normed="39.169016" fuel_normed="43.763246" electricity_normed="0"
            traveltime="0.02" CO_perVeh="0.536160" CO2_perVeh="55.382113" HC_perVeh="0.003731" PMx_perVeh="0.000832" NOx_perVeh="0.021307" fuel_perVeh="0.023806" electricity_perVeh="0"/>
        <edge id=":1110673601_0" sampledSeconds="29.52" CO_abs="469.128334" CO2_abs="58494.610267" HC_abs="3.444998" PMx_abs="0.794896" NOx_abs="21.804790" fuel_abs="25.144378" electricity_abs="0"
            CO_normed="1283.329788" CO2_normed="160015.651186" HC_normed="9.424007" PMx_normed="2.174487" NOx_normed="59.648362" fuel_normed="68.784014" electricity_normed="0"
            traveltime="0.02" CO_perVeh="0.348193" CO2_perVeh="43.415483" HC_perVeh="0.002557" PMx_perVeh="0.000590" NOx_perVeh="0.016184" fuel_perVeh="0.018662" electricity_perVeh="0"/>
        <edge id=":1110673617_0" sampledSeconds="238.36" CO_abs="5714.074499" CO2_abs="698065.543634" HC_abs="42.723975" PMx_abs="12.536744" NOx_abs="264.098971" fuel_abs="300.066221" electricity_abs="0"
            CO_normed="14589.126380" CO2_normed="1782295.005022" HC_normed="109.082488" PMx_normed="32.008707" NOx_normed="674.295246" fuel_normed="766.126521" electricity_normed="0"
            traveltime="0.01" CO_perVeh="0.349948" CO2_perVeh="42.751794" HC_perVeh="0.002617" PMx_perVeh="0.000768" NOx_perVeh="0.016174" fuel_perVeh="0.018377" electricity_perVeh="0"/>
        <edge id=":1110673621_0" sampledSeconds="25.72" CO_abs="684.523245" CO2_abs="67878.703902" HC_abs="4.695469" PMx_abs="1.059741" NOx_abs="26.396848" fuel_abs="29.178103" electricity_abs="0"
            CO_normed="2097.262709" CO2_normed="207968.794933" HC_normed="14.386119" PMx_normed="3.246867" NOx_normed="80.875449" fuel_normed="89.396740" electricity_normed="0"
            traveltime="0.02" CO_perVeh="0.518578" CO2_perVeh="51.423261" HC_perVeh="0.003557" PMx_perVeh="0.000803" NOx_perVeh="0.019998" fuel_perVeh="0.022105" electricity_perVeh="0"/>
        <edge id=":1110673630_0" sampledSeconds="53.96" CO_abs="174.552143" CO2_abs="17872.407890" HC_abs="1.198950" PMx_abs="0.209481" NOx_abs="6.536597" fuel_abs="7.682669" electricity_abs="0"
            CO_normed="9.536342" CO2_normed="976.426813" HC_normed="0.065502" PMx_normed="0.011445" NOx_normed="0.357115" fuel_normed="0.419729" electricity_normed="0"
            traveltime="1.26" CO_perVeh="4.074356" CO2_perVeh="417.173613" HC_perVeh="0.027986" PMx_perVeh="0.004890" NOx_perVeh="0.152576" fuel_perVeh="0.179327" electricity_perVeh="0"/>
        <edge id=":1110673630_1" sampledSeconds="7.19" CO_abs="0.921174" CO2_abs="272.187551" HC_abs="0.010397" PMx_abs="0.002892" NOx_abs="0.094151" fuel_abs="0.117002" electricity_abs="0"
            CO_normed="0.061355" CO2_normed="18.129051" HC_normed="0.000693" PMx_normed="0.000193" NOx_normed="0.006271" fuel_normed="0.007793" electricity_normed="0"
            traveltime="1.02" CO_perVeh="0.130381" CO2_perVeh="38.525007" HC_perVeh="0.001472" PMx_perVeh="0.000409" NOx_perVeh="0.013326" fuel_perVeh="0.016560" electricity_perVeh="0"/>
        <edge id=":1110673650_0" sampledSeconds="143.49" CO_abs="2145.899605" CO2_abs="271123.613419" HC_abs="15.954661" PMx_abs="3.695432" NOx_abs="101.097039" fuel_abs="116.544648" electricity_abs="0"
            CO_normed="5478.892608" CO2_normed="692230.502345" HC_normed="40.735305" PMx_normed="9.435146" NOx_normed="258.120100" fuel_normed="297.560805" electricity_normed="0"
            traveltime="0.02" CO_perVeh="0.344539" CO2_perVeh="43.530765" HC_perVeh="0.002562" PMx_perVeh="0.000593" NOx_perVeh="0.016232" fuel_perVeh="0.018712" electricity_perVeh="0"/>
        <edge id=":1110673655_0" sampledSeconds="45.01" CO_abs="781.268655" CO2_abs="81881.151368" HC_abs="5.419005" PMx_abs="1.177905" NOx_abs="31.191834" fuel_abs="35.197257" electricity_abs="0"
            CO_normed="1994.728481" CO2_normed="209058.258812" HC_normed="13.835758" PMx_normed="3.007417" NOx_normed="79.638725" fuel_normed="89.865336" electricity_normed="0"
            traveltime="0.02" CO_perVeh="0.418126" CO2_perVeh="43.821863" HC_perVeh="0.002900" PMx_perVeh="0.000630" NOx_perVeh="0.016694" fuel_perVeh="0.018837" electricity_perVeh="0"/>
        <edge id=":1110673663_0" sampledSeconds="108.22" CO_abs="1771.550686" CO2_abs="216731.684153" HC_abs="12.950659" PMx_abs="2.899476" NOx_abs="80.583473" fuel_abs="93.163954" electricity_abs="0"
            CO_normed="82.840808" CO2_normed="10134.752591" HC_normed="0.605595" PMx_normed="0.135585" NOx_normed="3.768224" fuel_normed="4.356509" electricity_normed="0"
            traveltime="1.27" CO_perVeh="20.807758" CO2_perVeh="2545.623120" HC_perVeh="0.152112" PMx_perVeh="0.034056" NOx_perVeh="0.946494" fuel_perVeh="1.094258" electricity_perVeh="0"/>
        <edge id=":1110673663_1" sampledSeconds="154.27" CO_abs="2464.001229" CO2_abs="312744.293921" HC_abs="18.311008" PMx_abs="4.284051" NOx_abs="116.630408" fuel_abs="134.435592" electricity_abs="0"
            CO_normed="115.361864" CO2_normed="14642.348464" HC_normed="0.857302" PMx_normed="0.200575" NOx_normed="5.460509" fuel_normed="6.294129" electricity_normed="0"
            traveltime="1.25" CO_perVeh="20.002831" CO2_perVeh="2538.866942" HC_perVeh="0.148649" PMx_perVeh="0.034778" NOx_perVeh="0.946809" fuel_perVeh="1.091352" electricity_perVeh="0"/>
        <edge id=":1110673666_0" sampledSeconds="191.85" CO_abs="4126.905414" CO2_abs="324971.127391" HC_abs="26.215253" PMx_abs="4.454643" NOx_abs="124.362696" fuel_abs="139.692428" electricity_abs="0"