<?xml version="1.0" encoding="UTF-8"?>

<!-- generated on Mon Nov  9 21:31:49 2020 by Eclipse SUMO sumo Version 1.7.0
<configuration xmlns:xsi="http://www.w3.org/2001/XMLSchema-instance" xsi:noNamespaceSchemaLocation="http://sumo.dlr.de/xsd/sumoConfiguration.xsd">

    <input>
        <net-file value="../dataSets/Porto/6AM7AM_Routing_SaoBento/Porto.net.xml"/>
        <route-files value="../results/Porto/6AM7AM_Routing_SaoBento/cost_co-ttime/solution4/Porto.rou.xml"/>
        <additional-files value="moreOutputInfo.xml"/>
    </input>

    <output>
        <emission-output.precision value="6"/>
        <tripinfo-output value="../results/Porto/6AM7AM_Routing_SaoBento/cost_co-ttime/solution4/Porto-tripinfo"/>
    </output>

    <processing>
        <collision.action value="warn"/>
        <time-to-teleport value="-1"/>
    </processing>

    <emissions>
        <device.emissions.probability value="1"/>
    </emissions>

    <gui_only>
        <quit-on-end value="true"/>
        <start value="true"/>
    </gui_only>

</configuration>
-->

<meandata xmlns:xsi="http://www.w3.org/2001/XMLSchema-instance" xsi:noNamespaceSchemaLocation="http://sumo.dlr.de/xsd/meandata_file.xsd">
    <interval begin="0.00" end="4700.00" id="emissions-detector">
        <edge id=":1092997347_0" sampledSeconds="265.87" CO_abs="33998.452376" CO2_abs="1352167.422430" HC_abs="186.767515" PMx_abs="27.596439" NOx_abs="586.978049" fuel_abs="581.243509" electricity_abs="0"
            CO_normed="59184.926766" CO2_normed="2353869.787596" HC_normed="325.127202" PMx_normed="48.040223" NOx_normed="1021.818653" fuel_normed="1011.835896" electricity_normed="0"
            traveltime="0.07" CO_perVeh="9.546725" CO2_perVeh="379.687005" HC_perVeh="0.052444" PMx_perVeh="0.007749" NOx_perVeh="0.164823" fuel_perVeh="0.163212" electricity_perVeh="0"/>
        <edge id=":1103427051_0" sampledSeconds="10.73" CO_abs="882.719283" CO2_abs="50269.632636" HC_abs="5.216594" PMx_abs="1.003363" NOx_abs="21.556194" fuel_abs="21.608656" electricity_abs="0"
            CO_normed="2331.466925" CO2_normed="132773.791261" HC_normed="13.778238" PMx_normed="2.650115" NOx_normed="56.934922" fuel_normed="57.073485" electricity_normed="0"
            traveltime="0.03" CO_perVeh="2.418708" CO2_perVeh="137.742072" HC_perVeh="0.014294" PMx_perVeh="0.002749" NOx_perVeh="0.059065" fuel_perVeh="0.059209" electricity_perVeh="0"/>
        <edge id=":1105984386_0" sampledSeconds="23.01" CO_abs="505.063950" CO2_abs="39477.842508" HC_abs="3.198823" PMx_abs="0.528863" NOx_abs="15.048215" fuel_abs="16.970006" electricity_abs="0"
            CO_normed="39.841142" CO2_normed="3114.144949" HC_normed="0.252334" PMx_normed="0.041718" NOx_normed="1.187054" fuel_normed="1.338651" electricity_normed="0"
            traveltime="0.97" CO_perVeh="21.197143" CO2_perVeh="1656.854472" HC_perVeh="0.134252" PMx_perVeh="0.022196" NOx_perVeh="0.631562" fuel_perVeh="0.712218" electricity_perVeh="0"/>
        <edge id=":1105984390_0" sampledSeconds="23.06" CO_abs="7.995191" CO2_abs="1250.298324" HC_abs="0.063597" PMx_abs="0.008135" NOx_abs="0.411954" fuel_abs="0.537462" electricity_abs="0"
            CO_normed="0.487578" CO2_normed="76.248034" HC_normed="0.003878" PMx_normed="0.000496" NOx_normed="0.025123" fuel_normed="0.032777" electricity_normed="0"
            traveltime="1.05" CO_perVeh="0.362578" CO2_perVeh="56.700415" HC_perVeh="0.002884" PMx_perVeh="0.000369" NOx_perVeh="0.018682" fuel_perVeh="0.024374" electricity_perVeh="0"/>
        <edge id=":1105984390_1" sampledSeconds="646.25" CO_abs="13591.906363" CO2_abs="1752293.127308" HC_abs="103.669546" PMx_abs="31.020795" NOx_abs="656.370614" fuel_abs="753.230494" electricity_abs="0"
            CO_normed="792.903419" CO2_normed="102222.541497" HC_normed="6.047712" PMx_normed="1.809643" NOx_normed="38.290324" fuel_normed="43.940785" electricity_normed="0"
            traveltime="0.64" CO_perVeh="13.383692" CO2_perVeh="1725.449703" HC_perVeh="0.102081" PMx_perVeh="0.030546" NOx_perVeh="0.646316" fuel_perVeh="0.741692" electricity_perVeh="0"/>
        <edge id=":1105984395_0" sampledSeconds="9.08" CO_abs="157.566625" CO2_abs="13217.869704" HC_abs="1.014202" PMx_abs="0.152150" NOx_abs="4.865959" fuel_abs="5.681883" electricity_abs="0"
            CO_normed="131.184054" CO2_normed="11004.701882" HC_normed="0.844387" PMx_normed="0.126674" NOx_normed="4.051214" fuel_normed="4.730523" electricity_normed="0"
            traveltime="0.09" CO_perVeh="1.597898" CO2_perVeh="134.043652" HC_perVeh="0.010285" PMx_perVeh="0.001543" NOx_perVeh="0.049346" fuel_perVeh="0.057621" electricity_perVeh="0"/>
        <edge id=":1105984398_0" sampledSeconds="22.51" CO_abs="1572.850152" CO2_abs="108749.187692" HC_abs="9.737132" PMx_abs="2.007363" NOx_abs="45.143131" fuel_abs="46.746394" electricity_abs="0"
            CO_normed="99.647336" CO2_normed="6889.764280" HC_normed="0.616892" PMx_normed="0.127176" NOx_normed="2.860026" fuel_normed="2.961600" electricity_normed="0"
            traveltime="1.09" CO_perVeh="76.283506" CO2_perVeh="5274.354554" HC_perVeh="0.472253" PMx_perVeh="0.097357" NOx_perVeh="2.189450" fuel_perVeh="2.267208" electricity_perVeh="0"/>
        <edge id=":1105984398_1" sampledSeconds="451.21" CO_abs="7838.742513" CO2_abs="930386.444595" HC_abs="57.079241" PMx_abs="13.301776" NOx_abs="351.432327" fuel_abs="399.933456" electricity_abs="0"
            CO_normed="480.716029" CO2_normed="57056.559299" HC_normed="3.500422" PMx_normed="0.815740" NOx_normed="21.551818" fuel_normed="24.526182" electricity_normed="0"
            traveltime="0.95" CO_perVeh="16.557747" CO2_perVeh="1965.251908" HC_perVeh="0.120568" PMx_perVeh="0.028097" NOx_perVeh="0.742329" fuel_perVeh="0.844778" electricity_perVeh="0"/>
        <edge id=":1106006327_0" sampledSeconds="371.98" CO_abs="49993.948640" CO2_abs="1612671.546521" HC_abs="265.584708" PMx_abs="33.595773" NOx_abs="705.632401" fuel_abs="693.230888" electricity_abs="0"
            CO_normed="4322.035808" CO2_normed="139417.356695" HC_normed="22.960111" PMx_normed="2.904394" NOx_normed="61.002753" fuel_normed="59.930628" electricity_normed="0"
            traveltime="2.11" CO_perVeh="283.005709" CO2_perVeh="9129.009937" HC_perVeh="1.503422" PMx_perVeh="0.190179" NOx_perVeh="3.994443" fuel_perVeh="3.924241" electricity_perVeh="0"/>
        <edge id=":1106006327_1" sampledSeconds="160.59" CO_abs="21769.778997" CO2_abs="730644.598100" HC_abs="116.350053" PMx_abs="15.249107" NOx_abs="319.814021" fuel_abs="314.077675" electricity_abs="0"
            CO_normed="1641.213025" CO2_normed="55082.940048" HC_normed="8.771574" PMx_normed="1.149623" NOx_normed="24.110623" fuel_normed="23.678163" electricity_normed="0"
            traveltime="2.28" CO_perVeh="309.050071" CO2_perVeh="10372.441757" HC_perVeh="1.651739" PMx_perVeh="0.216481" NOx_perVeh="4.540172" fuel_perVeh="4.458737" electricity_perVeh="0"/>
        <edge id=":1106006327_2" sampledSeconds="0.00" CO_abs="0" CO2_abs="0" HC_abs="0" PMx_abs="0" NOx_abs="0" fuel_abs="0" electricity_abs="0"
            CO_normed="0" CO2_normed="0" HC_normed="0" PMx_normed="0" NOx_normed="0" fuel_normed="0" electricity_normed="0"/>
        <edge id=":1106006327_3" sampledSeconds="0.00" CO_abs="0" CO2_abs="0" HC_abs="0" PMx_abs="0" NOx_abs="0" fuel_abs="0" electricity_abs="0"
            CO_normed="0" CO2_normed="0" HC_normed="0" PMx_normed="0" NOx_normed="0" fuel_normed="0" electricity_normed="0"/>
        <edge id=":1107381198_0" sampledSeconds="0.00" CO_abs="0" CO2_abs="0" HC_abs="0" PMx_abs="0" NOx_abs="0" fuel_abs="0" electricity_abs="0"
            CO_normed="0" CO2_normed="0" HC_normed="0" PMx_normed="0" NOx_normed="0" fuel_normed="0" electricity_normed="0"/>
        <edge id=":1107381198_1" sampledSeconds="35.80" CO_abs="1677.940416" CO2_abs="68892.483522" HC_abs="9.227388" PMx_abs="1.185626" NOx_abs="28.507076" fuel_abs="29.614453" electricity_abs="0"
            CO_normed="140.156048" CO2_normed="5754.494088" HC_normed="0.770751" PMx_normed="0.099034" NOx_normed="2.381157" fuel_normed="2.473654" electricity_normed="0"
            traveltime="1.47" CO_perVeh="69.085460" CO2_perVeh="2836.494585" HC_perVeh="0.379917" PMx_perVeh="0.048816" NOx_perVeh="1.173715" fuel_perVeh="1.219309" electricity_perVeh="0"/>
        <edge id=":1110338277_0" sampledSeconds="96.95" CO_abs="1610.108275" CO2_abs="194965.770289" HC_abs="11.798489" PMx_abs="2.656776" NOx_abs="72.909951" fuel_abs="83.807633" electricity_abs="0"
            CO_normed="4404.551512" CO2_normed="533341.012949" HC_normed="32.275502" PMx_normed="7.267776" NOx_normed="199.449713" fuel_normed="229.261001" electricity_normed="0"
            traveltime="0.02" CO_perVeh="0.362868" CO2_perVeh="43.939131" HC_perVeh="0.002659" PMx_perVeh="0.000599" NOx_perVeh="0.016432" fuel_perVeh="0.018888" electricity_perVeh="0"/>
        <edge id=":1110338293_0" sampledSeconds="124.72" CO_abs="5997.801050" CO2_abs="411858.951629" HC_abs="36.980089" PMx_abs="7.182568" NOx_abs="168.346934" fuel_abs="177.040343" electricity_abs="0"
            CO_normed="15313.534596" CO2_normed="1051554.770117" HC_normed="94.417247" PMx_normed="18.338472" NOx_normed="429.821960" fuel_normed="452.017898" electricity_normed="0"
            traveltime="0.03" CO_perVeh="1.375695" CO2_perVeh="94.466673" HC_perVeh="0.008482" PMx_perVeh="0.001647" NOx_perVeh="0.038613" fuel_perVeh="0.040607" electricity_perVeh="0"/>
        <edge id=":1110338295_0" sampledSeconds="0.00" CO_abs="0" CO2_abs="0" HC_abs="0" PMx_abs="0" NOx_abs="0" fuel_abs="0" electricity_abs="0"
            CO_normed="0" CO2_normed="0" HC_normed="0" PMx_normed="0" NOx_normed="0" fuel_normed="0" electricity_normed="0"/>
        <edge id=":1110673403_0" sampledSeconds="143.45" CO_abs="2364.510737" CO2_abs="286070.206528" HC_abs="17.307532" PMx_abs="4.010246" NOx_abs="107.528340" fuel_abs="122.969462" electricity_abs="0"
            CO_normed="6037.048690" CO2_normed="730392.016668" HC_normed="44.189443" PMx_normed="10.238925" NOx_normed="274.540442" fuel_normed="313.964585" electricity_normed="0"
            traveltime="0.02" CO_perVeh="0.379638" CO2_perVeh="45.930459" HC_perVeh="0.002779" PMx_perVeh="0.000644" NOx_perVeh="0.017264" fuel_perVeh="0.019744" electricity_perVeh="0"/>
        <edge id=":1110673412_0" sampledSeconds="253.13" CO_abs="44554.011217" CO2_abs="3044877.925634" HC_abs="277.376220" PMx_abs="66.842015" NOx_abs="1308.069268" fuel_abs="1308.843098" electricity_abs="0"
            CO_normed="117677.505781" CO2_normed="8042230.764698" HC_normed="732.615108" PMx_normed="176.545308" NOx_normed="3454.915161" fuel_normed="3456.959027" electricity_normed="0"
            traveltime="0.02" CO_perVeh="2.742906" CO2_perVeh="187.453663" HC_perVeh="0.017076" PMx_perVeh="0.004115" NOx_perVeh="0.080529" fuel_perVeh="0.080577" electricity_perVeh="0"/>
        <edge id=":1110673414_0" sampledSeconds="0.00" CO_abs="0" CO2_abs="0" HC_abs="0" PMx_abs="0" NOx_abs="0" fuel_abs="0" electricity_abs="0"
            CO_normed="0" CO2_normed="0" HC_normed="0" PMx_normed="0" NOx_normed="0" fuel_normed="0" electricity_normed="0"/>
        <edge id=":1110673414_1" sampledSeconds="134.50" CO_abs="8912.515049" CO2_abs="342463.635724" HC_abs="48.559867" PMx_abs="6.450297" NOx_abs="145.407567" fuel_abs="147.212685" electricity_abs="0"
            CO_normed="755.991946" CO2_normed="29049.011301" HC_normed="4.119025" PMx_normed="0.547138" NOx_normed="12.333999" fuel_normed="12.487115" electricity_normed="0"
            traveltime="1.60" CO_perVeh="106.188166" CO2_perVeh="4080.283191" HC_perVeh="0.578567" PMx_perVeh="0.076852" NOx_perVeh="1.732459" fuel_perVeh="1.753966" electricity_perVeh="0"/>
        <edge id=":1110673417_0" sampledSeconds="29.56" CO_abs="520.729038" CO2_abs="59593.302472" HC_abs="3.733402" PMx_abs="0.822044" NOx_abs="22.392294" fuel_abs="25.616673" electricity_abs="0"
            CO_normed="1424.486729" CO2_normed="163021.192172" HC_normed="10.212955" PMx_normed="2.248753" NOx_normed="61.255517" fuel_normed="70.076006" electricity_normed="0"
            traveltime="0.02" CO_perVeh="0.386492" CO2_perVeh="44.230947" HC_perVeh="0.002771" PMx_perVeh="0.000610" NOx_perVeh="0.016620" fuel_perVeh="0.019013" electricity_perVeh="0"/>
        <edge id=":1110673446_0" sampledSeconds="333.28" CO_abs="3324.735170" CO2_abs="266332.898911" HC_abs="21.472983" PMx_abs="4.946622" NOx_abs="109.380050" fuel_abs="114.484201" electricity_abs="0"
            CO_normed="8488.685540" CO2_normed="679998.890838" HC_normed="54.824636" PMx_normed="12.629673" NOx_normed="279.268212" fuel_normed="292.300088" electricity_normed="0"
            traveltime="0.02" CO_perVeh="0.226961" CO2_perVeh="18.181025" HC_perVeh="0.001466" PMx_perVeh="0.000338" NOx_perVeh="0.007467" fuel_perVeh="0.007815" electricity_perVeh="0"/>
        <edge id=":1110673451_0" sampledSeconds="37.34" CO_abs="434.277976" CO2_abs="29616.582910" HC_abs="2.654166" PMx_abs="0.421258" NOx_abs="11.500554" fuel_abs="12.731035" electricity_abs="0"
            CO_normed="1231.994258" CO2_normed="84018.674923" HC_normed="7.529548" PMx_normed="1.195058" NOx_normed="32.625684" fuel_normed="36.116410" electricity_normed="0"
            traveltime="0.03" CO_perVeh="0.311434" CO2_perVeh="21.238984" HC_perVeh="0.001903" PMx_perVeh="0.000302" NOx_perVeh="0.008247" fuel_perVeh="0.009130" electricity_perVeh="0"/>
        <edge id=":1110673464_0" sampledSeconds="321.58" CO_abs="643.187938" CO2_abs="47980.338644" HC_abs="4.032062" PMx_abs="0.701552" NOx_abs="18.654350" fuel_abs="20.624839" electricity_abs="0"
            CO_normed="34.890552" CO2_normed="2602.754794" HC_normed="0.218724" PMx_normed="0.038057" NOx_normed="1.011929" fuel_normed="1.118821" electricity_normed="0"
            traveltime="1.16" CO_perVeh="2.325040" CO2_perVeh="173.442594" HC_perVeh="0.014575" PMx_perVeh="0.002536" NOx_perVeh="0.067433" fuel_perVeh="0.074556" electricity_perVeh="0"/>
        <edge id=":1110673464_1" sampledSeconds="709.14" CO_abs="16395.145107" CO2_abs="2097812.041725" HC_abs="124.763200" PMx_abs="37.193035" NOx_abs="787.379245" fuel_abs="901.753150" electricity_abs="0"
            CO_normed="871.476994" CO2_normed="111508.310574" HC_normed="6.631735" PMx_normed="1.976980" NOx_normed="41.852810" fuel_normed="47.932307" electricity_normed="0"
            traveltime="0.70" CO_perVeh="16.188043" CO2_perVeh="2071.312648" HC_perVeh="0.123187" PMx_perVeh="0.036723" NOx_perVeh="0.777433" fuel_perVeh="0.890362" electricity_perVeh="0"/>
        <edge id=":1110673479_0" sampledSeconds="133.42" CO_abs="6890.950014" CO2_abs="477606.745768" HC_abs="42.601726" PMx_abs="8.369816" NOx_abs="195.395845" fuel_abs="205.302367" electricity_abs="0"
            CO_normed="17593.914930" CO2_normed="1219421.478556" HC_normed="108.770365" PMx_normed="21.369744" NOx_normed="498.883009" fuel_normed="524.176257" electricity_normed="0"
            traveltime="0.03" CO_perVeh="1.451651" CO2_perVeh="100.612876" HC_perVeh="0.008975" PMx_perVeh="0.001763" NOx_perVeh="0.041162" fuel_perVeh="0.043249" electricity_perVeh="0"/>
        <edge id=":1110673511_0" sampledSeconds="11.84" CO_abs="155.166137" CO2_abs="22084.301844" HC_abs="1.210077" PMx_abs="0.271552" NOx_abs="8.026461" fuel_abs="9.493144" electricity_abs="0"
            CO_normed="396.168861" CO2_normed="56385.451517" HC_normed="3.089559" PMx_normed="0.693325" NOx_normed="20.493093" fuel_normed="24.237815" electricity_normed="0"
            traveltime="0.02" CO_perVeh="0.307260" CO2_perVeh="43.731291" HC_perVeh="0.002396" PMx_perVeh="0.000538" NOx_perVeh="0.015894" fuel_perVeh="0.018798" electricity_perVeh="0"/>
        <edge id=":1110673517_0" sampledSeconds="17.20" CO_abs="766.808874" CO2_abs="55934.532936" HC_abs="4.802263" PMx_abs="0.948113" NOx_abs="22.603417" fuel_abs="24.043845" electricity_abs="0"
            CO_normed="1957.809891" CO2_normed="142811.573454" HC_normed="12.261096" PMx_normed="2.420714" NOx_normed="57.710853" fuel_normed="61.388541" electricity_normed="0"
            traveltime="0.03" CO_perVeh="1.231162" CO2_perVeh="89.806582" HC_perVeh="0.007710" PMx_perVeh="0.001522" NOx_perVeh="0.036291" fuel_perVeh="0.038604" electricity_perVeh="0"/>
        <edge id=":1110673534_0" sampledSeconds="474.12" CO_abs="2417.692781" CO2_abs="228439.827521" HC_abs="16.195383" PMx_abs="2.843498" NOx_abs="84.973289" fuel_abs="98.197470" electricity_abs="0"
            CO_normed="119.628539" CO2_normed="11303.306656" HC_normed="0.801355" PMx_normed="0.140698" NOx_normed="4.204517" fuel_normed="4.858856" electricity_normed="0"
            traveltime="1.43" CO_perVeh="7.283539" CO2_perVeh="688.197642" HC_perVeh="0.048790" PMx_perVeh="0.008566" NOx_perVeh="0.255990" fuel_perVeh="0.295830" electricity_perVeh="0"/>
        <edge id=":1110673534_1" sampledSeconds="184.44" CO_abs="2538.816235" CO2_abs="322598.929138" HC_abs="18.950221" PMx_abs="4.370897" NOx_abs="120.111698" fuel_abs="138.671759" electricity_abs="0"
            CO_normed="122.149824" CO2_normed="15521.171615" HC_normed="0.911750" PMx_normed="0.210297" NOx_normed="5.778923" fuel_normed="6.671901" electricity_normed="0"
            traveltime="1.22" CO_perVeh="16.856828" CO2_perVeh="2141.941074" HC_perVeh="0.125823" PMx_perVeh="0.029021" NOx_perVeh="0.797499" fuel_perVeh="0.920731" electricity_perVeh="0"/>
        <edge id=":1110673549_0" sampledSeconds="60.45" CO_abs="86.087719" CO2_abs="7325.834690" HC_abs="0.556222" PMx_abs="0.082405" NOx_abs="2.677883" fuel_abs="3.149113" electricity_abs="0"
            CO_normed="4.126379" CO2_normed="351.143782" HC_normed="0.026661" PMx_normed="0.003950" NOx_normed="0.128357" fuel_normed="0.150944" electricity_normed="0"
            traveltime="1.26" CO_perVeh="1.793564" CO2_perVeh="152.627526" HC_perVeh="0.011588" PMx_perVeh="0.001717" NOx_perVeh="0.055791" fuel_perVeh="0.065609" electricity_perVeh="0"/>
        <edge id=":1110673549_1" sampledSeconds="639.90" CO_abs="13502.382813" CO2_abs="1828820.393167" HC_abs="105.018905" PMx_abs="31.882957" NOx_abs="680.306681" fuel_abs="786.126384" electricity_abs="0"
            CO_normed="626.044229" CO2_normed="84794.104057" HC_normed="4.869250" PMx_normed="1.478268" NOx_normed="31.542734" fuel_normed="36.449114" electricity_normed="0"
            traveltime="0.81" CO_perVeh="16.999968" CO2_perVeh="2302.548266" HC_perVeh="0.132222" PMx_perVeh="0.040142" NOx_perVeh="0.856530" fuel_perVeh="0.989760" electricity_perVeh="0"/>
        <edge id=":1110673556_0" sampledSeconds="419.43" CO_abs="51422.209952" CO2_abs="2573921.575707" HC_abs="295.336999" PMx_abs="51.896517" NOx_abs="1108.438166" fuel_abs="1106.417584" electricity_abs="0"
            CO_normed="1827.713441" CO2_normed="91485.586933" HC_normed="10.497242" PMx_normed="1.844572" NOx_normed="39.397516" fuel_normed="39.325698" electricity_normed="0"
            traveltime="2.60" CO_perVeh="319.204005" CO2_perVeh="15977.650062" HC_perVeh="1.833308" PMx_perVeh="0.322148" NOx_perVeh="6.880644" fuel_perVeh="6.868101" electricity_perVeh="0"/>
        <edge id=":1110673556_2" sampledSeconds="248.35" CO_abs="24443.053568" CO2_abs="1054029.150914" HC_abs="136.076410" PMx_abs="20.454768" NOx_abs="450.316622" fuel_abs="453.085506" electricity_abs="0"
            CO_normed="908.410427" CO2_normed="39172.318161" HC_normed="5.057193" PMx_normed="0.760188" NOx_normed="16.735729" fuel_normed="16.838633" electricity_normed="0"
            traveltime="3.01" CO_perVeh="296.489556" CO2_perVeh="12785.171618" HC_perVeh="1.650581" PMx_perVeh="0.248112" NOx_perVeh="5.462254" fuel_perVeh="5.495840" electricity_perVeh="0"/>
        <edge id=":1110673556_3" sampledSeconds="423.52" CO_abs="35557.662085" CO2_abs="1275242.774371" HC_abs="191.604772" PMx_abs="24.369517" NOx_abs="544.075797" fuel_abs="548.182029" electricity_abs="0"
            CO_normed="3006.143054" CO2_normed="107812.549616" HC_normed="16.198797" PMx_normed="2.060266" NOx_normed="45.997672" fuel_normed="46.344824" electricity_normed="0"
            traveltime="1.74" CO_perVeh="145.796714" CO2_perVeh="5228.864743" HC_perVeh="0.785635" PMx_perVeh="0.099922" NOx_perVeh="2.230868" fuel_perVeh="2.247705" electricity_perVeh="0"/>
        <edge id=":1110673556_4" sampledSeconds="189.02" CO_abs="19823.248884" CO2_abs="789552.521458" HC_abs="108.778576" PMx_abs="15.368386" NOx_abs="338.126011" fuel_abs="339.398620" electricity_abs="0"
            CO_normed="1023.854693" CO2_normed="40779.746019" HC_normed="5.618325" PMx_normed="0.793765" NOx_normed="17.463934" fuel_normed="17.529663" electricity_normed="0"
            traveltime="2.43" CO_perVeh="254.478611" CO2_perVeh="10135.787030" HC_perVeh="1.396432" PMx_perVeh="0.197290" NOx_perVeh="4.340653" fuel_perVeh="4.356990" electricity_perVeh="0"/>
        <edge id=":1110673556_5" sampledSeconds="22.95" CO_abs="1689.883359" CO2_abs="71188.092280" HC_abs="9.351971" PMx_abs="1.305885" NOx_abs="29.952355" fuel_abs="30.601096" electricity_abs="0"
            CO_normed="121.652138" CO2_normed="5124.722689" HC_normed="0.673234" PMx_normed="0.094009" NOx_normed="2.156225" fuel_normed="2.202926" electricity_normed="0"
            traveltime="1.59" CO_perVeh="116.831442" CO2_perVeh="4921.645886" HC_perVeh="0.646556" PMx_perVeh="0.090283" NOx_perVeh="2.070780" fuel_perVeh="2.115631" electricity_perVeh="0"/>
        <edge id=":1110673556_6" sampledSeconds="314.73" CO_abs="37934.787691" CO2_abs="1915453.666842" HC_abs="218.286494" PMx_abs="38.624014" NOx_abs="824.479791" fuel_abs="823.370457" electricity_abs="0"
            CO_normed="1382.323174" CO2_normed="69798.097057" HC_normed="7.954242" PMx_normed="1.407438" NOx_normed="30.043598" fuel_normed="30.003175" electricity_normed="0"
            traveltime="2.49" CO_perVeh="300.413003" CO2_perVeh="15168.852198" HC_perVeh="1.728653" PMx_perVeh="0.305871" NOx_perVeh="6.529217" fuel_perVeh="6.520432" electricity_perVeh="0"/>
        <edge id=":1110673561_0" sampledSeconds="101.36" CO_abs="9348.610337" CO2_abs="670353.509628" HC_abs="58.707996" PMx_abs="13.559137" NOx_abs="283.533134" fuel_abs="288.153024" electricity_abs="0"
            CO_normed="428.011817" CO2_normed="30691.109545" HC_normed="2.687856" PMx_normed="0.620784" NOx_normed="12.981131" fuel_normed="13.192645" electricity_normed="0"
            traveltime="1.20" CO_perVeh="110.322676" CO2_perVeh="7910.822059" HC_perVeh="0.692811" PMx_perVeh="0.160011" NOx_perVeh="3.345966" fuel_perVeh="3.400485" electricity_perVeh="0"/>
        <edge id=":1110673561_1" sampledSeconds="1309.95" CO_abs="121635.788996" CO2_abs="8418602.481440" HC_abs="757.606597" PMx_abs="176.195961" NOx_abs="3600.844479" fuel_abs="3618.750368" electricity_abs="0"
            CO_normed="5429.361211" CO2_normed="375774.549090" HC_normed="33.816691" PMx_normed="7.864721" NOx_normed="160.728068" fuel_normed="161.527319" electricity_normed="0"
            traveltime="1.19" CO_perVeh="110.603788" CO2_perVeh="7655.060473" HC_perVeh="0.688894" PMx_perVeh="0.160216" NOx_perVeh="3.274259" fuel_perVeh="3.290541" electricity_perVeh="0"/>
        <edge id=":1110673562_0" sampledSeconds="104.25" CO_abs="1927.789686" CO2_abs="154988.874116" HC_abs="12.305063" PMx_abs="2.044663" NOx_abs="58.756232" fuel_abs="66.623771" electricity_abs="0"
            CO_normed="5468.906910" CO2_normed="439684.749264" HC_normed="34.907981" PMx_normed="5.800462" NOx_normed="166.684347" fuel_normed="189.003605" electricity_normed="0"
            traveltime="0.03" CO_perVeh="0.491402" CO2_perVeh="39.507370" HC_perVeh="0.003137" PMx_perVeh="0.000521" NOx_perVeh="0.014977" fuel_perVeh="0.016983" electricity_perVeh="0"/>
        <edge id=":1110673564_0" sampledSeconds="28.51" CO_abs="477.114497" CO2_abs="53655.849712" HC_abs="3.398013" PMx_abs="0.751885" NOx_abs="20.243474" fuel_abs="23.064398" electricity_abs="0"
            CO_normed="3654.494023" CO2_normed="410980.976516" HC_normed="26.027337" PMx_normed="5.759122" NOx_normed="155.056399" fuel_normed="176.663474" electricity_normed="0"
            traveltime="7.838042e-03" CO_perVeh="0.131165" CO2_perVeh="14.750749" HC_perVeh="0.000934" PMx_perVeh="0.000207" NOx_perVeh="0.005565" fuel_perVeh="0.006341" electricity_perVeh="0"/>
        <edge id=":1110673588_0" sampledSeconds="11.82" CO_abs="174.153724" CO2_abs="20079.207642" HC_abs="1.259257" PMx_abs="0.288505" NOx_abs="7.601520" fuel_abs="8.631197" electricity_abs="0"
            CO_normed="533.577366" CO2_normed="61519.274476" HC_normed="3.858149" PMx_normed="0.883930" NOx_normed="23.289764" fuel_normed="26.444519" electricity_normed="0"
            traveltime="0.02" CO_perVeh="0.290256" CO2_perVeh="33.465346" HC_perVeh="0.002099" PMx_perVeh="0.000481" NOx_perVeh="0.012669" fuel_perVeh="0.014385" electricity_perVeh="0"/>
        <edge id=":1110673601_0" sampledSeconds="29.81" CO_abs="399.623928" CO2_abs="51220.247929" HC_abs="2.995558" PMx_abs="0.681937" NOx_abs="19.005147" fuel_abs="22.017453" electricity_abs="0"
            CO_normed="1093.196157" CO2_normed="140116.179745" HC_normed="8.194535" PMx_normed="1.865482" NOx_normed="51.989763" fuel_normed="60.230115" electricity_normed="0"
            traveltime="0.02" CO_perVeh="0.296606" CO2_perVeh="38.016354" HC_perVeh="0.002223" PMx_perVeh="0.000506" NOx_perVeh="0.014106" fuel_perVeh="0.016342" electricity_perVeh="0"/>
        <edge id=":1110673617_0" sampledSeconds="238.01" CO_abs="5633.466936" CO2_abs="708906.142357" HC_abs="42.659042" PMx_abs="12.641627" NOx_abs="266.910945" fuel_abs="304.726169" electricity_abs="0"
            CO_normed="14383.319837" CO2_normed="1809973.129422" HC_normed="108.916704" PMx_normed="32.276494" NOx_normed="681.474754" fuel_normed="778.024262" electricity_normed="0"
            traveltime="0.01" CO_perVeh="0.345528" CO2_perVeh="43.480714" HC_perVeh="0.002616" PMx_perVeh="0.000775" NOx_perVeh="0.016371" fuel_perVeh="0.018690" electricity_perVeh="0"/>
        <edge id=":1110673621_0" sampledSeconds="25.87" CO_abs="506.470281" CO2_abs="52306.997906" HC_abs="3.519793" PMx_abs="0.785750" NOx_abs="20.136572" fuel_abs="22.484534" electricity_abs="0"
            CO_normed="1551.738733" CO2_normed="160259.738266" HC_normed="10.784047" PMx_normed="2.407403" NOx_normed="61.695029" fuel_normed="68.888784" electricity_normed="0"
            traveltime="0.02" CO_perVeh="0.383690" CO2_perVeh="39.626514" HC_perVeh="0.002667" PMx_perVeh="0.000595" NOx_perVeh="0.015255" fuel_perVeh="0.017034" electricity_perVeh="0"/>
        <edge id=":1110673630_0" sampledSeconds="54.88" CO_abs="341.967315" CO2_abs="30443.708922" HC_abs="2.248329" PMx_abs="0.384306" NOx_abs="11.387418" fuel_abs="13.086582" electricity_abs="0"
            CO_normed="18.682768" CO2_normed="1663.237201" HC_normed="0.122833" PMx_normed="0.020996" NOx_normed="0.622131" fuel_normed="0.714962" electricity_normed="0"
            traveltime="1.28" CO_perVeh="7.982122" CO2_perVeh="710.610014" HC_perVeh="0.052480" PMx_perVeh="0.008970" NOx_perVeh="0.265802" fuel_perVeh="0.305464" electricity_perVeh="0"/>
        <edge id=":1110673630_1" sampledSeconds="7.49" CO_abs="14.396022" CO2_abs="1117.494742" HC_abs="0.090339" PMx_abs="0.011591" NOx_abs="0.404542" fuel_abs="0.480373" electricity_abs="0"
            CO_normed="0.958847" CO2_normed="74.430732" HC_normed="0.006017" PMx_normed="0.000772" NOx_normed="0.026945" fuel_normed="0.031995" electricity_normed="0"
            traveltime="1.06" CO_perVeh="2.037591" CO2_perVeh="158.168487" HC_perVeh="0.012786" PMx_perVeh="0.001641" NOx_perVeh="0.057258" fuel_perVeh="0.067991" electricity_perVeh="0"/>
        <edge id=":1110673650_0" sampledSeconds="143.66" CO_abs="2015.041943" CO2_abs="261483.025749" HC_abs="15.107658" PMx_abs="3.488124" NOx_abs="96.934561" fuel_abs="112.400639" electricity_abs="0"
            CO_normed="5144.787940" CO2_normed="667616.235954" HC_normed="38.572744" PMx_normed="8.905848" NOx_normed="247.492497" fuel_normed="286.980354" electricity_normed="0"
            traveltime="0.02" CO_perVeh="0.323528" CO2_perVeh="41.982825" HC_perVeh="0.002426" PMx_perVeh="0.000560" NOx_perVeh="0.015563" fuel_perVeh="0.018047" electricity_perVeh="0"/>
        <edge id=":1110673655_0" sampledSeconds="44.96" CO_abs="920.204970" CO2_abs="96013.557701" HC_abs="6.406099" PMx_abs="1.391868" NOx_abs="36.669001" fuel_abs="41.272173" electricity_abs="0"
            CO_normed="2349.459498" CO2_normed="245140.998386" HC_normed="16.355999" PMx_normed="3.553705" NOx_normed="93.622981" fuel_normed="105.375762" electricity_normed="0"
            traveltime="0.02" CO_perVeh="0.492483" CO2_perVeh="51.385367" HC_perVeh="0.003428" PMx_perVeh="0.000745" NOx_perVeh="0.019625" fuel_perVeh="0.022088" electricity_perVeh="0"/>
        <edge id=":1110673663_0" sampledSeconds="109.58" CO_abs="1883.290717" CO2_abs="211889.294959" HC_abs="13.451545" PMx_abs="3.008974" NOx_abs="80.146376" fuel_abs="91.082265" electricity_abs="0"
            CO_normed="88.065968" CO2_normed="9908.314003" HC_normed="0.629018" PMx_normed="0.140705" NOx_normed="3.747785" fuel_normed="4.259166" electricity_normed="0"
            traveltime="1.29" CO_perVeh="22.120138" CO2_perVeh="2488.739729" HC_perVeh="0.157995" PMx_perVeh="0.035342" NOx_perVeh="0.941357" fuel_perVeh="1.069804" electricity_perVeh="0"/>
        <edge id=":1110673663_1" sampledSeconds="153.39" CO_abs="2382.310968" CO2_abs="286580.126446" HC_abs="17.443353" PMx_abs="4.038155" NOx_abs="107.805688" fuel_abs="123.188648" electricity_abs="0"
            CO_normed="111.537214" CO2_normed="13417.370535" HC_normed="0.816679" PMx_normed="0.189062" NOx_normed="5.047345" fuel_normed="5.767559" electricity_normed="0"
            traveltime="1.24" CO_perVeh="19.323751" CO2_perVeh="2324.550848" HC_perVeh="0.141489" PMx_perVeh="0.032755" NOx_perVeh="0.874449" fuel_perVeh="0.999226" electricity_perVeh="0"/>
        <edge id=":1110673666_0" sampledSeconds="191.45" CO_abs="3920.885775" CO2_abs="311232.970868" HC_abs="24.976530" PMx_abs="4.325096" NOx_abs="119.425016" fuel_abs="133.786819" electricity_abs="0"