<?xml version="1.0" encoding="UTF-8"?>

<!-- generated on Tue Nov 10 00:02:21 2020 by Eclipse SUMO sumo Version 1.7.0
<configuration xmlns:xsi="http://www.w3.org/2001/XMLSchema-instance" xsi:noNamespaceSchemaLocation="http://sumo.dlr.de/xsd/sumoConfiguration.xsd">

    <input>
        <net-file value="../dataSets/Porto/6AM7AM_Routing_SaoBento/Porto.net.xml"/>
        <route-files value="../results/Porto/6AM7AM_Routing_SaoBento/cost_hc-length/solution7/Porto.rou.xml"/>
        <additional-files value="moreOutputInfo.xml"/>
    </input>

    <output>
        <emission-output.precision value="6"/>
        <tripinfo-output value="../results/Porto/6AM7AM_Routing_SaoBento/cost_hc-length/solution7/Porto-tripinfo"/>
    </output>

    <processing>
        <collision.action value="warn"/>
        <time-to-teleport value="-1"/>
    </processing>

    <emissions>
        <device.emissions.probability value="1"/>
    </emissions>

    <gui_only>
        <quit-on-end value="true"/>
        <start value="true"/>
    </gui_only>

</configuration>
-->

<meandata xmlns:xsi="http://www.w3.org/2001/XMLSchema-instance" xsi:noNamespaceSchemaLocation="http://sumo.dlr.de/xsd/meandata_file.xsd">
    <interval begin="0.00" end="4698.00" id="emissions-detector">
        <edge id=":1092997347_0" sampledSeconds="268.71" CO_abs="34670.783985" CO2_abs="1369693.513694" HC_abs="190.258237" PMx_abs="28.074455" NOx_abs="595.433712" fuel_abs="588.777292" electricity_abs="0"
            CO_normed="60381.024008" CO2_normed="2385394.485709" HC_normed="331.344893" PMx_normed="48.893164" NOx_normed="1036.979645" fuel_normed="1025.387134" electricity_normed="0"
            traveltime="0.08" CO_perVeh="9.756638" CO2_perVeh="385.442806" HC_perVeh="0.053540" PMx_perVeh="0.007900" NOx_perVeh="0.167560" fuel_perVeh="0.165687" electricity_perVeh="0"/>
        <edge id=":1103427051_0" sampledSeconds="10.84" CO_abs="909.666298" CO2_abs="51917.589553" HC_abs="5.376691" PMx_abs="1.025509" NOx_abs="22.182732" fuel_abs="22.317054" electricity_abs="0"
            CO_normed="2403.663093" CO2_normed="137184.805268" HC_normed="14.207137" PMx_normed="2.709760" NOx_normed="58.614698" fuel_normed="58.969624" electricity_normed="0"
            traveltime="0.03" CO_perVeh="2.492472" CO2_perVeh="142.253411" HC_perVeh="0.014732" PMx_perVeh="0.002810" NOx_perVeh="0.060780" fuel_perVeh="0.061148" electricity_perVeh="0"/>
        <edge id=":1105984386_0" sampledSeconds="22.82" CO_abs="532.870005" CO2_abs="38815.431739" HC_abs="3.318371" PMx_abs="0.570575" NOx_abs="15.164449" fuel_abs="16.685211" electricity_abs="0"
            CO_normed="42.052472" CO2_normed="3063.195248" HC_normed="0.261876" PMx_normed="0.045028" NOx_normed="1.196732" fuel_normed="1.316746" electricity_normed="0"
            traveltime="0.96" CO_perVeh="22.364141" CO2_perVeh="1629.053606" HC_perVeh="0.139269" PMx_perVeh="0.023947" NOx_perVeh="0.636440" fuel_perVeh="0.700265" electricity_perVeh="0"/>
        <edge id=":1105984390_0" sampledSeconds="23.21" CO_abs="1.681001" CO2_abs="150.119856" HC_abs="0.010946" PMx_abs="0.001299" NOx_abs="0.052415" fuel_abs="0.064532" electricity_abs="0"
            CO_normed="0.102558" CO2_normed="9.158788" HC_normed="0.000668" PMx_normed="0.000079" NOx_normed="0.003198" fuel_normed="0.003937" electricity_normed="0"
            traveltime="1.05" CO_perVeh="0.076233" CO2_perVeh="6.807862" HC_perVeh="0.000496" PMx_perVeh="0.000059" NOx_perVeh="0.002377" fuel_perVeh="0.002926" electricity_perVeh="0"/>
        <edge id=":1105984390_1" sampledSeconds="646.14" CO_abs="14398.447290" CO2_abs="1921512.074418" HC_abs="111.305056" PMx_abs="33.694606" NOx_abs="715.739254" fuel_abs="825.970213" electricity_abs="0"
            CO_normed="840.311724" CO2_normed="112141.892272" HC_normed="6.495905" PMx_normed="1.966460" NOx_normed="41.771455" fuel_normed="48.204674" electricity_normed="0"
            traveltime="0.64" CO_perVeh="14.162581" CO2_perVeh="1890.035111" HC_perVeh="0.109482" PMx_perVeh="0.033143" NOx_perVeh="0.704014" fuel_perVeh="0.812440" electricity_perVeh="0"/>
        <edge id=":1105984395_0" sampledSeconds="8.99" CO_abs="188.259516" CO2_abs="14968.915405" HC_abs="1.197349" PMx_abs="0.195792" NOx_abs="5.672416" fuel_abs="6.434566" electricity_abs="0"
            CO_normed="156.804527" CO2_normed="12467.862240" HC_normed="0.997293" PMx_normed="0.163078" NOx_normed="4.724651" fuel_normed="5.359459" electricity_normed="0"
            traveltime="0.09" CO_perVeh="1.909157" CO2_perVeh="151.801170" HC_perVeh="0.012142" PMx_perVeh="0.001986" NOx_perVeh="0.057524" fuel_perVeh="0.065254" electricity_perVeh="0"/>
        <edge id=":1105984398_0" sampledSeconds="23.99" CO_abs="1482.828759" CO2_abs="104987.767558" HC_abs="9.222154" PMx_abs="1.846951" NOx_abs="42.962867" fuel_abs="45.129640" electricity_abs="0"
            CO_normed="93.984057" CO2_normed="6654.292522" HC_normed="0.584515" PMx_normed="0.117063" NOx_normed="2.723055" fuel_normed="2.860389" electricity_normed="0"
            traveltime="1.10" CO_perVeh="68.151274" CO2_perVeh="4825.270637" HC_perVeh="0.423853" PMx_perVeh="0.084886" NOx_perVeh="1.974587" fuel_perVeh="2.074172" electricity_perVeh="0"/>
        <edge id=":1105984398_1" sampledSeconds="452.33" CO_abs="8094.721261" CO2_abs="921513.767004" HC_abs="58.159466" PMx_abs="13.525055" NOx_abs="350.857857" fuel_abs="396.119178" electricity_abs="0"
            CO_normed="496.625424" CO2_normed="56536.494606" HC_normed="3.568186" PMx_normed="0.829786" NOx_normed="21.525748" fuel_normed="24.302610" electricity_normed="0"
            traveltime="0.96" CO_perVeh="17.131208" CO2_perVeh="1950.239407" HC_perVeh="0.123085" PMx_perVeh="0.028624" NOx_perVeh="0.742536" fuel_perVeh="0.838324" electricity_perVeh="0"/>
        <edge id=":1106006327_0" sampledSeconds="135.18" CO_abs="18105.169417" CO2_abs="585207.524208" HC_abs="96.205950" PMx_abs="12.172770" NOx_abs="255.954020" fuel_abs="251.560168" electricity_abs="0"
            CO_normed="1565.879576" CO2_normed="50613.418110" HC_normed="8.320659" PMx_normed="1.052798" NOx_normed="22.136947" fuel_normed="21.756931" electricity_normed="0"
            traveltime="2.10" CO_perVeh="280.626642" CO2_perVeh="9070.604010" HC_perVeh="1.491174" PMx_perVeh="0.188676" NOx_perVeh="3.967238" fuel_perVeh="3.899134" electricity_perVeh="0"/>
        <edge id=":1106006327_1" sampledSeconds="162.74" CO_abs="22007.999582" CO2_abs="731286.208643" HC_abs="117.441896" PMx_abs="15.255127" NOx_abs="320.040074" fuel_abs="314.353680" electricity_abs="0"
            CO_normed="1659.878691" CO2_normed="55154.780873" HC_normed="8.857657" PMx_normed="1.150566" NOx_normed="24.137937" fuel_normed="23.709060" electricity_normed="0"
            traveltime="2.31" CO_perVeh="312.431919" CO2_perVeh="10381.550246" HC_perVeh="1.667239" PMx_perVeh="0.216566" NOx_perVeh="4.543381" fuel_perVeh="4.462656" electricity_perVeh="0"/>
        <edge id=":1106006327_2" sampledSeconds="0.00" CO_abs="0" CO2_abs="0" HC_abs="0" PMx_abs="0" NOx_abs="0" fuel_abs="0" electricity_abs="0"
            CO_normed="0" CO2_normed="0" HC_normed="0" PMx_normed="0" NOx_normed="0" fuel_normed="0" electricity_normed="0"/>
        <edge id=":1106006327_3" sampledSeconds="0.00" CO_abs="0" CO2_abs="0" HC_abs="0" PMx_abs="0" NOx_abs="0" fuel_abs="0" electricity_abs="0"
            CO_normed="0" CO2_normed="0" HC_normed="0" PMx_normed="0" NOx_normed="0" fuel_normed="0" electricity_normed="0"/>
        <edge id=":1107381198_0" sampledSeconds="0.00" CO_abs="0" CO2_abs="0" HC_abs="0" PMx_abs="0" NOx_abs="0" fuel_abs="0" electricity_abs="0"
            CO_normed="0" CO2_normed="0" HC_normed="0" PMx_normed="0" NOx_normed="0" fuel_normed="0" electricity_normed="0"/>
        <edge id=":1107381198_1" sampledSeconds="36.19" CO_abs="982.621855" CO2_abs="40448.698690" HC_abs="5.403233" PMx_abs="0.680901" NOx_abs="16.637901" fuel_abs="17.387492" electricity_abs="0"
            CO_normed="82.111989" CO2_normed="3380.062313" HC_normed="0.451517" PMx_normed="0.056899" NOx_normed="1.390333" fuel_normed="1.452972" electricity_normed="0"
            traveltime="1.49" CO_perVeh="40.457267" CO2_perVeh="1665.385089" HC_perVeh="0.222466" PMx_perVeh="0.028035" NOx_perVeh="0.685029" fuel_perVeh="0.715891" electricity_perVeh="0"/>
        <edge id=":1110338277_0" sampledSeconds="96.46" CO_abs="1404.907186" CO2_abs="171379.967066" HC_abs="10.314849" PMx_abs="2.357505" NOx_abs="64.152925" fuel_abs="73.669045" electricity_abs="0"
            CO_normed="3844.847254" CO2_normed="469020.161647" HC_normed="28.228924" PMx_normed="6.451847" NOx_normed="175.569033" fuel_normed="201.612055" electricity_normed="0"
            traveltime="0.02" CO_perVeh="0.316622" CO2_perVeh="38.623635" HC_perVeh="0.002325" PMx_perVeh="0.000531" NOx_perVeh="0.014458" fuel_perVeh="0.016603" electricity_perVeh="0"/>
        <edge id=":1110338293_0" sampledSeconds="123.86" CO_abs="6117.525880" CO2_abs="425883.954918" HC_abs="37.852532" PMx_abs="7.395013" NOx_abs="173.763970" fuel_abs="183.069073" electricity_abs="0"
            CO_normed="15625.864317" CO2_normed="1087826.193917" HC_normed="96.685906" PMx_normed="18.888921" NOx_normed="443.841559" fuel_normed="467.609383" electricity_normed="0"
            traveltime="0.03" CO_perVeh="1.403156" CO2_perVeh="97.683540" HC_perVeh="0.008682" PMx_perVeh="0.001696" NOx_perVeh="0.039856" fuel_perVeh="0.041990" electricity_perVeh="0"/>
        <edge id=":1110338295_0" sampledSeconds="0.00" CO_abs="0" CO2_abs="0" HC_abs="0" PMx_abs="0" NOx_abs="0" fuel_abs="0" electricity_abs="0"
            CO_normed="0" CO2_normed="0" HC_normed="0" PMx_normed="0" NOx_normed="0" fuel_normed="0" electricity_normed="0"/>
        <edge id=":1110673403_0" sampledSeconds="143.65" CO_abs="2257.218806" CO2_abs="280926.825759" HC_abs="16.659869" PMx_abs="3.866531" NOx_abs="105.008716" fuel_abs="120.758602" electricity_abs="0"
            CO_normed="5765.565278" CO2_normed="717565.327609" HC_normed="42.553943" PMx_normed="9.876198" NOx_normed="268.221496" fuel_normed="308.451090" electricity_normed="0"
            traveltime="0.02" CO_perVeh="0.362411" CO2_perVeh="45.104655" HC_perVeh="0.002675" PMx_perVeh="0.000621" NOx_perVeh="0.016860" fuel_perVeh="0.019389" electricity_perVeh="0"/>
        <edge id=":1110673412_0" sampledSeconds="252.88" CO_abs="44743.476669" CO2_abs="3055065.852960" HC_abs="278.490077" PMx_abs="67.096668" NOx_abs="1312.775209" fuel_abs="1313.222360" electricity_abs="0"
            CO_normed="118228.237994" CO2_normed="8072574.588346" HC_normed="735.870199" PMx_normed="177.293348" NOx_normed="3468.820740" fuel_normed="3470.002273" electricity_normed="0"
            traveltime="0.02" CO_perVeh="2.756899" CO2_perVeh="188.239936" HC_perVeh="0.017159" PMx_perVeh="0.004134" NOx_perVeh="0.080888" fuel_perVeh="0.080915" electricity_perVeh="0"/>
        <edge id=":1110673414_0" sampledSeconds="0.00" CO_abs="0" CO2_abs="0" HC_abs="0" PMx_abs="0" NOx_abs="0" fuel_abs="0" electricity_abs="0"
            CO_normed="0" CO2_normed="0" HC_normed="0" PMx_normed="0" NOx_normed="0" fuel_normed="0" electricity_normed="0"/>
        <edge id=":1110673414_1" sampledSeconds="14.68" CO_abs="943.980721" CO2_abs="34389.333299" HC_abs="5.096291" PMx_abs="0.639276" NOx_abs="14.546858" fuel_abs="14.782781" electricity_abs="0"
            CO_normed="80.105966" CO2_normed="2918.270159" HC_normed="0.432470" PMx_normed="0.054249" NOx_normed="1.234443" fuel_normed="1.254463" electricity_normed="0"
            traveltime="1.60" CO_perVeh="103.098040" CO2_perVeh="3755.874210" HC_perVeh="0.556598" PMx_perVeh="0.069819" NOx_perVeh="1.588753" fuel_perVeh="1.614520" electricity_perVeh="0"/>
        <edge id=":1110673417_0" sampledSeconds="29.21" CO_abs="498.333261" CO2_abs="58942.629038" HC_abs="3.611098" PMx_abs="0.837883" NOx_abs="22.227949" fuel_abs="25.336930" electricity_abs="0"
            CO_normed="1363.802029" CO2_normed="161309.876951" HC_normed="9.882589" PMx_normed="2.293057" NOx_normed="60.831825" fuel_normed="69.340256" electricity_normed="0"
            traveltime="0.02" CO_perVeh="0.369870" CO2_perVeh="43.748008" HC_perVeh="0.002680" PMx_perVeh="0.000622" NOx_perVeh="0.016498" fuel_perVeh="0.018805" electricity_perVeh="0"/>
        <edge id=":1110673446_0" sampledSeconds="334.28" CO_abs="3324.611199" CO2_abs="267051.939307" HC_abs="21.467710" PMx_abs="4.891893" NOx_abs="109.273218" fuel_abs="114.793374" electricity_abs="0"
            CO_normed="8491.982629" CO2_normed="682125.004615" HC_normed="54.834509" PMx_normed="12.495257" NOx_normed="279.114222" fuel_normed="293.214237" electricity_normed="0"
            traveltime="0.02" CO_perVeh="0.226827" CO2_perVeh="18.220056" HC_perVeh="0.001465" PMx_perVeh="0.000334" NOx_perVeh="0.007455" fuel_perVeh="0.007832" electricity_perVeh="0"/>
        <edge id=":1110673451_0" sampledSeconds="36.87" CO_abs="327.424703" CO2_abs="24340.656471" HC_abs="2.049095" PMx_abs="0.349762" NOx_abs="9.445372" fuel_abs="10.463088" electricity_abs="0"
            CO_normed="929.259835" CO2_normed="69080.903848" HC_normed="5.815511" PMx_normed="0.992655" NOx_normed="26.806788" fuel_normed="29.695156" electricity_normed="0"
            traveltime="0.03" CO_perVeh="0.234807" CO2_perVeh="17.455451" HC_perVeh="0.001469" PMx_perVeh="0.000251" NOx_perVeh="0.006774" fuel_perVeh="0.007503" electricity_perVeh="0"/>
        <edge id=":1110673464_0" sampledSeconds="323.91" CO_abs="725.575565" CO2_abs="62742.188258" HC_abs="4.729837" PMx_abs="0.798156" NOx_abs="23.447952" fuel_abs="26.970473" electricity_abs="0"
            CO_normed="39.376530" CO2_normed="3404.979120" HC_normed="0.256685" PMx_normed="0.043315" NOx_normed="1.272506" fuel_normed="1.463671" electricity_normed="0"
            traveltime="1.17" CO_perVeh="2.622860" CO2_perVeh="226.804733" HC_perVeh="0.017098" PMx_perVeh="0.002885" NOx_perVeh="0.084761" fuel_perVeh="0.097495" electricity_perVeh="0"/>
        <edge id=":1110673464_1" sampledSeconds="709.29" CO_abs="15998.838340" CO2_abs="2015768.187156" HC_abs="121.128769" PMx_abs="35.927536" NOx_abs="758.472312" fuel_abs="866.486133" electricity_abs="0"
            CO_normed="850.773507" CO2_normed="107192.918240" HC_normed="6.441289" PMx_normed="1.910526" NOx_normed="40.333438" fuel_normed="46.077311" electricity_normed="0"
            traveltime="0.70" CO_perVeh="15.784197" CO2_perVeh="1988.724466" HC_perVeh="0.119504" PMx_perVeh="0.035446" NOx_perVeh="0.748297" fuel_perVeh="0.854861" electricity_perVeh="0"/>
        <edge id=":1110673479_0" sampledSeconds="133.85" CO_abs="6429.671292" CO2_abs="444630.135389" HC_abs="39.738853" PMx_abs="7.859508" NOx_abs="182.346983" fuel_abs="191.127065" electricity_abs="0"
            CO_normed="16423.170604" CO2_normed="1135709.158082" HC_normed="101.504095" PMx_normed="20.075370" NOx_normed="465.764962" fuel_normed="488.191738" electricity_normed="0"
            traveltime="0.03" CO_perVeh="1.354470" CO2_perVeh="93.665501" HC_perVeh="0.008371" PMx_perVeh="0.001656" NOx_perVeh="0.038413" fuel_perVeh="0.040263" electricity_perVeh="0"/>
        <edge id=":1110673511_0" sampledSeconds="11.84" CO_abs="111.240779" CO2_abs="16361.667960" HC_abs="0.871726" PMx_abs="0.196335" NOx_abs="5.906309" fuel_abs="7.033220" electricity_abs="0"
            CO_normed="284.139922" CO2_normed="41792.255325" HC_normed="2.226631" PMx_normed="0.501494" NOx_normed="15.086358" fuel_normed="17.964803" electricity_normed="0"
            traveltime="0.02" CO_perVeh="0.220279" CO2_perVeh="32.399342" HC_perVeh="0.001726" PMx_perVeh="0.000389" NOx_perVeh="0.011696" fuel_perVeh="0.013927" electricity_perVeh="0"/>
        <edge id=":1110673517_0" sampledSeconds="17.23" CO_abs="632.242391" CO2_abs="45278.584826" HC_abs="3.942268" PMx_abs="0.783802" NOx_abs="18.426643" fuel_abs="19.463295" electricity_abs="0"
            CO_normed="1614.923094" CO2_normed="115654.111944" HC_normed="10.069650" PMx_normed="2.002047" NOx_normed="47.066777" fuel_normed="49.714674" electricity_normed="0"
            traveltime="0.03" CO_perVeh="1.015107" CO2_perVeh="72.697755" HC_perVeh="0.006330" PMx_perVeh="0.001258" NOx_perVeh="0.029585" fuel_perVeh="0.031250" electricity_perVeh="0"/>
        <edge id=":1110673534_0" sampledSeconds="474.58" CO_abs="2932.840673" CO2_abs="249448.139747" HC_abs="19.074634" PMx_abs="3.468445" NOx_abs="95.440952" fuel_abs="107.227797" electricity_abs="0"
            CO_normed="145.180070" CO2_normed="12348.062003" HC_normed="0.944223" PMx_normed="0.171693" NOx_normed="4.724472" fuel_normed="5.307939" electricity_normed="0"
            traveltime="1.43" CO_perVeh="8.835473" CO2_perVeh="751.487267" HC_perVeh="0.057464" PMx_perVeh="0.010449" NOx_perVeh="0.287525" fuel_perVeh="0.323034" electricity_perVeh="0"/>
        <edge id=":1110673534_1" sampledSeconds="184.45" CO_abs="2733.681166" CO2_abs="350674.358560" HC_abs="20.461980" PMx_abs="4.682412" NOx_abs="130.039716" fuel_abs="150.740300" electricity_abs="0"
            CO_normed="131.581334" CO2_normed="16879.144697" HC_normed="0.984904" PMx_normed="0.225380" NOx_normed="6.259252" fuel_normed="7.255641" electricity_normed="0"
            traveltime="1.22" CO_perVeh="18.150662" CO2_perVeh="2328.351846" HC_perVeh="0.135860" PMx_perVeh="0.031090" NOx_perVeh="0.863417" fuel_perVeh="1.000861" electricity_perVeh="0"/>
        <edge id=":1110673549_0" sampledSeconds="60.90" CO_abs="12.956763" CO2_abs="1883.717451" HC_abs="0.100332" PMx_abs="0.014344" NOx_abs="0.634670" fuel_abs="0.809746" electricity_abs="0"
            CO_normed="0.621311" CO2_normed="90.329265" HC_normed="0.004811" PMx_normed="0.000688" NOx_normed="0.030434" fuel_normed="0.038829" electricity_normed="0"
            traveltime="1.27" CO_perVeh="0.269943" CO2_perVeh="39.245649" HC_perVeh="0.002090" PMx_perVeh="0.000299" NOx_perVeh="0.013223" fuel_perVeh="0.016870" electricity_perVeh="0"/>
        <edge id=":1110673549_1" sampledSeconds="639.32" CO_abs="13749.528886" CO2_abs="1807265.522168" HC_abs="105.685893" PMx_abs="31.796875" NOx_abs="675.114350" fuel_abs="776.860740" electricity_abs="0"
            CO_normed="637.774665" CO2_normed="83830.374986" HC_normed="4.902261" PMx_normed="1.474904" NOx_normed="31.315315" fuel_normed="36.034842" electricity_normed="0"
            traveltime="0.81" CO_perVeh="17.314967" CO2_perVeh="2275.913833" HC_perVeh="0.133092" PMx_perVeh="0.040042" NOx_perVeh="0.850181" fuel_perVeh="0.978311" electricity_perVeh="0"/>
        <edge id=":1110673556_0" sampledSeconds="416.70" CO_abs="51086.611087" CO2_abs="2563952.775729" HC_abs="293.591511" PMx_abs="51.751161" NOx_abs="1104.191865" fuel_abs="1102.132259" electricity_abs="0"
            CO_normed="1816.558163" CO2_normed="91170.058964" HC_normed="10.439644" PMx_normed="1.840189" NOx_normed="39.263296" fuel_normed="39.190060" electricity_normed="0"
            traveltime="2.59" CO_perVeh="317.120771" CO2_perVeh="15915.768613" HC_perVeh="1.822473" PMx_perVeh="0.321246" NOx_perVeh="6.854285" fuel_perVeh="6.841500" electricity_perVeh="0"/>
        <edge id=":1110673556_2" sampledSeconds="244.99" CO_abs="23981.718328" CO2_abs="1048049.160345" HC_abs="133.812100" PMx_abs="20.159852" NOx_abs="446.501551" fuel_abs="450.514953" electricity_abs="0"
            CO_normed="891.644622" CO2_normed="38966.657199" HC_normed="4.975158" PMx_normed="0.749547" NOx_normed="16.601008" fuel_normed="16.750227" electricity_normed="0"
            traveltime="2.97" CO_perVeh="290.893648" CO2_perVeh="12712.635479" HC_perVeh="1.623115" PMx_perVeh="0.244535" NOx_perVeh="5.415978" fuel_perVeh="5.464660" electricity_perVeh="0"/>
        <edge id=":1110673556_3" sampledSeconds="420.54" CO_abs="36155.104539" CO2_abs="1275868.230007" HC_abs="194.258337" PMx_abs="24.055894" NOx_abs="542.297960" fuel_abs="548.451878" electricity_abs="0"
            CO_normed="3057.953747" CO2_normed="107911.347086" HC_normed="16.430128" PMx_normed="2.034618" NOx_normed="45.866887" fuel_normed="46.387377" electricity_normed="0"
            traveltime="1.75" CO_perVeh="150.123505" CO2_perVeh="5297.669940" HC_perVeh="0.806601" PMx_perVeh="0.099885" NOx_perVeh="2.251734" fuel_perVeh="2.277286" electricity_perVeh="0"/>
        <edge id=":1110673556_4" sampledSeconds="193.33" CO_abs="19732.619870" CO2_abs="791976.936133" HC_abs="108.430654" PMx_abs="15.432834" NOx_abs="339.279372" fuel_abs="340.440627" electricity_abs="0"
            CO_normed="1019.607654" CO2_normed="40922.378844" HC_normed="5.602739" PMx_normed="0.797433" NOx_normed="17.530964" fuel_normed="17.590967" electricity_normed="0"
            traveltime="2.40" CO_perVeh="245.009756" CO2_perVeh="9833.568850" HC_perVeh="1.346327" PMx_perVeh="0.191622" NOx_perVeh="4.212657" fuel_perVeh="4.227076" electricity_perVeh="0"/>
        <edge id=":1110673556_5" sampledSeconds="25.07" CO_abs="1960.095387" CO2_abs="77281.890444" HC_abs="10.729806" PMx_abs="1.467174" NOx_abs="32.845111" fuel_abs="33.220622" electricity_abs="0"
            CO_normed="141.164361" CO2_normed="5565.774382" HC_normed="0.772751" PMx_normed="0.105665" NOx_normed="2.365476" fuel_normed="2.392520" electricity_normed="0"
            traveltime="1.73" CO_perVeh="135.512767" CO2_perVeh="5342.945512" HC_perVeh="0.741814" PMx_perVeh="0.101434" NOx_perVeh="2.270773" fuel_perVeh="2.296734" electricity_perVeh="0"/>
        <edge id=":1110673556_6" sampledSeconds="310.81" CO_abs="37612.319867" CO2_abs="1919714.813330" HC_abs="216.946819" PMx_abs="38.784874" NOx_abs="826.768728" fuel_abs="825.201680" electricity_abs="0"
            CO_normed="1371.156092" CO2_normed="69983.150998" HC_normed="7.908790" PMx_normed="1.413902" NOx_normed="30.139831" fuel_normed="30.082705" electricity_normed="0"
            traveltime="2.46" CO_perVeh="297.859317" CO2_perVeh="15202.597050" HC_perVeh="1.718044" PMx_perVeh="0.307145" NOx_perVeh="6.547343" fuel_perVeh="6.534933" electricity_perVeh="0"/>
        <edge id=":1110673561_0" sampledSeconds="102.48" CO_abs="9073.055414" CO2_abs="648242.936303" HC_abs="56.906041" PMx_abs="13.114138" NOx_abs="274.274354" fuel_abs="278.648756" electricity_abs="0"
            CO_normed="415.572796" CO2_normed="29691.445441" HC_normed="2.606465" PMx_normed="0.600666" NOx_normed="12.562577" fuel_normed="12.762938" electricity_normed="0"
            traveltime="1.21" CO_perVeh="107.070860" CO2_perVeh="7649.895833" HC_perVeh="0.671547" PMx_perVeh="0.154760" NOx_perVeh="3.236704" fuel_perVeh="3.288326" electricity_perVeh="0"/>
        <edge id=":1110673561_1" sampledSeconds="1316.74" CO_abs="122008.293028" CO2_abs="8437388.405790" HC_abs="759.718002" PMx_abs="176.465935" NOx_abs="3608.635570" fuel_abs="3626.825745" electricity_abs="0"
            CO_normed="5448.306809" CO2_normed="376773.410756" HC_normed="33.925372" PMx_normed="7.880125" NOx_normed="161.144405" fuel_normed="161.956691" electricity_normed="0"
            traveltime="1.19" CO_perVeh="110.605706" CO2_perVeh="7648.851377" HC_perVeh="0.688717" PMx_perVeh="0.159974" NOx_perVeh="3.271382" fuel_perVeh="3.287872" electricity_perVeh="0"/>
        <edge id=":1110673562_0" sampledSeconds="104.43" CO_abs="2099.846772" CO2_abs="167566.806791" HC_abs="13.378708" PMx_abs="2.234371" NOx_abs="63.687827" fuel_abs="72.030517" electricity_abs="0"
            CO_normed="5959.548098" CO2_normed="475569.197648" HC_normed="37.969938" PMx_normed="6.341339" NOx_normed="180.751603" fuel_normed="204.428884" electricity_normed="0"
            traveltime="0.03" CO_perVeh="0.535261" CO2_perVeh="42.713542" HC_perVeh="0.003410" PMx_perVeh="0.000570" NOx_perVeh="0.016234" fuel_perVeh="0.018361" electricity_perVeh="0"/>
        <edge id=":1110673564_0" sampledSeconds="28.31" CO_abs="495.793508" CO2_abs="55063.380833" HC_abs="3.526698" PMx_abs="0.792143" NOx_abs="20.916889" fuel_abs="23.669411" electricity_abs="0"
            CO_normed="3799.183972" CO2_normed="421941.615578" HC_normed="27.024509" PMx_normed="6.070065" NOx_normed="160.282677" fuel_normed="181.374796" electricity_normed="0"
            traveltime="7.783344e-03" CO_perVeh="0.136301" CO2_perVeh="15.137699" HC_perVeh="0.000970" PMx_perVeh="0.000218" NOx_perVeh="0.005750" fuel_perVeh="0.006507" electricity_perVeh="0"/>
        <edge id=":1110673588_0" sampledSeconds="11.71" CO_abs="162.823394" CO2_abs="20357.509788" HC_abs="1.211479" PMx_abs="0.276140" NOx_abs="7.595264" fuel_abs="8.750841" electricity_abs="0"
            CO_normed="499.075537" CO2_normed="62398.497433" HC_normed="3.713344" PMx_normed="0.846405" NOx_normed="23.280504" fuel_normed="26.822502" electricity_normed="0"
            traveltime="0.02" CO_perVeh="0.271372" CO2_perVeh="33.929183" HC_perVeh="0.002019" PMx_perVeh="0.000460" NOx_perVeh="0.012659" fuel_perVeh="0.014585" electricity_perVeh="0"/>
        <edge id=":1110673601_0" sampledSeconds="29.54" CO_abs="381.224379" CO2_abs="48543.311933" HC_abs="2.850689" PMx_abs="0.643008" NOx_abs="18.001657" fuel_abs="20.866756" electricity_abs="0"
            CO_normed="1043.307004" CO2_normed="132849.786353" HC_normed="7.801557" PMx_normed="1.759738" NOx_normed="49.265618" fuel_normed="57.106612" electricity_normed="0"
            traveltime="0.02" CO_perVeh="0.282950" CO2_perVeh="36.029496" HC_perVeh="0.002116" PMx_perVeh="0.000477" NOx_perVeh="0.013361" fuel_perVeh="0.015488" electricity_perVeh="0"/>
        <edge id=":1110673617_0" sampledSeconds="237.90" CO_abs="6158.368408" CO2_abs="759529.982231" HC_abs="46.211952" PMx_abs="13.603698" NOx_abs="286.816607" fuel_abs="326.486988" electricity_abs="0"
            CO_normed="15730.187503" CO2_normed="1940051.040182" HC_normed="118.038192" PMx_normed="34.747632" NOx_normed="732.609469" fuel_normed="833.938666" electricity_normed="0"
            traveltime="0.01" CO_perVeh="0.377818" CO2_perVeh="46.597473" HC_perVeh="0.002835" PMx_perVeh="0.000835" NOx_perVeh="0.017596" fuel_perVeh="0.020030" electricity_perVeh="0"/>
        <edge id=":1110673621_0" sampledSeconds="25.90" CO_abs="434.993167" CO2_abs="52363.526340" HC_abs="3.170621" PMx_abs="0.723478" NOx_abs="19.628867" fuel_abs="22.508877" electricity_abs="0"
            CO_normed="1333.312390" CO2_normed="160501.230160" HC_normed="9.718380" PMx_normed="2.217558" NOx_normed="60.165108" fuel_normed="68.992727" electricity_normed="0"
            traveltime="0.02" CO_perVeh="0.329540" CO2_perVeh="39.669338" HC_perVeh="0.002402" PMx_perVeh="0.000548" NOx_perVeh="0.014870" fuel_perVeh="0.017052" electricity_perVeh="0"/>
        <edge id=":1110673630_0" sampledSeconds="54.45" CO_abs="241.398569" CO2_abs="22588.234991" HC_abs="1.594084" PMx_abs="0.304068" NOx_abs="8.532746" fuel_abs="9.709775" electricity_abs="0"
            CO_normed="13.193990" CO2_normed="1234.592891" HC_normed="0.087127" PMx_normed="0.016619" NOx_normed="0.466370" fuel_normed="0.530702" electricity_normed="0"
            traveltime="1.27" CO_perVeh="5.634670" CO2_perVeh="527.249358" HC_perVeh="0.037209" PMx_perVeh="0.007097" NOx_perVeh="0.199169" fuel_perVeh="0.226643" electricity_perVeh="0"/>
        <edge id=":1110673630_1" sampledSeconds="7.31" CO_abs="0" CO2_abs="0" HC_abs="0" PMx_abs="0" NOx_abs="0" fuel_abs="0" electricity_abs="0"
            CO_normed="0" CO2_normed="0" HC_normed="0" PMx_normed="0" NOx_normed="0" fuel_normed="0" electricity_normed="0"
            traveltime="1.03" CO_perVeh="0" CO2_perVeh="0" HC_perVeh="0" PMx_perVeh="0" NOx_perVeh="0" fuel_perVeh="0" electricity_perVeh="0"/>
        <edge id=":1110673650_0" sampledSeconds="143.57" CO_abs="2146.984180" CO2_abs="275408.424517" HC_abs="16.029963" PMx_abs="3.717934" NOx_abs="102.400861" fuel_abs="118.386538" electricity_abs="0"
            CO_normed="5483.995352" CO2_normed="703469.794424" HC_normed="40.944989" PMx_normed="9.496639" NOx_normed="261.560309" fuel_normed="302.392178" electricity_normed="0"
            traveltime="0.02" CO_perVeh="0.344712" CO2_perVeh="44.218639" HC_perVeh="0.002574" PMx_perVeh="0.000597" NOx_perVeh="0.016441" fuel_perVeh="0.019008" electricity_perVeh="0"/>
        <edge id=":1110673655_0" sampledSeconds="44.90" CO_abs="573.552392" CO2_abs="68901.770713" HC_abs="4.186214" PMx_abs="0.914751" NOx_abs="25.650539" fuel_abs="29.618027" electricity_abs="0"
            CO_normed="1465.012496" CO2_normed="175994.305781" HC_normed="10.692755" PMx_normed="2.336530" NOx_normed="65.518619" fuel_normed="75.652688" electricity_normed="0"
            traveltime="0.02" CO_perVeh="0.306959" CO2_perVeh="36.875446" HC_perVeh="0.002240" PMx_perVeh="0.000490" NOx_perVeh="0.013728" fuel_perVeh="0.015851" electricity_perVeh="0"/>
        <edge id=":1110673663_0" sampledSeconds="109.26" CO_abs="1534.794180" CO2_abs="187910.281061" HC_abs="11.250287" PMx_abs="2.552275" NOx_abs="70.096670" fuel_abs="80.774775" electricity_abs="0"
            CO_normed="71.800213" CO2_normed="8790.754123" HC_normed="0.526307" PMx_normed="0.119400" NOx_normed="3.279238" fuel_normed="3.778778" electricity_normed="0"
            traveltime="1.28" CO_perVeh="18.026882" CO2_perVeh="2207.094899" HC_perVeh="0.132140" PMx_perVeh="0.029978" NOx_perVeh="0.823318" fuel_perVeh="0.948738" electricity_perVeh="0"/>
        <edge id=":1110673663_1" sampledSeconds="153.21" CO_abs="2171.039555" CO2_abs="286843.505576" HC_abs="16.393424" PMx_abs="3.819786" NOx_abs="106.176452" fuel_abs="123.302039" electricity_abs="0"
            CO_normed="101.688988" CO2_normed="13435.418860" HC_normed="0.767849" PMx_normed="0.178914" NOx_normed="4.973182" fuel_normed="5.775325" electricity_normed="0"
            traveltime="1.24" CO_perVeh="17.607546" CO2_perVeh="2326.355689" HC_perVeh="0.132954" PMx_perVeh="0.030979" NOx_perVeh="0.861111" fuel_perVeh="1.000003" electricity_perVeh="0"/>
        <edge id=":1110673666_0" sampledSeconds="192.48" CO_abs="4065.951265" CO2_abs="331114.494545" HC_abs="26.034773" PMx_abs="4.280813" NOx_abs="124.895765" fuel_abs="142.333513" electricity_abs="0"
            CO_normed="254.756457" CO2_normed="20746.327230" HC_normed="1.631236" PMx_normed="0.268219" NOx_normed="7.825476" fuel_normed="8.918056" electricity_normed="0"