<?xml version="1.0" encoding="UTF-8"?>

<!-- generated on Mon Nov  9 20:42:13 2020 by Eclipse SUMO sumo Version 1.7.0
<configuration xmlns:xsi="http://www.w3.org/2001/XMLSchema-instance" xsi:noNamespaceSchemaLocation="http://sumo.dlr.de/xsd/sumoConfiguration.xsd">

    <input>
        <net-file value="../dataSets/Angeja_Estarreja/angeja_estarreja.net.xml"/>
        <route-files value="../results/angeja_estarreja/cost_PMx-cost_co/solution7/angeja_estarreja.rou.xml"/>
        <additional-files value="moreOutputInfo.xml"/>
    </input>

    <output>
        <emission-output.precision value="6"/>
        <tripinfo-output value="../results/angeja_estarreja/cost_PMx-cost_co/solution7/angeja_estarreja-tripinfo"/>
    </output>

    <processing>
        <collision.action value="warn"/>
        <time-to-teleport value="-1"/>
    </processing>

    <emissions>
        <device.emissions.probability value="1"/>
    </emissions>

    <gui_only>
        <quit-on-end value="true"/>
        <start value="true"/>
    </gui_only>

</configuration>
-->

<meandata xmlns:xsi="http://www.w3.org/2001/XMLSchema-instance" xsi:noNamespaceSchemaLocation="http://sumo.dlr.de/xsd/meandata_file.xsd">
    <interval begin="0.00" end="19080.00" id="emissions-detector">
        <edge id=":10_0" sampledSeconds="418.51" CO_abs="43023.901163" CO2_abs="2358153.261004" HC_abs="251.841503" PMx_abs="46.192332" NOx_abs="1006.012484" fuel_abs="1013.666766" electricity_abs="0"
            CO_normed="464.134774" CO2_normed="25439.369785" HC_normed="2.716825" PMx_normed="0.498315" NOx_normed="10.852697" fuel_normed="10.935270" electricity_normed="0"
            traveltime="1.92" CO_perVeh="197.378389" CO2_perVeh="10818.370208" HC_perVeh="1.155359" PMx_perVeh="0.211914" NOx_perVeh="4.615228" fuel_perVeh="4.650343" electricity_perVeh="0"/>
        <edge id=":10_1" sampledSeconds="0.00" CO_abs="0" CO2_abs="0" HC_abs="0" PMx_abs="0" NOx_abs="0" fuel_abs="0" electricity_abs="0"
            CO_normed="0" CO2_normed="0" HC_normed="0" PMx_normed="0" NOx_normed="0" fuel_normed="0" electricity_normed="0"/>
        <edge id=":100_0" sampledSeconds="0.00" CO_abs="0" CO2_abs="0" HC_abs="0" PMx_abs="0" NOx_abs="0" fuel_abs="0" electricity_abs="0"
            CO_normed="0" CO2_normed="0" HC_normed="0" PMx_normed="0" NOx_normed="0" fuel_normed="0" electricity_normed="0"/>
        <edge id=":100_1" sampledSeconds="911.91" CO_abs="22377.309309" CO2_abs="2796590.890461" HC_abs="169.817962" PMx_abs="50.705102" NOx_abs="1045.958887" fuel_abs="1202.126132" electricity_abs="0"
            CO_normed="142.832674" CO2_normed="17850.428233" HC_normed="1.083935" PMx_normed="0.323647" NOx_normed="6.676277" fuel_normed="7.673080" electricity_normed="0"
            traveltime="1.37" CO_perVeh="33.646272" CO2_perVeh="4204.922815" HC_perVeh="0.255336" PMx_perVeh="0.076240" NOx_perVeh="1.572692" fuel_perVeh="1.807503" electricity_perVeh="0"/>
        <edge id=":101_0" sampledSeconds="438.38" CO_abs="11273.278860" CO2_abs="1420457.085819" HC_abs="85.873399" PMx_abs="25.699607" NOx_abs="530.686006" fuel_abs="610.589375" electricity_abs="0"
            CO_normed="260.346848" CO2_normed="32804.255925" HC_normed="1.983174" PMx_normed="0.593511" NOx_normed="12.255745" fuel_normed="14.101046" electricity_normed="0"
            traveltime="0.38" CO_perVeh="9.738649" CO2_perVeh="1227.090459" HC_perVeh="0.074183" PMx_perVeh="0.022201" NOx_perVeh="0.458444" fuel_perVeh="0.527470" electricity_perVeh="0"/>
        <edge id=":102_0" sampledSeconds="341.79" CO_abs="7655.804075" CO2_abs="955307.635764" HC_abs="58.091391" PMx_abs="17.335212" NOx_abs="357.361830" fuel_abs="410.642924" electricity_abs="0"
            CO_normed="178.332264" CO2_normed="22252.681942" HC_normed="1.353165" PMx_normed="0.403802" NOx_normed="8.324291" fuel_normed="9.565407" electricity_normed="0"
            traveltime="0.38" CO_perVeh="8.422061" CO2_perVeh="1050.922772" HC_perVeh="0.063906" PMx_perVeh="0.019070" NOx_perVeh="0.393130" fuel_perVeh="0.451743" electricity_perVeh="0"/>
        <edge id=":103_0" sampledSeconds="434.25" CO_abs="10070.682739" CO2_abs="1275632.852791" HC_abs="76.838261" PMx_abs="23.046149" NOx_abs="475.957397" fuel_abs="548.336118" electricity_abs="0"
            CO_normed="236.040847" CO2_normed="29898.812910" HC_normed="1.800967" PMx_normed="0.540165" NOx_normed="11.155687" fuel_normed="12.852130" electricity_normed="0"
            traveltime="0.37" CO_perVeh="8.652343" CO2_perVeh="1095.974691" HC_perVeh="0.066016" PMx_perVeh="0.019800" NOx_perVeh="0.408924" fuel_perVeh="0.471109" electricity_perVeh="0"/>
        <edge id=":104_0" sampledSeconds="341.04" CO_abs="8225.878114" CO2_abs="1027965.490331" HC_abs="62.425017" PMx_abs="18.642738" NOx_abs="384.362073" fuel_abs="441.875214" electricity_abs="0"
            CO_normed="191.848266" CO2_normed="23974.753139" HC_normed="1.455909" PMx_normed="0.434796" NOx_normed="8.964295" fuel_normed="10.305647" electricity_normed="0"
            traveltime="0.38" CO_perVeh="9.045054" CO2_perVeh="1130.335614" HC_perVeh="0.068642" PMx_perVeh="0.020499" NOx_perVeh="0.422639" fuel_perVeh="0.485879" electricity_perVeh="0"/>
        <edge id=":105_0" sampledSeconds="168.47" CO_abs="4186.617911" CO2_abs="512731.436988" HC_abs="31.515691" PMx_abs="9.352954" NOx_abs="192.300053" fuel_abs="220.399690" electricity_abs="0"
            CO_normed="3590.581399" CO2_normed="439735.366199" HC_normed="27.028894" PMx_normed="8.021401" NOx_normed="164.922858" fuel_normed="189.022033" electricity_normed="0"
            traveltime="0.01" CO_perVeh="0.253174" CO2_perVeh="31.005958" HC_perVeh="0.001906" PMx_perVeh="0.000566" NOx_perVeh="0.011629" fuel_perVeh="0.013328" electricity_perVeh="0"/>
        <edge id=":106_0" sampledSeconds="134.44" CO_abs="3082.334308" CO2_abs="380193.517065" HC_abs="23.294838" PMx_abs="6.922787" NOx_abs="142.530828" fuel_abs="163.427731" electricity_abs="0"
            CO_normed="1876.040358" CO2_normed="231402.018908" HC_normed="14.178234" PMx_normed="4.213504" NOx_normed="86.750352" fuel_normed="99.469100" electricity_normed="0"
            traveltime="0.01" CO_perVeh="0.329561" CO2_perVeh="40.650067" HC_perVeh="0.002491" PMx_perVeh="0.000740" NOx_perVeh="0.015239" fuel_perVeh="0.017474" electricity_perVeh="0"/>
        <edge id=":107_0" sampledSeconds="438.71" CO_abs="10792.187558" CO2_abs="1325352.827015" HC_abs="81.361941" PMx_abs="24.151153" NOx_abs="497.196214" fuel_abs="569.708285" electricity_abs="0"
            CO_normed="249.236451" CO2_normed="30607.903444" HC_normed="1.878985" PMx_normed="0.557750" NOx_normed="11.482326" fuel_normed="13.156931" electricity_normed="0"
            traveltime="0.38" CO_perVeh="9.323049" CO2_perVeh="1144.932730" HC_perVeh="0.070286" PMx_perVeh="0.020863" NOx_perVeh="0.429513" fuel_perVeh="0.492154" electricity_perVeh="0"/>
        <edge id=":108_0" sampledSeconds="94.04" CO_abs="7636.019002" CO2_abs="558581.439740" HC_abs="48.194476" PMx_abs="11.195969" NOx_abs="235.326840" fuel_abs="240.107589" electricity_abs="0"
            CO_normed="119.763782" CO2_normed="8760.824977" HC_normed="0.755885" PMx_normed="0.175598" NOx_normed="3.690880" fuel_normed="3.765862" electricity_normed="0"
            traveltime="0.86" CO_perVeh="69.506597" CO2_perVeh="5084.468116" HC_perVeh="0.438689" PMx_perVeh="0.101911" NOx_perVeh="2.142054" fuel_perVeh="2.185571" electricity_perVeh="0"/>
        <edge id=":108_1" sampledSeconds="403.60" CO_abs="9835.610244" CO2_abs="1219932.343081" HC_abs="74.451342" PMx_abs="22.165330" NOx_abs="457.027299" fuel_abs="524.392902" electricity_abs="0"
            CO_normed="143.858567" CO2_normed="17843.094092" HC_normed="1.088948" PMx_normed="0.324197" NOx_normed="6.684618" fuel_normed="7.669927" electricity_normed="0"
            traveltime="0.60" CO_perVeh="14.611043" CO2_perVeh="1812.239714" HC_perVeh="0.110599" PMx_perVeh="0.032927" NOx_perVeh="0.678925" fuel_perVeh="0.778999" electricity_perVeh="0"/>
        <edge id=":109_0" sampledSeconds="308.41" CO_abs="139.743525" CO2_abs="22503.773197" HC_abs="1.148704" PMx_abs="0.293111" NOx_abs="8.189023" fuel_abs="9.673426" electricity_abs="0"
            CO_normed="2.100932" CO2_normed="338.326290" HC_normed="0.017270" PMx_normed="0.004407" NOx_normed="0.123115" fuel_normed="0.145432" electricity_normed="0"
            traveltime="0.86" CO_perVeh="0.388409" CO2_perVeh="62.547860" HC_perVeh="0.003193" PMx_perVeh="0.000815" NOx_perVeh="0.022761" fuel_perVeh="0.026887" electricity_perVeh="0"/>
        <edge id=":109_1" sampledSeconds="524.41" CO_abs="11751.701407" CO2_abs="1494728.857906" HC_abs="89.812520" PMx_abs="26.970977" NOx_abs="557.399331" fuel_abs="642.515471" electricity_abs="0"
            CO_normed="115.244395" CO2_normed="14658.228317" HC_normed="0.880757" PMx_normed="0.264494" NOx_normed="5.466200" fuel_normed="6.300901" electricity_normed="0"
            traveltime="0.89" CO_perVeh="20.010349" CO2_perVeh="2545.167283" HC_perVeh="0.152929" PMx_perVeh="0.045925" NOx_perVeh="0.949118" fuel_perVeh="1.094051" electricity_perVeh="0"/>
        <edge id=":11_0" sampledSeconds="296.07" CO_abs="18642.772788" CO2_abs="1318335.383624" HC_abs="116.113980" PMx_abs="24.217761" NOx_abs="545.457460" fuel_abs="566.693130" electricity_abs="0"
            CO_normed="192.739962" CO2_normed="13629.727409" HC_normed="1.200455" PMx_normed="0.250377" NOx_normed="5.639260" fuel_normed="5.858807" electricity_normed="0"
            traveltime="1.59" CO_perVeh="99.950236" CO2_perVeh="7068.043699" HC_perVeh="0.622526" PMx_perVeh="0.129840" NOx_perVeh="2.924383" fuel_perVeh="3.038234" electricity_perVeh="0"/>
        <edge id=":11_1" sampledSeconds="51.19" CO_abs="1029.294069" CO2_abs="86912.303998" HC_abs="6.674759" PMx_abs="1.185867" NOx_abs="33.138903" fuel_abs="37.360167" electricity_abs="0"
            CO_normed="10.910473" CO2_normed="921.266737" HC_normed="0.070752" PMx_normed="0.012570" NOx_normed="0.351271" fuel_normed="0.396016" electricity_normed="0"
            traveltime="1.68" CO_perVeh="33.853353" CO2_perVeh="2858.534758" HC_perVeh="0.219532" PMx_perVeh="0.039003" NOx_perVeh="1.089934" fuel_perVeh="1.228771" electricity_perVeh="0"/>
        <edge id=":110_0" sampledSeconds="94.90" CO_abs="3.163199" CO2_abs="467.749195" HC_abs="0.024861" PMx_abs="0.004523" NOx_abs="0.163384" fuel_abs="0.201068" electricity_abs="0"
            CO_normed="0.041019" CO2_normed="6.065606" HC_normed="0.000322" PMx_normed="0.000059" NOx_normed="0.002119" fuel_normed="0.002607" electricity_normed="0"
            traveltime="0.93" CO_perVeh="0.030970" CO2_perVeh="4.579605" HC_perVeh="0.000243" PMx_perVeh="0.000044" NOx_perVeh="0.001600" fuel_perVeh="0.001969" electricity_perVeh="0"/>
        <edge id=":110_1" sampledSeconds="443.75" CO_abs="10556.282006" CO2_abs="1293094.673397" HC_abs="79.458436" PMx_abs="23.583303" NOx_abs="484.971848" fuel_abs="555.841996" electricity_abs="0"
            CO_normed="135.493287" CO2_normed="16597.287555" HC_normed="1.019875" PMx_normed="0.302699" NOx_normed="6.224770" fuel_normed="7.134411" electricity_normed="0"
            traveltime="0.68" CO_perVeh="16.216037" CO2_perVeh="1986.387924" HC_perVeh="0.122060" PMx_perVeh="0.036228" NOx_perVeh="0.744990" fuel_perVeh="0.853857" electricity_perVeh="0"/>
        <edge id=":111_0" sampledSeconds="340.53" CO_abs="8570.143598" CO2_abs="1050671.188054" HC_abs="64.560311" PMx_abs="19.159837" NOx_abs="394.091515" fuel_abs="451.635274" electricity_abs="0"
            CO_normed="197.920223" CO2_normed="24264.363134" HC_normed="1.490966" PMx_normed="0.442480" NOx_normed="9.101210" fuel_normed="10.430135" electricity_normed="0"
            traveltime="0.38" CO_perVeh="9.524377" CO2_perVeh="1167.657051" HC_perVeh="0.071749" PMx_perVeh="0.021293" NOx_perVeh="0.437971" fuel_perVeh="0.501922" electricity_perVeh="0"/>
        <edge id=":114_0" sampledSeconds="107.04" CO_abs="10662.398408" CO2_abs="759763.000923" HC_abs="66.883788" PMx_abs="15.532052" NOx_abs="322.440881" fuel_abs="326.585708" electricity_abs="0"
            CO_normed="141.674175" CO2_normed="10095.176733" HC_normed="0.888703" PMx_normed="0.206379" NOx_normed="4.284359" fuel_normed="4.339433" electricity_normed="0"
            traveltime="0.99" CO_perVeh="98.639081" CO2_perVeh="7028.655404" HC_perVeh="0.618750" PMx_perVeh="0.143689" NOx_perVeh="2.982938" fuel_perVeh="3.021282" electricity_perVeh="0"/>
        <edge id=":114_1" sampledSeconds="415.78" CO_abs="9888.929445" CO2_abs="1241520.038400" HC_abs="75.148132" PMx_abs="22.473213" NOx_abs="463.991850" fuel_abs="533.672534" electricity_abs="0"
            CO_normed="130.569331" CO2_normed="16392.516714" HC_normed="0.992225" PMx_normed="0.296727" NOx_normed="6.126356" fuel_normed="7.046391" electricity_normed="0"
            traveltime="0.66" CO_perVeh="15.757730" CO2_perVeh="1978.327150" HC_perVeh="0.119746" PMx_perVeh="0.035810" NOx_perVeh="0.739358" fuel_perVeh="0.850392" electricity_perVeh="0"/>
        <edge id=":115_0" sampledSeconds="80.69" CO_abs="77.784945" CO2_abs="10481.592929" HC_abs="0.594092" PMx_abs="0.130021" NOx_abs="3.829773" fuel_abs="4.505612" electricity_abs="0"
            CO_normed="1.757653" CO2_normed="236.845394" HC_normed="0.013424" PMx_normed="0.002938" NOx_normed="0.086539" fuel_normed="0.101810" electricity_normed="0"
            traveltime="0.63" CO_perVeh="0.612105" CO2_perVeh="82.481768" HC_perVeh="0.004675" PMx_perVeh="0.001023" NOx_perVeh="0.030137" fuel_perVeh="0.035456" electricity_perVeh="0"/>
        <edge id=":115_1" sampledSeconds="72.19" CO_abs="884.564383" CO2_abs="150320.945552" HC_abs="7.327777" PMx_abs="2.134137" NOx_abs="55.039345" fuel_abs="64.616396" electricity_abs="0"
            CO_normed="17.850154" CO2_normed="3033.416316" HC_normed="0.147872" PMx_normed="0.043066" NOx_normed="1.110672" fuel_normed="1.303933" electricity_normed="0"
            traveltime="0.59" CO_perVeh="7.241640" CO2_perVeh="1230.628527" HC_perVeh="0.059990" PMx_perVeh="0.017471" NOx_perVeh="0.450589" fuel_perVeh="0.528993" electricity_perVeh="0"/>
        <edge id=":116_0" sampledSeconds="74.57" CO_abs="64.678839" CO2_abs="12706.941070" HC_abs="0.570862" PMx_abs="0.147612" NOx_abs="4.501668" fuel_abs="5.462194" electricity_abs="0"
            CO_normed="1.631491" CO2_normed="320.526210" HC_normed="0.014400" PMx_normed="0.003723" NOx_normed="0.113552" fuel_normed="0.137781" electricity_normed="0"
            traveltime="0.56" CO_perVeh="0.488374" CO2_perVeh="95.946942" HC_perVeh="0.004310" PMx_perVeh="0.001115" NOx_perVeh="0.033991" fuel_perVeh="0.041244" electricity_perVeh="0"/>
        <edge id=":117_0" sampledSeconds="239.78" CO_abs="13589.243677" CO2_abs="1128593.221042" HC_abs="88.707613" PMx_abs="20.731349" NOx_abs="460.802402" fuel_abs="485.130103" electricity_abs="0"
            CO_normed="307.066855" CO2_normed="25502.049961" HC_normed="2.004465" PMx_normed="0.468452" NOx_normed="10.412437" fuel_normed="10.962153" electricity_normed="0"
            traveltime="0.60" CO_perVeh="34.196527" CO2_perVeh="2840.038006" HC_perVeh="0.223227" PMx_perVeh="0.052169" NOx_perVeh="1.159582" fuel_perVeh="1.220801" electricity_perVeh="0"/>
        <edge id=":117_1" sampledSeconds="75.77" CO_abs="4877.696135" CO2_abs="400854.850653" HC_abs="31.744135" PMx_abs="7.372095" NOx_abs="163.889728" fuel_abs="172.309002" electricity_abs="0"
            CO_normed="103.873592" CO2_normed="8536.454931" HC_normed="0.676011" PMx_normed="0.156993" NOx_normed="3.490134" fuel_normed="3.669428" electricity_normed="0"
            traveltime="0.64" CO_perVeh="41.238192" CO2_perVeh="3389.003480" HC_perVeh="0.268379" PMx_perVeh="0.062327" NOx_perVeh="1.385596" fuel_perVeh="1.456776" electricity_perVeh="0"/>
        <edge id=":118_0" sampledSeconds="898.58" CO_abs="13000.597254" CO2_abs="2024835.754610" HC_abs="104.498643" PMx_abs="29.969049" NOx_abs="749.969995" fuel_abs="870.387388" electricity_abs="0"
            CO_normed="39.442722" CO2_normed="6143.181894" HC_normed="0.317040" PMx_normed="0.090924" NOx_normed="2.275346" fuel_normed="2.640682" electricity_normed="0"
            traveltime="3.92" CO_perVeh="56.721600" CO2_perVeh="8834.357517" HC_perVeh="0.455928" PMx_perVeh="0.130755" NOx_perVeh="3.272119" fuel_perVeh="3.797500" electricity_perVeh="0"/>
        <edge id=":118_4" sampledSeconds="283.10" CO_abs="4260.224256" CO2_abs="637865.342281" HC_abs="33.902954" PMx_abs="9.555058" NOx_abs="237.360334" fuel_abs="274.190086" electricity_abs="0"
            CO_normed="12.950151" CO2_normed="1938.971345" HC_normed="0.103058" PMx_normed="0.029045" NOx_normed="0.721524" fuel_normed="0.833478" electricity_normed="0"
            traveltime="3.92" CO_perVeh="59.065370" CO2_perVeh="8843.607865" HC_perVeh="0.470043" PMx_perVeh="0.132475" NOx_perVeh="3.290854" fuel_perVeh="3.801476" electricity_perVeh="0"/>
        <edge id=":118_5" sampledSeconds="239.08" CO_abs="3702.323499" CO2_abs="558894.393454" HC_abs="29.316548" PMx_abs="8.416482" NOx_abs="208.053451" fuel_abs="240.243847" electricity_abs="0"
            CO_normed="11.365955" CO2_normed="1715.778919" HC_normed="0.090000" PMx_normed="0.025838" NOx_normed="0.638714" fuel_normed="0.737537" electricity_normed="0"
            traveltime="3.83" CO_perVeh="59.253681" CO2_perVeh="8944.801916" HC_perVeh="0.469195" PMx_perVeh="0.134701" NOx_perVeh="3.329783" fuel_perVeh="3.844973" electricity_perVeh="0"/>
        <edge id=":119_0" sampledSeconds="139.30" CO_abs="1863.598349" CO2_abs="307993.833248" HC_abs="15.352207" PMx_abs="4.455796" NOx_abs="113.389440" fuel_abs="132.392995" electricity_abs="0"
            CO_normed="39.957083" CO2_normed="6603.641365" HC_normed="0.329164" PMx_normed="0.095536" NOx_normed="2.431163" fuel_normed="2.838615" electricity_normed="0"
            traveltime="0.56" CO_perVeh="7.471033" CO2_perVeh="1234.725403" HC_perVeh="0.061546" PMx_perVeh="0.017863" NOx_perVeh="0.454570" fuel_perVeh="0.530754" electricity_perVeh="0"/>
        <edge id=":12_0" sampledSeconds="591.34" CO_abs="53758.302176" CO2_abs="3049268.416614" HC_abs="317.166480" PMx_abs="59.579469" NOx_abs="1298.202014" fuel_abs="1310.745691" electricity_abs="0"
            CO_normed="503.628395" CO2_normed="28566.716162" HC_normed="2.971337" PMx_normed="0.558163" NOx_normed="12.162054" fuel_normed="12.279568" electricity_normed="0"
            traveltime="2.13" CO_perVeh="193.398544" CO2_perVeh="10969.916247" HC_perVeh="1.141024" PMx_perVeh="0.214341" NOx_perVeh="4.670355" fuel_perVeh="4.715482" electricity_perVeh="0"/>
        <edge id=":12_1" sampledSeconds="56.26" CO_abs="1055.699561" CO2_abs="91352.411252" HC_abs="6.896293" PMx_abs="1.238453" NOx_abs="34.748172" fuel_abs="39.268787" electricity_abs="0"
            CO_normed="9.880387" CO2_normed="854.975397" HC_normed="0.064543" PMx_normed="0.011591" NOx_normed="0.325211" fuel_normed="0.367520" electricity_normed="0"
            traveltime="1.90" CO_perVeh="35.599664" CO2_perVeh="3080.530929" HC_perVeh="0.232553" PMx_perVeh="0.041762" NOx_perVeh="1.171757" fuel_perVeh="1.324198" electricity_perVeh="0"/>
        <edge id=":120_0" sampledSeconds="39.00" CO_abs="582.240133" CO2_abs="89765.255959" HC_abs="4.660713" PMx_abs="1.342479" NOx_abs="33.305733" fuel_abs="38.586103" electricity_abs="0"
            CO_normed="457.735954" CO2_normed="70570.169779" HC_normed="3.664082" PMx_normed="1.055408" NOx_normed="26.183752" fuel_normed="30.334986" electricity_normed="0"
            traveltime="0.02" CO_perVeh="0.224034" CO2_perVeh="34.539882" HC_perVeh="0.001793" PMx_perVeh="0.000517" NOx_perVeh="0.012815" fuel_perVeh="0.014847" electricity_perVeh="0"/>
        <edge id=":121_0" sampledSeconds="375.69" CO_abs="53598.802313" CO2_abs="1439712.460687" HC_abs="277.873724" PMx_abs="31.100343" NOx_abs="636.866029" fuel_abs="618.887855" electricity_abs="0"
            CO_normed="30645.398693" CO2_normed="823163.213657" HC_normed="158.875771" PMx_normed="17.781785" NOx_normed="364.131520" fuel_normed="353.852404" electricity_normed="0"
            traveltime="0.11" CO_perVeh="16.346535" CO2_perVeh="439.082762" HC_perVeh="0.084746" PMx_perVeh="0.009485" NOx_perVeh="0.194231" fuel_perVeh="0.188748" electricity_perVeh="0"/>
        <edge id=":122_0" sampledSeconds="135.04" CO_abs="879.065018" CO2_abs="93147.834977" HC_abs="6.178976" PMx_abs="1.622519" NOx_abs="36.637982" fuel_abs="40.039958" electricity_abs="0"
            CO_normed="19.353713" CO2_normed="2050.765835" HC_normed="0.136038" PMx_normed="0.035722" NOx_normed="0.806631" fuel_normed="0.881530" electricity_normed="0"
            traveltime="0.54" CO_perVeh="3.505139" CO2_perVeh="371.412910" HC_perVeh="0.024638" PMx_perVeh="0.006470" NOx_perVeh="0.146088" fuel_perVeh="0.159653" electricity_perVeh="0"/>
        <edge id=":123_0" sampledSeconds="310.06" CO_abs="40489.882714" CO2_abs="2488415.000011" HC_abs="244.157008" PMx_abs="51.195574" NOx_abs="1068.073075" fuel_abs="1069.653607" electricity_abs="0"
            CO_normed="154.397747" CO2_normed="9488.930157" HC_normed="0.931030" PMx_normed="0.195221" NOx_normed="4.072822" fuel_normed="4.078849" electricity_normed="0"
            traveltime="4.22" CO_perVeh="551.393704" CO2_perVeh="33887.387936" HC_perVeh="3.324945" PMx_perVeh="0.697184" NOx_perVeh="14.545085" fuel_perVeh="14.566608" electricity_perVeh="0"/>
        <edge id=":123_1" sampledSeconds="0.00" CO_abs="0" CO2_abs="0" HC_abs="0" PMx_abs="0" NOx_abs="0" fuel_abs="0" electricity_abs="0"
            CO_normed="0" CO2_normed="0" HC_normed="0" PMx_normed="0" NOx_normed="0" fuel_normed="0" electricity_normed="0"/>
        <edge id=":123_2" sampledSeconds="269.68" CO_abs="35676.760021" CO2_abs="2172632.231879" HC_abs="214.648956" PMx_abs="44.776279" NOx_abs="933.665924" fuel_abs="933.913410" electricity_abs="0"
            CO_normed="137.348789" CO2_normed="8364.223828" HC_normed="0.826358" PMx_normed="0.172380" NOx_normed="3.594438" fuel_normed="3.595390" electricity_normed="0"
            traveltime="4.24" CO_perVeh="560.767526" CO2_perVeh="34149.446353" HC_perVeh="3.373854" PMx_perVeh="0.703794" NOx_perVeh="14.675367" fuel_perVeh="14.679257" electricity_perVeh="0"/>
        <edge id=":123_3" sampledSeconds="469.48" CO_abs="23280.874753" CO2_abs="2163008.628847" HC_abs="157.071347" PMx_abs="40.531310" NOx_abs="869.505114" fuel_abs="929.775722" electricity_abs="0"
            CO_normed="91.703922" CO2_normed="8520.142706" HC_normed="0.618708" PMx_normed="0.159654" NOx_normed="3.425001" fuel_normed="3.662409" electricity_normed="0"
            traveltime="2.81" CO_perVeh="139.345467" CO2_perVeh="12946.482896" HC_perVeh="0.940136" PMx_perVeh="0.242596" NOx_perVeh="5.204340" fuel_perVeh="5.565084" electricity_perVeh="0"/>
        <edge id=":123_5" sampledSeconds="0.00" CO_abs="0" CO2_abs="0" HC_abs="0" PMx_abs="0" NOx_abs="0" fuel_abs="0" electricity_abs="0"
            CO_normed="0" CO2_normed="0" HC_normed="0" PMx_normed="0" NOx_normed="0" fuel_normed="0" electricity_normed="0"/>
        <edge id=":123_6" sampledSeconds="194.47" CO_abs="9743.961212" CO2_abs="887532.231003" HC_abs="65.455178" PMx_abs="16.812515" NOx_abs="358.462292" fuel_abs="381.508236" electricity_abs="0"
            CO_normed="37.073669" CO2_normed="3376.868552" HC_normed="0.249043" PMx_normed="0.063968" NOx_normed="1.363872" fuel_normed="1.451556" electricity_normed="0"
            traveltime="2.91" CO_perVeh="145.774039" CO2_perVeh="13277.881021" HC_perVeh="0.979239" PMx_perVeh="0.251523" NOx_perVeh="5.362757" fuel_perVeh="5.707535" electricity_perVeh="0"/>
        <edge id=":124_0" sampledSeconds="118.91" CO_abs="4046.918190" CO2_abs="352004.878299" HC_abs="26.625616" PMx_abs="6.769209" NOx_abs="143.111228" fuel_abs="151.310229" electricity_abs="0"
            CO_normed="94.735666" CO2_normed="8240.200344" HC_normed="0.623288" PMx_normed="0.158463" NOx_normed="3.350139" fuel_normed="3.542072" electricity_normed="0"
            traveltime="0.46" CO_perVeh="15.754316" CO2_perVeh="1370.325725" HC_perVeh="0.103651" PMx_perVeh="0.026352" NOx_perVeh="0.557120" fuel_perVeh="0.589038" electricity_perVeh="0"/>
        <edge id=":125_0" sampledSeconds="140.98" CO_abs="5651.323512" CO2_abs="561392.171596" HC_abs="39.045313" PMx_abs="10.529818" NOx_abs="222.205101" fuel_abs="241.316119" electricity_abs="0"
            CO_normed="355.429152" CO2_normed="35307.683748" HC_normed="2.455680" PMx_normed="0.662253" NOx_normed="13.975164" fuel_normed="15.177114" electricity_normed="0"
            traveltime="0.16" CO_perVeh="6.472216" CO2_perVeh="642.938162" HC_perVeh="0.044717" PMx_perVeh="0.012059" NOx_perVeh="0.254482" fuel_perVeh="0.276369" electricity_perVeh="0"/>
        <edge id=":125_3" sampledSeconds="0.00" CO_abs="0" CO2_abs="0" HC_abs="0" PMx_abs="0" NOx_abs="0" fuel_abs="0" electricity_abs="0"
            CO_normed="0" CO2_normed="0" HC_normed="0" PMx_normed="0" NOx_normed="0" fuel_normed="0" electricity_normed="0"/>
        <edge id=":126_0" sampledSeconds="26.56" CO_abs="117.267827" CO2_abs="8109.000066" HC_abs="0.722453" PMx_abs="0.131649" NOx_abs="3.254066" fuel_abs="3.485722" electricity_abs="0"
            CO_normed="3.861432" CO2_normed="267.015709" HC_normed="0.023789" PMx_normed="0.004335" NOx_normed="0.107151" fuel_normed="0.114779" electricity_normed="0"
            traveltime="0.57" CO_perVeh="2.495606" CO2_perVeh="172.569685" HC_perVeh="0.015375" PMx_perVeh="0.002802" NOx_perVeh="0.069251" fuel_perVeh="0.074181" electricity_perVeh="0"/>
        <edge id=":126_1" sampledSeconds="80.99" CO_abs="1358.491978" CO2_abs="199532.330284" HC_abs="10.814376" PMx_abs="3.258705" NOx_abs="74.443562" fuel_abs="85.769894" electricity_abs="0"
            CO_normed="39.801124" CO2_normed="5845.902094" HC_normed="0.316840" PMx_normed="0.095474" NOx_normed="2.181049" fuel_normed="2.512888" electricity_normed="0"
            traveltime="0.35" CO_perVeh="5.878428" CO2_perVeh="863.410676" HC_perVeh="0.046796" PMx_perVeh="0.014101" NOx_perVeh="0.322130" fuel_perVeh="0.371141" electricity_perVeh="0"/>
        <edge id=":127_0" sampledSeconds="234.43" CO_abs="4957.012166" CO2_abs="637071.407238" HC_abs="37.520417" PMx_abs="10.952457" NOx_abs="241.461029" fuel_abs="273.847773" electricity_abs="0"
            CO_normed="114.618298" CO2_normed="14730.655920" HC_normed="0.867564" PMx_normed="0.253248" NOx_normed="5.583172" fuel_normed="6.332033" electricity_normed="0"
            traveltime="0.44" CO_perVeh="9.269732" CO2_perVeh="1191.338920" HC_perVeh="0.070164" PMx_perVeh="0.020481" NOx_perVeh="0.451538" fuel_perVeh="0.512102" electricity_perVeh="0"/>
        <edge id=":128_0" sampledSeconds="229.60" CO_abs="236.552486" CO2_abs="39928.503205" HC_abs="1.981795" PMx_abs="0.586425" NOx_abs="14.637043" fuel_abs="17.163503" electricity_abs="0"
            CO_normed="3.655409" CO2_normed="617.008997" HC_normed="0.030624" PMx_normed="0.009062" NOx_normed="0.226184" fuel_normed="0.265225" electricity_normed="0"
            traveltime="0.75" CO_perVeh="0.777634" CO2_perVeh="131.259524" HC_perVeh="0.006515" PMx_perVeh="0.001928" NOx_perVeh="0.048117" fuel_perVeh="0.056423" electricity_perVeh="0"/>
        <edge id=":128_1" sampledSeconds="142.51" CO_abs="132.427990" CO2_abs="19637.672070" HC_abs="1.052688" PMx_abs="0.247314" NOx_abs="7.168734" fuel_abs="8.441425" electricity_abs="0"
            CO_normed="2.113910" CO2_normed="313.470486" HC_normed="0.016804" PMx_normed="0.003948" NOx_normed="0.114432" fuel_normed="0.134748" electricity_normed="0"
            traveltime="0.85" CO_perVeh="0.793831" CO2_perVeh="117.716681" HC_perVeh="0.006310" PMx_perVeh="0.001483" NOx_perVeh="0.042972" fuel_perVeh="0.050602" electricity_perVeh="0"/>
        <edge id=":129_0" sampledSeconds="105.12" CO_abs="6040.223046" CO2_abs="530495.082357" HC_abs="40.087798" PMx_abs="10.064716" NOx_abs="215.739868" fuel_abs="228.034827" electricity_abs="0"
            CO_normed="140.699349" CO2_normed="12357.211329" HC_normed="0.933795" PMx_normed="0.234445" NOx_normed="5.025387" fuel_normed="5.311783" electricity_normed="0"
            traveltime="0.50" CO_perVeh="28.627487" CO2_perVeh="2514.268258" HC_perVeh="0.189995" PMx_perVeh="0.047701" NOx_perVeh="1.022494" fuel_perVeh="1.080765" electricity_perVeh="0"/>
        <edge id=":13_0" sampledSeconds="59.86" CO_abs="4963.237906" CO2_abs="358555.089696" HC_abs="31.159949" PMx_abs="6.885214" NOx_abs="149.832702" fuel_abs="154.126217" electricity_abs="0"
            CO_normed="35.086549" CO2_normed="2534.728502" HC_normed="0.220279" PMx_normed="0.048674" NOx_normed="1.059210" fuel_normed="1.089562" electricity_normed="0"
            traveltime="2.12" CO_perVeh="175.557702" CO2_perVeh="12682.669826" HC_perVeh="1.102177" PMx_perVeh="0.243541" NOx_perVeh="5.299823" fuel_perVeh="5.451692" electricity_perVeh="0"/>
        <edge id=":13_1" sampledSeconds="533.45" CO_abs="15654.730144" CO2_abs="1158280.031491" HC_abs="97.984549" PMx_abs="17.367633" NOx_abs="453.994268" fuel_abs="497.897879" electricity_abs="0"
            CO_normed="155.951566" CO2_normed="11538.722395" HC_normed="0.976117" PMx_normed="0.173015" NOx_normed="4.522666" fuel_normed="4.960031" electricity_normed="0"
            traveltime="1.86" CO_perVeh="54.654386" CO2_perVeh="4043.831034" HC_perVeh="0.342087" PMx_perVeh="0.060635" NOx_perVeh="1.585002" fuel_perVeh="1.738280" electricity_perVeh="0"/>
        <edge id=":132_0" sampledSeconds="40.93" CO_abs="560.504057" CO2_abs="93374.167508" HC_abs="4.606726" PMx_abs="1.333491" NOx_abs="34.247637" fuel_abs="40.137465" electricity_abs="0"
            CO_normed="1057.554824" CO2_normed="176177.674544" HC_normed="8.691935" PMx_normed="2.516021" NOx_normed="64.618183" fuel_normed="75.731067" electricity_normed="0"
            traveltime="6.344708e-03" CO_perVeh="0.086893" CO2_perVeh="14.475493" HC_perVeh="0.000714" PMx_perVeh="0.000207" NOx_perVeh="0.005309" fuel_perVeh="0.006222" electricity_perVeh="0"/>