<?xml version="1.0" encoding="UTF-8"?>

<!-- generated on Tue Nov 10 15:33:18 2020 by Eclipse SUMO sumo Version 1.7.0
<configuration xmlns:xsi="http://www.w3.org/2001/XMLSchema-instance" xsi:noNamespaceSchemaLocation="http://sumo.dlr.de/xsd/sumoConfiguration.xsd">

    <input>
        <net-file value="../dataSets/Porto/8AM9AM_Routing_SaoBento/Porto.net.xml"/>
        <route-files value="../results/Porto/8AM9AM_Routing_SaoBento/cost_nox-length/solution12/Porto.rou.xml"/>
        <additional-files value="moreOutputInfo.xml"/>
    </input>

    <output>
        <emission-output.precision value="6"/>
        <tripinfo-output value="../results/Porto/8AM9AM_Routing_SaoBento/cost_nox-length/solution12/Porto-tripinfo"/>
    </output>

    <processing>
        <collision.action value="warn"/>
        <time-to-teleport value="-1"/>
    </processing>

    <emissions>
        <device.emissions.probability value="1"/>
    </emissions>

    <gui_only>
        <quit-on-end value="true"/>
        <start value="true"/>
    </gui_only>

</configuration>
-->

<meandata xmlns:xsi="http://www.w3.org/2001/XMLSchema-instance" xsi:noNamespaceSchemaLocation="http://sumo.dlr.de/xsd/meandata_file.xsd">
    <interval begin="0.00" end="8471.00" id="emissions-detector">
        <edge id=":1092997347_0" sampledSeconds="594.03" CO_abs="72100.765085" CO2_abs="3077122.064138" HC_abs="401.085138" PMx_abs="62.184098" NOx_abs="1331.069452" fuel_abs="1322.730068" electricity_abs="0"
            CO_normed="69639.399209" CO2_normed="2972075.699686" HC_normed="387.392949" PMx_normed="60.061266" NOx_normed="1285.629589" fuel_normed="1277.574893" electricity_normed="0"
            traveltime="0.07" CO_perVeh="8.269258" CO2_perVeh="352.916025" HC_perVeh="0.046001" PMx_perVeh="0.007132" NOx_perVeh="0.152661" fuel_perVeh="0.151704" electricity_perVeh="0"/>
        <edge id=":1103427051_0" sampledSeconds="19.51" CO_abs="1530.615405" CO2_abs="85218.459292" HC_abs="8.992078" PMx_abs="1.672113" NOx_abs="36.381852" fuel_abs="36.631656" electricity_abs="0"
            CO_normed="2243.034229" CO2_normed="124883.050672" HC_normed="13.177405" PMx_normed="2.450391" NOx_normed="53.315640" fuel_normed="53.681714" electricity_normed="0"
            traveltime="0.03" CO_perVeh="2.380301" CO2_perVeh="132.525489" HC_perVeh="0.013984" PMx_perVeh="0.002600" NOx_perVeh="0.056578" fuel_perVeh="0.056967" electricity_perVeh="0"/>
        <edge id=":1105984386_0" sampledSeconds="10.61" CO_abs="261.379242" CO2_abs="17120.068286" HC_abs="1.581700" PMx_abs="0.248102" NOx_abs="6.692181" fuel_abs="7.359262" electricity_abs="0"
            CO_normed="11.439833" CO2_normed="749.297152" HC_normed="0.069227" PMx_normed="0.010859" NOx_normed="0.292898" fuel_normed="0.322094" electricity_normed="0"
            traveltime="1.02" CO_perVeh="25.074021" CO2_perVeh="1642.322298" HC_perVeh="0.151732" PMx_perVeh="0.023800" NOx_perVeh="0.641979" fuel_perVeh="0.705971" electricity_perVeh="0"/>
        <edge id=":1105984390_0" sampledSeconds="10.49" CO_abs="18.930156" CO2_abs="3492.054542" HC_abs="0.164748" PMx_abs="0.034536" NOx_abs="1.212162" fuel_abs="1.501101" electricity_abs="0"
            CO_normed="0.640520" CO2_normed="118.156930" HC_normed="0.005574" PMx_normed="0.001169" NOx_normed="0.041015" fuel_normed="0.050791" electricity_normed="0"
            traveltime="1.09" CO_perVeh="1.962225" CO2_perVeh="361.972477" HC_perVeh="0.017077" PMx_perVeh="0.003580" NOx_perVeh="0.125648" fuel_perVeh="0.155598" electricity_perVeh="0"/>
        <edge id=":1105984390_1" sampledSeconds="2396.37" CO_abs="64242.811965" CO2_abs="7619911.332229" HC_abs="474.456767" PMx_abs="137.689341" NOx_abs="2900.106963" fuel_abs="3275.447886" electricity_abs="0"
            CO_normed="2079.350184" CO2_normed="246634.036451" HC_normed="15.356765" PMx_normed="4.456598" NOx_normed="93.867902" fuel_normed="106.016579" electricity_normed="0"
            traveltime="0.65" CO_perVeh="17.360768" CO2_perVeh="2059.180016" HC_perVeh="0.128216" PMx_perVeh="0.037209" NOx_perVeh="0.783715" fuel_perVeh="0.885146" electricity_perVeh="0"/>
        <edge id=":1105984395_0" sampledSeconds="4.12" CO_abs="78.850925" CO2_abs="5801.906698" HC_abs="0.489676" PMx_abs="0.071023" NOx_abs="2.172402" fuel_abs="2.494030" electricity_abs="0"
            CO_normed="36.423928" CO2_normed="2680.098355" HC_normed="0.226198" PMx_normed="0.032808" NOx_normed="1.003506" fuel_normed="1.152078" electricity_normed="0"
            traveltime="0.10" CO_perVeh="1.827736" CO2_perVeh="134.486122" HC_perVeh="0.011351" PMx_perVeh="0.001646" NOx_perVeh="0.050355" fuel_perVeh="0.057811" electricity_perVeh="0"/>
        <edge id=":1105984398_0" sampledSeconds="10.60" CO_abs="587.293590" CO2_abs="42890.064898" HC_abs="3.670788" PMx_abs="0.686008" NOx_abs="17.101532" fuel_abs="18.436649" electricity_abs="0"
            CO_normed="20.644139" CO2_normed="1507.641979" HC_normed="0.129033" PMx_normed="0.024114" NOx_normed="0.601141" fuel_normed="0.648072" electricity_normed="0"
            traveltime="1.15" CO_perVeh="63.472309" CO2_perVeh="4635.384258" HC_perVeh="0.396724" PMx_perVeh="0.074141" NOx_perVeh="1.848264" fuel_perVeh="1.992558" electricity_perVeh="0"/>
        <edge id=":1105984398_1" sampledSeconds="645.33" CO_abs="11586.103214" CO2_abs="1359800.436905" HC_abs="84.015448" PMx_abs="19.528670" NOx_abs="514.434531" fuel_abs="584.520170" electricity_abs="0"
            CO_normed="394.223740" CO2_normed="46267.981902" HC_normed="2.858673" PMx_normed="0.664474" NOx_normed="17.503927" fuel_normed="19.888631" electricity_normed="0"
            traveltime="0.95" CO_perVeh="17.056134" CO2_perVeh="2001.789340" HC_perVeh="0.123681" PMx_perVeh="0.028749" NOx_perVeh="0.757309" fuel_perVeh="0.860484" electricity_perVeh="0"/>
        <edge id=":1106006327_0" sampledSeconds="392.17" CO_abs="52669.186195" CO2_abs="1696199.982181" HC_abs="279.727180" PMx_abs="35.327936" NOx_abs="742.131400" fuel_abs="729.136916" electricity_abs="0"
            CO_normed="2526.333641" CO2_normed="81360.039629" HC_normed="13.417412" PMx_normed="1.694542" NOx_normed="35.597123" fuel_normed="34.973829" electricity_normed="0"
            traveltime="2.11" CO_perVeh="283.365409" CO2_perVeh="9125.722969" HC_perVeh="1.504960" PMx_perVeh="0.190068" NOx_perVeh="3.992740" fuel_perVeh="3.922828" electricity_perVeh="0"/>
        <edge id=":1106006327_1" sampledSeconds="686.37" CO_abs="92773.718764" CO2_abs="3088126.488951" HC_abs="495.199935" PMx_abs="64.402665" NOx_abs="1351.395868" fuel_abs="1327.474565" electricity_abs="0"
            CO_normed="3880.601761" CO2_normed="129172.240263" HC_normed="20.713557" PMx_normed="2.693878" NOx_normed="56.527099" fuel_normed="55.526503" electricity_normed="0"
            traveltime="2.30" CO_perVeh="311.418918" CO2_perVeh="10366.093153" HC_perVeh="1.662266" PMx_perVeh="0.216184" NOx_perVeh="4.536309" fuel_perVeh="4.456011" electricity_perVeh="0"/>
        <edge id=":1106006327_2" sampledSeconds="0.00" CO_abs="0" CO2_abs="0" HC_abs="0" PMx_abs="0" NOx_abs="0" fuel_abs="0" electricity_abs="0"
            CO_normed="0" CO2_normed="0" HC_normed="0" PMx_normed="0" NOx_normed="0" fuel_normed="0" electricity_normed="0"/>
        <edge id=":1106006327_3" sampledSeconds="0.00" CO_abs="0" CO2_abs="0" HC_abs="0" PMx_abs="0" NOx_abs="0" fuel_abs="0" electricity_abs="0"
            CO_normed="0" CO2_normed="0" HC_normed="0" PMx_normed="0" NOx_normed="0" fuel_normed="0" electricity_normed="0"/>
        <edge id=":1107381198_0" sampledSeconds="0.00" CO_abs="0" CO2_abs="0" HC_abs="0" PMx_abs="0" NOx_abs="0" fuel_abs="0" electricity_abs="0"
            CO_normed="0" CO2_normed="0" HC_normed="0" PMx_normed="0" NOx_normed="0" fuel_normed="0" electricity_normed="0"/>
        <edge id=":1107381198_1" sampledSeconds="102.33" CO_abs="4577.562043" CO2_abs="183971.069390" HC_abs="25.085901" PMx_abs="3.206117" NOx_abs="76.411835" fuel_abs="79.082703" electricity_abs="0"
            CO_normed="212.144962" CO2_normed="8526.052768" HC_normed="1.162594" PMx_normed="0.148586" NOx_normed="3.541271" fuel_normed="3.665051" electricity_normed="0"
            traveltime="1.53" CO_perVeh="68.534881" CO2_perVeh="2754.399664" HC_perVeh="0.375584" PMx_perVeh="0.048002" NOx_perVeh="1.144032" fuel_perVeh="1.184020" electricity_perVeh="0"/>
        <edge id=":1110338277_0" sampledSeconds="160.79" CO_abs="2499.351142" CO2_abs="304293.602567" HC_abs="18.311706" PMx_abs="4.154198" NOx_abs="113.750747" fuel_abs="130.803075" electricity_abs="0"
            CO_normed="3793.473578" CO2_normed="461851.767054" HC_normed="27.793203" PMx_normed="6.305173" NOx_normed="172.648991" fuel_normed="198.530730" electricity_normed="0"
            traveltime="0.02" CO_perVeh="0.338513" CO2_perVeh="41.213647" HC_perVeh="0.002480" PMx_perVeh="0.000563" NOx_perVeh="0.015406" fuel_perVeh="0.017716" electricity_perVeh="0"/>
        <edge id=":1110338293_0" sampledSeconds="6495.41" CO_abs="609823.131129" CO2_abs="10712438.775619" HC_abs="3027.395876" PMx_abs="255.477527" NOx_abs="4841.493555" fuel_abs="4605.095359" electricity_abs="0"
            CO_normed="863874.108552" CO2_normed="15175217.247955" HC_normed="4288.602351" PMx_normed="361.908904" NOx_normed="6858.449140" fuel_normed="6523.567975" electricity_normed="0"
            traveltime="0.43" CO_perVeh="40.755052" CO2_perVeh="715.922341" HC_perVeh="0.202324" PMx_perVeh="0.017074" NOx_perVeh="0.323562" fuel_perVeh="0.307763" electricity_perVeh="0"/>
        <edge id=":1110338295_0" sampledSeconds="0.00" CO_abs="0" CO2_abs="0" HC_abs="0" PMx_abs="0" NOx_abs="0" fuel_abs="0" electricity_abs="0"
            CO_normed="0" CO2_normed="0" HC_normed="0" PMx_normed="0" NOx_normed="0" fuel_normed="0" electricity_normed="0"/>
        <edge id=":1110673403_0" sampledSeconds="200.35" CO_abs="3355.052750" CO2_abs="397351.330827" HC_abs="24.408361" PMx_abs="5.581007" NOx_abs="149.582377" fuel_abs="170.804540" electricity_abs="0"
            CO_normed="4752.760358" CO2_normed="562887.022775" HC_normed="34.576831" PMx_normed="7.906042" NOx_normed="211.898067" fuel_normed="241.961337" electricity_normed="0"
            traveltime="0.02" CO_perVeh="0.387763" CO2_perVeh="45.924182" HC_perVeh="0.002821" PMx_perVeh="0.000645" NOx_perVeh="0.017288" fuel_perVeh="0.019741" electricity_perVeh="0"/>
        <edge id=":1110673412_0" sampledSeconds="939.61" CO_abs="168179.133258" CO2_abs="11447269.661808" HC_abs="1045.990332" PMx_abs="251.932047" NOx_abs="4922.464642" fuel_abs="4920.617135" electricity_abs="0"
            CO_normed="246457.438860" CO2_normed="16775355.587423" HC_normed="1532.842352" PMx_normed="369.192812" NOx_normed="7213.606141" fuel_normed="7210.898719" electricity_normed="0"
            traveltime="0.02" CO_perVeh="2.778487" CO2_perVeh="189.120295" HC_perVeh="0.017281" PMx_perVeh="0.004162" NOx_perVeh="0.081324" fuel_perVeh="0.081293" electricity_perVeh="0"/>
        <edge id=":1110673414_0" sampledSeconds="0.00" CO_abs="0" CO2_abs="0" HC_abs="0" PMx_abs="0" NOx_abs="0" fuel_abs="0" electricity_abs="0"
            CO_normed="0" CO2_normed="0" HC_normed="0" PMx_normed="0" NOx_normed="0" fuel_normed="0" electricity_normed="0"/>
        <edge id=":1110673414_1" sampledSeconds="6.95" CO_abs="464.354506" CO2_abs="18728.156402" HC_abs="2.548807" PMx_abs="0.339305" NOx_abs="7.862563" fuel_abs="8.050556" electricity_abs="0"
            CO_normed="21.853939" CO2_normed="881.404161" HC_normed="0.119955" PMx_normed="0.015969" NOx_normed="0.370036" fuel_normed="0.378884" electricity_normed="0"
            traveltime="1.52" CO_perVeh="101.430121" CO2_perVeh="4090.838227" HC_perVeh="0.556742" PMx_perVeh="0.074115" NOx_perVeh="1.717439" fuel_perVeh="1.758503" electricity_perVeh="0"/>
        <edge id=":1110673417_0" sampledSeconds="29.03" CO_abs="574.657257" CO2_abs="59461.950612" HC_abs="3.968120" PMx_abs="0.863313" NOx_abs="22.685624" fuel_abs="25.560183" electricity_abs="0"
            CO_normed="872.205224" CO2_normed="90250.359295" HC_normed="6.022746" PMx_normed="1.310322" NOx_normed="34.431862" fuel_normed="38.794820" electricity_normed="0"
            traveltime="0.02" CO_perVeh="0.438204" CO2_perVeh="45.342591" HC_perVeh="0.003026" PMx_perVeh="0.000658" NOx_perVeh="0.017299" fuel_perVeh="0.019491" electricity_perVeh="0"/>
        <edge id=":1110673446_0" sampledSeconds="1312.96" CO_abs="13723.429807" CO2_abs="1137652.269275" HC_abs="89.418564" PMx_abs="20.560020" NOx_abs="462.933026" fuel_abs="489.024635" electricity_abs="0"
            CO_normed="19440.580532" CO2_normed="1611595.706682" HC_normed="126.670141" PMx_normed="29.125279" NOx_normed="655.789908" fuel_normed="692.751225" electricity_normed="0"
            traveltime="0.02" CO_perVeh="0.238202" CO2_perVeh="19.746592" HC_perVeh="0.001552" PMx_perVeh="0.000357" NOx_perVeh="0.008035" fuel_perVeh="0.008488" electricity_perVeh="0"/>
        <edge id=":1110673451_0" sampledSeconds="36.57" CO_abs="338.932660" CO2_abs="23998.884294" HC_abs="2.091826" PMx_abs="0.338858" NOx_abs="9.286241" fuel_abs="10.316196" electricity_abs="0"
            CO_normed="533.479180" CO2_normed="37774.185329" HC_normed="3.292529" PMx_normed="0.533361" NOx_normed="14.616520" fuel_normed="16.237667" electricity_normed="0"
            traveltime="0.03" CO_perVeh="0.249718" CO2_perVeh="17.681872" HC_perVeh="0.001541" PMx_perVeh="0.000250" NOx_perVeh="0.006842" fuel_perVeh="0.007601" electricity_perVeh="0"/>
        <edge id=":1110673464_0" sampledSeconds="1036.07" CO_abs="4207.478193" CO2_abs="304116.886046" HC_abs="26.142113" PMx_abs="4.471120" NOx_abs="118.626587" fuel_abs="130.727804" electricity_abs="0"
            CO_normed="126.635362" CO2_normed="9153.214866" HC_normed="0.786817" PMx_normed="0.134570" NOx_normed="3.570386" fuel_normed="3.934605" electricity_normed="0"
            traveltime="1.23" CO_perVeh="4.989481" CO2_perVeh="360.640097" HC_perVeh="0.031001" PMx_perVeh="0.005302" NOx_perVeh="0.140675" fuel_perVeh="0.155025" electricity_perVeh="0"/>
        <edge id=":1110673464_1" sampledSeconds="2608.14" CO_abs="61340.751132" CO2_abs="7563522.879518" HC_abs="459.633423" PMx_abs="134.615792" NOx_abs="2863.318964" fuel_abs="3251.210377" electricity_abs="0"
            CO_normed="1809.059820" CO2_normed="223063.217981" HC_normed="13.555497" PMx_normed="3.970085" NOx_normed="84.444928" fuel_normed="95.884611" electricity_normed="0"
            traveltime="0.72" CO_perVeh="16.910906" CO2_perVeh="2085.172074" HC_perVeh="0.126715" PMx_perVeh="0.037112" NOx_perVeh="0.789383" fuel_perVeh="0.896320" electricity_perVeh="0"/>
        <edge id=":1110673479_0" sampledSeconds="135.07" CO_abs="6411.863517" CO2_abs="437835.023961" HC_abs="39.474257" PMx_abs="7.635615" NOx_abs="178.965639" fuel_abs="188.206363" electricity_abs="0"
            CO_normed="9083.031780" CO2_normed="620236.133577" HC_normed="55.919146" PMx_normed="10.816596" NOx_normed="253.522331" fuel_normed="266.612721" electricity_normed="0"
            traveltime="0.03" CO_perVeh="1.355526" CO2_perVeh="92.562283" HC_perVeh="0.008345" PMx_perVeh="0.001614" NOx_perVeh="0.037835" fuel_perVeh="0.039789" electricity_perVeh="0"/>
        <edge id=":1110673511_0" sampledSeconds="63.40" CO_abs="1021.763526" CO2_abs="117691.646856" HC_abs="7.322242" PMx_abs="1.594906" NOx_abs="44.032559" fuel_abs="50.590762" electricity_abs="0"
            CO_normed="1447.427968" CO2_normed="166721.728518" HC_normed="10.372672" PMx_normed="2.259340" NOx_normed="62.376426" fuel_normed="71.666762" electricity_normed="0"
            traveltime="0.02" CO_perVeh="0.391605" CO2_perVeh="45.106987" HC_perVeh="0.002806" PMx_perVeh="0.000611" NOx_perVeh="0.016876" fuel_perVeh="0.019390" electricity_perVeh="0"/>
        <edge id=":1110673517_0" sampledSeconds="182.91" CO_abs="7965.287874" CO2_abs="561501.268690" HC_abs="49.456229" PMx_abs="9.754491" NOx_abs="228.946019" fuel_abs="241.365011" electricity_abs="0"
            CO_normed="11283.609313" CO2_normed="795421.464323" HC_normed="70.059585" PMx_normed="13.818191" NOx_normed="324.324428" fuel_normed="341.917145" electricity_normed="0"
            traveltime="0.03" CO_perVeh="1.219550" CO2_perVeh="85.970389" HC_perVeh="0.007572" PMx_perVeh="0.001493" NOx_perVeh="0.035053" fuel_perVeh="0.036955" electricity_perVeh="0"/>
        <edge id=":1110673534_0" sampledSeconds="660.16" CO_abs="4771.536044" CO2_abs="395640.063830" HC_abs="30.744959" PMx_abs="5.390771" NOx_abs="150.770483" fuel_abs="170.070123" electricity_abs="0"
            CO_normed="130.995106" CO2_normed="10861.683056" HC_normed="0.844055" PMx_normed="0.147995" NOx_normed="4.139169" fuel_normed="4.669011" electricity_normed="0"
            traveltime="1.45" CO_perVeh="10.491897" CO2_perVeh="869.953607" HC_perVeh="0.067604" PMx_perVeh="0.011854" NOx_perVeh="0.331522" fuel_perVeh="0.373959" electricity_perVeh="0"/>
        <edge id=":1110673534_1" sampledSeconds="264.31" CO_abs="4284.466188" CO2_abs="511243.564193" HC_abs="31.220865" PMx_abs="7.085005" NOx_abs="191.847116" fuel_abs="219.762111" electricity_abs="0"
            CO_normed="114.372463" CO2_normed="13647.484494" HC_normed="0.833431" PMx_normed="0.189132" NOx_normed="5.121298" fuel_normed="5.866480" electricity_normed="0"
            traveltime="1.23" CO_perVeh="19.878848" CO2_perVeh="2372.041881" HC_perVeh="0.144857" PMx_perVeh="0.032873" NOx_perVeh="0.890122" fuel_perVeh="1.019641" electricity_perVeh="0"/>
        <edge id=":1110673549_0" sampledSeconds="652.29" CO_abs="1509.944523" CO2_abs="149523.147419" HC_abs="10.253329" PMx_abs="2.163347" NOx_abs="56.768864" fuel_abs="64.273776" electricity_abs="0"
            CO_normed="40.156147" CO2_normed="3976.486151" HC_normed="0.272682" PMx_normed="0.057533" NOx_normed="1.509737" fuel_normed="1.709326" electricity_normed="0"
            traveltime="1.30" CO_perVeh="2.999900" CO2_perVeh="297.066841" HC_perVeh="0.020371" PMx_perVeh="0.004298" NOx_perVeh="0.112786" fuel_perVeh="0.127697" electricity_perVeh="0"/>
        <edge id=":1110673549_1" sampledSeconds="3199.85" CO_abs="68976.171681" CO2_abs="8958014.072155" HC_abs="527.830659" PMx_abs="157.924596" NOx_abs="3355.506142" fuel_abs="3850.639824" electricity_abs="0"
            CO_normed="1774.421792" CO2_normed="230446.181573" HC_normed="13.578519" PMx_normed="4.062633" NOx_normed="86.320871" fuel_normed="99.058255" electricity_normed="0"
            traveltime="0.81" CO_perVeh="17.397786" CO2_perVeh="2259.470264" HC_perVeh="0.133134" PMx_perVeh="0.039833" NOx_perVeh="0.846356" fuel_perVeh="0.971243" electricity_perVeh="0"/>
        <edge id=":1110673556_0" sampledSeconds="460.55" CO_abs="56189.928268" CO2_abs="2725906.523126" HC_abs="320.578530" PMx_abs="54.859253" NOx_abs="1173.801861" fuel_abs="1171.750919" electricity_abs="0"
            CO_normed="1108.100172" CO2_normed="53756.564204" HC_normed="6.322007" PMx_normed="1.081858" NOx_normed="23.148099" fuel_normed="23.107654" electricity_normed="0"
            traveltime="2.71" CO_perVeh="331.234224" CO2_perVeh="16068.956855" HC_perVeh="1.889780" PMx_perVeh="0.323390" NOx_perVeh="6.919449" fuel_perVeh="6.907359" electricity_perVeh="0"/>
        <edge id=":1110673556_2" sampledSeconds="174.39" CO_abs="17771.286025" CO2_abs="769060.041047" HC_abs="99.008875" PMx_abs="14.969328" NOx_abs="328.858034" fuel_abs="330.588417" electricity_abs="0"
            CO_normed="366.444902" CO2_normed="15858.060633" HC_normed="2.041568" PMx_normed="0.308668" NOx_normed="6.781071" fuel_normed="6.816751" electricity_normed="0"
            traveltime="3.02" CO_perVeh="307.290930" CO2_perVeh="13298.147062" HC_perVeh="1.712005" PMx_perVeh="0.258841" NOx_perVeh="5.686425" fuel_perVeh="5.716346" electricity_perVeh="0"/>
        <edge id=":1110673556_3" sampledSeconds="345.77" CO_abs="35304.003249" CO2_abs="1216026.133961" HC_abs="189.147956" PMx_abs="23.857811" NOx_abs="522.804827" fuel_abs="522.727128" electricity_abs="0"
            CO_normed="1656.012367" CO2_normed="57040.395739" HC_normed="8.872403" PMx_normed="1.119103" NOx_normed="24.523317" fuel_normed="24.519672" electricity_normed="0"
            traveltime="1.83" CO_perVeh="186.782760" CO2_perVeh="6433.624988" HC_perVeh="1.000724" PMx_perVeh="0.126224" NOx_perVeh="2.766002" fuel_perVeh="2.765590" electricity_perVeh="0"/>
        <edge id=":1110673556_4" sampledSeconds="84.72" CO_abs="9587.337443" CO2_abs="368243.739544" HC_abs="52.304144" PMx_abs="7.295911" NOx_abs="158.570806" fuel_abs="158.294080" electricity_abs="0"
            CO_normed="274.741763" CO2_normed="10552.662297" HC_normed="1.498866" PMx_normed="0.209077" NOx_normed="4.544121" fuel_normed="4.536191" electricity_normed="0"
            traveltime="2.57" CO_perVeh="290.460090" CO2_perVeh="11156.393580" HC_perVeh="1.584618" PMx_perVeh="0.221039" NOx_perVeh="4.804096" fuel_perVeh="4.795712" electricity_perVeh="0"/>
        <edge id=":1110673556_5" sampledSeconds="22.27" CO_abs="1022.454170" CO2_abs="46254.933925" HC_abs="5.726579" PMx_abs="0.804771" NOx_abs="19.162144" fuel_abs="19.883268" electricity_abs="0"
            CO_normed="40.838524" CO2_normed="1847.499187" HC_normed="0.228729" PMx_normed="0.032144" NOx_normed="0.765368" fuel_normed="0.794171" electricity_normed="0"
            traveltime="1.54" CO_perVeh="70.688189" CO2_perVeh="3197.871975" HC_perVeh="0.395912" PMx_perVeh="0.055638" NOx_perVeh="1.324790" fuel_perVeh="1.374646" electricity_perVeh="0"/>
        <edge id=":1110673556_6" sampledSeconds="549.62" CO_abs="65624.567873" CO2_abs="3165095.721231" HC_abs="373.967069" PMx_abs="63.788780" NOx_abs="1363.841192" fuel_abs="1360.539771" electricity_abs="0"
            CO_normed="1326.788089" CO2_normed="63991.450747" HC_normed="7.560812" PMx_normed="1.289672" NOx_normed="27.573945" fuel_normed="27.507198" electricity_normed="0"
            traveltime="2.67" CO_perVeh="318.621786" CO2_perVeh="15367.239514" HC_perVeh="1.815693" PMx_perVeh="0.309709" NOx_perVeh="6.621751" fuel_perVeh="6.605721" electricity_perVeh="0"/>
        <edge id=":1110673561_0" sampledSeconds="104.34" CO_abs="9192.552814" CO2_abs="663618.999638" HC_abs="57.772010" PMx_abs="13.245809" NOx_abs="279.617298" fuel_abs="285.258383" electricity_abs="0"
            CO_normed="233.511359" CO2_normed="16857.403785" HC_normed="1.467538" PMx_normed="0.336473" NOx_normed="7.102903" fuel_normed="7.246200" electricity_normed="0"
            traveltime="1.23" CO_perVeh="108.481045" CO2_perVeh="7831.348304" HC_perVeh="0.681766" PMx_perVeh="0.156313" NOx_perVeh="3.299756" fuel_perVeh="3.366326" electricity_perVeh="0"/>
        <edge id=":1110673561_1" sampledSeconds="5191.35" CO_abs="480167.841377" CO2_abs="33380201.998129" HC_abs="2993.741037" PMx_abs="696.002760" NOx_abs="14257.883828" fuel_abs="14348.538149" electricity_abs="0"
            CO_normed="11891.690730" CO2_normed="826683.931062" HC_normed="74.142080" PMx_normed="17.236993" NOx_normed="353.106415" fuel_normed="355.351532" electricity_normed="0"
            traveltime="1.19" CO_perVeh="110.373049" CO2_perVeh="7672.889237" HC_perVeh="0.688152" PMx_perVeh="0.159986" NOx_perVeh="3.277367" fuel_perVeh="3.298205" electricity_perVeh="0"/>
        <edge id=":1110673562_0" sampledSeconds="300.81" CO_abs="7052.617699" CO2_abs="536590.222220" HC_abs="44.362991" PMx_abs="7.374429" NOx_abs="205.795099" fuel_abs="230.659374" electricity_abs="0"
            CO_normed="11100.803053" CO2_normed="844591.700658" HC_normed="69.827239" PMx_normed="11.607334" NOx_normed="323.920983" fuel_normed="363.057291" electricity_normed="0"
            traveltime="0.03" CO_perVeh="0.632207" CO2_perVeh="48.100717" HC_perVeh="0.003977" PMx_perVeh="0.000661" NOx_perVeh="0.018448" fuel_perVeh="0.020677" electricity_perVeh="0"/>
        <edge id=":1110673564_0" sampledSeconds="28.24" CO_abs="342.796990" CO2_abs="38648.547008" HC_abs="2.442018" PMx_abs="0.520432" NOx_abs="14.467922" fuel_abs="16.613418" electricity_abs="0"
            CO_normed="1456.816392" CO2_normed="164248.340490" HC_normed="10.378074" PMx_normed="2.211728" NOx_normed="61.485679" fuel_normed="70.603595" electricity_normed="0"
            traveltime="7.977599e-03" CO_perVeh="0.096822" CO2_perVeh="10.916127" HC_perVeh="0.000690" PMx_perVeh="0.000147" NOx_perVeh="0.004086" fuel_perVeh="0.004692" electricity_perVeh="0"/>
        <edge id=":1110673588_0" sampledSeconds="63.21" CO_abs="1008.998468" CO2_abs="116597.777339" HC_abs="7.256352" PMx_abs="1.599650" NOx_abs="43.749062" fuel_abs="50.120523" electricity_abs="0"
            CO_normed="1715.214017" CO2_normed="198206.586434" HC_normed="12.335199" PMx_normed="2.719273" NOx_normed="74.369790" fuel_normed="85.200747" electricity_normed="0"
            traveltime="0.02" CO_perVeh="0.325483" CO2_perVeh="37.612186" HC_perVeh="0.002341" PMx_perVeh="0.000516" NOx_perVeh="0.014113" fuel_perVeh="0.016168" electricity_perVeh="0"/>
        <edge id=":1110673601_0" sampledSeconds="29.20" CO_abs="470.075287" CO2_abs="54665.961604" HC_abs="3.382143" PMx_abs="0.738742" NOx_abs="20.417567" fuel_abs="23.498633" electricity_abs="0"
            CO_normed="713.472450" CO2_normed="82971.086975" HC_normed="5.133361" PMx_normed="1.121251" NOx_normed="30.989443" fuel_normed="35.665835" electricity_normed="0"
            traveltime="0.02" CO_perVeh="0.358455" CO2_perVeh="41.685420" HC_perVeh="0.002579" PMx_perVeh="0.000563" NOx_perVeh="0.015569" fuel_perVeh="0.017919" electricity_perVeh="0"/>
        <edge id=":1110673617_0" sampledSeconds="853.57" CO_abs="31023.500332" CO2_abs="3183514.441092" HC_abs="217.414794" PMx_abs="59.770882" NOx_abs="1245.249347" fuel_abs="1368.443980" electricity_abs="0"
            CO_normed="43947.822452" CO2_normed="4509759.567123" HC_normed="307.989319" PMx_normed="84.671301" NOx_normed="1764.017490" fuel_normed="1938.534737" electricity_normed="0"
            traveltime="0.02" CO_perVeh="0.549684" CO2_perVeh="56.406491" HC_perVeh="0.003852" PMx_perVeh="0.001059" NOx_perVeh="0.022064" fuel_perVeh="0.024247" electricity_perVeh="0"/>
        <edge id=":1110673621_0" sampledSeconds="26.23" CO_abs="555.755172" CO2_abs="56875.239327" HC_abs="3.825320" PMx_abs="0.818947" NOx_abs="21.695792" fuel_abs="24.448277" electricity_abs="0"
            CO_normed="944.737868" CO2_normed="96683.206978" HC_normed="6.502729" PMx_normed="1.392143" NOx_normed="36.881053" fuel_normed="41.560050" electricity_normed="0"
            traveltime="0.02" CO_perVeh="0.421027" CO2_perVeh="43.087303" HC_perVeh="0.002898" PMx_perVeh="0.000620" NOx_perVeh="0.016436" fuel_perVeh="0.018521" electricity_perVeh="0"/>
        <edge id=":1110673630_0" sampledSeconds="284.95" CO_abs="1531.670803" CO2_abs="139659.205262" HC_abs="10.171171" PMx_abs="1.883512" NOx_abs="52.915039" fuel_abs="60.033926" electricity_abs="0"
            CO_normed="46.428563" CO2_normed="4233.400646" HC_normed="0.308312" PMx_normed="0.057094" NOx_normed="1.603980" fuel_normed="1.819770" electricity_normed="0"
            traveltime="1.28" CO_perVeh="6.891934" CO2_perVeh="628.413085" HC_perVeh="0.045766" PMx_perVeh="0.008475" NOx_perVeh="0.238097" fuel_perVeh="0.270130" electricity_perVeh="0"/>
        <edge id=":1110673630_1" sampledSeconds="337.11" CO_abs="1031.844459" CO2_abs="85198.278006" HC_abs="6.622452" PMx_abs="1.040650" NOx_abs="31.721336" fuel_abs="36.623578" electricity_abs="0"
            CO_normed="38.131529" CO2_normed="3148.478962" HC_normed="0.244731" PMx_normed="0.038457" NOx_normed="1.172253" fuel_normed="1.353414" electricity_normed="0"
            traveltime="1.07" CO_perVeh="3.289317" CO2_perVeh="271.595342" HC_perVeh="0.021111" PMx_perVeh="0.003317" NOx_perVeh="0.101121" fuel_perVeh="0.116749" electricity_perVeh="0"/>
        <edge id=":1110673650_0" sampledSeconds="199.98" CO_abs="3042.158620" CO2_abs="382295.781377" HC_abs="22.587468" PMx_abs="5.206960" NOx_abs="142.566772" fuel_abs="164.332911" electricity_abs="0"
            CO_normed="4309.515221" CO2_normed="541559.364482" HC_normed="31.997358" PMx_normed="7.376167" NOx_normed="201.959776" fuel_normed="232.793641" electricity_normed="0"
            traveltime="0.02" CO_perVeh="0.351600" CO2_perVeh="44.184125" HC_perVeh="0.002611" PMx_perVeh="0.000602" NOx_perVeh="0.016477" fuel_perVeh="0.018993" electricity_perVeh="0"/>
        <edge id=":1110673655_0" sampledSeconds="20.69" CO_abs="291.873885" CO2_abs="36637.951532" HC_abs="2.165285" PMx_abs="0.476559" NOx_abs="13.548234" fuel_abs="15.749150" electricity_abs="0"
            CO_normed="413.467905" CO2_normed="51901.241693" HC_normed="3.067338" PMx_normed="0.675093" NOx_normed="19.192398" fuel_normed="22.310211" electricity_normed="0"
            traveltime="0.02" CO_perVeh="0.333443" CO2_perVeh="41.855999" HC_perVeh="0.002474" PMx_perVeh="0.000544" NOx_perVeh="0.015478" fuel_perVeh="0.017992" electricity_perVeh="0"/>
        <edge id=":1110673663_0" sampledSeconds="111.95" CO_abs="2375.052391" CO2_abs="239996.769401" HC_abs="16.360525" PMx_abs="3.510889" NOx_abs="91.894133" fuel_abs="103.164488" electricity_abs="0"
            CO_normed="61.620769" CO2_normed="6226.719717" HC_normed="0.424474" PMx_normed="0.091090" NOx_normed="2.384195" fuel_normed="2.676604" electricity_normed="0"
            traveltime="1.31" CO_perVeh="27.896181" CO2_perVeh="2818.882332" HC_perVeh="0.192163" PMx_perVeh="0.041237" NOx_perVeh="1.079343" fuel_perVeh="1.211719" electricity_perVeh="0"/>
        <edge id=":1110673663_1" sampledSeconds="170.42" CO_abs="2595.350616" CO2_abs="315627.057384" HC_abs="19.041781" PMx_abs="4.345171" NOx_abs="118.185646" fuel_abs="135.674808" electricity_abs="0"
            CO_normed="67.418728" CO2_normed="8198.959593" HC_normed="0.494643" PMx_normed="0.112873" NOx_normed="3.070077" fuel_normed="3.524388" electricity_normed="0"
            traveltime="1.27" CO_perVeh="19.403747" CO2_perVeh="2359.738003" HC_perVeh="0.142363" PMx_perVeh="0.032486" NOx_perVeh="0.883597" fuel_perVeh="1.014352" electricity_perVeh="0"/>