<?xml version="1.0" encoding="UTF-8"?>

<!-- generated on Tue Nov 10 16:25:41 2020 by Eclipse SUMO sumo Version 1.7.0
<configuration xmlns:xsi="http://www.w3.org/2001/XMLSchema-instance" xsi:noNamespaceSchemaLocation="http://sumo.dlr.de/xsd/sumoConfiguration.xsd">

    <input>
        <net-file value="../dataSets/Porto/8AM9AM_Routing_SaoBento/Porto.net.xml"/>
        <route-files value="../results/Porto/8AM9AM_Routing_SaoBento/cost_co-cost_co2/solution10/Porto.rou.xml"/>
        <additional-files value="moreOutputInfo.xml"/>
    </input>

    <output>
        <emission-output.precision value="6"/>
        <tripinfo-output value="../results/Porto/8AM9AM_Routing_SaoBento/cost_co-cost_co2/solution10/Porto-tripinfo"/>
    </output>

    <processing>
        <collision.action value="warn"/>
        <time-to-teleport value="-1"/>
    </processing>

    <emissions>
        <device.emissions.probability value="1"/>
    </emissions>

    <gui_only>
        <quit-on-end value="true"/>
        <start value="true"/>
    </gui_only>

</configuration>
-->

<meandata xmlns:xsi="http://www.w3.org/2001/XMLSchema-instance" xsi:noNamespaceSchemaLocation="http://sumo.dlr.de/xsd/meandata_file.xsd">
    <interval begin="0.00" end="8471.00" id="emissions-detector">
        <edge id=":1092997347_0" sampledSeconds="589.91" CO_abs="71936.134741" CO2_abs="3086871.523572" HC_abs="400.595459" PMx_abs="62.459706" NOx_abs="1335.648839" fuel_abs="1326.920524" electricity_abs="0"
            CO_normed="69480.388992" CO2_normed="2981492.333431" HC_normed="386.919987" PMx_normed="60.327465" NOx_normed="1290.052645" fuel_normed="1281.622296" electricity_normed="0"
            traveltime="0.07" CO_perVeh="8.246247" CO2_perVeh="353.857021" HC_perVeh="0.045921" PMx_perVeh="0.007160" NOx_perVeh="0.153109" fuel_perVeh="0.152109" electricity_perVeh="0"/>
        <edge id=":1103427051_0" sampledSeconds="19.49" CO_abs="1633.323764" CO2_abs="93567.582599" HC_abs="9.649544" PMx_abs="1.780334" NOx_abs="39.525972" fuel_abs="40.220627" electricity_abs="0"
            CO_normed="2393.547784" CO2_normed="137118.240063" HC_normed="14.140886" PMx_normed="2.608983" NOx_normed="57.923178" fuel_normed="58.941157" electricity_normed="0"
            traveltime="0.03" CO_perVeh="2.540025" CO2_perVeh="145.509432" HC_perVeh="0.015006" PMx_perVeh="0.002769" NOx_perVeh="0.061468" fuel_perVeh="0.062548" electricity_perVeh="0"/>
        <edge id=":1105984386_0" sampledSeconds="10.49" CO_abs="231.994654" CO2_abs="16623.318648" HC_abs="1.431846" PMx_abs="0.211313" NOx_abs="6.283568" fuel_abs="7.145757" electricity_abs="0"
            CO_normed="10.153752" CO2_normed="727.555820" HC_normed="0.062668" PMx_normed="0.009249" NOx_normed="0.275014" fuel_normed="0.312750" electricity_normed="0"
            traveltime="1.01" CO_perVeh="22.255168" CO2_perVeh="1594.669276" HC_perVeh="0.137357" PMx_perVeh="0.020271" NOx_perVeh="0.602781" fuel_perVeh="0.685490" electricity_perVeh="0"/>
        <edge id=":1105984390_0" sampledSeconds="10.73" CO_abs="10.631659" CO2_abs="803.003883" HC_abs="0.066522" PMx_abs="0.009950" NOx_abs="0.301498" fuel_abs="0.345182" electricity_abs="0"
            CO_normed="0.359732" CO2_normed="27.170387" HC_normed="0.002251" PMx_normed="0.000337" NOx_normed="0.010201" fuel_normed="0.011680" electricity_normed="0"
            traveltime="1.11" CO_perVeh="1.102035" CO2_perVeh="83.236187" HC_perVeh="0.006895" PMx_perVeh="0.001031" NOx_perVeh="0.031252" fuel_perVeh="0.035780" electricity_perVeh="0"/>
        <edge id=":1105984390_1" sampledSeconds="2395.87" CO_abs="65964.729926" CO2_abs="7712003.095866" HC_abs="484.838185" PMx_abs="140.042848" NOx_abs="2942.153769" fuel_abs="3315.033424" electricity_abs="0"
            CO_normed="2135.083585" CO2_normed="249614.774992" HC_normed="15.692781" PMx_normed="4.532774" NOx_normed="95.228832" fuel_normed="107.297846" electricity_normed="0"
            traveltime="0.65" CO_perVeh="17.816088" CO2_perVeh="2082.896806" HC_perVeh="0.130948" PMx_perVeh="0.037823" NOx_perVeh="0.794632" fuel_perVeh="0.895341" electricity_perVeh="0"/>
        <edge id=":1105984395_0" sampledSeconds="4.07" CO_abs="123.723526" CO2_abs="9238.755225" HC_abs="0.772461" PMx_abs="0.118233" NOx_abs="3.490425" fuel_abs="3.971398" electricity_abs="0"
            CO_normed="57.152111" CO2_normed="4267.695772" HC_normed="0.356826" PMx_normed="0.054616" NOx_normed="1.612346" fuel_normed="1.834524" electricity_normed="0"
            traveltime="0.09" CO_perVeh="2.867867" CO2_perVeh="214.151041" HC_perVeh="0.017905" PMx_perVeh="0.002741" NOx_perVeh="0.080907" fuel_perVeh="0.092056" electricity_perVeh="0"/>
        <edge id=":1105984398_0" sampledSeconds="11.03" CO_abs="636.212971" CO2_abs="44026.670612" HC_abs="3.923894" PMx_abs="0.732363" NOx_abs="17.768089" fuel_abs="18.925211" electricity_abs="0"
            CO_normed="22.363720" CO2_normed="1547.595159" HC_normed="0.137930" PMx_normed="0.025744" NOx_normed="0.624572" fuel_normed="0.665246" electricity_normed="0"
            traveltime="1.17" CO_perVeh="67.245208" CO2_perVeh="4653.445873" HC_perVeh="0.414740" PMx_perVeh="0.077408" NOx_perVeh="1.878017" fuel_perVeh="2.000320" electricity_perVeh="0"/>
        <edge id=":1105984398_1" sampledSeconds="646.54" CO_abs="11080.610276" CO2_abs="1344480.292876" HC_abs="81.247660" PMx_abs="18.962657" NOx_abs="505.676903" fuel_abs="577.934964" electricity_abs="0"
            CO_normed="377.024056" CO2_normed="45746.705303" HC_normed="2.764498" PMx_normed="0.645215" NOx_normed="17.205944" fuel_normed="19.664565" electricity_normed="0"
            traveltime="0.95" CO_perVeh="16.327196" CO2_perVeh="1981.081659" HC_perVeh="0.119718" PMx_perVeh="0.027941" NOx_perVeh="0.745111" fuel_perVeh="0.851583" electricity_perVeh="0"/>
        <edge id=":1106006327_0" sampledSeconds="859.67" CO_abs="116561.688680" CO2_abs="3804353.561496" HC_abs="620.348850" PMx_abs="79.495036" NOx_abs="1666.100466" fuel_abs="1635.356514" electricity_abs="0"
            CO_normed="5591.005607" CO2_normed="182479.872525" HC_normed="29.755694" PMx_normed="3.813064" NOx_normed="79.916284" fuel_normed="78.441618" electricity_normed="0"
            traveltime="2.08" CO_perVeh="282.084803" CO2_perVeh="9206.715665" HC_perVeh="1.501274" PMx_perVeh="0.192382" NOx_perVeh="4.032042" fuel_perVeh="3.957640" electricity_perVeh="0"/>
        <edge id=":1106006327_1" sampledSeconds="686.30" CO_abs="92829.157098" CO2_abs="3090468.282265" HC_abs="495.511983" PMx_abs="64.469684" NOx_abs="1352.506805" fuel_abs="1328.481181" electricity_abs="0"
            CO_normed="3882.920673" CO2_normed="129270.194375" HC_normed="20.726610" PMx_normed="2.696681" NOx_normed="56.573568" fuel_normed="55.568608" electricity_normed="0"
            traveltime="2.30" CO_perVeh="311.605011" CO2_perVeh="10373.953986" HC_perVeh="1.663314" PMx_perVeh="0.216409" NOx_perVeh="4.540038" fuel_perVeh="4.459390" electricity_perVeh="0"/>
        <edge id=":1106006327_2" sampledSeconds="0.00" CO_abs="0" CO2_abs="0" HC_abs="0" PMx_abs="0" NOx_abs="0" fuel_abs="0" electricity_abs="0"
            CO_normed="0" CO2_normed="0" HC_normed="0" PMx_normed="0" NOx_normed="0" fuel_normed="0" electricity_normed="0"/>
        <edge id=":1106006327_3" sampledSeconds="0.00" CO_abs="0" CO2_abs="0" HC_abs="0" PMx_abs="0" NOx_abs="0" fuel_abs="0" electricity_abs="0"
            CO_normed="0" CO2_normed="0" HC_normed="0" PMx_normed="0" NOx_normed="0" fuel_normed="0" electricity_normed="0"/>
        <edge id=":1107381198_0" sampledSeconds="0.00" CO_abs="0" CO2_abs="0" HC_abs="0" PMx_abs="0" NOx_abs="0" fuel_abs="0" electricity_abs="0"
            CO_normed="0" CO2_normed="0" HC_normed="0" PMx_normed="0" NOx_normed="0" fuel_normed="0" electricity_normed="0"/>
        <edge id=":1107381198_1" sampledSeconds="103.84" CO_abs="4729.058626" CO2_abs="186071.537111" HC_abs="25.824609" PMx_abs="3.262809" NOx_abs="77.440807" fuel_abs="79.985671" electricity_abs="0"
            CO_normed="219.166000" CO2_normed="8623.397958" HC_normed="1.196829" PMx_normed="0.151213" NOx_normed="3.588958" fuel_normed="3.706898" electricity_normed="0"
            traveltime="1.55" CO_perVeh="70.803075" CO2_perVeh="2785.847693" HC_perVeh="0.386644" PMx_perVeh="0.048851" NOx_perVeh="1.159437" fuel_perVeh="1.197539" electricity_perVeh="0"/>
        <edge id=":1110338277_0" sampledSeconds="159.27" CO_abs="2889.236312" CO2_abs="340228.698823" HC_abs="20.955767" PMx_abs="4.788046" NOx_abs="128.159517" fuel_abs="146.249929" electricity_abs="0"
            CO_normed="4385.234803" CO2_normed="516393.458254" HC_normed="31.806315" PMx_normed="7.267217" NOx_normed="194.518383" fuel_normed="221.975709" electricity_normed="0"
            traveltime="0.02" CO_perVeh="0.391935" CO2_perVeh="46.153226" HC_perVeh="0.002843" PMx_perVeh="0.000650" NOx_perVeh="0.017385" fuel_perVeh="0.019839" electricity_perVeh="0"/>
        <edge id=":1110338293_0" sampledSeconds="6333.76" CO_abs="576299.565896" CO2_abs="10165563.826298" HC_abs="2861.916269" PMx_abs="241.890784" NOx_abs="4591.255121" fuel_abs="4370.001853" electricity_abs="0"
            CO_normed="816384.699653" CO2_normed="14400515.395534" HC_normed="4054.184303" PMx_normed="342.661953" NOx_normed="6503.961923" fuel_normed="6190.535029" electricity_normed="0"
            traveltime="0.42" CO_perVeh="38.580055" CO2_perVeh="680.528035" HC_perVeh="0.191589" PMx_perVeh="0.016193" NOx_perVeh="0.307359" fuel_perVeh="0.292547" electricity_perVeh="0"/>
        <edge id=":1110338295_0" sampledSeconds="0.00" CO_abs="0" CO2_abs="0" HC_abs="0" PMx_abs="0" NOx_abs="0" fuel_abs="0" electricity_abs="0"
            CO_normed="0" CO2_normed="0" HC_normed="0" PMx_normed="0" NOx_normed="0" fuel_normed="0" electricity_normed="0"/>
        <edge id=":1110673403_0" sampledSeconds="200.88" CO_abs="2897.444496" CO2_abs="361305.526439" HC_abs="21.434704" PMx_abs="4.909562" NOx_abs="134.752934" fuel_abs="155.310107" electricity_abs="0"
            CO_normed="4104.513510" CO2_normed="511824.615425" HC_normed="30.364355" PMx_normed="6.954875" NOx_normed="190.890711" fuel_normed="220.011956" electricity_normed="0"
            traveltime="0.02" CO_perVeh="0.334874" CO2_perVeh="41.758161" HC_perVeh="0.002477" PMx_perVeh="0.000567" NOx_perVeh="0.015574" fuel_perVeh="0.017950" electricity_perVeh="0"/>
        <edge id=":1110673412_0" sampledSeconds="939.26" CO_abs="167185.820560" CO2_abs="11405451.083206" HC_abs="1040.427333" PMx_abs="250.730474" NOx_abs="4901.845059" fuel_abs="4902.641582" electricity_abs="0"
            CO_normed="245001.792735" CO2_normed="16714072.718501" HC_normed="1524.690078" PMx_normed="367.431972" NOx_normed="7183.389256" fuel_normed="7184.556517" electricity_normed="0"
            traveltime="0.02" CO_perVeh="2.760857" CO2_perVeh="188.346214" HC_perVeh="0.017181" PMx_perVeh="0.004140" NOx_perVeh="0.080948" fuel_perVeh="0.080961" electricity_perVeh="0"/>
        <edge id=":1110673414_0" sampledSeconds="0.00" CO_abs="0" CO2_abs="0" HC_abs="0" PMx_abs="0" NOx_abs="0" fuel_abs="0" electricity_abs="0"
            CO_normed="0" CO2_normed="0" HC_normed="0" PMx_normed="0" NOx_normed="0" fuel_normed="0" electricity_normed="0"/>
        <edge id=":1110673414_1" sampledSeconds="240.50" CO_abs="16496.308588" CO2_abs="639573.901671" HC_abs="89.979225" PMx_abs="11.845002" NOx_abs="270.223407" fuel_abs="274.929786" electricity_abs="0"
            CO_normed="776.366596" CO2_normed="30100.298498" HC_normed="4.234697" PMx_normed="0.557462" NOx_normed="12.717538" fuel_normed="12.939034" electricity_normed="0"
            traveltime="1.56" CO_perVeh="107.029607" CO2_perVeh="4149.615839" HC_perVeh="0.583794" PMx_perVeh="0.076851" NOx_perVeh="1.753235" fuel_perVeh="1.783770" electricity_perVeh="0"/>
        <edge id=":1110673417_0" sampledSeconds="28.90" CO_abs="596.650151" CO2_abs="63962.452787" HC_abs="4.176257" PMx_abs="0.917338" NOx_abs="24.308955" fuel_abs="27.494761" electricity_abs="0"
            CO_normed="905.585671" CO2_normed="97081.146615" HC_normed="6.338653" PMx_normed="1.392321" NOx_normed="36.895727" fuel_normed="41.731090" electricity_normed="0"
            traveltime="0.02" CO_perVeh="0.454974" CO2_perVeh="48.774440" HC_perVeh="0.003185" PMx_perVeh="0.000700" NOx_perVeh="0.018537" fuel_perVeh="0.020966" electricity_perVeh="0"/>
        <edge id=":1110673446_0" sampledSeconds="1312.58" CO_abs="13581.628233" CO2_abs="1098012.073909" HC_abs="87.880144" PMx_abs="20.155297" NOx_abs="449.240025" fuel_abs="471.984898" electricity_abs="0"
            CO_normed="19239.704734" CO2_normed="1555441.492966" HC_normed="124.490818" PMx_normed="28.551949" NOx_normed="636.392433" fuel_normed="668.612770" electricity_normed="0"
            traveltime="0.02" CO_perVeh="0.235823" CO2_perVeh="19.065243" HC_perVeh="0.001526" PMx_perVeh="0.000350" NOx_perVeh="0.007800" fuel_perVeh="0.008195" electricity_perVeh="0"/>
        <edge id=":1110673451_0" sampledSeconds="36.71" CO_abs="388.443694" CO2_abs="26873.639518" HC_abs="2.385081" PMx_abs="0.393136" NOx_abs="10.504535" fuel_abs="11.551927" electricity_abs="0"
            CO_normed="611.409426" CO2_normed="42299.043037" HC_normed="3.754112" PMx_normed="0.618795" NOx_normed="16.534112" fuel_normed="18.182705" electricity_normed="0"
            traveltime="0.03" CO_perVeh="0.286197" CO2_perVeh="19.799931" HC_perVeh="0.001757" PMx_perVeh="0.000290" NOx_perVeh="0.007740" fuel_perVeh="0.008511" electricity_perVeh="0"/>
        <edge id=":1110673464_0" sampledSeconds="1035.33" CO_abs="4151.302059" CO2_abs="304995.281772" HC_abs="25.892317" PMx_abs="4.353583" NOx_abs="118.002469" fuel_abs="131.105546" electricity_abs="0"
            CO_normed="124.944590" CO2_normed="9179.652545" HC_normed="0.779299" PMx_normed="0.131033" NOx_normed="3.551601" fuel_normed="3.945974" electricity_normed="0"
            traveltime="1.23" CO_perVeh="4.922867" CO2_perVeh="361.681998" HC_perVeh="0.030705" PMx_perVeh="0.005163" NOx_perVeh="0.139935" fuel_perVeh="0.155473" electricity_perVeh="0"/>
        <edge id=":1110673464_1" sampledSeconds="2605.18" CO_abs="65959.772943" CO2_abs="7929208.756195" HC_abs="489.163582" PMx_abs="142.183797" NOx_abs="3014.422291" fuel_abs="3408.401040" electricity_abs="0"
            CO_normed="1945.283890" CO2_normed="233848.016245" HC_normed="14.426400" PMx_normed="4.193281" NOx_normed="88.901263" fuel_normed="100.520474" electricity_normed="0"
            traveltime="0.72" CO_perVeh="18.181553" CO2_perVeh="2185.655273" HC_perVeh="0.134836" PMx_perVeh="0.039192" NOx_perVeh="0.830914" fuel_perVeh="0.939512" electricity_perVeh="0"/>
        <edge id=":1110673479_0" sampledSeconds="134.49" CO_abs="6644.338924" CO2_abs="458294.027436" HC_abs="41.015050" PMx_abs="7.985062" NOx_abs="187.193373" fuel_abs="197.000768" electricity_abs="0"
            CO_normed="9412.355931" CO2_normed="649218.312978" HC_normed="58.101830" PMx_normed="11.311622" NOx_normed="265.177721" fuel_normed="279.070855" electricity_normed="0"
            traveltime="0.03" CO_perVeh="1.404673" CO2_perVeh="96.887501" HC_perVeh="0.008671" PMx_perVeh="0.001688" NOx_perVeh="0.039574" fuel_perVeh="0.041648" electricity_perVeh="0"/>
        <edge id=":1110673511_0" sampledSeconds="63.27" CO_abs="1173.108440" CO2_abs="120911.600787" HC_abs="8.135591" PMx_abs="1.734501" NOx_abs="46.097149" fuel_abs="51.974828" electricity_abs="0"
            CO_normed="1661.822841" CO2_normed="171283.108186" HC_normed="11.524860" PMx_normed="2.457090" NOx_normed="65.301120" fuel_normed="73.627428" electricity_normed="0"
            traveltime="0.02" CO_perVeh="0.449610" CO2_perVeh="46.341080" HC_perVeh="0.003118" PMx_perVeh="0.000665" NOx_perVeh="0.017667" fuel_perVeh="0.019920" electricity_perVeh="0"/>
        <edge id=":1110673517_0" sampledSeconds="183.12" CO_abs="7594.600877" CO2_abs="542691.509104" HC_abs="47.298524" PMx_abs="9.257678" NOx_abs="220.049343" fuel_abs="233.279696" electricity_abs="0"
            CO_normed="10758.494926" CO2_normed="768775.600195" HC_normed="67.002985" PMx_normed="13.114407" NOx_normed="311.721417" fuel_normed="330.463506" electricity_normed="0"
            traveltime="0.03" CO_perVeh="1.162798" CO2_perVeh="83.090670" HC_perVeh="0.007242" PMx_perVeh="0.001417" NOx_perVeh="0.033691" fuel_perVeh="0.035717" electricity_perVeh="0"/>
        <edge id=":1110673534_0" sampledSeconds="657.02" CO_abs="5120.045609" CO2_abs="426626.471882" HC_abs="33.087643" PMx_abs="5.972366" NOx_abs="163.587755" fuel_abs="183.389703" electricity_abs="0"
            CO_normed="140.562895" CO2_normed="11712.366731" HC_normed="0.908370" PMx_normed="0.163962" NOx_normed="4.491048" fuel_normed="5.034679" electricity_normed="0"
            traveltime="1.44" CO_perVeh="11.258218" CO2_perVeh="938.088105" HC_perVeh="0.072755" PMx_perVeh="0.013132" NOx_perVeh="0.359705" fuel_perVeh="0.403247" electricity_perVeh="0"/>
        <edge id=":1110673534_1" sampledSeconds="263.78" CO_abs="4490.392636" CO2_abs="534538.800728" HC_abs="32.707222" PMx_abs="7.523921" NOx_abs="201.243946" fuel_abs="229.775594" electricity_abs="0"
            CO_normed="119.869605" CO2_normed="14269.343431" HC_normed="0.873109" PMx_normed="0.200849" NOx_normed="5.372143" fuel_normed="6.133786" electricity_normed="0"
            traveltime="1.22" CO_perVeh="20.834295" CO2_perVeh="2480.125934" HC_perVeh="0.151753" PMx_perVeh="0.034909" NOx_perVeh="0.933721" fuel_perVeh="1.066101" electricity_perVeh="0"/>
        <edge id=":1110673549_0" sampledSeconds="649.96" CO_abs="1478.096056" CO2_abs="135854.722967" HC_abs="9.866889" PMx_abs="2.002378" NOx_abs="52.102031" fuel_abs="58.398307" electricity_abs="0"
            CO_normed="39.309154" CO2_normed="3612.981895" HC_normed="0.262404" PMx_normed="0.053252" NOx_normed="1.385625" fuel_normed="1.553071" electricity_normed="0"
            traveltime="1.29" CO_perVeh="2.936624" CO2_perVeh="269.910940" HC_perVeh="0.019603" PMx_perVeh="0.003978" NOx_perVeh="0.103514" fuel_perVeh="0.116024" electricity_perVeh="0"/>
        <edge id=":1110673549_1" sampledSeconds="3199.54" CO_abs="67465.720515" CO2_abs="8965256.742324" HC_abs="521.139393" PMx_abs="157.090044" NOx_abs="3345.786259" fuel_abs="3853.753905" electricity_abs="0"
            CO_normed="1735.565222" CO2_normed="230632.500289" HC_normed="13.406385" PMx_normed="4.041164" NOx_normed="86.070826" fuel_normed="99.138365" electricity_normed="0"
            traveltime="0.81" CO_perVeh="17.016111" CO2_perVeh="2261.204647" HC_perVeh="0.131441" PMx_perVeh="0.039621" NOx_perVeh="0.843870" fuel_perVeh="0.971988" electricity_perVeh="0"/>
        <edge id=":1110673556_0" sampledSeconds="472.38" CO_abs="58687.141426" CO2_abs="2799986.520638" HC_abs="333.730629" PMx_abs="56.675255" NOx_abs="1208.516772" fuel_abs="1203.595008" electricity_abs="0"
            CO_normed="1157.346761" CO2_normed="55217.467617" HC_normed="6.581375" PMx_normed="1.117671" NOx_normed="23.832699" fuel_normed="23.735639" electricity_normed="0"
            traveltime="2.78" CO_perVeh="345.955056" CO2_perVeh="16505.651317" HC_perVeh="1.967310" PMx_perVeh="0.334095" NOx_perVeh="7.124090" fuel_perVeh="7.095077" electricity_perVeh="0"/>
        <edge id=":1110673556_2" sampledSeconds="173.26" CO_abs="17207.360958" CO2_abs="745583.840976" HC_abs="95.862381" PMx_abs="14.362063" NOx_abs="317.728044" fuel_abs="320.497154" electricity_abs="0"
            CO_normed="354.816736" CO2_normed="15373.980088" HC_normed="1.976688" PMx_normed="0.296147" NOx_normed="6.551570" fuel_normed="6.608669" electricity_normed="0"
            traveltime="3.00" CO_perVeh="297.539860" CO2_perVeh="12892.210016" HC_perVeh="1.657598" PMx_perVeh="0.248341" NOx_perVeh="5.493972" fuel_perVeh="5.541854" electricity_perVeh="0"/>
        <edge id=":1110673556_3" sampledSeconds="242.57" CO_abs="26448.677614" CO2_abs="912493.052500" HC_abs="141.782553" PMx_abs="18.121636" NOx_abs="393.689520" fuel_abs="392.248498" electricity_abs="0"
            CO_normed="1240.633730" CO2_normed="42802.505119" HC_normed="6.650624" PMx_normed="0.850035" NOx_normed="18.466878" fuel_normed="18.399283" electricity_normed="0"
            traveltime="1.85" CO_perVeh="201.762305" CO2_perVeh="6960.903841" HC_perVeh="1.081581" PMx_perVeh="0.138240" NOx_perVeh="3.003239" fuel_perVeh="2.992246" electricity_perVeh="0"/>
        <edge id=":1110673556_4" sampledSeconds="42.01" CO_abs="4595.836991" CO2_abs="180099.506365" HC_abs="25.148320" PMx_abs="3.505588" NOx_abs="77.096506" fuel_abs="77.417999" electricity_abs="0"
            CO_normed="131.701671" CO2_normed="5161.063357" HC_normed="0.720669" PMx_normed="0.100459" NOx_normed="2.209334" fuel_normed="2.218547" electricity_normed="0"
            traveltime="2.45" CO_perVeh="267.762484" CO2_perVeh="10492.950732" HC_perVeh="1.465190" PMx_perVeh="0.204242" NOx_perVeh="4.491794" fuel_perVeh="4.510525" electricity_perVeh="0"/>
        <edge id=":1110673556_5" sampledSeconds="21.92" CO_abs="1075.798316" CO2_abs="50894.243704" HC_abs="6.070634" PMx_abs="0.843392" NOx_abs="20.787855" fuel_abs="21.877559" electricity_abs="0"
            CO_normed="42.969179" CO2_normed="2032.800955" HC_normed="0.242471" PMx_normed="0.033686" NOx_normed="0.830302" fuel_normed="0.873826" electricity_normed="0"
            traveltime="1.52" CO_perVeh="74.376180" CO2_perVeh="3518.614380" HC_perVeh="0.419698" PMx_perVeh="0.058309" NOx_perVeh="1.437185" fuel_perVeh="1.512523" electricity_perVeh="0"/>
        <edge id=":1110673556_6" sampledSeconds="217.62" CO_abs="26398.178139" CO2_abs="1321706.671262" HC_abs="151.621048" PMx_abs="26.643039" NOx_abs="569.217727" fuel_abs="568.144540" electricity_abs="0"
            CO_normed="533.714575" CO2_normed="26722.075667" HC_normed="3.065453" PMx_normed="0.538665" NOx_normed="11.508362" fuel_normed="11.486665" electricity_normed="0"
            traveltime="2.54" CO_perVeh="307.606117" CO2_perVeh="15401.254410" HC_perVeh="1.766772" PMx_perVeh="0.310459" NOx_perVeh="6.632839" fuel_perVeh="6.620333" electricity_perVeh="0"/>
        <edge id=":1110673561_0" sampledSeconds="102.09" CO_abs="10512.764973" CO2_abs="743135.191153" HC_abs="65.767847" PMx_abs="15.118693" NOx_abs="315.253956" fuel_abs="319.438355" electricity_abs="0"
            CO_normed="267.047695" CO2_normed="18877.292530" HC_normed="1.670650" PMx_normed="0.384049" NOx_normed="8.008154" fuel_normed="8.114447" electricity_normed="0"
            traveltime="1.20" CO_perVeh="124.060830" CO2_perVeh="8769.716543" HC_perVeh="0.776124" PMx_perVeh="0.178415" NOx_perVeh="3.720303" fuel_perVeh="3.769683" electricity_perVeh="0"/>
        <edge id=":1110673561_1" sampledSeconds="5189.96" CO_abs="485457.914000" CO2_abs="33618957.080104" HC_abs="3023.908647" PMx_abs="702.941579" NOx_abs="14374.629943" fuel_abs="14451.165814" electricity_abs="0"
            CO_normed="12022.703060" CO2_normed="832596.866812" HC_normed="74.889202" PMx_normed="17.408837" NOx_normed="355.997714" fuel_normed="357.893178" electricity_normed="0"
            traveltime="1.19" CO_perVeh="111.466856" CO2_perVeh="7719.308600" HC_perVeh="0.694325" PMx_perVeh="0.161404" NOx_perVeh="3.300584" fuel_perVeh="3.318158" electricity_perVeh="0"/>
        <edge id=":1110673562_0" sampledSeconds="301.39" CO_abs="6202.273544" CO2_abs="485060.741967" HC_abs="39.287743" PMx_abs="6.483643" NOx_abs="184.653157" fuel_abs="208.508996" electricity_abs="0"
            CO_normed="9762.363426" CO2_normed="763484.424455" HC_normed="61.838812" PMx_normed="10.205238" NOx_normed="290.643619" fuel_normed="328.192650" electricity_normed="0"
            traveltime="0.03" CO_perVeh="0.555982" CO2_perVeh="43.481621" HC_perVeh="0.003522" PMx_perVeh="0.000581" NOx_perVeh="0.016553" fuel_perVeh="0.018691" electricity_perVeh="0"/>
        <edge id=":1110673564_0" sampledSeconds="27.96" CO_abs="458.820886" CO2_abs="51031.835112" HC_abs="3.234966" PMx_abs="0.717043" NOx_abs="19.259814" fuel_abs="21.936442" electricity_abs="0"
            CO_normed="1949.893979" CO2_normed="216874.756704" HC_normed="13.747938" PMx_normed="3.047286" NOx_normed="81.850232" fuel_normed="93.225349" electricity_normed="0"
            traveltime="7.897858e-03" CO_perVeh="0.129592" CO2_perVeh="14.413737" HC_perVeh="0.000914" PMx_perVeh="0.000203" NOx_perVeh="0.005440" fuel_perVeh="0.006196" electricity_perVeh="0"/>
        <edge id=":1110673588_0" sampledSeconds="62.91" CO_abs="1263.521980" CO2_abs="134199.270232" HC_abs="8.843473" PMx_abs="1.916510" NOx_abs="51.005137" fuel_abs="57.686629" electricity_abs="0"
            CO_normed="2147.882955" CO2_normed="228127.669854" HC_normed="15.033174" PMx_normed="3.257908" NOx_normed="86.704518" fuel_normed="98.062502" electricity_normed="0"
            traveltime="0.02" CO_perVeh="0.407588" CO2_perVeh="43.290087" HC_perVeh="0.002853" PMx_perVeh="0.000618" NOx_perVeh="0.016453" fuel_perVeh="0.018609" electricity_perVeh="0"/>
        <edge id=":1110673601_0" sampledSeconds="29.18" CO_abs="557.739730" CO2_abs="58653.692409" HC_abs="3.880681" PMx_abs="0.845333" NOx_abs="22.332961" fuel_abs="25.212750" electricity_abs="0"
            CO_normed="846.528082" CO2_normed="89023.598442" HC_normed="5.890033" PMx_normed="1.283033" NOx_normed="33.896596" fuel_normed="38.267493" electricity_normed="0"
            traveltime="0.02" CO_perVeh="0.425303" CO2_perVeh="44.726256" HC_perVeh="0.002959" PMx_perVeh="0.000645" NOx_perVeh="0.017030" fuel_perVeh="0.019226" electricity_perVeh="0"/>
        <edge id=":1110673617_0" sampledSeconds="856.14" CO_abs="32102.504333" CO2_abs="3242205.946752" HC_abs="223.920573" PMx_abs="61.184993" NOx_abs="1272.491923" fuel_abs="1393.672467" electricity_abs="0"
            CO_normed="45476.337150" CO2_normed="4592901.825171" HC_normed="317.205392" PMx_normed="86.674527" NOx_normed="1802.609264" fuel_normed="1974.273357" electricity_normed="0"
            traveltime="0.02" CO_perVeh="0.568584" CO2_perVeh="57.424337" HC_perVeh="0.003966" PMx_perVeh="0.001084" NOx_perVeh="0.022538" fuel_perVeh="0.024684" electricity_perVeh="0"/>
        <edge id=":1110673621_0" sampledSeconds="26.47" CO_abs="459.214546" CO2_abs="55992.093595" HC_abs="3.350072" PMx_abs="0.733955" NOx_abs="20.754041" fuel_abs="24.068698" electricity_abs="0"
            CO_normed="780.626780" CO2_normed="95181.932211" HC_normed="5.694846" PMx_normed="1.247663" NOx_normed="35.280155" fuel_normed="40.914797" electricity_normed="0"
            traveltime="0.02" CO_perVeh="0.347890" CO2_perVeh="42.418253" HC_perVeh="0.002538" PMx_perVeh="0.000556" NOx_perVeh="0.015723" fuel_perVeh="0.018234" electricity_perVeh="0"/>
        <edge id=":1110673630_0" sampledSeconds="287.48" CO_abs="1656.444807" CO2_abs="144930.846032" HC_abs="10.850023" PMx_abs="1.921862" NOx_abs="54.806979" fuel_abs="62.300091" electricity_abs="0"
            CO_normed="50.210758" CO2_normed="4393.196539" HC_normed="0.328890" PMx_normed="0.058256" NOx_normed="1.661329" fuel_normed="1.888463" electricity_normed="0"
            traveltime="1.29" CO_perVeh="7.453369" CO2_perVeh="652.133455" HC_perVeh="0.048821" PMx_perVeh="0.008648" NOx_perVeh="0.246610" fuel_perVeh="0.280327" electricity_perVeh="0"/>
        <edge id=":1110673630_1" sampledSeconds="336.78" CO_abs="1430.083824" CO2_abs="116951.336377" HC_abs="9.172966" PMx_abs="1.543203" NOx_abs="44.323346" fuel_abs="50.272872" electricity_abs="0"
            CO_normed="52.848355" CO2_normed="4321.904513" HC_normed="0.338984" PMx_normed="0.057029" NOx_normed="1.637957" fuel_normed="1.857820" electricity_normed="0"
            traveltime="1.07" CO_perVeh="4.558832" CO2_perVeh="372.818370" HC_perVeh="0.029242" PMx_perVeh="0.004919" NOx_perVeh="0.141294" fuel_perVeh="0.160260" electricity_perVeh="0"/>
        <edge id=":1110673650_0" sampledSeconds="199.49" CO_abs="2886.032251" CO2_abs="363249.741884" HC_abs="21.434423" PMx_abs="4.935159" NOx_abs="135.404252" fuel_abs="156.145830" electricity_abs="0"
            CO_normed="4088.346950" CO2_normed="514578.786755" HC_normed="30.363956" PMx_normed="6.991136" NOx_normed="191.813366" fuel_normed="221.195840" electricity_normed="0"
            traveltime="0.02" CO_perVeh="0.333652" CO2_perVeh="41.995064" HC_perVeh="0.002478" PMx_perVeh="0.000571" NOx_perVeh="0.015654" fuel_perVeh="0.018052" electricity_perVeh="0"/>
        <edge id=":1110673655_0" sampledSeconds="21.00" CO_abs="237.104064" CO2_abs="33742.118217" HC_abs="1.843003" PMx_abs="0.435575" NOx_abs="12.375916" fuel_abs="14.504335" electricity_abs="0"
            CO_normed="335.881096" CO2_normed="47799.010577" HC_normed="2.610794" PMx_normed="0.617034" NOx_normed="17.531695" fuel_normed="20.546809" electricity_normed="0"
            traveltime="0.02" CO_perVeh="0.270873" CO2_perVeh="38.547736" HC_perVeh="0.002105" PMx_perVeh="0.000498" NOx_perVeh="0.014139" fuel_perVeh="0.016570" electricity_perVeh="0"/>
        <edge id=":1110673663_0" sampledSeconds="111.79" CO_abs="1644.633367" CO2_abs="195928.325560" HC_abs="11.943669" PMx_abs="2.615321" NOx_abs="72.961115" fuel_abs="84.221492" electricity_abs="0"
            CO_normed="42.670037" CO2_normed="5083.363293" HC_normed="0.309879" PMx_normed="0.067855" NOx_normed="1.892977" fuel_normed="2.185128" electricity_normed="0"
            traveltime="1.31" CO_perVeh="19.316995" CO2_perVeh="2301.270614" HC_perVeh="0.140284" PMx_perVeh="0.030718" NOx_perVeh="0.856963" fuel_perVeh="0.989221" electricity_perVeh="0"/>
        <edge id=":1110673663_1" sampledSeconds="171.07" CO_abs="2424.221538" CO2_abs="301509.660413" HC_abs="17.919876" PMx_abs="4.043108" NOx_abs="112.177477" fuel_abs="129.606453" electricity_abs="0"
            CO_normed="62.973354" CO2_normed="7832.235750" HC_normed="0.465500" PMx_normed="0.105027" NOx_normed="2.914004" fuel_normed="3.366752" electricity_normed="0"
            traveltime="1.27" CO_perVeh="18.064836" CO2_perVeh="2246.792463" HC_perVeh="0.133535" PMx_perVeh="0.030128" NOx_perVeh="0.835925" fuel_perVeh="0.965803" electricity_perVeh="0"/>