<?xml version="1.0" encoding="UTF-8"?>

<!-- generated on Tue Nov 10 06:20:08 2020 by Eclipse SUMO sumo Version 1.7.0
<configuration xmlns:xsi="http://www.w3.org/2001/XMLSchema-instance" xsi:noNamespaceSchemaLocation="http://sumo.dlr.de/xsd/sumoConfiguration.xsd">

    <input>
        <net-file value="../dataSets/Porto/8AM9AM_Routing_SaoBento/Porto.net.xml"/>
        <route-files value="../results/Porto/8AM9AM_Routing_SaoBento/cost_co-length/solution4/Porto.rou.xml"/>
        <additional-files value="moreOutputInfo.xml"/>
    </input>

    <output>
        <emission-output.precision value="6"/>
        <tripinfo-output value="../results/Porto/8AM9AM_Routing_SaoBento/cost_co-length/solution4/Porto-tripinfo"/>
    </output>

    <processing>
        <collision.action value="warn"/>
        <time-to-teleport value="-1"/>
    </processing>

    <emissions>
        <device.emissions.probability value="1"/>
    </emissions>

    <gui_only>
        <quit-on-end value="true"/>
        <start value="true"/>
    </gui_only>

</configuration>
-->

<meandata xmlns:xsi="http://www.w3.org/2001/XMLSchema-instance" xsi:noNamespaceSchemaLocation="http://sumo.dlr.de/xsd/meandata_file.xsd">
    <interval begin="0.00" end="8471.00" id="emissions-detector">
        <edge id=":1092997347_0" sampledSeconds="594.64" CO_abs="71527.877234" CO2_abs="3057599.189652" HC_abs="398.006718" PMx_abs="61.716705" NOx_abs="1321.990183" fuel_abs="1314.338005" electricity_abs="0"
            CO_normed="69086.068523" CO2_normed="2953219.294370" HC_normed="384.419620" PMx_normed="59.609828" NOx_normed="1276.860267" fuel_normed="1269.469317" electricity_normed="0"
            traveltime="0.07" CO_perVeh="8.187952" CO2_perVeh="350.010057" HC_perVeh="0.045561" PMx_perVeh="0.007065" NOx_perVeh="0.151331" fuel_perVeh="0.150455" electricity_perVeh="0"/>
        <edge id=":1103427051_0" sampledSeconds="19.55" CO_abs="1511.922881" CO2_abs="84757.582742" HC_abs="8.891382" PMx_abs="1.635923" NOx_abs="35.991320" fuel_abs="36.433580" electricity_abs="0"
            CO_normed="2215.641345" CO2_normed="124207.660974" HC_normed="13.029841" PMx_normed="2.397357" NOx_normed="52.743337" fuel_normed="53.391444" electricity_normed="0"
            traveltime="0.03" CO_perVeh="2.351231" CO2_perVeh="131.808768" HC_perVeh="0.013827" PMx_perVeh="0.002544" NOx_perVeh="0.055971" fuel_perVeh="0.056659" electricity_perVeh="0"/>
        <edge id=":1105984386_0" sampledSeconds="10.41" CO_abs="243.866760" CO2_abs="17926.658608" HC_abs="1.514686" PMx_abs="0.222710" NOx_abs="6.733118" fuel_abs="7.706019" electricity_abs="0"
            CO_normed="10.673361" CO2_normed="784.599337" HC_normed="0.066294" PMx_normed="0.009747" NOx_normed="0.294690" fuel_normed="0.337271" electricity_normed="0"
            traveltime="1.00" CO_perVeh="23.394055" CO2_perVeh="1719.698232" HC_perVeh="0.145303" PMx_perVeh="0.021364" NOx_perVeh="0.645906" fuel_perVeh="0.739236" electricity_perVeh="0"/>
        <edge id=":1105984390_0" sampledSeconds="10.22" CO_abs="0" CO2_abs="0" HC_abs="0" PMx_abs="0" NOx_abs="0" fuel_abs="0" electricity_abs="0"
            CO_normed="0" CO2_normed="0" HC_normed="0" PMx_normed="0" NOx_normed="0" fuel_normed="0" electricity_normed="0"
            traveltime="1.06" CO_perVeh="0" CO2_perVeh="0" HC_perVeh="0" PMx_perVeh="0" NOx_perVeh="0" fuel_perVeh="0" electricity_perVeh="0"/>
        <edge id=":1105984390_1" sampledSeconds="2394.03" CO_abs="62641.797821" CO2_abs="7449614.885509" HC_abs="463.056708" PMx_abs="134.468902" NOx_abs="2834.169290" fuel_abs="3202.245404" electricity_abs="0"
            CO_normed="2027.530082" CO2_normed="241122.043172" HC_normed="14.987779" PMx_normed="4.352361" NOx_normed="91.733694" fuel_normed="103.647231" electricity_normed="0"
            traveltime="0.65" CO_perVeh="16.918415" CO2_perVeh="2012.006087" HC_perVeh="0.125063" PMx_perVeh="0.036318" NOx_perVeh="0.765458" fuel_perVeh="0.864868" electricity_perVeh="0"/>
        <edge id=":1105984395_0" sampledSeconds="4.20" CO_abs="79.238263" CO2_abs="5458.583741" HC_abs="0.485453" PMx_abs="0.076911" NOx_abs="2.112285" fuel_abs="2.346437" electricity_abs="0"
            CO_normed="36.602853" CO2_normed="2521.505786" HC_normed="0.224247" PMx_normed="0.035528" NOx_normed="0.975736" fuel_normed="1.083899" electricity_normed="0"
            traveltime="0.10" CO_perVeh="1.836715" CO2_perVeh="126.528018" HC_perVeh="0.011253" PMx_perVeh="0.001783" NOx_perVeh="0.048962" fuel_perVeh="0.054390" electricity_perVeh="0"/>
        <edge id=":1105984398_0" sampledSeconds="11.11" CO_abs="800.875553" CO2_abs="51398.297364" HC_abs="4.867332" PMx_abs="0.981553" NOx_abs="21.622681" fuel_abs="22.093812" electricity_abs="0"
            CO_normed="28.151825" CO2_normed="1806.717498" HC_normed="0.171093" PMx_normed="0.034503" NOx_normed="0.760066" fuel_normed="0.776626" electricity_normed="0"
            traveltime="1.15" CO_perVeh="82.934578" CO2_perVeh="5322.544923" HC_perVeh="0.504036" PMx_perVeh="0.101645" NOx_perVeh="2.239134" fuel_perVeh="2.287922" electricity_perVeh="0"/>
        <edge id=":1105984398_1" sampledSeconds="649.55" CO_abs="11633.292230" CO2_abs="1395015.933839" HC_abs="84.862941" PMx_abs="19.747722" NOx_abs="525.502906" fuel_abs="599.658047" electricity_abs="0"
            CO_normed="395.829373" CO2_normed="47466.209179" HC_normed="2.887510" PMx_normed="0.671927" NOx_normed="17.880535" fuel_normed="20.403706" electricity_normed="0"
            traveltime="0.95" CO_perVeh="17.048960" CO2_perVeh="2044.440196" HC_perVeh="0.124369" PMx_perVeh="0.028941" NOx_perVeh="0.770141" fuel_perVeh="0.878818" electricity_perVeh="0"/>
        <edge id=":1106006327_0" sampledSeconds="702.81" CO_abs="94517.683966" CO2_abs="3069622.566506" HC_abs="502.630902" PMx_abs="64.018673" NOx_abs="1343.591339" fuel_abs="1319.522330" electricity_abs="0"
            CO_normed="4533.641430" CO2_normed="147237.717415" HC_normed="24.109227" PMx_normed="3.070724" NOx_normed="64.446790" fuel_normed="63.292295" electricity_normed="0"
            traveltime="2.09" CO_perVeh="280.960038" CO2_perVeh="9124.655165" HC_perVeh="1.494103" PMx_perVeh="0.190300" NOx_perVeh="3.993914" fuel_perVeh="3.922367" electricity_perVeh="0"/>
        <edge id=":1106006327_1" sampledSeconds="684.21" CO_abs="92492.355376" CO2_abs="3085481.764560" HC_abs="493.861742" PMx_abs="64.343766" NOx_abs="1350.224355" fuel_abs="1326.337525" electricity_abs="0"
            CO_normed="3868.832703" CO2_normed="129061.614945" HC_normed="20.657582" PMx_normed="2.691414" NOx_normed="56.478096" fuel_normed="55.478942" electricity_normed="0"
            traveltime="2.30" CO_perVeh="310.474450" CO2_perVeh="10357.215453" HC_perVeh="1.657774" PMx_perVeh="0.215986" NOx_perVeh="4.532376" fuel_perVeh="4.452194" electricity_perVeh="0"/>
        <edge id=":1106006327_2" sampledSeconds="0.00" CO_abs="0" CO2_abs="0" HC_abs="0" PMx_abs="0" NOx_abs="0" fuel_abs="0" electricity_abs="0"
            CO_normed="0" CO2_normed="0" HC_normed="0" PMx_normed="0" NOx_normed="0" fuel_normed="0" electricity_normed="0"/>
        <edge id=":1106006327_3" sampledSeconds="0.00" CO_abs="0" CO2_abs="0" HC_abs="0" PMx_abs="0" NOx_abs="0" fuel_abs="0" electricity_abs="0"
            CO_normed="0" CO2_normed="0" HC_normed="0" PMx_normed="0" NOx_normed="0" fuel_normed="0" electricity_normed="0"/>
        <edge id=":1107381198_0" sampledSeconds="0.00" CO_abs="0" CO2_abs="0" HC_abs="0" PMx_abs="0" NOx_abs="0" fuel_abs="0" electricity_abs="0"
            CO_normed="0" CO2_normed="0" HC_normed="0" PMx_normed="0" NOx_normed="0" fuel_normed="0" electricity_normed="0"/>
        <edge id=":1107381198_1" sampledSeconds="103.47" CO_abs="4264.474910" CO2_abs="171720.291235" HC_abs="23.374967" PMx_abs="2.975958" NOx_abs="71.206238" fuel_abs="73.816543" electricity_abs="0"
            CO_normed="197.635086" CO2_normed="7958.296211" HC_normed="1.083302" PMx_normed="0.137919" NOx_normed="3.300020" fuel_normed="3.420993" electricity_normed="0"
            traveltime="1.55" CO_perVeh="63.847366" CO2_perVeh="2570.982025" HC_perVeh="0.349968" PMx_perVeh="0.044556" NOx_perVeh="1.066094" fuel_perVeh="1.105175" electricity_perVeh="0"/>
        <edge id=":1110338277_0" sampledSeconds="160.53" CO_abs="2394.542755" CO2_abs="297750.521495" HC_abs="17.698420" PMx_abs="4.030144" NOx_abs="110.986929" fuel_abs="127.990500" electricity_abs="0"
            CO_normed="3634.397153" CO2_normed="451920.787469" HC_normed="26.862368" PMx_normed="6.116886" NOx_normed="168.454114" fuel_normed="194.261852" electricity_normed="0"
            traveltime="0.02" CO_perVeh="0.325020" CO2_perVeh="40.414797" HC_perVeh="0.002402" PMx_perVeh="0.000547" NOx_perVeh="0.015065" fuel_perVeh="0.017373" electricity_perVeh="0"/>
        <edge id=":1110338293_0" sampledSeconds="6502.70" CO_abs="591196.796578" CO2_abs="10383056.963892" HC_abs="2934.784594" PMx_abs="247.190381" NOx_abs="4690.159330" fuel_abs="4463.500449" electricity_abs="0"
            CO_normed="837488.083927" CO2_normed="14708615.696695" HC_normed="4157.409413" PMx_normed="350.169351" NOx_normed="6644.069409" fuel_normed="6322.984936" electricity_normed="0"
            traveltime="0.43" CO_perVeh="39.505748" CO2_perVeh="693.830600" HC_perVeh="0.196112" PMx_perVeh="0.016518" NOx_perVeh="0.313412" fuel_perVeh="0.298266" electricity_perVeh="0"/>
        <edge id=":1110338295_0" sampledSeconds="0.00" CO_abs="0" CO2_abs="0" HC_abs="0" PMx_abs="0" NOx_abs="0" fuel_abs="0" electricity_abs="0"
            CO_normed="0" CO2_normed="0" HC_normed="0" PMx_normed="0" NOx_normed="0" fuel_normed="0" electricity_normed="0"/>
        <edge id=":1110673403_0" sampledSeconds="200.70" CO_abs="3068.635077" CO2_abs="375807.008685" HC_abs="22.512078" PMx_abs="5.133079" NOx_abs="140.393097" fuel_abs="161.543680" electricity_abs="0"
            CO_normed="4347.021712" CO2_normed="532367.383334" HC_normed="31.890560" PMx_normed="7.271508" NOx_normed="198.880553" fuel_normed="228.842422" electricity_normed="0"
            traveltime="0.02" CO_perVeh="0.354660" CO2_perVeh="43.434230" HC_perVeh="0.002602" PMx_perVeh="0.000593" NOx_perVeh="0.016226" fuel_perVeh="0.018671" electricity_perVeh="0"/>
        <edge id=":1110673412_0" sampledSeconds="938.95" CO_abs="167723.991723" CO2_abs="11446387.878483" HC_abs="1043.846180" PMx_abs="251.571965" NOx_abs="4918.877339" fuel_abs="4920.238344" electricity_abs="0"
            CO_normed="245790.453516" CO2_normed="16774063.381573" HC_normed="1529.700214" PMx_normed="368.665131" NOx_normed="7208.349142" fuel_normed="7210.343622" electricity_normed="0"
            traveltime="0.02" CO_perVeh="2.769600" CO2_perVeh="189.012379" HC_perVeh="0.017237" PMx_perVeh="0.004154" NOx_perVeh="0.081225" fuel_perVeh="0.081247" electricity_perVeh="0"/>
        <edge id=":1110673414_0" sampledSeconds="0.00" CO_abs="0" CO2_abs="0" HC_abs="0" PMx_abs="0" NOx_abs="0" fuel_abs="0" electricity_abs="0"
            CO_normed="0" CO2_normed="0" HC_normed="0" PMx_normed="0" NOx_normed="0" fuel_normed="0" electricity_normed="0"/>
        <edge id=":1110673414_1" sampledSeconds="239.39" CO_abs="17354.408395" CO2_abs="671421.529309" HC_abs="94.620241" PMx_abs="12.409683" NOx_abs="283.548974" fuel_abs="288.620001" electricity_abs="0"
            CO_normed="816.751390" CO2_normed="31599.144989" HC_normed="4.453117" PMx_normed="0.584038" NOx_normed="13.344680" fuel_normed="13.583338" electricity_normed="0"
            traveltime="1.55" CO_perVeh="112.597040" CO2_perVeh="4356.246253" HC_perVeh="0.613905" PMx_perVeh="0.080515" NOx_perVeh="1.839693" fuel_perVeh="1.872594" electricity_perVeh="0"/>
        <edge id=":1110673417_0" sampledSeconds="29.27" CO_abs="358.926055" CO2_abs="46427.514851" HC_abs="2.679174" PMx_abs="0.588744" NOx_abs="17.040629" fuel_abs="19.957295" electricity_abs="0"
            CO_normed="544.771994" CO2_normed="70466.909566" HC_normed="4.066406" PMx_normed="0.893586" NOx_normed="25.863983" fuel_normed="30.290851" electricity_normed="0"
            traveltime="0.02" CO_perVeh="0.273698" CO2_perVeh="35.403209" HC_perVeh="0.002043" PMx_perVeh="0.000449" NOx_perVeh="0.012994" fuel_perVeh="0.015218" electricity_perVeh="0"/>
        <edge id=":1110673446_0" sampledSeconds="1312.96" CO_abs="14125.955644" CO2_abs="1148360.363004" HC_abs="91.495236" PMx_abs="20.904745" NOx_abs="468.799388" fuel_abs="493.627498" electricity_abs="0"
            CO_normed="20010.797749" CO2_normed="1626764.768746" HC_normed="129.611951" PMx_normed="29.613616" NOx_normed="664.100184" fuel_normed="699.271629" electricity_normed="0"
            traveltime="0.02" CO_perVeh="0.245382" CO2_perVeh="19.948144" HC_perVeh="0.001589" PMx_perVeh="0.000363" NOx_perVeh="0.008144" fuel_perVeh="0.008575" electricity_perVeh="0"/>
        <edge id=":1110673451_0" sampledSeconds="36.71" CO_abs="594.687193" CO2_abs="40093.390875" HC_abs="3.630857" PMx_abs="0.607437" NOx_abs="15.813517" fuel_abs="17.234562" electricity_abs="0"
            CO_normed="936.036191" CO2_normed="63106.899422" HC_normed="5.714960" PMx_normed="0.956105" NOx_normed="24.890437" fuel_normed="27.127158" electricity_normed="0"
            traveltime="0.03" CO_perVeh="0.438153" CO2_perVeh="29.539965" HC_perVeh="0.002675" PMx_perVeh="0.000448" NOx_perVeh="0.011651" fuel_perVeh="0.012698" electricity_perVeh="0"/>
        <edge id=":1110673464_0" sampledSeconds="1042.66" CO_abs="4250.307670" CO2_abs="281968.823806" HC_abs="25.813316" PMx_abs="4.121987" NOx_abs="110.267430" fuel_abs="121.207520" electricity_abs="0"
            CO_normed="127.924430" CO2_normed="8486.609419" HC_normed="0.776921" PMx_normed="0.124062" NOx_normed="3.318795" fuel_normed="3.648066" electricity_normed="0"
            traveltime="1.24" CO_perVeh="5.040270" CO2_perVeh="334.375563" HC_perVeh="0.030611" PMx_perVeh="0.004888" NOx_perVeh="0.130762" fuel_perVeh="0.143735" electricity_perVeh="0"/>
        <edge id=":1110673464_1" sampledSeconds="2607.00" CO_abs="60354.706179" CO2_abs="7496871.478461" HC_abs="453.583245" PMx_abs="133.162085" NOx_abs="2833.628511" fuel_abs="3222.560324" electricity_abs="0"
            CO_normed="1779.979408" CO2_normed="221097.536613" HC_normed="13.377065" PMx_normed="3.927213" NOx_normed="83.569298" fuel_normed="95.039664" electricity_normed="0"
            traveltime="0.72" CO_perVeh="16.638997" CO2_perVeh="2066.788716" HC_perVeh="0.125047" PMx_perVeh="0.036711" NOx_perVeh="0.781194" fuel_perVeh="0.888417" electricity_perVeh="0"/>
        <edge id=":1110673479_0" sampledSeconds="135.31" CO_abs="6101.163209" CO2_abs="421860.352710" HC_abs="37.681628" PMx_abs="7.323690" NOx_abs="172.139741" fuel_abs="181.339536" electricity_abs="0"
            CO_normed="8642.894405" CO2_normed="597606.449359" HC_normed="53.379712" PMx_normed="10.374723" NOx_normed="243.852779" fuel_normed="256.885188" electricity_normed="0"
            traveltime="0.03" CO_perVeh="1.289841" CO2_perVeh="89.185093" HC_perVeh="0.007966" PMx_perVeh="0.001548" NOx_perVeh="0.036392" fuel_perVeh="0.038337" electricity_perVeh="0"/>
        <edge id=":1110673511_0" sampledSeconds="63.73" CO_abs="1116.268100" CO2_abs="123294.540995" HC_abs="7.905915" PMx_abs="1.695309" NOx_abs="46.410585" fuel_abs="52.999208" electricity_abs="0"
            CO_normed="1581.302939" CO2_normed="174658.776053" HC_normed="11.199502" PMx_normed="2.401570" NOx_normed="65.745132" fuel_normed="75.078561" electricity_normed="0"
            traveltime="0.02" CO_perVeh="0.427826" CO2_perVeh="47.254375" HC_perVeh="0.003030" PMx_perVeh="0.000650" NOx_perVeh="0.017788" fuel_perVeh="0.020313" electricity_perVeh="0"/>
        <edge id=":1110673517_0" sampledSeconds="183.32" CO_abs="7773.424418" CO2_abs="550432.779539" HC_abs="48.294686" PMx_abs="9.412889" NOx_abs="223.482506" fuel_abs="236.607345" electricity_abs="0"
            CO_normed="11011.815962" CO2_normed="779741.866895" HC_normed="68.414146" PMx_normed="13.334278" NOx_normed="316.584828" fuel_normed="335.177445" electricity_normed="0"
            traveltime="0.03" CO_perVeh="1.190179" CO2_perVeh="84.276067" HC_perVeh="0.007394" PMx_perVeh="0.001441" NOx_perVeh="0.034217" fuel_perVeh="0.036227" electricity_perVeh="0"/>
        <edge id=":1110673534_0" sampledSeconds="659.12" CO_abs="4833.895811" CO2_abs="407397.769982" HC_abs="31.338810" PMx_abs="5.598328" NOx_abs="155.444231" fuel_abs="175.124176" electricity_abs="0"
            CO_normed="132.707097" CO2_normed="11184.472605" HC_normed="0.860358" PMx_normed="0.153693" NOx_normed="4.267480" fuel_normed="4.807762" electricity_normed="0"
            traveltime="1.45" CO_perVeh="10.629019" CO2_perVeh="895.807152" HC_perVeh="0.068909" PMx_perVeh="0.012310" NOx_perVeh="0.341799" fuel_perVeh="0.385072" electricity_perVeh="0"/>
        <edge id=":1110673534_1" sampledSeconds="265.26" CO_abs="3858.233298" CO2_abs="483338.962830" HC_abs="28.585200" PMx_abs="6.614961" NOx_abs="180.402824" fuel_abs="207.767094" electricity_abs="0"
            CO_normed="102.994312" CO2_normed="12902.580028" HC_normed="0.763073" PMx_normed="0.176584" NOx_normed="4.815796" fuel_normed="5.546277" electricity_normed="0"
            traveltime="1.23" CO_perVeh="17.901235" CO2_perVeh="2242.571531" HC_perVeh="0.132628" PMx_perVeh="0.030692" NOx_perVeh="0.837024" fuel_perVeh="0.963987" electricity_perVeh="0"/>
        <edge id=":1110673549_0" sampledSeconds="652.82" CO_abs="1702.570317" CO2_abs="158587.018354" HC_abs="11.368266" PMx_abs="2.201669" NOx_abs="60.019793" fuel_abs="68.170154" electricity_abs="0"
            CO_normed="45.278924" CO2_normed="4217.534831" HC_normed="0.302333" PMx_normed="0.058552" NOx_normed="1.596193" fuel_normed="1.812948" electricity_normed="0"
            traveltime="1.30" CO_perVeh="3.382602" CO2_perVeh="315.074674" HC_perVeh="0.022586" PMx_perVeh="0.004374" NOx_perVeh="0.119245" fuel_perVeh="0.135438" electricity_perVeh="0"/>
        <edge id=":1110673549_1" sampledSeconds="3197.93" CO_abs="69682.512810" CO2_abs="9235131.740239" HC_abs="537.710927" PMx_abs="161.973211" NOx_abs="3447.549910" fuel_abs="3969.760746" electricity_abs="0"
            CO_normed="1792.592518" CO2_normed="237575.072858" HC_normed="13.832690" PMx_normed="4.166784" NOx_normed="88.688710" fuel_normed="102.122658" electricity_normed="0"
            traveltime="0.81" CO_perVeh="17.579342" CO2_perVeh="2329.817545" HC_perVeh="0.135652" PMx_perVeh="0.040862" NOx_perVeh="0.869740" fuel_perVeh="1.001482" electricity_perVeh="0"/>
        <edge id=":1110673556_0" sampledSeconds="462.74" CO_abs="57207.627742" CO2_abs="2762474.028577" HC_abs="326.140699" PMx_abs="55.957268" NOx_abs="1192.012652" fuel_abs="1187.469389" electricity_abs="0"
            CO_normed="1128.169835" CO2_normed="54477.698050" HC_normed="6.431697" PMx_normed="1.103512" NOx_normed="23.507227" fuel_normed="23.417631" electricity_normed="0"
            traveltime="2.73" CO_perVeh="337.233465" CO2_perVeh="16284.518783" HC_perVeh="1.922568" PMx_perVeh="0.329863" NOx_perVeh="7.026800" fuel_perVeh="7.000018" electricity_perVeh="0"/>
        <edge id=":1110673556_2" sampledSeconds="175.77" CO_abs="17884.931158" CO2_abs="766333.520257" HC_abs="99.447432" PMx_abs="14.867170" NOx_abs="327.370096" fuel_abs="329.416621" electricity_abs="0"
            CO_normed="368.788271" CO2_normed="15801.839624" HC_normed="2.050612" PMx_normed="0.306562" NOx_normed="6.750390" fuel_normed="6.792589" electricity_normed="0"
            traveltime="3.04" CO_perVeh="309.256016" CO2_perVeh="13251.001621" HC_perVeh="1.719588" PMx_perVeh="0.257075" NOx_perVeh="5.660697" fuel_perVeh="5.696084" electricity_perVeh="0"/>
        <edge id=":1110673556_3" sampledSeconds="344.30" CO_abs="34369.423746" CO2_abs="1192835.633123" HC_abs="184.395929" PMx_abs="23.593274" NOx_abs="514.046517" fuel_abs="512.757829" electricity_abs="0"
            CO_normed="1612.173848" CO2_normed="55952.593998" HC_normed="8.649499" PMx_normed="1.106695" NOx_normed="24.112489" fuel_normed="24.052040" electricity_normed="0"
            traveltime="1.82" CO_perVeh="181.838773" CO2_perVeh="6310.951542" HC_perVeh="0.975586" PMx_perVeh="0.124825" NOx_perVeh="2.719673" fuel_perVeh="2.712855" electricity_perVeh="0"/>
        <edge id=":1110673556_4" sampledSeconds="86.04" CO_abs="10057.372244" CO2_abs="383736.028880" HC_abs="54.832156" PMx_abs="7.737958" NOx_abs="166.125147" fuel_abs="164.953480" electricity_abs="0"
            CO_normed="288.211425" CO2_normed="10996.620686" HC_normed="1.571310" PMx_normed="0.221745" NOx_normed="4.760604" fuel_normed="4.727028" electricity_normed="0"
            traveltime="2.61" CO_perVeh="304.700368" CO2_perVeh="11625.751396" HC_perVeh="1.661207" PMx_perVeh="0.234431" NOx_perVeh="5.032964" fuel_perVeh="4.997467" electricity_perVeh="0"/>
        <edge id=":1110673556_5" sampledSeconds="22.65" CO_abs="909.051831" CO2_abs="41914.924537" HC_abs="5.105764" PMx_abs="0.705224" NOx_abs="17.199607" fuel_abs="18.017683" electricity_abs="0"
            CO_normed="36.309046" CO2_normed="1674.151976" HC_normed="0.203933" PMx_normed="0.028168" NOx_normed="0.686981" fuel_normed="0.719656" electricity_normed="0"
            traveltime="1.57" CO_perVeh="62.848028" CO2_perVeh="2897.821943" HC_perVeh="0.352991" PMx_perVeh="0.048756" NOx_perVeh="1.189109" fuel_perVeh="1.245667" electricity_perVeh="0"/>
        <edge id=":1110673556_6" sampledSeconds="213.80" CO_abs="25564.217891" CO2_abs="1288679.837736" HC_abs="147.044010" PMx_abs="25.945068" NOx_abs="554.366943" fuel_abs="553.947676" electricity_abs="0"
            CO_normed="516.853686" CO2_normed="26054.343890" HC_normed="2.972915" PMx_normed="0.524554" NOx_normed="11.208111" fuel_normed="11.199635" electricity_normed="0"
            traveltime="2.49" CO_perVeh="297.887832" CO2_perVeh="15016.381279" HC_perVeh="1.713435" PMx_perVeh="0.302326" NOx_perVeh="6.459778" fuel_perVeh="6.454892" electricity_perVeh="0"/>
        <edge id=":1110673561_0" sampledSeconds="104.00" CO_abs="9756.096719" CO2_abs="688233.478756" HC_abs="61.003004" PMx_abs="13.966163" NOx_abs="291.746343" fuel_abs="295.838801" electricity_abs="0"
            CO_normed="247.826632" CO2_normed="17482.666494" HC_normed="1.549612" PMx_normed="0.354772" NOx_normed="7.411008" fuel_normed="7.514966" electricity_normed="0"
            traveltime="1.23" CO_perVeh="115.131411" CO2_perVeh="8121.823049" HC_perVeh="0.719895" PMx_perVeh="0.164814" NOx_perVeh="3.442890" fuel_perVeh="3.491185" electricity_perVeh="0"/>
        <edge id=":1110673561_1" sampledSeconds="5196.82" CO_abs="486402.621776" CO2_abs="33686909.875191" HC_abs="3029.790931" PMx_abs="704.013352" NOx_abs="14402.113647" fuel_abs="14480.375872" electricity_abs="0"
            CO_normed="12046.099406" CO2_normed="834279.765069" HC_normed="75.034881" PMx_normed="17.435381" NOx_normed="356.678367" fuel_normed="358.616585" electricity_normed="0"
            traveltime="1.19" CO_perVeh="111.621196" CO2_perVeh="7730.577530" HC_perVeh="0.695286" PMx_perVeh="0.161559" NOx_perVeh="3.305042" fuel_perVeh="3.323002" electricity_perVeh="0"/>
        <edge id=":1110673562_0" sampledSeconds="302.14" CO_abs="6748.344867" CO2_abs="506207.745864" HC_abs="42.290538" PMx_abs="7.015544" NOx_abs="194.641418" fuel_abs="217.599102" electricity_abs="0"
            CO_normed="10621.878356" CO2_normed="796769.756997" HC_normed="66.565203" PMx_normed="11.042449" NOx_normed="306.365117" fuel_normed="342.500455" electricity_normed="0"
            traveltime="0.03" CO_perVeh="0.604931" CO2_perVeh="45.377188" HC_perVeh="0.003791" PMx_perVeh="0.000629" NOx_perVeh="0.017448" fuel_perVeh="0.019506" electricity_perVeh="0"/>
        <edge id=":1110673564_0" sampledSeconds="28.13" CO_abs="486.555857" CO2_abs="50838.904461" HC_abs="3.383660" PMx_abs="0.756498" NOx_abs="19.495901" fuel_abs="21.853470" electricity_abs="0"
            CO_normed="2067.761874" CO2_normed="216054.841294" HC_normed="14.379855" PMx_normed="3.214961" NOx_normed="82.853553" fuel_normed="92.872735" electricity_normed="0"
            traveltime="7.944082e-03" CO_perVeh="0.137426" CO2_perVeh="14.359244" HC_perVeh="0.000956" PMx_perVeh="0.000214" NOx_perVeh="0.005507" fuel_perVeh="0.006172" electricity_perVeh="0"/>
        <edge id=":1110673588_0" sampledSeconds="62.93" CO_abs="1165.709443" CO2_abs="132051.437457" HC_abs="8.330704" PMx_abs="1.794039" NOx_abs="49.523493" fuel_abs="56.763446" electricity_abs="0"
            CO_normed="1981.609725" CO2_normed="224476.531624" HC_normed="14.161508" PMx_normed="3.049719" NOx_normed="84.185846" fuel_normed="96.493168" electricity_normed="0"
            traveltime="0.02" CO_perVeh="0.376035" CO2_perVeh="42.597238" HC_perVeh="0.002687" PMx_perVeh="0.000579" NOx_perVeh="0.015975" fuel_perVeh="0.018311" electricity_perVeh="0"/>
        <edge id=":1110673601_0" sampledSeconds="29.28" CO_abs="420.641656" CO2_abs="49076.366392" HC_abs="3.028648" PMx_abs="0.691877" NOx_abs="18.494369" fuel_abs="21.095854" electricity_abs="0"
            CO_normed="638.442906" CO2_normed="74487.292363" HC_normed="4.596832" PMx_normed="1.050120" NOx_normed="28.070445" fuel_normed="32.018936" electricity_normed="0"
            traveltime="0.02" CO_perVeh="0.320759" CO2_perVeh="37.423085" HC_perVeh="0.002309" PMx_perVeh="0.000528" NOx_perVeh="0.014103" fuel_perVeh="0.016087" electricity_perVeh="0"/>
        <edge id=":1110673617_0" sampledSeconds="855.27" CO_abs="33259.851833" CO2_abs="3353970.129767" HC_abs="231.937075" PMx_abs="63.331892" NOx_abs="1316.274407" fuel_abs="1441.714685" electricity_abs="0"
            CO_normed="47115.833077" CO2_normed="4751226.721426" HC_normed="328.561551" PMx_normed="89.715820" NOx_normed="1864.631435" fuel_normed="2042.329857" electricity_normed="0"
            traveltime="0.02" CO_perVeh="0.589628" CO2_perVeh="59.458954" HC_perVeh="0.004112" PMx_perVeh="0.001123" NOx_perVeh="0.023335" fuel_perVeh="0.025559" electricity_perVeh="0"/>
        <edge id=":1110673621_0" sampledSeconds="26.43" CO_abs="523.401647" CO2_abs="52597.704233" HC_abs="3.603198" PMx_abs="0.771323" NOx_abs="20.169578" fuel_abs="22.609533" electricity_abs="0"
            CO_normed="889.739549" CO2_normed="89411.750792" HC_normed="6.125139" PMx_normed="1.311186" NOx_normed="34.286615" fuel_normed="38.434338" electricity_normed="0"
            traveltime="0.02" CO_perVeh="0.396516" CO2_perVeh="39.846746" HC_perVeh="0.002730" PMx_perVeh="0.000584" NOx_perVeh="0.015280" fuel_perVeh="0.017128" electricity_perVeh="0"/>
        <edge id=":1110673630_0" sampledSeconds="286.40" CO_abs="1335.942464" CO2_abs="115425.807507" HC_abs="8.723153" PMx_abs="1.562145" NOx_abs="43.834231" fuel_abs="49.616999" electricity_abs="0"
            CO_normed="40.495574" CO2_normed="3498.829076" HC_normed="0.264419" PMx_normed="0.047352" NOx_normed="1.328719" fuel_normed="1.504009" electricity_normed="0"
            traveltime="1.29" CO_perVeh="6.011233" CO2_perVeh="519.372241" HC_perVeh="0.039251" PMx_perVeh="0.007029" NOx_perVeh="0.197237" fuel_perVeh="0.223258" electricity_perVeh="0"/>
        <edge id=":1110673630_1" sampledSeconds="338.43" CO_abs="1187.289112" CO2_abs="96710.958627" HC_abs="7.606582" PMx_abs="1.270161" NOx_abs="36.615947" fuel_abs="41.572327" electricity_abs="0"
            CO_normed="43.875943" CO2_normed="3573.926912" HC_normed="0.281099" PMx_normed="0.046938" NOx_normed="1.353132" fuel_normed="1.536294" electricity_normed="0"
            traveltime="1.08" CO_perVeh="3.784844" CO2_perVeh="308.295502" HC_perVeh="0.024248" PMx_perVeh="0.004049" NOx_perVeh="0.116724" fuel_perVeh="0.132524" electricity_perVeh="0"/>
        <edge id=":1110673650_0" sampledSeconds="200.36" CO_abs="2768.816856" CO2_abs="356588.572098" HC_abs="20.706141" PMx_abs="4.775777" NOx_abs="132.352060" fuel_abs="153.282529" electricity_abs="0"
            CO_normed="3922.299879" CO2_normed="505142.588263" HC_normed="29.332274" PMx_normed="6.765356" NOx_normed="187.489638" fuel_normed="217.139695" electricity_normed="0"
            traveltime="0.02" CO_perVeh="0.320009" CO2_perVeh="41.213067" HC_perVeh="0.002393" PMx_perVeh="0.000552" NOx_perVeh="0.015297" fuel_perVeh="0.017716" electricity_perVeh="0"/>
        <edge id=":1110673655_0" sampledSeconds="20.69" CO_abs="336.596705" CO2_abs="36465.268979" HC_abs="2.371769" PMx_abs="0.528378" NOx_abs="13.893497" fuel_abs="15.674871" electricity_abs="0"
            CO_normed="476.822153" CO2_normed="51656.619968" HC_normed="3.359843" PMx_normed="0.748498" NOx_normed="19.681498" fuel_normed="22.204988" electricity_normed="0"
            traveltime="0.02" CO_perVeh="0.384535" CO2_perVeh="41.658723" HC_perVeh="0.002710" PMx_perVeh="0.000604" NOx_perVeh="0.015872" fuel_perVeh="0.017907" electricity_perVeh="0"/>
        <edge id=":1110673663_0" sampledSeconds="110.74" CO_abs="2182.989347" CO2_abs="241461.902559" HC_abs="15.452446" PMx_abs="3.456500" NOx_abs="91.603642" fuel_abs="103.794251" electricity_abs="0"
            CO_normed="56.637691" CO2_normed="6264.732619" HC_normed="0.400914" PMx_normed="0.089679" NOx_normed="2.376658" fuel_normed="2.692943" electricity_normed="0"
            traveltime="1.30" CO_perVeh="25.640240" CO2_perVeh="2836.083956" HC_perVeh="0.181496" PMx_perVeh="0.040598" NOx_perVeh="1.075928" fuel_perVeh="1.219112" electricity_perVeh="0"/>
        <edge id=":1110673663_1" sampledSeconds="170.63" CO_abs="2478.849885" CO2_abs="313556.239285" HC_abs="18.379615" PMx_abs="4.191517" NOx_abs="116.386242" fuel_abs="134.784766" electricity_abs="0"
            CO_normed="64.392420" CO2_normed="8145.166505" HC_normed="0.477442" PMx_normed="0.108882" NOx_normed="3.023334" fuel_normed="3.501268" electricity_normed="0"
            traveltime="1.27" CO_perVeh="18.507820" CO2_perVeh="2341.102841" HC_perVeh="0.137228" PMx_perVeh="0.031295" NOx_perVeh="0.868974" fuel_perVeh="1.006343" electricity_perVeh="0"/>
        <edge id=":1110673666_0" sampledSeconds="274.31" CO_abs="5950.416750" CO2_abs="479212.871672" HC_abs="38.012748" PMx_abs="6.386093" NOx_abs="182.081787" fuel_abs="205.995122" electricity_abs="0"