<?xml version="1.0" encoding="UTF-8"?>

<!-- generated on Tue Nov 10 00:13:59 2020 by Eclipse SUMO sumo Version 1.7.0
<configuration xmlns:xsi="http://www.w3.org/2001/XMLSchema-instance" xsi:noNamespaceSchemaLocation="http://sumo.dlr.de/xsd/sumoConfiguration.xsd">

    <input>
        <net-file value="../dataSets/Porto/6AM7AM_Routing_SaoBento/Porto.net.xml"/>
        <route-files value="../results/Porto/6AM7AM_Routing_SaoBento/cost_hc-length/solution17/Porto.rou.xml"/>
        <additional-files value="moreOutputInfo.xml"/>
    </input>

    <output>
        <emission-output.precision value="6"/>
        <tripinfo-output value="../results/Porto/6AM7AM_Routing_SaoBento/cost_hc-length/solution17/Porto-tripinfo"/>
    </output>

    <processing>
        <collision.action value="warn"/>
        <time-to-teleport value="-1"/>
    </processing>

    <emissions>
        <device.emissions.probability value="1"/>
    </emissions>

    <gui_only>
        <quit-on-end value="true"/>
        <start value="true"/>
    </gui_only>

</configuration>
-->

<meandata xmlns:xsi="http://www.w3.org/2001/XMLSchema-instance" xsi:noNamespaceSchemaLocation="http://sumo.dlr.de/xsd/meandata_file.xsd">
    <interval begin="0.00" end="4698.00" id="emissions-detector">
        <edge id=":1092997347_0" sampledSeconds="276.76" CO_abs="35182.707056" CO2_abs="1366280.486959" HC_abs="192.480289" PMx_abs="27.957033" NOx_abs="593.698231" fuel_abs="587.310745" electricity_abs="0"
            CO_normed="61272.565405" CO2_normed="2379450.517170" HC_normed="335.214715" PMx_normed="48.688668" NOx_normed="1033.957211" fuel_normed="1022.833064" electricity_normed="0"
            traveltime="0.08" CO_perVeh="9.876604" CO2_perVeh="383.546692" HC_perVeh="0.054034" PMx_perVeh="0.007848" NOx_perVeh="0.166665" fuel_perVeh="0.164872" electricity_perVeh="0"/>
        <edge id=":1103427051_0" sampledSeconds="10.81" CO_abs="917.175386" CO2_abs="52189.670941" HC_abs="5.418149" PMx_abs="1.035789" NOx_abs="22.335129" fuel_abs="22.434004" electricity_abs="0"
            CO_normed="2423.504785" CO2_normed="137903.741422" HC_normed="14.316683" PMx_normed="2.736925" NOx_normed="59.017384" fuel_normed="59.278647" electricity_normed="0"
            traveltime="0.03" CO_perVeh="2.513047" CO2_perVeh="142.998909" HC_perVeh="0.014846" PMx_perVeh="0.002838" NOx_perVeh="0.061198" fuel_perVeh="0.061469" electricity_perVeh="0"/>
        <edge id=":1105984386_0" sampledSeconds="22.89" CO_abs="355.047303" CO2_abs="28583.561845" HC_abs="2.266531" PMx_abs="0.373798" NOx_abs="10.814453" fuel_abs="12.286981" electricity_abs="0"
            CO_normed="28.019248" CO2_normed="2255.727346" HC_normed="0.178868" PMx_normed="0.029499" NOx_normed="0.853444" fuel_normed="0.969651" electricity_normed="0"
            traveltime="0.96" CO_perVeh="14.901060" CO2_perVeh="1199.629951" HC_perVeh="0.095125" PMx_perVeh="0.015688" NOx_perVeh="0.453874" fuel_perVeh="0.515675" electricity_perVeh="0"/>
        <edge id=":1105984390_0" sampledSeconds="23.55" CO_abs="50.452004" CO2_abs="3405.872770" HC_abs="0.308794" PMx_abs="0.055128" NOx_abs="1.367738" fuel_abs="1.464044" electricity_abs="0"
            CO_normed="3.078068" CO2_normed="207.791735" HC_normed="0.018839" PMx_normed="0.003363" NOx_normed="0.083445" fuel_normed="0.089321" electricity_normed="0"
            traveltime="1.07" CO_perVeh="2.287974" CO2_perVeh="154.454658" HC_perVeh="0.014004" PMx_perVeh="0.002500" NOx_perVeh="0.062026" fuel_perVeh="0.066394" electricity_perVeh="0"/>
        <edge id=":1105984390_1" sampledSeconds="645.48" CO_abs="15057.478291" CO2_abs="1942261.124874" HC_abs="115.179502" PMx_abs="34.461444" NOx_abs="727.538447" fuel_abs="834.889008" electricity_abs="0"
            CO_normed="878.773613" CO2_normed="113352.833287" HC_normed="6.722022" PMx_normed="2.011214" NOx_normed="42.460070" fuel_normed="48.725186" electricity_normed="0"
            traveltime="0.64" CO_perVeh="14.819618" CO2_perVeh="1911.579574" HC_perVeh="0.113360" PMx_perVeh="0.033917" NOx_perVeh="0.716046" fuel_perVeh="0.821700" electricity_perVeh="0"/>
        <edge id=":1105984395_0" sampledSeconds="8.98" CO_abs="147.950588" CO2_abs="13199.054900" HC_abs="0.971067" PMx_abs="0.155181" NOx_abs="4.869422" fuel_abs="5.673784" electricity_abs="0"
            CO_normed="123.230541" CO2_normed="10993.715559" HC_normed="0.808818" PMx_normed="0.129253" NOx_normed="4.055824" fuel_normed="4.725790" electricity_normed="0"
            traveltime="0.09" CO_perVeh="1.500381" CO2_perVeh="133.852850" HC_perVeh="0.009848" PMx_perVeh="0.001574" NOx_perVeh="0.049381" fuel_perVeh="0.057538" electricity_perVeh="0"/>
        <edge id=":1105984398_0" sampledSeconds="23.31" CO_abs="1439.221799" CO2_abs="101347.124343" HC_abs="8.942782" PMx_abs="1.809681" NOx_abs="41.651305" fuel_abs="43.564653" electricity_abs="0"
            CO_normed="91.220178" CO2_normed="6423.542736" HC_normed="0.566808" PMx_normed="0.114700" NOx_normed="2.639926" fuel_normed="2.761197" electricity_normed="0"
            traveltime="1.11" CO_perVeh="68.557971" CO2_perVeh="4827.715381" HC_perVeh="0.425993" PMx_perVeh="0.086205" NOx_perVeh="1.984078" fuel_perVeh="2.075222" electricity_perVeh="0"/>
        <edge id=":1105984398_1" sampledSeconds="454.56" CO_abs="8275.750550" CO2_abs="939381.417332" HC_abs="59.290379" PMx_abs="13.696387" NOx_abs="357.137885" fuel_abs="403.799849" electricity_abs="0"
            CO_normed="507.731890" CO2_normed="57632.706461" HC_normed="3.637569" PMx_normed="0.840297" NOx_normed="21.911039" fuel_normed="24.773833" electricity_normed="0"
            traveltime="0.96" CO_perVeh="17.390168" CO2_perVeh="1973.960028" HC_perVeh="0.124589" PMx_perVeh="0.028781" NOx_perVeh="0.750468" fuel_perVeh="0.848521" electricity_perVeh="0"/>
        <edge id=":1106006327_0" sampledSeconds="134.72" CO_abs="18118.027928" CO2_abs="588062.117966" HC_abs="96.337482" PMx_abs="12.250295" NOx_abs="257.317747" fuel_abs="252.787165" electricity_abs="0"
            CO_normed="1566.991682" CO2_normed="50860.306165" HC_normed="8.332034" PMx_normed="1.059503" NOx_normed="22.254893" fuel_normed="21.863052" electricity_normed="0"
            traveltime="2.09" CO_perVeh="280.825946" CO2_perVeh="9114.849664" HC_perVeh="1.493212" PMx_perVeh="0.189877" NOx_perVeh="3.988376" fuel_perVeh="3.918152" electricity_perVeh="0"/>
        <edge id=":1106006327_1" sampledSeconds="159.51" CO_abs="21598.313668" CO2_abs="727883.153344" HC_abs="115.504927" PMx_abs="15.181661" NOx_abs="318.548956" fuel_abs="312.890568" electricity_abs="0"
            CO_normed="1628.979521" CO2_normed="54898.116975" HC_normed="8.711567" PMx_normed="1.145025" NOx_normed="24.025474" fuel_normed="23.598709" electricity_normed="0"
            traveltime="2.26" CO_perVeh="306.615899" CO2_perVeh="10333.239490" HC_perVeh="1.639741" PMx_perVeh="0.215523" NOx_perVeh="4.522213" fuel_perVeh="4.441885" electricity_perVeh="0"/>
        <edge id=":1106006327_2" sampledSeconds="0.00" CO_abs="0" CO2_abs="0" HC_abs="0" PMx_abs="0" NOx_abs="0" fuel_abs="0" electricity_abs="0"
            CO_normed="0" CO2_normed="0" HC_normed="0" PMx_normed="0" NOx_normed="0" fuel_normed="0" electricity_normed="0"/>
        <edge id=":1106006327_3" sampledSeconds="0.00" CO_abs="0" CO2_abs="0" HC_abs="0" PMx_abs="0" NOx_abs="0" fuel_abs="0" electricity_abs="0"
            CO_normed="0" CO2_normed="0" HC_normed="0" PMx_normed="0" NOx_normed="0" fuel_normed="0" electricity_normed="0"/>
        <edge id=":1107381198_0" sampledSeconds="0.00" CO_abs="0" CO2_abs="0" HC_abs="0" PMx_abs="0" NOx_abs="0" fuel_abs="0" electricity_abs="0"
            CO_normed="0" CO2_normed="0" HC_normed="0" PMx_normed="0" NOx_normed="0" fuel_normed="0" electricity_normed="0"/>
        <edge id=":1107381198_1" sampledSeconds="35.81" CO_abs="1467.097386" CO2_abs="61013.360017" HC_abs="8.087669" PMx_abs="1.056474" NOx_abs="25.286969" fuel_abs="26.227469" electricity_abs="0"
            CO_normed="122.596789" CO2_normed="5098.531361" HC_normed="0.675839" PMx_normed="0.088283" NOx_normed="2.113085" fuel_normed="2.191677" electricity_normed="0"
            traveltime="1.47" CO_perVeh="60.404468" CO2_perVeh="2512.089221" HC_perVeh="0.332992" PMx_perVeh="0.043498" NOx_perVeh="1.041135" fuel_perVeh="1.079858" electricity_perVeh="0"/>
        <edge id=":1110338277_0" sampledSeconds="96.69" CO_abs="1444.263698" CO2_abs="185887.581346" HC_abs="10.812738" PMx_abs="2.469740" NOx_abs="68.904073" fuel_abs="79.905336" electricity_abs="0"
            CO_normed="3952.555277" CO2_normed="508723.539535" HC_normed="29.591510" PMx_normed="6.759005" NOx_normed="188.571627" fuel_normed="218.679080" electricity_normed="0"
            traveltime="0.02" CO_perVeh="0.325491" CO2_perVeh="41.893194" HC_perVeh="0.002437" PMx_perVeh="0.000557" NOx_perVeh="0.015529" fuel_perVeh="0.018008" electricity_perVeh="0"/>
        <edge id=":1110338293_0" sampledSeconds="123.53" CO_abs="6328.815821" CO2_abs="431730.914289" HC_abs="38.974760" PMx_abs="7.648454" NOx_abs="177.299068" fuel_abs="185.582287" electricity_abs="0"
            CO_normed="16165.557651" CO2_normed="1102760.956038" HC_normed="99.552389" PMx_normed="19.536282" NOx_normed="452.871184" fuel_normed="474.028831" electricity_normed="0"
            traveltime="0.03" CO_perVeh="1.451619" CO2_perVeh="99.024637" HC_perVeh="0.008940" PMx_perVeh="0.001754" NOx_perVeh="0.040666" fuel_perVeh="0.042566" electricity_perVeh="0"/>
        <edge id=":1110338295_0" sampledSeconds="0.00" CO_abs="0" CO2_abs="0" HC_abs="0" PMx_abs="0" NOx_abs="0" fuel_abs="0" electricity_abs="0"
            CO_normed="0" CO2_normed="0" HC_normed="0" PMx_normed="0" NOx_normed="0" fuel_normed="0" electricity_normed="0"/>
        <edge id=":1110673403_0" sampledSeconds="143.93" CO_abs="2079.018996" CO2_abs="262305.230737" HC_abs="15.430394" PMx_abs="3.563364" NOx_abs="97.717326" fuel_abs="112.754015" electricity_abs="0"
            CO_normed="5310.393349" CO2_normed="670000.589366" HC_normed="39.413523" PMx_normed="9.101823" NOx_normed="249.597258" fuel_normed="288.005148" electricity_normed="0"
            traveltime="0.02" CO_perVeh="0.333800" CO2_perVeh="42.114835" HC_perVeh="0.002477" PMx_perVeh="0.000572" NOx_perVeh="0.015689" fuel_perVeh="0.018103" electricity_perVeh="0"/>
        <edge id=":1110673412_0" sampledSeconds="252.65" CO_abs="45041.675900" CO2_abs="3070454.741645" HC_abs="280.230350" PMx_abs="67.494829" NOx_abs="1319.705052" fuel_abs="1319.837263" electricity_abs="0"
            CO_normed="119016.186815" CO2_normed="8113237.525815" HC_normed="740.468621" PMx_normed="178.345432" NOx_normed="3487.131858" fuel_normed="3487.481207" electricity_normed="0"
            traveltime="0.02" CO_perVeh="2.771030" CO2_perVeh="188.898910" HC_perVeh="0.017240" PMx_perVeh="0.004152" NOx_perVeh="0.081190" fuel_perVeh="0.081198" electricity_perVeh="0"/>
        <edge id=":1110673414_0" sampledSeconds="0.00" CO_abs="0" CO2_abs="0" HC_abs="0" PMx_abs="0" NOx_abs="0" fuel_abs="0" electricity_abs="0"
            CO_normed="0" CO2_normed="0" HC_normed="0" PMx_normed="0" NOx_normed="0" fuel_normed="0" electricity_normed="0"/>
        <edge id=":1110673414_1" sampledSeconds="13.95" CO_abs="994.353516" CO2_abs="37416.607206" HC_abs="5.390652" PMx_abs="0.662953" NOx_abs="15.614091" fuel_abs="16.084123" electricity_abs="0"
            CO_normed="84.380589" CO2_normed="3175.163860" HC_normed="0.457449" PMx_normed="0.056258" NOx_normed="1.325008" fuel_normed="1.364895" electricity_normed="0"
            traveltime="1.52" CO_perVeh="108.599568" CO2_perVeh="4086.501730" HC_perVeh="0.588747" PMx_perVeh="0.072405" NOx_perVeh="1.705313" fuel_perVeh="1.756648" electricity_perVeh="0"/>
        <edge id=":1110673417_0" sampledSeconds="29.98" CO_abs="559.608426" CO2_abs="65214.085733" HC_abs="4.040367" PMx_abs="0.903089" NOx_abs="24.494207" fuel_abs="28.032803" electricity_abs="0"
            CO_normed="1531.495419" CO2_normed="178473.141031" HC_normed="11.057382" PMx_normed="2.471507" NOx_normed="67.033955" fuel_normed="76.718124" electricity_normed="0"
            traveltime="0.02" CO_perVeh="0.415349" CO2_perVeh="48.402767" HC_perVeh="0.002999" PMx_perVeh="0.000670" NOx_perVeh="0.018180" fuel_perVeh="0.020806" electricity_perVeh="0"/>
        <edge id=":1110673446_0" sampledSeconds="334.10" CO_abs="3270.084807" CO2_abs="264246.003752" HC_abs="21.164966" PMx_abs="4.895675" NOx_abs="108.380153" fuel_abs="113.587140" electricity_abs="0"
            CO_normed="8352.707041" CO2_normed="674957.863989" HC_normed="54.061216" PMx_normed="12.504917" NOx_normed="276.833085" fuel_normed="290.133181" electricity_normed="0"
            traveltime="0.02" CO_perVeh="0.223126" CO2_perVeh="18.030143" HC_perVeh="0.001444" PMx_perVeh="0.000334" NOx_perVeh="0.007395" fuel_perVeh="0.007750" electricity_perVeh="0"/>
        <edge id=":1110673451_0" sampledSeconds="37.84" CO_abs="365.570365" CO2_abs="25960.101982" HC_abs="2.255966" PMx_abs="0.356631" NOx_abs="9.987431" fuel_abs="11.159261" electricity_abs="0"
            CO_normed="1037.520547" CO2_normed="73677.031310" HC_normed="6.402629" PMx_normed="1.012151" NOx_normed="28.345200" fuel_normed="31.670955" electricity_normed="0"
            traveltime="0.03" CO_perVeh="0.262162" CO2_perVeh="18.616806" HC_perVeh="0.001618" PMx_perVeh="0.000256" NOx_perVeh="0.007162" fuel_perVeh="0.008003" electricity_perVeh="0"/>
        <edge id=":1110673464_0" sampledSeconds="325.00" CO_abs="615.574967" CO2_abs="52907.790318" HC_abs="4.011066" PMx_abs="0.707504" NOx_abs="20.055652" fuel_abs="22.742985" electricity_abs="0"
            CO_normed="33.406867" CO2_normed="2871.272525" HC_normed="0.217678" PMx_normed="0.038396" NOx_normed="1.088408" fuel_normed="1.234247" electricity_normed="0"
            traveltime="1.17" CO_perVeh="2.225222" CO2_perVeh="191.254682" HC_perVeh="0.014499" PMx_perVeh="0.002558" NOx_perVeh="0.072499" fuel_perVeh="0.082213" electricity_perVeh="0"/>
        <edge id=":1110673464_1" sampledSeconds="708.25" CO_abs="15886.823094" CO2_abs="2080501.642741" HC_abs="122.305963" PMx_abs="36.750147" NOx_abs="777.727432" fuel_abs="894.312377" electricity_abs="0"
            CO_normed="844.816849" CO2_normed="110635.262482" HC_normed="6.503889" PMx_normed="1.954270" NOx_normed="41.357371" fuel_normed="47.557033" electricity_normed="0"
            traveltime="0.70" CO_perVeh="15.682192" CO2_perVeh="2053.703651" HC_perVeh="0.120731" PMx_perVeh="0.036277" NOx_perVeh="0.767710" fuel_perVeh="0.882793" electricity_perVeh="0"/>
        <edge id=":1110673479_0" sampledSeconds="133.34" CO_abs="6957.110785" CO2_abs="476821.742326" HC_abs="42.909197" PMx_abs="8.517776" NOx_abs="196.200673" fuel_abs="204.964739" electricity_abs="0"
            CO_normed="17770.397918" CO2_normed="1217935.484869" HC_normed="109.602035" PMx_normed="21.756772" NOx_normed="501.151145" fuel_normed="523.537008" electricity_normed="0"
            traveltime="0.03" CO_perVeh="1.465587" CO2_perVeh="100.447417" HC_perVeh="0.009039" PMx_perVeh="0.001794" NOx_perVeh="0.041332" fuel_perVeh="0.043178" electricity_perVeh="0"/>
        <edge id=":1110673511_0" sampledSeconds="11.69" CO_abs="165.641359" CO2_abs="21239.443261" HC_abs="1.238167" PMx_abs="0.273990" NOx_abs="7.825672" fuel_abs="9.129966" electricity_abs="0"
            CO_normed="423.094148" CO2_normed="54251.451496" HC_normed="3.162624" PMx_normed="0.699846" NOx_normed="19.988944" fuel_normed="23.320474" electricity_normed="0"
            traveltime="0.02" CO_perVeh="0.328003" CO2_perVeh="42.058303" HC_perVeh="0.002452" PMx_perVeh="0.000543" NOx_perVeh="0.015496" fuel_perVeh="0.018079" electricity_perVeh="0"/>
        <edge id=":1110673517_0" sampledSeconds="17.15" CO_abs="754.357773" CO2_abs="53944.224160" HC_abs="4.705246" PMx_abs="0.951220" NOx_abs="22.059693" fuel_abs="23.188251" electricity_abs="0"
            CO_normed="1926.839778" CO2_normed="137788.567459" HC_normed="12.018509" PMx_normed="2.429681" NOx_normed="56.346597" fuel_normed="59.229250" electricity_normed="0"
            traveltime="0.03" CO_perVeh="1.211171" CO2_perVeh="86.611010" HC_perVeh="0.007555" PMx_perVeh="0.001527" NOx_perVeh="0.035418" fuel_perVeh="0.037230" electricity_perVeh="0"/>
        <edge id=":1110673534_0" sampledSeconds="477.43" CO_abs="2882.871123" CO2_abs="241349.710491" HC_abs="18.650781" PMx_abs="3.313449" NOx_abs="92.138248" fuel_abs="103.746701" electricity_abs="0"
            CO_normed="142.706502" CO2_normed="11947.177448" HC_normed="0.923242" PMx_normed="0.164021" NOx_normed="4.560983" fuel_normed="5.135619" electricity_normed="0"
            traveltime="1.44" CO_perVeh="8.684935" CO2_perVeh="727.089946" HC_perVeh="0.056187" PMx_perVeh="0.009982" NOx_perVeh="0.277576" fuel_perVeh="0.312547" electricity_perVeh="0"/>
        <edge id=":1110673534_1" sampledSeconds="184.46" CO_abs="3255.129621" CO2_abs="393371.134891" HC_abs="23.892959" PMx_abs="5.514057" NOx_abs="147.891407" fuel_abs="169.093601" electricity_abs="0"
            CO_normed="156.680415" CO2_normed="18934.285166" HC_normed="1.150049" PMx_normed="0.265410" NOx_normed="7.118514" fuel_normed="8.139048" electricity_normed="0"
            traveltime="1.22" CO_perVeh="21.612892" CO2_perVeh="2611.843112" HC_perVeh="0.158641" PMx_perVeh="0.036611" NOx_perVeh="0.981946" fuel_perVeh="1.122721" electricity_perVeh="0"/>
        <edge id=":1110673549_0" sampledSeconds="59.58" CO_abs="7.661889" CO2_abs="879.464505" HC_abs="0.053518" PMx_abs="0.007784" NOx_abs="0.302739" fuel_abs="0.378052" electricity_abs="0"
            CO_normed="0.367408" CO2_normed="42.172663" HC_normed="0.002566" PMx_normed="0.000373" NOx_normed="0.014517" fuel_normed="0.018129" electricity_normed="0"
            traveltime="1.24" CO_perVeh="0.159629" CO2_perVeh="18.322894" HC_perVeh="0.001115" PMx_perVeh="0.000162" NOx_perVeh="0.006307" fuel_perVeh="0.007876" electricity_perVeh="0"/>
        <edge id=":1110673549_1" sampledSeconds="638.95" CO_abs="14641.848498" CO2_abs="1887652.247650" HC_abs="111.819720" PMx_abs="33.383464" NOx_abs="707.939017" fuel_abs="811.415145" electricity_abs="0"
            CO_normed="679.165089" CO2_normed="87559.129426" HC_normed="5.186780" PMx_normed="1.548499" NOx_normed="32.837894" fuel_normed="37.637655" electricity_normed="0"
            traveltime="0.80" CO_perVeh="18.431187" CO2_perVeh="2376.180232" HC_perVeh="0.140759" PMx_perVeh="0.042023" NOx_perVeh="0.891155" fuel_perVeh="1.021411" electricity_perVeh="0"/>
        <edge id=":1110673556_0" sampledSeconds="416.04" CO_abs="50707.160295" CO2_abs="2553641.400435" HC_abs="291.589380" PMx_abs="51.376386" NOx_abs="1098.825100" fuel_abs="1097.699936" electricity_abs="0"
            CO_normed="1803.065500" CO2_normed="90803.402954" HC_normed="10.368452" PMx_normed="1.826862" NOx_normed="39.072463" fuel_normed="39.032454" electricity_normed="0"
            traveltime="2.58" CO_perVeh="314.765326" CO2_perVeh="15851.760623" HC_perVeh="1.810045" PMx_perVeh="0.318920" NOx_perVeh="6.820970" fuel_perVeh="6.813986" electricity_perVeh="0"/>
        <edge id=":1110673556_2" sampledSeconds="250.43" CO_abs="24819.588267" CO2_abs="1061604.143969" HC_abs="137.944391" PMx_abs="20.509629" NOx_abs="453.003736" fuel_abs="456.342004" electricity_abs="0"
            CO_normed="922.796777" CO2_normed="39470.633940" HC_normed="5.128797" PMx_normed="0.762552" NOx_normed="16.842761" fuel_normed="16.966878" electricity_normed="0"
            traveltime="3.04" CO_perVeh="301.056850" CO2_perVeh="12877.054833" HC_perVeh="1.673239" PMx_perVeh="0.248778" NOx_perVeh="5.494849" fuel_perVeh="5.535341" electricity_perVeh="0"/>
        <edge id=":1110673556_3" sampledSeconds="412.55" CO_abs="35830.565196" CO2_abs="1284141.263730" HC_abs="193.059120" PMx_abs="24.566736" NOx_abs="548.047497" fuel_abs="552.007157" electricity_abs="0"
            CO_normed="3030.504613" CO2_normed="108611.069983" HC_normed="16.328700" PMx_normed="2.077824" NOx_normed="46.353175" fuel_normed="46.688078" electricity_normed="0"
            traveltime="1.73" CO_perVeh="150.682765" CO2_perVeh="5400.360130" HC_perVeh="0.811896" PMx_perVeh="0.103314" NOx_perVeh="2.304773" fuel_perVeh="2.321425" electricity_perVeh="0"/>
        <edge id=":1110673556_4" sampledSeconds="198.98" CO_abs="20778.065638" CO2_abs="837261.113067" HC_abs="114.259221" PMx_abs="16.328494" NOx_abs="358.713583" fuel_abs="359.906479" electricity_abs="0"
            CO_normed="1073.627065" CO2_normed="43262.265474" HC_normed="5.903908" PMx_normed="0.843712" NOx_normed="18.535152" fuel_normed="18.596791" electricity_normed="0"
            traveltime="2.39" CO_perVeh="249.800342" CO2_perVeh="10065.812464" HC_perVeh="1.373660" PMx_perVeh="0.196306" NOx_perVeh="4.312566" fuel_perVeh="4.326907" electricity_perVeh="0"/>
        <edge id=":1110673556_5" sampledSeconds="24.05" CO_abs="1497.551631" CO2_abs="61184.874154" HC_abs="8.246473" PMx_abs="1.146763" NOx_abs="25.913492" fuel_abs="26.301087" electricity_abs="0"
            CO_normed="107.852363" CO2_normed="4406.481301" HC_normed="0.593904" PMx_normed="0.082589" NOx_normed="1.866267" fuel_normed="1.894181" electricity_normed="0"
            traveltime="1.66" CO_perVeh="103.534434" CO2_perVeh="4230.065374" HC_perVeh="0.570127" PMx_perVeh="0.079282" NOx_perVeh="1.791550" fuel_perVeh="1.818347" electricity_perVeh="0"/>
        <edge id=":1110673556_6" sampledSeconds="495.11" CO_abs="59611.957026" CO2_abs="2896380.762074" HC_abs="340.240834" PMx_abs="58.445080" NOx_abs="1248.209736" fuel_abs="1245.030206" electricity_abs="0"
            CO_normed="2173.152262" CO2_normed="105587.481438" HC_normed="12.403470" PMx_normed="2.130614" NOx_normed="45.503452" fuel_normed="45.387542" electricity_normed="0"
            traveltime="2.66" CO_perVeh="319.895466" CO2_perVeh="15542.839394" HC_perVeh="1.825833" PMx_perVeh="0.313634" NOx_perVeh="6.698264" fuel_perVeh="6.681202" electricity_perVeh="0"/>
        <edge id=":1110673561_0" sampledSeconds="101.05" CO_abs="9571.107009" CO2_abs="698070.483857" HC_abs="60.355310" PMx_abs="13.941663" NOx_abs="293.887314" fuel_abs="300.067383" electricity_abs="0"
            CO_normed="438.385034" CO2_normed="31973.694621" HC_normed="2.764452" PMx_normed="0.638569" NOx_normed="13.460909" fuel_normed="13.743974" electricity_normed="0"
            traveltime="1.19" CO_perVeh="112.948352" CO2_perVeh="8237.909257" HC_perVeh="0.712251" PMx_perVeh="0.164525" NOx_perVeh="3.468156" fuel_perVeh="3.541086" electricity_perVeh="0"/>
        <edge id=":1110673561_1" sampledSeconds="1313.99" CO_abs="123500.080982" CO2_abs="8517735.903079" HC_abs="768.517900" PMx_abs="178.613973" NOx_abs="3646.338358" fuel_abs="3661.362786" electricity_abs="0"
            CO_normed="5514.922924" CO2_normed="380361.345688" HC_normed="34.318334" PMx_normed="7.976046" NOx_normed="162.828031" fuel_normed="163.498950" electricity_normed="0"
            traveltime="1.19" CO_perVeh="111.966059" CO2_perVeh="7722.240453" HC_perVeh="0.696744" PMx_perVeh="0.161933" NOx_perVeh="3.305797" fuel_perVeh="3.319418" electricity_perVeh="0"/>
        <edge id=":1110673562_0" sampledSeconds="104.67" CO_abs="1936.299036" CO2_abs="152239.792306" HC_abs="12.272214" PMx_abs="1.971041" NOx_abs="57.507481" fuel_abs="65.442136" electricity_abs="0"
            CO_normed="5495.385371" CO2_normed="432069.795106" HC_normed="34.829613" PMx_normed="5.593987" NOx_normed="163.211242" fuel_normed="185.730484" electricity_normed="0"
            traveltime="0.03" CO_perVeh="0.493571" CO2_perVeh="38.806616" HC_perVeh="0.003128" PMx_perVeh="0.000502" NOx_perVeh="0.014659" fuel_perVeh="0.016681" electricity_perVeh="0"/>
        <edge id=":1110673564_0" sampledSeconds="28.52" CO_abs="576.262348" CO2_abs="63952.531966" HC_abs="4.094000" PMx_abs="0.896349" NOx_abs="24.164156" fuel_abs="27.490514" electricity_abs="0"
            CO_normed="4415.803433" CO2_normed="490057.716218" HC_normed="31.371646" PMx_normed="6.868576" NOx_normed="185.165945" fuel_normed="210.655280" electricity_normed="0"
            traveltime="7.839770e-03" CO_perVeh="0.158423" CO2_perVeh="17.581452" HC_perVeh="0.001125" PMx_perVeh="0.000246" NOx_perVeh="0.006643" fuel_perVeh="0.007558" electricity_perVeh="0"/>
        <edge id=":1110673588_0" sampledSeconds="11.77" CO_abs="133.547955" CO2_abs="18559.910110" HC_abs="1.032717" PMx_abs="0.235061" NOx_abs="6.794183" fuel_abs="7.978143" electricity_abs="0"
            CO_normed="409.342390" CO2_normed="56888.613364" HC_normed="3.165417" PMx_normed="0.720494" NOx_normed="20.825083" fuel_normed="24.454079" electricity_normed="0"
            traveltime="0.02" CO_perVeh="0.222580" CO2_perVeh="30.933184" HC_perVeh="0.001721" PMx_perVeh="0.000392" NOx_perVeh="0.011324" fuel_perVeh="0.013297" electricity_perVeh="0"/>
        <edge id=":1110673601_0" sampledSeconds="29.88" CO_abs="676.570639" CO2_abs="71283.805055" HC_abs="4.732693" PMx_abs="1.063602" NOx_abs="27.364144" fuel_abs="30.641851" electricity_abs="0"
            CO_normed="1851.589052" CO2_normed="195084.305023" HC_normed="12.952089" PMx_normed="2.910789" NOx_normed="74.888189" fuel_normed="83.858377" electricity_normed="0"
            traveltime="0.02" CO_perVeh="0.502160" CO2_perVeh="52.907794" HC_perVeh="0.003513" PMx_perVeh="0.000789" NOx_perVeh="0.020310" fuel_perVeh="0.022743" electricity_perVeh="0"/>
        <edge id=":1110673617_0" sampledSeconds="237.94" CO_abs="6228.860942" CO2_abs="746372.820419" HC_abs="46.249241" PMx_abs="13.500527" NOx_abs="283.079301" fuel_abs="320.831243" electricity_abs="0"
            CO_normed="15910.245063" CO2_normed="1906443.985744" HC_normed="118.133439" PMx_normed="34.484106" NOx_normed="723.063348" fuel_normed="819.492318" electricity_normed="0"
            traveltime="0.01" CO_perVeh="0.381663" CO2_perVeh="45.732713" HC_perVeh="0.002834" PMx_perVeh="0.000827" NOx_perVeh="0.017345" fuel_perVeh="0.019658" electricity_perVeh="0"/>
        <edge id=":1110673621_0" sampledSeconds="26.04" CO_abs="402.773783" CO2_abs="51519.425252" HC_abs="2.998819" PMx_abs="0.684031" NOx_abs="19.091051" fuel_abs="22.146058" electricity_abs="0"
            CO_normed="1234.555657" CO2_normed="157913.947133" HC_normed="9.191784" PMx_normed="2.096648" NOx_normed="58.516630" fuel_normed="67.880639" electricity_normed="0"
            traveltime="0.02" CO_perVeh="0.305132" CO2_perVeh="39.029868" HC_perVeh="0.002272" PMx_perVeh="0.000518" NOx_perVeh="0.014463" fuel_perVeh="0.016777" electricity_perVeh="0"/>
        <edge id=":1110673630_0" sampledSeconds="54.33" CO_abs="201.227168" CO2_abs="19347.550078" HC_abs="1.354658" PMx_abs="0.235553" NOx_abs="7.161375" fuel_abs="8.316771" electricity_abs="0"
            CO_normed="10.998364" CO2_normed="1057.468536" HC_normed="0.074041" PMx_normed="0.012874" NOx_normed="0.391415" fuel_normed="0.454565" electricity_normed="0"
            traveltime="1.27" CO_perVeh="4.696998" CO2_perVeh="451.606040" HC_perVeh="0.031620" PMx_perVeh="0.005498" NOx_perVeh="0.167159" fuel_perVeh="0.194128" electricity_perVeh="0"/>
        <edge id=":1110673630_1" sampledSeconds="7.30" CO_abs="24.412461" CO2_abs="2527.822461" HC_abs="0.167351" PMx_abs="0.024816" NOx_abs="0.896703" fuel_abs="1.086622" electricity_abs="0"
            CO_normed="1.626684" CO2_normed="168.437279" HC_normed="0.011151" PMx_normed="0.001654" NOx_normed="0.059750" fuel_normed="0.072405" electricity_normed="0"
            traveltime="1.03" CO_perVeh="3.455302" CO2_perVeh="357.784102" HC_perVeh="0.023687" PMx_perVeh="0.003512" NOx_perVeh="0.126918" fuel_perVeh="0.153799" electricity_perVeh="0"/>
        <edge id=":1110673650_0" sampledSeconds="143.08" CO_abs="2243.275721" CO2_abs="289621.985889" HC_abs="16.815019" PMx_abs="3.891305" NOx_abs="107.556224" fuel_abs="124.496374" electricity_abs="0"
            CO_normed="5729.950756" CO2_normed="739775.187456" HC_normed="42.950240" PMx_normed="9.939478" NOx_normed="274.728542" fuel_normed="317.998401" electricity_normed="0"
            traveltime="0.02" CO_perVeh="0.360777" CO2_perVeh="46.578746" HC_perVeh="0.002704" PMx_perVeh="0.000626" NOx_perVeh="0.017298" fuel_perVeh="0.020022" electricity_perVeh="0"/>
        <edge id=":1110673655_0" sampledSeconds="44.42" CO_abs="874.149082" CO2_abs="94069.775170" HC_abs="6.144750" PMx_abs="1.341136" NOx_abs="35.720697" fuel_abs="40.436640" electricity_abs="0"
            CO_normed="2232.820132" CO2_normed="240280.396346" HC_normed="15.695403" PMx_normed="3.425636" NOx_normed="91.240604" fuel_normed="103.286436" electricity_normed="0"
            traveltime="0.02" CO_perVeh="0.467835" CO2_perVeh="50.345076" HC_perVeh="0.003289" PMx_perVeh="0.000718" NOx_perVeh="0.019117" fuel_perVeh="0.021641" electricity_perVeh="0"/>
        <edge id=":1110673663_0" sampledSeconds="108.14" CO_abs="1553.708575" CO2_abs="200427.320004" HC_abs="11.556074" PMx_abs="2.666818" NOx_abs="74.232780" fuel_abs="86.155348" electricity_abs="0"
            CO_normed="72.685060" CO2_normed="9376.321933" HC_normed="0.540612" PMx_normed="0.124758" NOx_normed="3.472732" fuel_normed="4.030490" electricity_normed="0"
            traveltime="1.27" CO_perVeh="18.249040" CO2_perVeh="2354.113426" HC_perVeh="0.135732" PMx_perVeh="0.031323" NOx_perVeh="0.871899" fuel_perVeh="1.011935" electricity_perVeh="0"/>
        <edge id=":1110673663_1" sampledSeconds="153.47" CO_abs="2416.477188" CO2_abs="313494.503888" HC_abs="18.183748" PMx_abs="4.324300" NOx_abs="116.940732" fuel_abs="134.758013" electricity_abs="0"
            CO_normed="113.185004" CO2_normed="14683.720873" HC_normed="0.851706" PMx_normed="0.202545" NOx_normed="5.477369" fuel_normed="6.311910" electricity_normed="0"
            traveltime="1.24" CO_perVeh="19.547265" CO2_perVeh="2535.906455" HC_perVeh="0.147091" PMx_perVeh="0.034980" NOx_perVeh="0.945952" fuel_perVeh="1.090079" electricity_perVeh="0"/>
        <edge id=":1110673666_0" sampledSeconds="191.45" CO_abs="4042.214249" CO2_abs="321859.379676" HC_abs="25.729414" PMx_abs="4.251836" NOx_abs="122.103017" fuel_abs="138.355018" electricity_abs="0"