<?xml version="1.0" encoding="UTF-8"?>

<!-- generated on Mon Nov  9 22:02:32 2020 by Eclipse SUMO sumo Version 1.7.0
<configuration xmlns:xsi="http://www.w3.org/2001/XMLSchema-instance" xsi:noNamespaceSchemaLocation="http://sumo.dlr.de/xsd/sumoConfiguration.xsd">

    <input>
        <net-file value="../dataSets/Porto/6AM7AM_Routing_SaoBento/Porto.net.xml"/>
        <route-files value="../results/Porto/6AM7AM_Routing_SaoBento/cost_PMx-ttime/solution11/Porto.rou.xml"/>
        <additional-files value="moreOutputInfo.xml"/>
    </input>

    <output>
        <emission-output.precision value="6"/>
        <tripinfo-output value="../results/Porto/6AM7AM_Routing_SaoBento/cost_PMx-ttime/solution11/Porto-tripinfo"/>
    </output>

    <processing>
        <collision.action value="warn"/>
        <time-to-teleport value="-1"/>
    </processing>

    <emissions>
        <device.emissions.probability value="1"/>
    </emissions>

    <gui_only>
        <quit-on-end value="true"/>
        <start value="true"/>
    </gui_only>

</configuration>
-->

<meandata xmlns:xsi="http://www.w3.org/2001/XMLSchema-instance" xsi:noNamespaceSchemaLocation="http://sumo.dlr.de/xsd/meandata_file.xsd">
    <interval begin="0.00" end="4698.00" id="emissions-detector">
        <edge id=":1092997347_0" sampledSeconds="308.91" CO_abs="39717.717024" CO2_abs="1581842.733775" HC_abs="218.254962" PMx_abs="32.358997" NOx_abs="687.119275" fuel_abs="679.971720" electricity_abs="0"
            CO_normed="69170.527733" CO2_normed="2754863.695184" HC_normed="380.102685" PMx_normed="56.354923" NOx_normed="1196.654954" fuel_normed="1184.207106" electricity_normed="0"
            traveltime="0.07" CO_perVeh="9.571002" CO2_perVeh="381.185563" HC_perVeh="0.052594" PMx_perVeh="0.007798" NOx_perVeh="0.165579" fuel_perVeh="0.163857" electricity_perVeh="0"/>
        <edge id=":1103427051_0" sampledSeconds="11.17" CO_abs="871.622864" CO2_abs="48584.609443" HC_abs="5.122962" PMx_abs="0.958381" NOx_abs="20.774938" fuel_abs="20.884371" electricity_abs="0"
            CO_normed="2303.138760" CO2_normed="128377.881999" HC_normed="13.536695" PMx_normed="2.532385" NOx_normed="54.894802" fuel_normed="55.183965" electricity_normed="0"
            traveltime="0.03" CO_perVeh="2.388233" CO2_perVeh="133.121095" HC_perVeh="0.014037" PMx_perVeh="0.002626" NOx_perVeh="0.056923" fuel_perVeh="0.057223" electricity_perVeh="0"/>
        <edge id=":1105984386_0" sampledSeconds="36.53" CO_abs="658.415656" CO2_abs="51003.654500" HC_abs="4.158450" PMx_abs="0.678552" NOx_abs="19.414041" fuel_abs="21.924522" electricity_abs="0"
            CO_normed="51.960151" CO2_normed="4025.052539" HC_normed="0.328172" PMx_normed="0.053549" NOx_normed="1.532097" fuel_normed="1.730216" electricity_normed="0"
            traveltime="0.94" CO_perVeh="17.005043" CO2_perVeh="1317.282384" HC_perVeh="0.107401" PMx_perVeh="0.017525" NOx_perVeh="0.501411" fuel_perVeh="0.566249" electricity_perVeh="0"/>
        <edge id=":1105984390_0" sampledSeconds="37.37" CO_abs="11.524579" CO2_abs="1442.628060" HC_abs="0.084837" PMx_abs="0.014996" NOx_abs="0.513295" fuel_abs="0.620132" electricity_abs="0"
            CO_normed="0.703113" CO2_normed="88.014500" HC_normed="0.005176" PMx_normed="0.000915" NOx_normed="0.031316" fuel_normed="0.037834" electricity_normed="0"
            traveltime="1.04" CO_perVeh="0.321628" CO2_perVeh="40.260875" HC_perVeh="0.002368" PMx_perVeh="0.000419" NOx_perVeh="0.014325" fuel_perVeh="0.017307" electricity_perVeh="0"/>
        <edge id=":1105984390_1" sampledSeconds="646.65" CO_abs="14006.370154" CO2_abs="1851259.762157" HC_abs="108.040837" PMx_abs="32.562515" NOx_abs="690.967049" fuel_abs="795.771875" electricity_abs="0"
            CO_normed="817.429603" CO2_normed="108041.877841" HC_normed="6.305401" PMx_normed="1.900390" NOx_normed="40.325717" fuel_normed="46.442260" electricity_normed="0"
            traveltime="0.64" CO_perVeh="13.781989" CO2_perVeh="1821.602682" HC_perVeh="0.106310" PMx_perVeh="0.032041" NOx_perVeh="0.679898" fuel_perVeh="0.783024" electricity_perVeh="0"/>
        <edge id=":1105984395_0" sampledSeconds="14.29" CO_abs="324.393351" CO2_abs="26582.400845" HC_abs="2.080855" PMx_abs="0.343541" NOx_abs="10.030092" fuel_abs="11.426760" electricity_abs="0"
            CO_normed="270.192696" CO2_normed="22140.930239" HC_normed="1.733179" PMx_normed="0.286141" NOx_normed="8.354233" fuel_normed="9.517541" electricity_normed="0"
            traveltime="0.09" CO_perVeh="2.024433" CO2_perVeh="165.892069" HC_perVeh="0.012986" PMx_perVeh="0.002144" NOx_perVeh="0.062595" fuel_perVeh="0.071311" electricity_perVeh="0"/>
        <edge id=":1105984398_0" sampledSeconds="36.47" CO_abs="2599.195491" CO2_abs="182860.832182" HC_abs="16.153712" PMx_abs="3.300557" NOx_abs="75.344433" fuel_abs="78.603747" electricity_abs="0"
            CO_normed="164.741165" CO2_normed="11590.011832" HC_normed="1.023848" PMx_normed="0.209195" NOx_normed="4.775451" fuel_normed="4.982031" electricity_normed="0"
            traveltime="1.07" CO_perVeh="76.268433" CO2_perVeh="5365.702279" HC_perVeh="0.474000" PMx_perVeh="0.096849" NOx_perVeh="2.210839" fuel_perVeh="2.306477" electricity_perVeh="0"/>
        <edge id=":1105984398_1" sampledSeconds="451.50" CO_abs="8558.238034" CO2_abs="1000290.341938" HC_abs="61.863977" PMx_abs="14.316509" NOx_abs="378.216945" fuel_abs="429.982202" electricity_abs="0"
            CO_normed="525.062995" CO2_normed="61369.576393" HC_normed="3.795464" PMx_normed="0.878343" NOx_normed="23.204277" fuel_normed="26.380166" electricity_normed="0"
            traveltime="0.95" CO_perVeh="18.050045" CO2_perVeh="2109.696610" HC_perVeh="0.130476" PMx_perVeh="0.030195" NOx_perVeh="0.797691" fuel_perVeh="0.906869" electricity_perVeh="0"/>
        <edge id=":1106006327_0" sampledSeconds="39.00" CO_abs="5299.082395" CO2_abs="171093.540127" HC_abs="28.157627" PMx_abs="3.580095" NOx_abs="74.953956" fuel_abs="73.547080" electricity_abs="0"
            CO_normed="458.306945" CO2_normed="14797.535103" HC_normed="2.435296" PMx_normed="0.309635" NOx_normed="6.482616" fuel_normed="6.360939" electricity_normed="0"
            traveltime="2.12" CO_perVeh="287.471651" CO2_perVeh="9281.709316" HC_perVeh="1.527532" PMx_perVeh="0.194218" NOx_perVeh="4.066202" fuel_perVeh="3.989880" electricity_perVeh="0"/>
        <edge id=":1106006327_1" sampledSeconds="162.14" CO_abs="21850.892151" CO2_abs="726848.667988" HC_abs="116.618499" PMx_abs="15.141351" NOx_abs="317.967135" fuel_abs="312.446152" electricity_abs="0"
            CO_normed="1648.029396" CO2_normed="54820.094427" HC_normed="8.795555" PMx_normed="1.141985" NOx_normed="23.981592" fuel_normed="23.565191" electricity_normed="0"
            traveltime="2.30" CO_perVeh="310.201576" CO2_perVeh="10318.553637" HC_perVeh="1.655550" PMx_perVeh="0.214951" NOx_perVeh="4.513953" fuel_perVeh="4.435576" electricity_perVeh="0"/>
        <edge id=":1106006327_2" sampledSeconds="0.00" CO_abs="0" CO2_abs="0" HC_abs="0" PMx_abs="0" NOx_abs="0" fuel_abs="0" electricity_abs="0"
            CO_normed="0" CO2_normed="0" HC_normed="0" PMx_normed="0" NOx_normed="0" fuel_normed="0" electricity_normed="0"/>
        <edge id=":1106006327_3" sampledSeconds="0.00" CO_abs="0" CO2_abs="0" HC_abs="0" PMx_abs="0" NOx_abs="0" fuel_abs="0" electricity_abs="0"
            CO_normed="0" CO2_normed="0" HC_normed="0" PMx_normed="0" NOx_normed="0" fuel_normed="0" electricity_normed="0"/>
        <edge id=":1107381198_0" sampledSeconds="0.00" CO_abs="0" CO2_abs="0" HC_abs="0" PMx_abs="0" NOx_abs="0" fuel_abs="0" electricity_abs="0"
            CO_normed="0" CO2_normed="0" HC_normed="0" PMx_normed="0" NOx_normed="0" fuel_normed="0" electricity_normed="0"/>
        <edge id=":1107381198_1" sampledSeconds="36.01" CO_abs="1257.255667" CO2_abs="54840.738392" HC_abs="7.001029" PMx_abs="0.997229" NOx_abs="23.025100" fuel_abs="23.573955" electricity_abs="0"
            CO_normed="105.061538" CO2_normed="4582.721300" HC_normed="0.585035" PMx_normed="0.083333" NOx_normed="1.924074" fuel_normed="1.969938" electricity_normed="0"
            traveltime="1.48" CO_perVeh="51.764702" CO2_perVeh="2257.945272" HC_perVeh="0.288252" PMx_perVeh="0.041059" NOx_perVeh="0.948007" fuel_perVeh="0.970605" electricity_perVeh="0"/>
        <edge id=":1110338277_0" sampledSeconds="96.92" CO_abs="1611.741707" CO2_abs="201806.789249" HC_abs="11.957921" PMx_abs="2.735611" NOx_abs="75.225159" fuel_abs="86.748290" electricity_abs="0"
            CO_normed="4410.896844" CO2_normed="552290.063627" HC_normed="32.725563" PMx_normed="7.486621" NOx_normed="205.870714" fuel_normed="237.406377" electricity_normed="0"
            traveltime="0.02" CO_perVeh="0.363239" CO2_perVeh="45.481258" HC_perVeh="0.002695" PMx_perVeh="0.000617" NOx_perVeh="0.016954" fuel_perVeh="0.019550" electricity_perVeh="0"/>
        <edge id=":1110338293_0" sampledSeconds="124.34" CO_abs="5965.485883" CO2_abs="409985.467284" HC_abs="36.806588" PMx_abs="7.239014" NOx_abs="168.138364" fuel_abs="176.234875" electricity_abs="0"
            CO_normed="15237.511834" CO2_normed="1047217.030099" HC_normed="94.014272" PMx_normed="18.490456" NOx_normed="429.472194" fuel_normed="450.152937" electricity_normed="0"
            traveltime="0.03" CO_perVeh="1.368283" CO2_perVeh="94.036959" HC_perVeh="0.008442" PMx_perVeh="0.001660" NOx_perVeh="0.038565" fuel_perVeh="0.040422" electricity_perVeh="0"/>
        <edge id=":1110338295_0" sampledSeconds="0.00" CO_abs="0" CO2_abs="0" HC_abs="0" PMx_abs="0" NOx_abs="0" fuel_abs="0" electricity_abs="0"
            CO_normed="0" CO2_normed="0" HC_normed="0" PMx_normed="0" NOx_normed="0" fuel_normed="0" electricity_normed="0"/>
        <edge id=":1110673403_0" sampledSeconds="147.59" CO_abs="1955.966094" CO2_abs="264637.112270" HC_abs="14.890948" PMx_abs="3.444000" NOx_abs="97.462850" fuel_abs="113.756517" electricity_abs="0"
            CO_normed="4996.081976" CO2_normed="675956.864035" HC_normed="38.035627" PMx_normed="8.796934" NOx_normed="248.947254" fuel_normed="290.565815" electricity_normed="0"
            traveltime="0.02" CO_perVeh="0.305780" CO2_perVeh="41.371254" HC_perVeh="0.002328" PMx_perVeh="0.000538" NOx_perVeh="0.015237" fuel_perVeh="0.017784" electricity_perVeh="0"/>
        <edge id=":1110673412_0" sampledSeconds="252.89" CO_abs="44954.616578" CO2_abs="3063301.668244" HC_abs="279.670127" PMx_abs="67.374828" NOx_abs="1316.811573" fuel_abs="1316.762474" electricity_abs="0"
            CO_normed="118786.145007" CO2_normed="8094336.552369" HC_normed="738.988312" PMx_normed="178.028347" NOx_normed="3479.486254" fuel_normed="3479.356517" electricity_normed="0"
            traveltime="0.02" CO_perVeh="2.761865" CO2_perVeh="188.199234" HC_perVeh="0.017182" PMx_perVeh="0.004139" NOx_perVeh="0.080901" fuel_perVeh="0.080898" electricity_perVeh="0"/>
        <edge id=":1110673414_0" sampledSeconds="0.00" CO_abs="0" CO2_abs="0" HC_abs="0" PMx_abs="0" NOx_abs="0" fuel_abs="0" electricity_abs="0"
            CO_normed="0" CO2_normed="0" HC_normed="0" PMx_normed="0" NOx_normed="0" fuel_normed="0" electricity_normed="0"/>
        <edge id=":1110673414_1" sampledSeconds="258.27" CO_abs="17793.869171" CO2_abs="671979.363584" HC_abs="96.650835" PMx_abs="12.576215" NOx_abs="284.832811" fuel_abs="288.859914" electricity_abs="0"
            CO_normed="1509.983255" CO2_normed="57023.999490" HC_normed="8.201765" PMx_normed="1.067214" NOx_normed="24.170841" fuel_normed="24.512580" electricity_normed="0"
            traveltime="1.61" CO_perVeh="111.050272" CO2_perVeh="4193.775419" HC_perVeh="0.603191" PMx_perVeh="0.078487" NOx_perVeh="1.777621" fuel_perVeh="1.802754" electricity_perVeh="0"/>
        <edge id=":1110673417_0" sampledSeconds="29.88" CO_abs="647.884743" CO2_abs="69130.429859" HC_abs="4.550466" PMx_abs="0.994447" NOx_abs="26.340358" fuel_abs="29.716254" electricity_abs="0"
            CO_normed="1773.083588" CO2_normed="189191.105252" HC_normed="12.453381" PMx_normed="2.721531" NOx_normed="72.086365" fuel_normed="81.325270" electricity_normed="0"
            traveltime="0.02" CO_perVeh="0.480869" CO2_perVeh="51.309530" HC_perVeh="0.003377" PMx_perVeh="0.000738" NOx_perVeh="0.019550" fuel_perVeh="0.022056" electricity_perVeh="0"/>
        <edge id=":1110673446_0" sampledSeconds="332.35" CO_abs="3878.798710" CO2_abs="304092.187111" HC_abs="24.876858" PMx_abs="5.715765" NOx_abs="125.423745" fuel_abs="130.715125" electricity_abs="0"
            CO_normed="9907.531827" CO2_normed="776736.110118" HC_normed="63.542421" PMx_normed="14.599654" NOx_normed="320.367166" fuel_normed="333.882824" electricity_normed="0"
            traveltime="0.02" CO_perVeh="0.264815" CO2_perVeh="20.761122" HC_perVeh="0.001698" PMx_perVeh="0.000390" NOx_perVeh="0.008563" fuel_perVeh="0.008924" electricity_perVeh="0"/>
        <edge id=":1110673451_0" sampledSeconds="37.87" CO_abs="312.908739" CO2_abs="23973.589996" HC_abs="1.972661" PMx_abs="0.332463" NOx_abs="9.218073" fuel_abs="10.305312" electricity_abs="0"
            CO_normed="888.062264" CO2_normed="68039.137209" HC_normed="5.598583" PMx_normed="0.943559" NOx_normed="26.161695" fuel_normed="29.247373" electricity_normed="0"
            traveltime="0.03" CO_perVeh="0.224397" CO2_perVeh="17.192216" HC_perVeh="0.001415" PMx_perVeh="0.000238" NOx_perVeh="0.006611" fuel_perVeh="0.007390" electricity_perVeh="0"/>
        <edge id=":1110673464_0" sampledSeconds="324.36" CO_abs="719.646113" CO2_abs="58080.063612" HC_abs="4.597419" PMx_abs="0.757118" NOx_abs="21.924247" fuel_abs="24.966406" electricity_abs="0"
            CO_normed="39.054742" CO2_normed="3151.968546" HC_normed="0.249499" PMx_normed="0.041088" NOx_normed="1.189815" fuel_normed="1.354911" electricity_normed="0"
            traveltime="1.17" CO_perVeh="2.601426" CO2_perVeh="209.951767" HC_perVeh="0.016619" PMx_perVeh="0.002737" NOx_perVeh="0.079253" fuel_perVeh="0.090250" electricity_perVeh="0"/>
        <edge id=":1110673464_1" sampledSeconds="717.36" CO_abs="16760.726743" CO2_abs="2171599.049381" HC_abs="128.265573" PMx_abs="38.416184" NOx_abs="813.155629" fuel_abs="933.470903" electricity_abs="0"
            CO_normed="891.288603" CO2_normed="115479.567955" HC_normed="6.820805" PMx_normed="2.042865" NOx_normed="43.241344" fuel_normed="49.639374" electricity_normed="0"
            traveltime="0.70" CO_perVeh="16.344495" CO2_perVeh="2117.670150" HC_perVeh="0.125080" PMx_perVeh="0.037462" NOx_perVeh="0.792962" fuel_perVeh="0.910289" electricity_perVeh="0"/>
        <edge id=":1110673479_0" sampledSeconds="133.26" CO_abs="6743.075190" CO2_abs="473458.868459" HC_abs="41.815480" PMx_abs="8.193779" NOx_abs="192.910416" fuel_abs="203.519470" electricity_abs="0"
            CO_normed="17223.691417" CO2_normed="1209345.768734" HC_normed="106.808378" PMx_normed="20.929193" NOx_normed="492.746911" fuel_normed="519.845391" electricity_normed="0"
            traveltime="0.03" CO_perVeh="1.420492" CO2_perVeh="99.738544" HC_perVeh="0.008809" PMx_perVeh="0.001726" NOx_perVeh="0.040638" fuel_perVeh="0.042873" electricity_perVeh="0"/>
        <edge id=":1110673511_0" sampledSeconds="11.81" CO_abs="112.869663" CO2_abs="17024.123214" HC_abs="0.898013" PMx_abs="0.209317" NOx_abs="6.178412" fuel_abs="7.317973" electricity_abs="0"
            CO_normed="288.300545" CO2_normed="43484.350484" HC_normed="2.293775" PMx_normed="0.534654" NOx_normed="15.781383" fuel_normed="18.692142" electricity_normed="0"
            traveltime="0.02" CO_perVeh="0.223504" CO2_perVeh="33.711135" HC_perVeh="0.001778" PMx_perVeh="0.000414" NOx_perVeh="0.012234" fuel_perVeh="0.014491" electricity_perVeh="0"/>
        <edge id=":1110673517_0" sampledSeconds="17.01" CO_abs="770.224519" CO2_abs="56882.885326" HC_abs="4.842267" PMx_abs="0.974058" NOx_abs="23.048229" fuel_abs="24.451478" electricity_abs="0"
            CO_normed="1967.367864" CO2_normed="145294.726248" HC_normed="12.368498" PMx_normed="2.488015" NOx_normed="58.871595" fuel_normed="62.455882" electricity_normed="0"
            traveltime="0.03" CO_perVeh="1.236646" CO2_perVeh="91.329224" HC_perVeh="0.007775" PMx_perVeh="0.001564" NOx_perVeh="0.037005" fuel_perVeh="0.039258" electricity_perVeh="0"/>
        <edge id=":1110673534_0" sampledSeconds="476.83" CO_abs="2752.650354" CO2_abs="250812.981812" HC_abs="18.239063" PMx_abs="3.289071" NOx_abs="94.416927" fuel_abs="107.814647" electricity_abs="0"
            CO_normed="136.260376" CO2_normed="12415.623759" HC_normed="0.902861" PMx_normed="0.162814" NOx_normed="4.673781" fuel_normed="5.336989" electricity_normed="0"
            traveltime="1.44" CO_perVeh="8.292632" CO2_perVeh="755.598989" HC_perVeh="0.054947" PMx_perVeh="0.009909" NOx_perVeh="0.284440" fuel_perVeh="0.324802" electricity_perVeh="0"/>
        <edge id=":1110673534_1" sampledSeconds="200.05" CO_abs="2927.772757" CO2_abs="371965.996715" HC_abs="21.847405" PMx_abs="5.007576" NOx_abs="138.279754" fuel_abs="159.892643" electricity_abs="0"
            CO_normed="140.923620" CO2_normed="17903.983361" HC_normed="1.051590" PMx_normed="0.241032" NOx_normed="6.655873" fuel_normed="7.696174" electricity_normed="0"
            traveltime="1.22" CO_perVeh="17.896554" CO2_perVeh="2273.711102" HC_perVeh="0.133546" PMx_perVeh="0.030610" NOx_perVeh="0.845261" fuel_perVeh="0.977373" electricity_perVeh="0"/>
        <edge id=":1110673549_0" sampledSeconds="60.31" CO_abs="151.398592" CO2_abs="16358.964668" HC_abs="1.066245" PMx_abs="0.222970" NOx_abs="6.140814" fuel_abs="7.032047" electricity_abs="0"
            CO_normed="7.259965" CO2_normed="784.455889" HC_normed="0.051129" PMx_normed="0.010692" NOx_normed="0.294468" fuel_normed="0.337205" electricity_normed="0"
            traveltime="1.26" CO_perVeh="3.154261" CO2_perVeh="340.825094" HC_perVeh="0.022214" PMx_perVeh="0.004645" NOx_perVeh="0.127939" fuel_perVeh="0.146507" electricity_perVeh="0"/>
        <edge id=":1110673549_1" sampledSeconds="638.53" CO_abs="14662.865209" CO2_abs="1879341.868045" HC_abs="111.562479" PMx_abs="33.288524" NOx_abs="704.857289" fuel_abs="807.842887" electricity_abs="0"
            CO_normed="680.139954" CO2_normed="87173.650796" HC_normed="5.174848" PMx_normed="1.544095" NOx_normed="32.694947" fuel_normed="37.471955" electricity_normed="0"
            traveltime="0.80" CO_perVeh="18.461993" CO2_perVeh="2366.276705" HC_perVeh="0.140468" PMx_perVeh="0.041914" NOx_perVeh="0.887485" fuel_perVeh="1.017154" electricity_perVeh="0"/>
        <edge id=":1110673556_0" sampledSeconds="416.93" CO_abs="51129.093926" CO2_abs="2564411.021296" HC_abs="293.804048" PMx_abs="51.834739" NOx_abs="1105.208777" fuel_abs="1102.329119" electricity_abs="0"
            CO_normed="1818.068785" CO2_normed="91186.353443" HC_normed="10.447202" PMx_normed="1.843160" NOx_normed="39.299456" fuel_normed="39.197060" electricity_normed="0"
            traveltime="2.59" CO_perVeh="317.385015" CO2_perVeh="15918.639798" HC_perVeh="1.823795" PMx_perVeh="0.321765" NOx_perVeh="6.860609" fuel_perVeh="6.842733" electricity_perVeh="0"/>
        <edge id=":1110673556_2" sampledSeconds="247.37" CO_abs="23722.898061" CO2_abs="1023848.388551" HC_abs="132.075517" PMx_abs="19.802654" NOx_abs="436.997936" fuel_abs="440.112072" electricity_abs="0"
            CO_normed="882.021637" CO2_normed="38066.868129" HC_normed="4.910592" PMx_normed="0.736266" NOx_normed="16.247662" fuel_normed="16.363446" electricity_normed="0"
            traveltime="3.00" CO_perVeh="287.754207" CO2_perVeh="12419.084754" HC_perVeh="1.602051" PMx_perVeh="0.240202" NOx_perVeh="5.300701" fuel_perVeh="5.338475" electricity_perVeh="0"/>
        <edge id=":1110673556_3" sampledSeconds="371.78" CO_abs="32023.606352" CO2_abs="1127295.682224" HC_abs="172.054961" PMx_abs="21.572856" NOx_abs="481.183914" fuel_abs="484.585232" electricity_abs="0"
            CO_normed="2708.516772" CO2_normed="95345.265892" HC_normed="14.552194" PMx_normed="1.824605" NOx_normed="40.697937" fuel_normed="40.985616" electricity_normed="0"
            traveltime="1.77" CO_perVeh="152.238912" CO2_perVeh="5359.117464" HC_perVeh="0.817942" PMx_perVeh="0.102556" NOx_perVeh="2.287529" fuel_perVeh="2.303698" electricity_perVeh="0"/>
        <edge id=":1110673556_4" sampledSeconds="178.64" CO_abs="18673.565746" CO2_abs="748826.928092" HC_abs="102.633986" PMx_abs="14.790175" NOx_abs="322.061377" fuel_abs="321.891800" electricity_abs="0"
            CO_normed="964.885083" CO2_normed="38692.767229" HC_normed="5.303219" PMx_normed="0.764226" NOx_normed="16.641290" fuel_normed="16.632528" electricity_normed="0"
            traveltime="2.42" CO_perVeh="252.561816" CO2_perVeh="10127.957960" HC_perVeh="1.388135" PMx_perVeh="0.200039" NOx_perVeh="4.355912" fuel_perVeh="4.353618" electricity_perVeh="0"/>
        <edge id=":1110673556_5" sampledSeconds="24.94" CO_abs="2150.290583" CO2_abs="85951.421224" HC_abs="11.803940" PMx_abs="1.657579" NOx_abs="36.712431" fuel_abs="36.947266" electricity_abs="0"
            CO_normed="154.862053" CO2_normed="6190.146431" HC_normed="0.850109" PMx_normed="0.119377" NOx_normed="2.643997" fuel_normed="2.660910" electricity_normed="0"
            traveltime="1.72" CO_perVeh="148.662065" CO2_perVeh="5942.320480" HC_perVeh="0.816075" PMx_perVeh="0.114598" NOx_perVeh="2.538143" fuel_perVeh="2.554379" electricity_perVeh="0"/>
        <edge id=":1110673556_6" sampledSeconds="311.50" CO_abs="37524.990416" CO2_abs="1906849.733855" HC_abs="216.229645" PMx_abs="38.470368" NOx_abs="820.731515" fuel_abs="819.671782" electricity_abs="0"
            CO_normed="1367.972499" CO2_normed="69514.154877" HC_normed="7.882646" PMx_normed="1.402436" NOx_normed="29.919745" fuel_normed="29.881112" electricity_normed="0"
            traveltime="2.47" CO_perVeh="297.167738" CO2_perVeh="15100.715970" HC_perVeh="1.712365" PMx_perVeh="0.304654" NOx_perVeh="6.499533" fuel_perVeh="6.491141" electricity_perVeh="0"/>
        <edge id=":1110673561_0" sampledSeconds="99.32" CO_abs="10248.489934" CO2_abs="723884.635320" HC_abs="64.135902" PMx_abs="14.845977" NOx_abs="307.542791" fuel_abs="311.163319" electricity_abs="0"
            CO_normed="469.411177" CO2_normed="33156.059174" HC_normed="2.937614" PMx_normed="0.679990" NOx_normed="14.086370" fuel_normed="14.252201" electricity_normed="0"
            traveltime="1.17" CO_perVeh="120.942128" CO2_perVeh="8542.541299" HC_perVeh="0.756866" PMx_perVeh="0.175197" NOx_perVeh="3.629303" fuel_perVeh="3.672029" electricity_perVeh="0"/>
        <edge id=":1110673561_1" sampledSeconds="1309.87" CO_abs="122538.342276" CO2_abs="8484541.510233" HC_abs="763.214782" PMx_abs="177.537820" NOx_abs="3628.543337" fuel_abs="3647.094394" electricity_abs="0"
            CO_normed="5471.976274" CO2_normed="378879.042870" HC_normed="34.081522" PMx_normed="7.927990" NOx_normed="162.033390" fuel_normed="162.861792" electricity_normed="0"
            traveltime="1.19" CO_perVeh="111.172608" CO2_perVeh="7697.579326" HC_perVeh="0.692425" PMx_perVeh="0.161071" NOx_perVeh="3.291987" fuel_perVeh="3.308817" electricity_perVeh="0"/>
        <edge id=":1110673562_0" sampledSeconds="104.84" CO_abs="1820.872306" CO2_abs="149037.077829" HC_abs="11.670468" PMx_abs="1.926399" NOx_abs="56.179545" fuel_abs="64.065360" electricity_abs="0"
            CO_normed="5167.794255" CO2_normed="422980.212370" HC_normed="33.121805" PMx_normed="5.467289" NOx_normed="159.442444" fuel_normed="181.823073" electricity_normed="0"
            traveltime="0.03" CO_perVeh="0.464149" CO2_perVeh="37.990242" HC_perVeh="0.002975" PMx_perVeh="0.000491" NOx_perVeh="0.014320" fuel_perVeh="0.016331" electricity_perVeh="0"/>
        <edge id=":1110673564_0" sampledSeconds="28.96" CO_abs="502.960599" CO2_abs="54194.465345" HC_abs="3.531072" PMx_abs="0.767718" NOx_abs="20.552941" fuel_abs="23.295927" electricity_abs="0"
            CO_normed="3854.104207" CO2_normed="415283.259352" HC_normed="27.058022" PMx_normed="5.882898" NOx_normed="157.493803" fuel_normed="178.512848" electricity_normed="0"
            traveltime="7.960826e-03" CO_perVeh="0.138271" CO2_perVeh="14.898822" HC_perVeh="0.000971" PMx_perVeh="0.000211" NOx_perVeh="0.005650" fuel_perVeh="0.006404" electricity_perVeh="0"/>
        <edge id=":1110673588_0" sampledSeconds="11.84" CO_abs="178.728034" CO2_abs="22002.941673" HC_abs="1.319060" PMx_abs="0.309190" NOx_abs="8.274593" fuel_abs="9.458129" electricity_abs="0"
            CO_normed="547.825390" CO2_normed="67441.966813" HC_normed="4.043096" PMx_normed="0.947708" NOx_normed="25.362738" fuel_normed="28.990434" electricity_normed="0"
            traveltime="0.02" CO_perVeh="0.297880" CO2_perVeh="36.671569" HC_perVeh="0.002198" PMx_perVeh="0.000515" NOx_perVeh="0.013791" fuel_perVeh="0.015764" electricity_perVeh="0"/>
        <edge id=":1110673601_0" sampledSeconds="30.02" CO_abs="590.190714" CO2_abs="65461.868056" HC_abs="4.202843" PMx_abs="0.938754" NOx_abs="24.852714" fuel_abs="28.139285" electricity_abs="0"
            CO_normed="1615.190789" CO2_normed="179151.253575" HC_normed="11.502033" PMx_normed="2.569113" NOx_normed="68.015091" fuel_normed="77.009539" electricity_normed="0"
            traveltime="0.02" CO_perVeh="0.438047" CO2_perVeh="48.586675" HC_perVeh="0.003119" PMx_perVeh="0.000697" NOx_perVeh="0.018446" fuel_perVeh="0.020885" electricity_perVeh="0"/>
        <edge id=":1110673617_0" sampledSeconds="240.84" CO_abs="5963.183929" CO2_abs="727034.029768" HC_abs="44.542171" PMx_abs="13.086908" NOx_abs="274.797628" fuel_abs="312.518446" electricity_abs="0"
            CO_normed="15231.632002" CO2_normed="1857047.330187" HC_normed="113.773105" PMx_normed="33.427607" NOx_normed="701.909649" fuel_normed="798.259122" electricity_normed="0"
            traveltime="0.01" CO_perVeh="0.361931" CO2_perVeh="44.126821" HC_perVeh="0.002703" PMx_perVeh="0.000794" NOx_perVeh="0.016679" fuel_perVeh="0.018968" electricity_perVeh="0"/>
        <edge id=":1110673621_0" sampledSeconds="25.76" CO_abs="566.284503" CO2_abs="57193.379075" HC_abs="3.908978" PMx_abs="0.869522" NOx_abs="22.097538" fuel_abs="24.584973" electricity_abs="0"
            CO_normed="1735.737940" CO2_normed="175305.376474" HC_normed="11.981542" PMx_normed="2.665202" NOx_normed="67.731919" fuel_normed="75.356239" electricity_normed="0"
            traveltime="0.02" CO_perVeh="0.429003" CO2_perVeh="43.328317" HC_perVeh="0.002961" PMx_perVeh="0.000659" NOx_perVeh="0.016741" fuel_perVeh="0.018625" electricity_perVeh="0"/>
        <edge id=":1110673630_0" sampledSeconds="54.54" CO_abs="249.268509" CO2_abs="22387.028983" HC_abs="1.647904" PMx_abs="0.305222" NOx_abs="8.509175" fuel_abs="9.623289" electricity_abs="0"
            CO_normed="13.624134" CO2_normed="1223.595683" HC_normed="0.090069" PMx_normed="0.016682" NOx_normed="0.465081" fuel_normed="0.525975" electricity_normed="0"
            traveltime="1.27" CO_perVeh="5.818368" CO2_perVeh="522.552854" HC_perVeh="0.038465" PMx_perVeh="0.007124" NOx_perVeh="0.198619" fuel_perVeh="0.224625" electricity_perVeh="0"/>
        <edge id=":1110673630_1" sampledSeconds="7.36" CO_abs="11.346100" CO2_abs="798.293497" HC_abs="0.069608" PMx_abs="0.009759" NOx_abs="0.299635" fuel_abs="0.343158" electricity_abs="0"
            CO_normed="0.756029" CO2_normed="53.192970" HC_normed="0.004638" PMx_normed="0.000650" NOx_normed="0.019966" fuel_normed="0.022866" electricity_normed="0"
            traveltime="1.04" CO_perVeh="1.605910" CO2_perVeh="112.989233" HC_perVeh="0.009852" PMx_perVeh="0.001381" NOx_perVeh="0.042410" fuel_perVeh="0.048570" electricity_perVeh="0"/>
        <edge id=":1110673650_0" sampledSeconds="147.17" CO_abs="2329.508852" CO2_abs="289030.477132" HC_abs="17.236711" PMx_abs="3.977494" NOx_abs="108.085977" fuel_abs="124.242034" electricity_abs="0"
            CO_normed="5950.214181" CO2_normed="738264.309406" HC_normed="44.027359" PMx_normed="10.159628" NOx_normed="276.081679" fuel_normed="317.348745" electricity_normed="0"
            traveltime="0.02" CO_perVeh="0.364175" CO2_perVeh="45.184546" HC_perVeh="0.002695" PMx_perVeh="0.000622" NOx_perVeh="0.016897" fuel_perVeh="0.019423" electricity_perVeh="0"/>
        <edge id=":1110673655_0" sampledSeconds="44.73" CO_abs="811.728915" CO2_abs="93315.257234" HC_abs="5.842289" PMx_abs="1.294964" NOx_abs="35.110752" fuel_abs="40.112321" electricity_abs="0"
            CO_normed="2073.381647" CO2_normed="238353.147469" HC_normed="14.922832" PMx_normed="3.307698" NOx_normed="89.682636" fuel_normed="102.458037" electricity_normed="0"
            traveltime="0.02" CO_perVeh="0.434435" CO2_perVeh="49.942094" HC_perVeh="0.003127" PMx_perVeh="0.000693" NOx_perVeh="0.018791" fuel_perVeh="0.021468" electricity_perVeh="0"/>
        <edge id=":1110673663_0" sampledSeconds="108.22" CO_abs="1950.130180" CO2_abs="223957.201166" HC_abs="14.009056" PMx_abs="3.166077" NOx_abs="84.505640" fuel_abs="96.269743" electricity_abs="0"
            CO_normed="91.230319" CO2_normed="10477.088739" HC_normed="0.655367" PMx_normed="0.148114" NOx_normed="3.953314" fuel_normed="4.503658" electricity_normed="0"
            traveltime="1.27" CO_perVeh="22.905260" CO2_perVeh="2630.490005" HC_perVeh="0.164543" PMx_perVeh="0.037187" NOx_perVeh="0.992561" fuel_perVeh="1.130737" electricity_perVeh="0"/>
        <edge id=":1110673663_1" sampledSeconds="154.47" CO_abs="2475.694732" CO2_abs="301059.007274" HC_abs="18.209702" PMx_abs="4.222326" NOx_abs="113.099663" fuel_abs="129.412516" electricity_abs="0"
            CO_normed="115.958685" CO2_normed="14101.256559" HC_normed="0.852921" PMx_normed="0.197769" NOx_normed="5.297458" fuel_normed="6.061533" electricity_normed="0"
            traveltime="1.25" CO_perVeh="20.050726" CO2_perVeh="2438.285989" HC_perVeh="0.147481" PMx_perVeh="0.034197" NOx_perVeh="0.915998" fuel_perVeh="1.048116" electricity_perVeh="0"/>
        <edge id=":1110673666_0" sampledSeconds="208.64" CO_abs="4320.318135" CO2_abs="341341.613029" HC_abs="27.463846" PMx_abs="4.644180" NOx_abs="130.387787" fuel_abs="146.729504" electricity_abs="0"