<?xml version="1.0" encoding="UTF-8"?>

<!-- generated on Tue Nov 10 16:16:20 2020 by Eclipse SUMO sumo Version 1.7.0
<configuration xmlns:xsi="http://www.w3.org/2001/XMLSchema-instance" xsi:noNamespaceSchemaLocation="http://sumo.dlr.de/xsd/sumoConfiguration.xsd">

    <input>
        <net-file value="../dataSets/Porto/8AM9AM_Routing_SaoBento/Porto.net.xml"/>
        <route-files value="../results/Porto/8AM9AM_Routing_SaoBento/cost_co-cost_co2/solution7/Porto.rou.xml"/>
        <additional-files value="moreOutputInfo.xml"/>
    </input>

    <output>
        <emission-output.precision value="6"/>
        <tripinfo-output value="../results/Porto/8AM9AM_Routing_SaoBento/cost_co-cost_co2/solution7/Porto-tripinfo"/>
    </output>

    <processing>
        <collision.action value="warn"/>
        <time-to-teleport value="-1"/>
    </processing>

    <emissions>
        <device.emissions.probability value="1"/>
    </emissions>

    <gui_only>
        <quit-on-end value="true"/>
        <start value="true"/>
    </gui_only>

</configuration>
-->

<meandata xmlns:xsi="http://www.w3.org/2001/XMLSchema-instance" xsi:noNamespaceSchemaLocation="http://sumo.dlr.de/xsd/meandata_file.xsd">
    <interval begin="0.00" end="8562.00" id="emissions-detector">
        <edge id=":1092997347_0" sampledSeconds="597.38" CO_abs="72622.447806" CO2_abs="3097028.042660" HC_abs="403.915807" PMx_abs="62.518979" NOx_abs="1339.304263" fuel_abs="1331.286985" electricity_abs="0"
            CO_normed="69397.764993" CO2_normed="2959509.501172" HC_normed="385.980576" PMx_normed="59.742925" NOx_normed="1279.834615" fuel_normed="1272.173331" electricity_normed="0"
            traveltime="0.07" CO_perVeh="8.306314" CO2_perVeh="354.227763" HC_perVeh="0.046199" PMx_perVeh="0.007151" NOx_perVeh="0.153185" fuel_perVeh="0.152268" electricity_perVeh="0"/>
        <edge id=":1103427051_0" sampledSeconds="19.66" CO_abs="1510.438198" CO2_abs="85273.482852" HC_abs="8.894875" PMx_abs="1.633156" NOx_abs="36.117214" fuel_abs="36.655354" electricity_abs="0"
            CO_normed="2189.940117" CO2_normed="123635.525968" HC_normed="12.896418" PMx_normed="2.367865" NOx_normed="52.365291" fuel_normed="53.145525" electricity_normed="0"
            traveltime="0.03" CO_perVeh="2.348923" CO2_perVeh="132.611058" HC_perVeh="0.013833" PMx_perVeh="0.002540" NOx_perVeh="0.056167" fuel_perVeh="0.057004" electricity_perVeh="0"/>
        <edge id=":1105984386_0" sampledSeconds="10.67" CO_abs="165.458382" CO2_abs="12100.900856" HC_abs="1.024209" PMx_abs="0.139634" NOx_abs="4.474900" fuel_abs="5.201755" electricity_abs="0"
            CO_normed="7.164680" CO2_normed="523.993319" HC_normed="0.044350" PMx_normed="0.006046" NOx_normed="0.193772" fuel_normed="0.225246" electricity_normed="0"
            traveltime="1.02" CO_perVeh="15.872366" CO2_perVeh="1160.835283" HC_perVeh="0.098252" PMx_perVeh="0.013395" NOx_perVeh="0.429276" fuel_perVeh="0.499003" electricity_perVeh="0"/>
        <edge id=":1105984390_0" sampledSeconds="10.63" CO_abs="15.711732" CO2_abs="1009.659820" HC_abs="0.093422" PMx_abs="0.008381" NOx_abs="0.354009" fuel_abs="0.434024" electricity_abs="0"
            CO_normed="0.525971" CO2_normed="33.799690" HC_normed="0.003127" PMx_normed="0.000281" NOx_normed="0.011851" fuel_normed="0.014530" electricity_normed="0"
            traveltime="1.10" CO_perVeh="1.628616" CO2_perVeh="104.657319" HC_perVeh="0.009684" PMx_perVeh="0.000869" NOx_perVeh="0.036695" fuel_perVeh="0.044989" electricity_perVeh="0"/>
        <edge id=":1105984390_1" sampledSeconds="2400.49" CO_abs="64268.430379" CO2_abs="7520456.499430" HC_abs="472.445317" PMx_abs="136.403073" NOx_abs="2869.361785" fuel_abs="3232.696454" electricity_abs="0"
            CO_normed="2058.070485" CO2_normed="240827.875611" HC_normed="15.129135" PMx_normed="4.368041" NOx_normed="91.885686" fuel_normed="103.520766" electricity_normed="0"
            traveltime="0.65" CO_perVeh="17.362242" CO2_perVeh="2031.666023" HC_perVeh="0.127632" PMx_perVeh="0.036850" NOx_perVeh="0.775164" fuel_perVeh="0.873319" electricity_perVeh="0"/>
        <edge id=":1105984395_0" sampledSeconds="4.23" CO_abs="86.088761" CO2_abs="5657.883880" HC_abs="0.517673" PMx_abs="0.062468" NOx_abs="2.082886" fuel_abs="2.432138" electricity_abs="0"
            CO_normed="39.344670" CO2_normed="2585.791359" HC_normed="0.236589" PMx_normed="0.028549" NOx_normed="0.951930" fuel_normed="1.111546" electricity_normed="0"
            traveltime="0.10" CO_perVeh="1.995507" CO2_perVeh="131.147724" HC_perVeh="0.011999" PMx_perVeh="0.001448" NOx_perVeh="0.048281" fuel_perVeh="0.056376" electricity_perVeh="0"/>
        <edge id=":1105984398_0" sampledSeconds="10.78" CO_abs="621.975101" CO2_abs="41190.760263" HC_abs="3.793654" PMx_abs="0.695503" NOx_abs="16.718907" fuel_abs="17.706176" electricity_abs="0"
            CO_normed="21.630869" CO2_normed="1432.520298" HC_normed="0.131935" PMx_normed="0.024188" NOx_normed="0.581445" fuel_normed="0.615780" electricity_normed="0"
            traveltime="1.23" CO_perVeh="70.723353" CO2_perVeh="4683.706249" HC_perVeh="0.431368" PMx_perVeh="0.079084" NOx_perVeh="1.901068" fuel_perVeh="2.013328" electricity_perVeh="0"/>
        <edge id=":1105984398_1" sampledSeconds="645.89" CO_abs="12140.352547" CO2_abs="1413522.222959" HC_abs="87.640748" PMx_abs="20.254542" NOx_abs="534.657019" fuel_abs="607.612983" electricity_abs="0"
            CO_normed="408.692001" CO2_normed="47584.715777" HC_normed="2.950332" PMx_normed="0.681848" NOx_normed="17.998657" fuel_normed="20.454642" electricity_normed="0"
            traveltime="0.95" CO_perVeh="17.882078" CO2_perVeh="2082.041292" HC_perVeh="0.129090" PMx_perVeh="0.029834" NOx_perVeh="0.787521" fuel_perVeh="0.894981" electricity_perVeh="0"/>
        <edge id=":1106006327_0" sampledSeconds="698.35" CO_abs="94713.430212" CO2_abs="3096871.209283" HC_abs="504.207560" PMx_abs="64.711386" NOx_abs="1356.300136" fuel_abs="1331.234821" electricity_abs="0"
            CO_normed="4494.745652" CO2_normed="146965.941079" HC_normed="23.927808" PMx_normed="3.070961" NOx_normed="64.364939" fuel_normed="63.175433" electricity_normed="0"
            traveltime="2.08" CO_perVeh="281.541907" CO2_perVeh="9205.653550" HC_perVeh="1.498790" PMx_perVeh="0.192359" NOx_perVeh="4.031691" fuel_perVeh="3.957183" electricity_perVeh="0"/>
        <edge id=":1106006327_1" sampledSeconds="682.79" CO_abs="92502.494725" CO2_abs="3092510.767979" HC_abs="494.089512" PMx_abs="64.539574" NOx_abs="1353.594899" fuel_abs="1329.358796" electricity_abs="0"
            CO_normed="3828.132972" CO2_normed="127980.790932" HC_normed="20.447452" PMx_normed="2.670913" NOx_normed="56.017314" fuel_normed="55.014324" electricity_normed="0"
            traveltime="2.29" CO_perVeh="310.508485" CO2_perVeh="10380.810116" HC_perVeh="1.658539" PMx_perVeh="0.216644" NOx_perVeh="4.543690" fuel_perVeh="4.462336" electricity_perVeh="0"/>
        <edge id=":1106006327_2" sampledSeconds="0.00" CO_abs="0" CO2_abs="0" HC_abs="0" PMx_abs="0" NOx_abs="0" fuel_abs="0" electricity_abs="0"
            CO_normed="0" CO2_normed="0" HC_normed="0" PMx_normed="0" NOx_normed="0" fuel_normed="0" electricity_normed="0"/>
        <edge id=":1106006327_3" sampledSeconds="0.00" CO_abs="0" CO2_abs="0" HC_abs="0" PMx_abs="0" NOx_abs="0" fuel_abs="0" electricity_abs="0"
            CO_normed="0" CO2_normed="0" HC_normed="0" PMx_normed="0" NOx_normed="0" fuel_normed="0" electricity_normed="0"/>
        <edge id=":1107381198_0" sampledSeconds="0.00" CO_abs="0" CO2_abs="0" HC_abs="0" PMx_abs="0" NOx_abs="0" fuel_abs="0" electricity_abs="0"
            CO_normed="0" CO2_normed="0" HC_normed="0" PMx_normed="0" NOx_normed="0" fuel_normed="0" electricity_normed="0"/>
        <edge id=":1107381198_1" sampledSeconds="103.79" CO_abs="4084.600582" CO2_abs="161794.916529" HC_abs="22.329774" PMx_abs="2.829735" NOx_abs="67.282128" fuel_abs="69.549987" electricity_abs="0"
            CO_normed="187.286958" CO2_normed="7418.614668" HC_normed="1.023864" PMx_normed="0.129749" NOx_normed="3.085018" fuel_normed="3.189003" electricity_normed="0"
            traveltime="1.55" CO_perVeh="61.154303" CO2_perVeh="2422.380134" HC_perVeh="0.334320" PMx_perVeh="0.042367" NOx_perVeh="1.007342" fuel_perVeh="1.041297" electricity_perVeh="0"/>
        <edge id=":1110338277_0" sampledSeconds="160.27" CO_abs="2397.455359" CO2_abs="296485.796476" HC_abs="17.683137" PMx_abs="4.049852" NOx_abs="110.739004" fuel_abs="127.446803" electricity_abs="0"
            CO_normed="3600.143196" CO2_normed="445218.434992" HC_normed="26.553914" PMx_normed="6.081468" NOx_normed="166.291427" fuel_normed="191.380724" electricity_normed="0"
            traveltime="0.02" CO_perVeh="0.324712" CO2_perVeh="40.156155" HC_perVeh="0.002395" PMx_perVeh="0.000549" NOx_perVeh="0.014999" fuel_perVeh="0.017261" electricity_perVeh="0"/>
        <edge id=":1110338293_0" sampledSeconds="6455.37" CO_abs="605601.551041" CO2_abs="10622613.953256" HC_abs="3005.986087" PMx_abs="253.034857" NOx_abs="4798.991881" fuel_abs="4566.482413" electricity_abs="0"
            CO_normed="848775.824865" CO2_normed="14888036.374570" HC_normed="4213.014838" PMx_normed="354.638903" NOx_normed="6725.987220" fuel_normed="6400.115506" electricity_normed="0"
            traveltime="0.43" CO_perVeh="40.488628" CO2_perVeh="710.194783" HC_perVeh="0.200971" PMx_perVeh="0.016917" NOx_perVeh="0.320846" fuel_perVeh="0.305301" electricity_perVeh="0"/>
        <edge id=":1110338295_0" sampledSeconds="0.00" CO_abs="0" CO2_abs="0" HC_abs="0" PMx_abs="0" NOx_abs="0" fuel_abs="0" electricity_abs="0"
            CO_normed="0" CO2_normed="0" HC_normed="0" PMx_normed="0" NOx_normed="0" fuel_normed="0" electricity_normed="0"/>
        <edge id=":1110673403_0" sampledSeconds="200.39" CO_abs="2964.714029" CO2_abs="377858.933840" HC_abs="22.132180" PMx_abs="5.049664" NOx_abs="140.279201" fuel_abs="162.425812" electricity_abs="0"
            CO_normed="4155.170328" CO2_normed="529585.050932" HC_normed="31.019173" PMx_normed="7.077315" NOx_normed="196.607150" fuel_normed="227.646548" electricity_normed="0"
            traveltime="0.02" CO_perVeh="0.342649" CO2_perVeh="43.671333" HC_perVeh="0.002558" PMx_perVeh="0.000584" NOx_perVeh="0.016213" fuel_perVeh="0.018772" electricity_perVeh="0"/>
        <edge id=":1110673412_0" sampledSeconds="938.92" CO_abs="166394.942795" CO2_abs="11355558.365485" HC_abs="1035.565625" PMx_abs="249.615128" NOx_abs="4879.989168" fuel_abs="4881.195160" electricity_abs="0"
            CO_normed="241251.155491" CO2_normed="16464091.581788" HC_normed="1501.436279" PMx_normed="361.909665" NOx_normed="7075.353409" fuel_normed="7077.101941" electricity_normed="0"
            traveltime="0.02" CO_perVeh="2.748706" CO2_perVeh="187.584356" HC_perVeh="0.017107" PMx_perVeh="0.004123" NOx_perVeh="0.080613" fuel_perVeh="0.080633" electricity_perVeh="0"/>
        <edge id=":1110673414_0" sampledSeconds="0.00" CO_abs="0" CO2_abs="0" HC_abs="0" PMx_abs="0" NOx_abs="0" fuel_abs="0" electricity_abs="0"
            CO_normed="0" CO2_normed="0" HC_normed="0" PMx_normed="0" NOx_normed="0" fuel_normed="0" electricity_normed="0"/>
        <edge id=":1110673414_1" sampledSeconds="240.97" CO_abs="18537.739782" CO2_abs="715086.498790" HC_abs="101.046914" PMx_abs="13.346204" NOx_abs="302.776697" fuel_abs="307.389857" electricity_abs="0"
            CO_normed="863.169942" CO2_normed="33296.463263" HC_normed="4.705032" PMx_normed="0.621437" NOx_normed="14.098145" fuel_normed="14.312947" electricity_normed="0"
            traveltime="1.56" CO_perVeh="120.274605" CO2_perVeh="4639.548696" HC_perVeh="0.655602" PMx_perVeh="0.086591" NOx_perVeh="1.964444" fuel_perVeh="1.994374" electricity_perVeh="0"/>
        <edge id=":1110673417_0" sampledSeconds="29.41" CO_abs="402.291616" CO2_abs="47236.402315" HC_abs="2.882857" PMx_abs="0.622936" NOx_abs="17.548554" fuel_abs="20.304990" electricity_abs="0"
            CO_normed="604.101935" CO2_normed="70932.629364" HC_normed="4.329048" PMx_normed="0.935432" NOx_normed="26.351818" fuel_normed="30.491024" electricity_normed="0"
            traveltime="0.02" CO_perVeh="0.306767" CO2_perVeh="36.020024" HC_perVeh="0.002198" PMx_perVeh="0.000475" NOx_perVeh="0.013382" fuel_perVeh="0.015484" electricity_perVeh="0"/>
        <edge id=":1110673446_0" sampledSeconds="1311.07" CO_abs="13526.740545" CO2_abs="1089579.726688" HC_abs="87.411655" PMx_abs="20.039114" NOx_abs="446.157283" fuel_abs="468.360186" electricity_abs="0"
            CO_normed="18958.290884" CO2_normed="1527091.417922" HC_normed="122.511080" PMx_normed="28.085653" NOx_normed="625.308035" fuel_normed="656.426329" electricity_normed="0"
            traveltime="0.02" CO_perVeh="0.234853" CO2_perVeh="18.917398" HC_perVeh="0.001518" PMx_perVeh="0.000348" NOx_perVeh="0.007746" fuel_perVeh="0.008132" electricity_perVeh="0"/>
        <edge id=":1110673451_0" sampledSeconds="36.70" CO_abs="302.984460" CO2_abs="21603.318126" HC_abs="1.867492" PMx_abs="0.273946" NOx_abs="8.155743" fuel_abs="9.286480" electricity_abs="0"
            CO_normed="471.828171" CO2_normed="33642.167914" HC_normed="2.908187" PMx_normed="0.426607" NOx_normed="12.700683" fuel_normed="14.461543" electricity_normed="0"
            traveltime="0.03" CO_perVeh="0.223233" CO2_perVeh="15.916869" HC_perVeh="0.001376" PMx_perVeh="0.000202" NOx_perVeh="0.006009" fuel_perVeh="0.006842" electricity_perVeh="0"/>
        <edge id=":1110673464_0" sampledSeconds="1034.99" CO_abs="4230.067810" CO2_abs="290516.846035" HC_abs="25.952503" PMx_abs="4.394339" NOx_abs="114.395380" fuel_abs="124.881650" electricity_abs="0"
            CO_normed="125.962105" CO2_normed="8650.951977" HC_normed="0.772808" PMx_normed="0.130854" NOx_normed="3.406443" fuel_normed="3.718701" electricity_normed="0"
            traveltime="1.23" CO_perVeh="5.016271" CO2_perVeh="344.512468" HC_perVeh="0.030776" PMx_perVeh="0.005211" NOx_perVeh="0.135657" fuel_perVeh="0.148092" electricity_perVeh="0"/>
        <edge id=":1110673464_1" sampledSeconds="2608.68" CO_abs="64892.416760" CO2_abs="7894949.821682" HC_abs="483.577735" PMx_abs="141.049082" NOx_abs="2995.344950" fuel_abs="3393.675134" electricity_abs="0"
            CO_normed="1893.464840" CO2_normed="230362.970753" HC_normed="14.110084" PMx_normed="4.115604" NOx_normed="87.399740" fuel_normed="99.022426" electricity_normed="0"
            traveltime="0.72" CO_perVeh="17.883952" CO2_perVeh="2175.799700" HC_perVeh="0.133271" PMx_perVeh="0.038872" NOx_perVeh="0.825499" fuel_perVeh="0.935276" electricity_perVeh="0"/>
        <edge id=":1110673479_0" sampledSeconds="134.08" CO_abs="6631.425096" CO2_abs="459545.144968" HC_abs="40.997147" PMx_abs="8.059377" NOx_abs="188.014392" fuel_abs="197.538466" electricity_abs="0"
            CO_normed="9294.218775" CO2_normed="644071.681805" HC_normed="57.459211" PMx_normed="11.295552" NOx_normed="263.510009" fuel_normed="276.858396" electricity_normed="0"
            traveltime="0.03" CO_perVeh="1.401943" CO2_perVeh="97.151999" HC_perVeh="0.008667" PMx_perVeh="0.001704" NOx_perVeh="0.039748" fuel_perVeh="0.041761" electricity_perVeh="0"/>
        <edge id=":1110673511_0" sampledSeconds="63.45" CO_abs="1388.147812" CO2_abs="141013.899277" HC_abs="9.578714" PMx_abs="2.079808" NOx_abs="54.104256" fuel_abs="60.615894" electricity_abs="0"
            CO_normed="1945.547038" CO2_normed="197636.859533" HC_normed="13.424968" PMx_normed="2.914938" NOx_normed="75.829370" fuel_normed="84.955703" electricity_normed="0"
            traveltime="0.02" CO_perVeh="0.532027" CO2_perVeh="54.045570" HC_perVeh="0.003671" PMx_perVeh="0.000797" NOx_perVeh="0.020736" fuel_perVeh="0.023232" electricity_perVeh="0"/>
        <edge id=":1110673517_0" sampledSeconds="182.37" CO_abs="8016.935919" CO2_abs="575182.957741" HC_abs="49.993652" PMx_abs="9.859334" NOx_abs="233.519664" fuel_abs="247.246271" electricity_abs="0"
            CO_normed="11236.069964" CO2_normed="806142.898026" HC_normed="70.068187" PMx_normed="13.818268" NOx_normed="327.287546" fuel_normed="346.525958" electricity_normed="0"
            traveltime="0.03" CO_perVeh="1.227460" CO2_perVeh="88.065358" HC_perVeh="0.007654" PMx_perVeh="0.001510" NOx_perVeh="0.035754" fuel_perVeh="0.037855" electricity_perVeh="0"/>
        <edge id=":1110673534_0" sampledSeconds="659.95" CO_abs="4257.328711" CO2_abs="350793.707072" HC_abs="27.382726" PMx_abs="4.674258" NOx_abs="133.138297" fuel_abs="150.792610" electricity_abs="0"
            CO_normed="115.636118" CO2_normed="9528.139673" HC_normed="0.743760" PMx_normed="0.126961" NOx_normed="3.616257" fuel_normed="4.095778" electricity_normed="0"
            traveltime="1.45" CO_perVeh="9.361232" CO2_perVeh="771.343144" HC_perVeh="0.060211" PMx_perVeh="0.010278" NOx_perVeh="0.292751" fuel_perVeh="0.331571" electricity_perVeh="0"/>
        <edge id=":1110673534_1" sampledSeconds="264.38" CO_abs="4553.495406" CO2_abs="574325.908327" HC_abs="33.843497" PMx_abs="7.760365" NOx_abs="213.795310" fuel_abs="246.878681" electricity_abs="0"
            CO_normed="120.262192" CO2_normed="15168.499514" HC_normed="0.893839" PMx_normed="0.204959" NOx_normed="5.646540" fuel_normed="6.520303" electricity_normed="0"
            traveltime="1.23" CO_perVeh="21.127076" CO2_perVeh="2664.728132" HC_perVeh="0.157025" PMx_perVeh="0.036006" NOx_perVeh="0.991957" fuel_perVeh="1.145455" electricity_perVeh="0"/>
        <edge id=":1110673549_0" sampledSeconds="650.29" CO_abs="1906.222542" CO2_abs="162155.479733" HC_abs="12.476749" PMx_abs="2.631445" NOx_abs="63.968894" fuel_abs="69.703644" electricity_abs="0"
            CO_normed="50.156140" CO2_normed="4266.601991" HC_normed="0.328286" PMx_normed="0.069238" NOx_normed="1.683137" fuel_normed="1.834028" electricity_normed="0"
            traveltime="1.29" CO_perVeh="3.787210" CO2_perVeh="322.164273" HC_perVeh="0.024788" PMx_perVeh="0.005228" NOx_perVeh="0.127091" fuel_perVeh="0.138485" electricity_perVeh="0"/>
        <edge id=":1110673549_1" sampledSeconds="3195.79" CO_abs="70345.586496" CO2_abs="9229977.074905" HC_abs="540.423203" PMx_abs="162.260991" NOx_abs="3451.143441" fuel_abs="3967.544658" electricity_abs="0"
            CO_normed="1790.416573" CO2_normed="234918.844837" HC_normed="13.754703" PMx_normed="4.129822" NOx_normed="87.837556" fuel_normed="100.980858" electricity_normed="0"
            traveltime="0.81" CO_perVeh="17.744397" CO2_perVeh="2328.225296" HC_perVeh="0.136320" PMx_perVeh="0.040930" NOx_perVeh="0.870537" fuel_perVeh="1.000797" electricity_perVeh="0"/>
        <edge id=":1110673556_0" sampledSeconds="461.96" CO_abs="57431.448172" CO2_abs="2781065.284460" HC_abs="327.602146" PMx_abs="56.324026" NOx_abs="1200.139772" fuel_abs="1195.460834" electricity_abs="0"
            CO_normed="1120.546208" CO2_normed="54261.423969" HC_normed="6.391852" PMx_normed="1.098939" NOx_normed="23.415953" fuel_normed="23.324662" electricity_normed="0"
            traveltime="2.72" CO_perVeh="338.552865" CO2_perVeh="16394.112449" HC_perVeh="1.931183" PMx_perVeh="0.332025" NOx_perVeh="7.074709" fuel_perVeh="7.047127" electricity_perVeh="0"/>
        <edge id=":1110673556_2" sampledSeconds="177.11" CO_abs="17581.799755" CO2_abs="749480.155976" HC_abs="97.686030" PMx_abs="14.636287" NOx_abs="320.845997" fuel_abs="322.171947" electricity_abs="0"
            CO_normed="358.684504" CO2_normed="15290.068251" HC_normed="1.992883" PMx_normed="0.298593" NOx_normed="6.545546" fuel_normed="6.572597" electricity_normed="0"
            traveltime="3.06" CO_perVeh="304.014441" CO2_perVeh="12959.582870" HC_perVeh="1.689131" PMx_perVeh="0.253082" NOx_perVeh="5.547886" fuel_perVeh="5.570813" electricity_perVeh="0"/>
        <edge id=":1110673556_3" sampledSeconds="342.17" CO_abs="33583.723566" CO2_abs="1156743.336386" HC_abs="179.952477" PMx_abs="22.808387" NOx_abs="498.051081" fuel_abs="497.243352" electricity_abs="0"
            CO_normed="1558.575791" CO2_normed="53682.914482" HC_normed="8.351354" PMx_normed="1.058507" NOx_normed="23.113886" fuel_normed="23.076400" electricity_normed="0"
            traveltime="1.84" CO_perVeh="180.594090" CO2_perVeh="6220.305212" HC_perVeh="0.967682" PMx_perVeh="0.122650" NOx_perVeh="2.678234" fuel_perVeh="2.673891" electricity_perVeh="0"/>
        <edge id=":1110673556_4" sampledSeconds="90.40" CO_abs="10474.694584" CO2_abs="407004.938458" HC_abs="57.267420" PMx_abs="8.106696" NOx_abs="175.512077" fuel_abs="174.955889" electricity_abs="0"
            CO_normed="296.980200" CO2_normed="11539.468476" HC_normed="1.623655" PMx_normed="0.229842" NOx_normed="4.976146" fuel_normed="4.960377" electricity_normed="0"
            traveltime="2.54" CO_perVeh="293.836721" CO2_perVeh="11417.325384" HC_perVeh="1.606469" PMx_perVeh="0.227409" NOx_perVeh="4.923475" fuel_perVeh="4.907872" electricity_perVeh="0"/>
        <edge id=":1110673556_5" sampledSeconds="23.16" CO_abs="1467.981070" CO2_abs="62930.174057" HC_abs="8.141869" PMx_abs="1.110040" NOx_abs="26.169925" fuel_abs="27.051374" electricity_abs="0"
            CO_normed="58.010433" CO2_normed="2486.821322" HC_normed="0.321743" PMx_normed="0.043866" NOx_normed="1.034161" fuel_normed="1.068993" electricity_normed="0"
            traveltime="1.60" CO_perVeh="101.490049" CO2_perVeh="4350.728083" HC_perVeh="0.562895" PMx_perVeh="0.076744" NOx_perVeh="1.809279" fuel_perVeh="1.870218" electricity_perVeh="0"/>
        <edge id=":1110673556_6" sampledSeconds="216.49" CO_abs="26107.024689" CO2_abs="1307601.305472" HC_abs="149.958850" PMx_abs="26.336376" NOx_abs="562.808597" fuel_abs="562.081299" electricity_abs="0"
            CO_normed="522.218130" CO2_normed="26155.914622" HC_normed="2.999623" PMx_normed="0.526806" NOx_normed="11.257846" fuel_normed="11.243297" electricity_normed="0"
            traveltime="2.52" CO_perVeh="304.212905" CO2_perVeh="15236.864261" HC_perVeh="1.747400" PMx_perVeh="0.306885" NOx_perVeh="6.558144" fuel_perVeh="6.549670" electricity_perVeh="0"/>
        <edge id=":1110673561_0" sampledSeconds="101.96" CO_abs="10358.202739" CO2_abs="735283.528728" HC_abs="64.882119" PMx_abs="14.925895" NOx_abs="311.649482" fuel_abs="316.063322" electricity_abs="0"
            CO_normed="260.324920" CO2_normed="18479.327982" HC_normed="1.630634" PMx_normed="0.375121" NOx_normed="7.832452" fuel_normed="7.943382" electricity_normed="0"
            traveltime="1.20" CO_perVeh="122.236846" CO2_perVeh="8677.059305" HC_perVeh="0.765672" PMx_perVeh="0.176140" NOx_perVeh="3.677766" fuel_perVeh="3.729854" electricity_perVeh="0"/>
        <edge id=":1110673561_1" sampledSeconds="5185.19" CO_abs="481704.936234" CO2_abs="33399983.849039" HC_abs="3001.450094" PMx_abs="697.866415" NOx_abs="14277.038142" fuel_abs="14357.040130" electricity_abs="0"
            CO_normed="11802.964217" CO2_normed="818382.342756" HC_normed="73.542963" PMx_normed="17.099456" NOx_normed="349.822802" fuel_normed="351.783048" electricity_normed="0"
            traveltime="1.19" CO_perVeh="110.696080" CO2_perVeh="7675.336070" HC_perVeh="0.689735" PMx_perVeh="0.160370" NOx_perVeh="3.280872" fuel_perVeh="3.299256" electricity_perVeh="0"/>
        <edge id=":1110673562_0" sampledSeconds="300.71" CO_abs="6840.263760" CO2_abs="524484.799666" HC_abs="43.119506" PMx_abs="7.194358" NOx_abs="201.009696" fuel_abs="225.455702" electricity_abs="0"
            CO_normed="10652.127634" CO2_normed="816763.683978" HC_normed="67.148650" PMx_normed="11.203547" NOx_normed="313.026079" fuel_normed="351.095074" electricity_normed="0"
            traveltime="0.03" CO_perVeh="0.613172" CO2_perVeh="47.015606" HC_perVeh="0.003865" PMx_perVeh="0.000645" NOx_perVeh="0.018019" fuel_perVeh="0.020210" electricity_perVeh="0"/>
        <edge id=":1110673564_0" sampledSeconds="27.89" CO_abs="544.682691" CO2_abs="63754.046622" HC_abs="3.951443" PMx_abs="0.897931" NOx_abs="24.018779" fuel_abs="27.405172" electricity_abs="0"
            CO_normed="2290.186506" CO2_normed="268061.863862" HC_normed="16.614336" PMx_normed="3.775464" NOx_normed="100.989959" fuel_normed="115.228474" electricity_normed="0"
            traveltime="7.878079e-03" CO_perVeh="0.153843" CO2_perVeh="18.007074" HC_perVeh="0.001116" PMx_perVeh="0.000254" NOx_perVeh="0.006784" fuel_perVeh="0.007740" electricity_perVeh="0"/>
        <edge id=":1110673588_0" sampledSeconds="63.02" CO_abs="1100.934147" CO2_abs="128038.931424" HC_abs="7.942639" PMx_abs="1.724167" NOx_abs="47.850878" fuel_abs="55.038642" electricity_abs="0"
            CO_normed="1851.606134" CO2_normed="215342.281302" HC_normed="13.358328" PMx_normed="2.899790" NOx_normed="80.478002" fuel_normed="92.566741" electricity_normed="0"
            traveltime="0.02" CO_perVeh="0.355140" CO2_perVeh="41.302881" HC_perVeh="0.002562" PMx_perVeh="0.000556" NOx_perVeh="0.015436" fuel_perVeh="0.017754" electricity_perVeh="0"/>
        <edge id=":1110673601_0" sampledSeconds="29.05" CO_abs="514.507884" CO2_abs="63637.452869" HC_abs="3.784368" PMx_abs="0.842892" NOx_abs="23.613238" fuel_abs="27.355108" electricity_abs="0"
            CO_normed="772.611698" CO2_normed="95561.296729" HC_normed="5.682803" PMx_normed="1.265730" NOx_normed="35.458862" fuel_normed="41.077848" electricity_normed="0"
            traveltime="0.02" CO_perVeh="0.392337" CO2_perVeh="48.526612" HC_perVeh="0.002886" PMx_perVeh="0.000643" NOx_perVeh="0.018006" fuel_perVeh="0.020860" electricity_perVeh="0"/>
        <edge id=":1110673617_0" sampledSeconds="853.37" CO_abs="33295.457299" CO2_abs="3345610.058983" HC_abs="231.965517" PMx_abs="63.300964" NOx_abs="1314.427684" fuel_abs="1438.120936" electricity_abs="0"
            CO_normed="46664.971688" CO2_normed="4689011.995771" HC_normed="325.109344" PMx_normed="88.718940" NOx_normed="1842.225205" fuel_normed="2015.586455" electricity_normed="0"
            traveltime="0.02" CO_perVeh="0.589137" CO2_perVeh="59.197945" HC_perVeh="0.004104" PMx_perVeh="0.001120" NOx_perVeh="0.023258" fuel_perVeh="0.025446" electricity_perVeh="0"/>
        <edge id=":1110673621_0" sampledSeconds="26.17" CO_abs="830.247475" CO2_abs="78852.065541" HC_abs="5.615974" PMx_abs="1.244807" NOx_abs="30.851609" fuel_abs="33.895073" electricity_abs="0"
            CO_normed="1396.351745" CO2_normed="132617.349193" HC_normed="9.445227" PMx_normed="2.093578" NOx_normed="51.887780" fuel_normed="57.006429" electricity_normed="0"
            traveltime="0.02" CO_perVeh="0.628975" CO2_perVeh="59.736413" HC_perVeh="0.004255" PMx_perVeh="0.000943" NOx_perVeh="0.023372" fuel_perVeh="0.025678" electricity_perVeh="0"/>
        <edge id=":1110673630_0" sampledSeconds="286.82" CO_abs="1255.649209" CO2_abs="108549.049934" HC_abs="8.176725" PMx_abs="1.427872" NOx_abs="40.972875" fuel_abs="46.661010" electricity_abs="0"
            CO_normed="37.657162" CO2_normed="3255.406980" HC_normed="0.245222" PMx_normed="0.042822" NOx_normed="1.228784" fuel_normed="1.399373" electricity_normed="0"
            traveltime="1.29" CO_perVeh="5.649942" CO2_perVeh="488.429267" HC_perVeh="0.036792" PMx_perVeh="0.006425" NOx_perVeh="0.184362" fuel_perVeh="0.209957" electricity_perVeh="0"/>
        <edge id=":1110673630_1" sampledSeconds="337.81" CO_abs="1581.037231" CO2_abs="123662.427629" HC_abs="10.005063" PMx_abs="1.666214" NOx_abs="47.155231" fuel_abs="53.157709" electricity_abs="0"
            CO_normed="57.805816" CO2_normed="4521.340397" HC_normed="0.365805" PMx_normed="0.060920" NOx_normed="1.724088" fuel_normed="1.943550" electricity_normed="0"
            traveltime="1.08" CO_perVeh="5.040036" CO2_perVeh="394.211481" HC_perVeh="0.031894" PMx_perVeh="0.005312" NOx_perVeh="0.150322" fuel_perVeh="0.169456" electricity_perVeh="0"/>
        <edge id=":1110673650_0" sampledSeconds="200.28" CO_abs="2637.648624" CO2_abs="344168.822645" HC_abs="19.864281" PMx_abs="4.615306" NOx_abs="127.645113" fuel_abs="147.943780" electricity_abs="0"
            CO_normed="3696.774525" CO2_normed="482366.955354" HC_normed="27.840618" PMx_normed="6.468544" NOx_normed="178.899949" fuel_normed="207.349376" electricity_normed="0"
            traveltime="0.02" CO_perVeh="0.304848" CO2_perVeh="39.777573" HC_perVeh="0.002296" PMx_perVeh="0.000533" NOx_perVeh="0.014753" fuel_perVeh="0.017099" electricity_perVeh="0"/>
        <edge id=":1110673655_0" sampledSeconds="20.65" CO_abs="335.184266" CO2_abs="39751.171853" HC_abs="2.435540" PMx_abs="0.553858" NOx_abs="14.937705" fuel_abs="17.087354" electricity_abs="0"
            CO_normed="469.774725" CO2_normed="55712.924812" HC_normed="3.413511" PMx_normed="0.776255" NOx_normed="20.935816" fuel_normed="23.948639" electricity_normed="0"
            traveltime="0.02" CO_perVeh="0.382935" CO2_perVeh="45.414202" HC_perVeh="0.002783" PMx_perVeh="0.000633" NOx_perVeh="0.017066" fuel_perVeh="0.019522" electricity_perVeh="0"/>
        <edge id=":1110673663_0" sampledSeconds="111.69" CO_abs="2037.178021" CO2_abs="209572.554679" HC_abs="14.133186" PMx_abs="3.105557" NOx_abs="80.456881" fuel_abs="90.086315" electricity_abs="0"
            CO_normed="52.292856" CO2_normed="5379.572778" HC_normed="0.362788" PMx_normed="0.079717" NOx_normed="2.065269" fuel_normed="2.312449" electricity_normed="0"
            traveltime="1.31" CO_perVeh="23.927617" CO2_perVeh="2461.528522" HC_perVeh="0.166001" PMx_perVeh="0.036476" NOx_perVeh="0.945004" fuel_perVeh="1.058106" electricity_perVeh="0"/>
        <edge id=":1110673663_1" sampledSeconds="170.63" CO_abs="2628.274296" CO2_abs="333431.230319" HC_abs="19.594905" PMx_abs="4.539830" NOx_abs="124.281935" fuel_abs="143.328079" electricity_abs="0"
            CO_normed="67.548338" CO2_normed="8569.396797" HC_normed="0.503602" PMx_normed="0.116677" NOx_normed="3.194126" fuel_normed="3.683624" electricity_normed="0"
            traveltime="1.27" CO_perVeh="19.616691" CO2_perVeh="2488.635797" HC_perVeh="0.146251" PMx_perVeh="0.033884" NOx_perVeh="0.927605" fuel_perVeh="1.069760" electricity_perVeh="0"/>