<?xml version="1.0" encoding="UTF-8"?>

<!-- generated on Tue Nov 10 07:16:58 2020 by Eclipse SUMO sumo Version 1.7.0
<configuration xmlns:xsi="http://www.w3.org/2001/XMLSchema-instance" xsi:noNamespaceSchemaLocation="http://sumo.dlr.de/xsd/sumoConfiguration.xsd">

    <input>
        <net-file value="../dataSets/Porto/8AM9AM_Routing_SaoBento/Porto.net.xml"/>
        <route-files value="../results/Porto/8AM9AM_Routing_SaoBento/cost_co-length/solution24/Porto.rou.xml"/>
        <additional-files value="moreOutputInfo.xml"/>
    </input>

    <output>
        <emission-output.precision value="6"/>
        <tripinfo-output value="../results/Porto/8AM9AM_Routing_SaoBento/cost_co-length/solution24/Porto-tripinfo"/>
    </output>

    <processing>
        <collision.action value="warn"/>
        <time-to-teleport value="-1"/>
    </processing>

    <emissions>
        <device.emissions.probability value="1"/>
    </emissions>

    <gui_only>
        <quit-on-end value="true"/>
        <start value="true"/>
    </gui_only>

</configuration>
-->

<meandata xmlns:xsi="http://www.w3.org/2001/XMLSchema-instance" xsi:noNamespaceSchemaLocation="http://sumo.dlr.de/xsd/meandata_file.xsd">
    <interval begin="0.00" end="9709.00" id="emissions-detector">
        <edge id=":1092997347_0" sampledSeconds="602.51" CO_abs="71833.331487" CO2_abs="3054585.042694" HC_abs="399.347539" PMx_abs="61.827746" NOx_abs="1321.827180" fuel_abs="1313.042401" electricity_abs="0"
            CO_normed="60534.273110" CO2_normed="2574112.621302" HC_normed="336.531976" PMx_normed="52.102521" NOx_normed="1113.909739" fuel_normed="1106.506766" electricity_normed="0"
            traveltime="0.07" CO_perVeh="8.239375" CO2_perVeh="350.364812" HC_perVeh="0.045806" PMx_perVeh="0.007092" NOx_perVeh="0.151615" fuel_perVeh="0.150608" electricity_perVeh="0"/>
        <edge id=":1103427051_0" sampledSeconds="19.21" CO_abs="1558.398497" CO2_abs="90947.568665" HC_abs="9.244546" PMx_abs="1.714410" NOx_abs="38.293732" fuel_abs="39.094399" electricity_abs="0"
            CO_normed="1992.546763" CO2_normed="116284.303293" HC_normed="11.819949" PMx_normed="2.192021" NOx_normed="48.961836" fuel_normed="49.985557" electricity_normed="0"
            traveltime="0.03" CO_perVeh="2.423507" CO2_perVeh="141.434979" HC_perVeh="0.014376" PMx_perVeh="0.002666" NOx_perVeh="0.059552" fuel_perVeh="0.060797" electricity_perVeh="0"/>
        <edge id=":1105984386_0" sampledSeconds="10.37" CO_abs="192.448232" CO2_abs="14760.349890" HC_abs="1.211428" PMx_abs="0.193425" NOx_abs="5.603456" fuel_abs="6.344916" electricity_abs="0"
            CO_normed="7.348906" CO2_normed="563.644693" HC_normed="0.046260" PMx_normed="0.007386" NOx_normed="0.213976" fuel_normed="0.242290" electricity_normed="0"
            traveltime="0.99" CO_perVeh="18.461493" CO2_perVeh="1415.955319" HC_perVeh="0.116212" PMx_perVeh="0.018555" NOx_perVeh="0.537538" fuel_perVeh="0.608666" electricity_perVeh="0"/>
        <edge id=":1105984390_0" sampledSeconds="10.21" CO_abs="0.165928" CO2_abs="31.948104" HC_abs="0.001447" PMx_abs="0.000180" NOx_abs="0.010295" fuel_abs="0.013733" electricity_abs="0"
            CO_normed="0.004898" CO2_normed="0.943156" HC_normed="0.000043" PMx_normed="0.000005" NOx_normed="0.000304" fuel_normed="0.000405" electricity_normed="0"
            traveltime="1.06" CO_perVeh="0.017199" CO2_perVeh="3.311613" HC_perVeh="0.000150" PMx_perVeh="0.000019" NOx_perVeh="0.001067" fuel_perVeh="0.001424" electricity_perVeh="0"/>
        <edge id=":1105984390_1" sampledSeconds="2403.42" CO_abs="61136.423353" CO2_abs="7382696.439140" HC_abs="454.644605" PMx_abs="132.646328" NOx_abs="2802.024355" fuel_abs="3173.480686" electricity_abs="0"
            CO_normed="1726.486955" CO2_normed="208486.666339" HC_normed="12.839122" PMx_normed="3.745920" NOx_normed="79.128909" fuel_normed="89.618802" electricity_normed="0"
            traveltime="0.65" CO_perVeh="16.502689" CO2_perVeh="1992.827517" HC_perVeh="0.122723" PMx_perVeh="0.035806" NOx_perVeh="0.756357" fuel_perVeh="0.856625" electricity_perVeh="0"/>
        <edge id=":1105984395_0" sampledSeconds="4.10" CO_abs="84.824352" CO2_abs="5807.420967" HC_abs="0.517976" PMx_abs="0.077644" NOx_abs="2.223966" fuel_abs="2.496395" electricity_abs="0"
            CO_normed="34.186979" CO2_normed="2340.579951" HC_normed="0.208761" PMx_normed="0.031293" NOx_normed="0.896331" fuel_normed="1.006129" electricity_normed="0"
            traveltime="0.09" CO_perVeh="1.966198" CO2_perVeh="134.613940" HC_perVeh="0.012006" PMx_perVeh="0.001800" NOx_perVeh="0.051551" fuel_perVeh="0.057866" electricity_perVeh="0"/>
        <edge id=":1105984398_0" sampledSeconds="10.97" CO_abs="801.324719" CO2_abs="52583.615179" HC_abs="4.894743" PMx_abs="0.985540" NOx_abs="21.983269" fuel_abs="22.603342" electricity_abs="0"
            CO_normed="24.575946" CO2_normed="1612.694630" HC_normed="0.150118" PMx_normed="0.030226" NOx_normed="0.674208" fuel_normed="0.693225" electricity_normed="0"
            traveltime="1.13" CO_perVeh="82.933566" CO2_perVeh="5442.171689" HC_perVeh="0.506584" PMx_perVeh="0.101999" NOx_perVeh="2.275171" fuel_perVeh="2.339346" electricity_perVeh="0"/>
        <edge id=":1105984398_1" sampledSeconds="645.01" CO_abs="12289.351161" CO2_abs="1434859.195807" HC_abs="88.788243" PMx_abs="20.533967" NOx_abs="542.556903" fuel_abs="616.784846" electricity_abs="0"
            CO_normed="364.833337" CO2_normed="42596.591270" HC_normed="2.635852" PMx_normed="0.609591" NOx_normed="16.106859" fuel_normed="18.310460" electricity_normed="0"
            traveltime="0.95" CO_perVeh="18.156720" CO2_perVeh="2119.911458" HC_perVeh="0.131179" PMx_perVeh="0.030338" NOx_perVeh="0.801593" fuel_perVeh="0.911260" electricity_perVeh="0"/>
        <edge id=":1106006327_0" sampledSeconds="67.56" CO_abs="9135.909981" CO2_abs="296447.559465" HC_abs="48.578608" PMx_abs="6.189604" NOx_abs="129.793472" fuel_abs="127.432333" electricity_abs="0"
            CO_normed="382.336790" CO2_normed="12406.296525" HC_normed="2.033009" PMx_normed="0.259034" NOx_normed="5.431842" fuel_normed="5.333029" electricity_normed="0"
            traveltime="2.09" CO_perVeh="283.209693" CO2_perVeh="9189.760249" HC_perVeh="1.505918" PMx_perVeh="0.191875" NOx_perVeh="4.023548" fuel_perVeh="3.950353" electricity_perVeh="0"/>
        <edge id=":1106006327_1" sampledSeconds="684.38" CO_abs="92861.986084" CO2_abs="3101223.003110" HC_abs="495.937612" PMx_abs="64.764625" NOx_abs="1357.652842" fuel_abs="1333.103894" electricity_abs="0"
            CO_normed="3389.005391" CO2_normed="113179.374231" HC_normed="18.099282" PMx_normed="2.363590" NOx_normed="49.547646" fuel_normed="48.651730" electricity_normed="0"
            traveltime="2.30" CO_perVeh="311.715210" CO2_perVeh="10410.054981" HC_perVeh="1.664743" PMx_perVeh="0.217399" NOx_perVeh="4.557312" fuel_perVeh="4.474907" electricity_perVeh="0"/>
        <edge id=":1106006327_2" sampledSeconds="0.00" CO_abs="0" CO2_abs="0" HC_abs="0" PMx_abs="0" NOx_abs="0" fuel_abs="0" electricity_abs="0"
            CO_normed="0" CO2_normed="0" HC_normed="0" PMx_normed="0" NOx_normed="0" fuel_normed="0" electricity_normed="0"/>
        <edge id=":1106006327_3" sampledSeconds="0.00" CO_abs="0" CO2_abs="0" HC_abs="0" PMx_abs="0" NOx_abs="0" fuel_abs="0" electricity_abs="0"
            CO_normed="0" CO2_normed="0" HC_normed="0" PMx_normed="0" NOx_normed="0" fuel_normed="0" electricity_normed="0"/>
        <edge id=":1107381198_0" sampledSeconds="0.00" CO_abs="0" CO2_abs="0" HC_abs="0" PMx_abs="0" NOx_abs="0" fuel_abs="0" electricity_abs="0"
            CO_normed="0" CO2_normed="0" HC_normed="0" PMx_normed="0" NOx_normed="0" fuel_normed="0" electricity_normed="0"/>
        <edge id=":1107381198_1" sampledSeconds="102.74" CO_abs="4527.650875" CO2_abs="179047.196187" HC_abs="24.737627" PMx_abs="3.093274" NOx_abs="74.194267" fuel_abs="76.966206" electricity_abs="0"
            CO_normed="183.076076" CO2_normed="7239.793658" HC_normed="1.000269" PMx_normed="0.125077" NOx_normed="3.000054" fuel_normed="3.112137" electricity_normed="0"
            traveltime="1.54" CO_perVeh="67.787615" CO2_perVeh="2680.679841" HC_perVeh="0.370370" PMx_perVeh="0.046312" NOx_perVeh="1.110830" fuel_perVeh="1.152332" electricity_perVeh="0"/>
        <edge id=":1110338277_0" sampledSeconds="160.22" CO_abs="2697.548430" CO2_abs="327715.519444" HC_abs="19.718890" PMx_abs="4.503830" NOx_abs="122.649062" fuel_abs="140.871134" electricity_abs="0"
            CO_normed="3572.228399" CO2_normed="433977.263363" HC_normed="26.112739" PMx_normed="5.964197" NOx_normed="162.418016" fuel_normed="186.548593" electricity_normed="0"
            traveltime="0.02" CO_perVeh="0.365753" CO2_perVeh="44.433991" HC_perVeh="0.002674" PMx_perVeh="0.000611" NOx_perVeh="0.016630" fuel_perVeh="0.019100" electricity_perVeh="0"/>
        <edge id=":1110338293_0" sampledSeconds="6504.06" CO_abs="611291.329260" CO2_abs="10709221.249961" HC_abs="3033.971974" PMx_abs="255.509812" NOx_abs="4841.046652" fuel_abs="4603.713415" electricity_abs="0"
            CO_normed="755535.683501" CO2_normed="13236240.086470" HC_normed="3749.888113" PMx_normed="315.801601" NOx_normed="5983.372110" fuel_normed="5690.036150" electricity_normed="0"
            traveltime="0.43" CO_perVeh="40.867276" CO2_perVeh="715.954373" HC_perVeh="0.202833" PMx_perVeh="0.017082" NOx_perVeh="0.323643" fuel_perVeh="0.307777" electricity_perVeh="0"/>
        <edge id=":1110338295_0" sampledSeconds="0.00" CO_abs="0" CO2_abs="0" HC_abs="0" PMx_abs="0" NOx_abs="0" fuel_abs="0" electricity_abs="0"
            CO_normed="0" CO2_normed="0" HC_normed="0" PMx_normed="0" NOx_normed="0" fuel_normed="0" electricity_normed="0"/>
        <edge id=":1110673403_0" sampledSeconds="200.97" CO_abs="2964.126906" CO2_abs="373780.913370" HC_abs="22.075188" PMx_abs="5.074671" NOx_abs="139.345952" fuel_abs="160.672744" electricity_abs="0"
            CO_normed="3663.561939" CO2_normed="461980.735446" HC_normed="27.284196" PMx_normed="6.272124" NOx_normed="172.226947" fuel_normed="198.586150" electricity_normed="0"
            traveltime="0.02" CO_perVeh="0.342583" CO2_perVeh="43.200215" HC_perVeh="0.002551" PMx_perVeh="0.000587" NOx_perVeh="0.016105" fuel_perVeh="0.018570" electricity_perVeh="0"/>
        <edge id=":1110673412_0" sampledSeconds="962.49" CO_abs="169024.786794" CO2_abs="11556338.597319" HC_abs="1052.433706" PMx_abs="253.706910" NOx_abs="4963.756956" fuel_abs="4967.500966" electricity_abs="0"
            CO_normed="216112.754414" CO2_normed="14775774.681277" HC_normed="1345.627179" PMx_normed="324.386146" NOx_normed="6346.590984" fuel_normed="6351.378024" electricity_normed="0"
            traveltime="0.02" CO_perVeh="2.729980" CO2_perVeh="186.650598" HC_perVeh="0.016998" PMx_perVeh="0.004098" NOx_perVeh="0.080171" fuel_perVeh="0.080232" electricity_perVeh="0"/>
        <edge id=":1110673414_0" sampledSeconds="0.00" CO_abs="0" CO2_abs="0" HC_abs="0" PMx_abs="0" NOx_abs="0" fuel_abs="0" electricity_abs="0"
            CO_normed="0" CO2_normed="0" HC_normed="0" PMx_normed="0" NOx_normed="0" fuel_normed="0" electricity_normed="0"/>
        <edge id=":1110673414_1" sampledSeconds="243.02" CO_abs="16811.342709" CO2_abs="649712.309334" HC_abs="91.677669" PMx_abs="12.188754" NOx_abs="275.523535" fuel_abs="279.287729" electricity_abs="0"
            CO_normed="690.307594" CO2_normed="26678.496104" HC_normed="3.764470" PMx_normed="0.500495" NOx_normed="11.313551" fuel_normed="11.468117" electricity_normed="0"
            traveltime="1.58" CO_perVeh="109.073578" CO2_perVeh="4215.394785" HC_perVeh="0.594813" PMx_perVeh="0.079082" NOx_perVeh="1.787623" fuel_perVeh="1.812045" electricity_perVeh="0"/>
        <edge id=":1110673417_0" sampledSeconds="28.96" CO_abs="425.624792" CO2_abs="54823.573135" HC_abs="3.192595" PMx_abs="0.717000" NOx_abs="20.270582" fuel_abs="23.566389" electricity_abs="0"
            CO_normed="563.633613" CO2_normed="72600.114506" HC_normed="4.227794" PMx_normed="0.949488" NOx_normed="26.843317" fuel_normed="31.207790" electricity_normed="0"
            traveltime="0.02" CO_perVeh="0.324559" CO2_perVeh="41.805606" HC_perVeh="0.002435" PMx_perVeh="0.000547" NOx_perVeh="0.015457" fuel_perVeh="0.017971" electricity_perVeh="0"/>
        <edge id=":1110673446_0" sampledSeconds="1325.75" CO_abs="14131.036695" CO2_abs="1165899.696254" HC_abs="91.875736" PMx_abs="21.100903" NOx_abs="474.724535" fuel_abs="501.166898" electricity_abs="0"
            CO_normed="17465.489787" CO2_normed="1441013.117216" HC_normed="113.555344" PMx_normed="26.080013" NOx_normed="586.743683" fuel_normed="619.425562" electricity_normed="0"
            traveltime="0.02" CO_perVeh="0.242460" CO2_perVeh="20.004455" HC_perVeh="0.001576" PMx_perVeh="0.000362" NOx_perVeh="0.008145" fuel_perVeh="0.008599" electricity_perVeh="0"/>
        <edge id=":1110673451_0" sampledSeconds="36.69" CO_abs="336.624543" CO2_abs="24179.847801" HC_abs="2.079413" PMx_abs="0.308620" NOx_abs="9.135121" fuel_abs="10.394032" electricity_abs="0"
            CO_normed="462.285224" CO2_normed="33206.094415" HC_normed="2.855650" PMx_normed="0.423826" NOx_normed="12.545227" fuel_normed="14.274085" electricity_normed="0"
            traveltime="0.03" CO_perVeh="0.248018" CO2_perVeh="17.815202" HC_perVeh="0.001532" PMx_perVeh="0.000227" NOx_perVeh="0.006731" fuel_perVeh="0.007658" electricity_perVeh="0"/>
        <edge id=":1110673464_0" sampledSeconds="1029.78" CO_abs="3965.058774" CO2_abs="286953.801766" HC_abs="24.620670" PMx_abs="4.091764" NOx_abs="111.181721" fuel_abs="123.350256" electricity_abs="0"
            CO_normed="104.122103" CO2_normed="7535.382217" HC_normed="0.646537" PMx_normed="0.107449" NOx_normed="2.919622" fuel_normed="3.239167" electricity_normed="0"
            traveltime="1.22" CO_perVeh="4.702005" CO2_perVeh="340.287049" HC_perVeh="0.029197" PMx_perVeh="0.004852" NOx_perVeh="0.131846" fuel_perVeh="0.146276" electricity_perVeh="0"/>
        <edge id=":1110673464_1" sampledSeconds="2605.47" CO_abs="66031.471505" CO2_abs="7915108.998351" HC_abs="489.425616" PMx_abs="142.103051" NOx_abs="3010.365957" fuel_abs="3402.340130" electricity_abs="0"
            CO_normed="1699.084564" CO2_normed="203667.118378" HC_normed="12.593624" PMx_normed="3.656516" NOx_normed="77.461038" fuel_normed="87.547096" electricity_normed="0"
            traveltime="0.72" CO_perVeh="18.212758" CO2_perVeh="2183.140328" HC_perVeh="0.134993" PMx_perVeh="0.039195" NOx_perVeh="0.830317" fuel_perVeh="0.938431" electricity_perVeh="0"/>
        <edge id=":1110673479_0" sampledSeconds="134.61" CO_abs="6382.292516" CO2_abs="442364.989028" HC_abs="39.432049" PMx_abs="7.620079" NOx_abs="180.113025" fuel_abs="190.153672" electricity_abs="0"
            CO_normed="7888.300566" CO2_normed="546748.364233" HC_normed="48.736696" PMx_normed="9.418164" NOx_normed="222.613689" fuel_normed="235.023593" electricity_normed="0"
            traveltime="0.03" CO_perVeh="1.349274" CO2_perVeh="93.519958" HC_perVeh="0.008336" PMx_perVeh="0.001611" NOx_perVeh="0.038078" fuel_perVeh="0.040200" electricity_perVeh="0"/>
        <edge id=":1110673511_0" sampledSeconds="63.56" CO_abs="1067.391521" CO2_abs="115933.631747" HC_abs="7.512491" PMx_abs="1.597235" NOx_abs="43.694591" fuel_abs="49.835065" electricity_abs="0"
            CO_normed="1319.260300" CO2_normed="143290.100007" HC_normed="9.285189" PMx_normed="1.974130" NOx_normed="54.005057" fuel_normed="61.594477" electricity_normed="0"
            traveltime="0.02" CO_perVeh="0.409093" CO2_perVeh="44.433203" HC_perVeh="0.002879" PMx_perVeh="0.000612" NOx_perVeh="0.016747" fuel_perVeh="0.019100" electricity_perVeh="0"/>
        <edge id=":1110673517_0" sampledSeconds="181.63" CO_abs="8858.891636" CO2_abs="630972.336194" HC_abs="55.155931" PMx_abs="10.935128" NOx_abs="257.005456" fuel_abs="271.227578" electricity_abs="0"
            CO_normed="10949.294431" CO2_normed="779860.751296" HC_normed="68.170890" PMx_normed="13.515453" NOx_normed="317.650167" fuel_normed="335.228235" electricity_normed="0"
            traveltime="0.03" CO_perVeh="1.356368" CO2_perVeh="96.606972" HC_perVeh="0.008445" PMx_perVeh="0.001674" NOx_perVeh="0.039350" fuel_perVeh="0.041527" electricity_perVeh="0"/>
        <edge id=":1110673534_0" sampledSeconds="736.36" CO_abs="5519.058220" CO2_abs="454813.279474" HC_abs="35.546130" PMx_abs="6.299934" NOx_abs="174.129446" fuel_abs="195.506227" electricity_abs="0"
            CO_normed="132.197128" CO2_normed="10894.070461" HC_normed="0.851431" PMx_normed="0.150901" NOx_normed="4.170895" fuel_normed="4.682930" electricity_normed="0"
            traveltime="1.45" CO_perVeh="10.884496" CO2_perVeh="896.967040" HC_perVeh="0.070103" PMx_perVeh="0.012425" NOx_perVeh="0.343412" fuel_perVeh="0.385571" electricity_perVeh="0"/>
        <edge id=":1110673534_1" sampledSeconds="199.64" CO_abs="3256.151593" CO2_abs="426014.921630" HC_abs="24.529309" PMx_abs="5.691371" NOx_abs="157.909369" fuel_abs="183.126011" electricity_abs="0"
            CO_normed="75.838468" CO2_normed="9922.240450" HC_normed="0.571308" PMx_normed="0.132557" NOx_normed="3.677840" fuel_normed="4.265157" electricity_normed="0"
            traveltime="1.22" CO_perVeh="19.903830" CO2_perVeh="2604.095174" HC_perVeh="0.149940" PMx_perVeh="0.034790" NOx_perVeh="0.965250" fuel_perVeh="1.119392" electricity_perVeh="0"/>
        <edge id=":1110673549_0" sampledSeconds="655.02" CO_abs="1286.806162" CO2_abs="135421.085082" HC_abs="8.929000" PMx_abs="1.824216" NOx_abs="50.472543" fuel_abs="58.212038" electricity_abs="0"
            CO_normed="29.858250" CO2_normed="3142.226696" HC_normed="0.207183" PMx_normed="0.042328" NOx_normed="1.171134" fuel_normed="1.350716" electricity_normed="0"
            traveltime="1.30" CO_perVeh="2.556578" CO2_perVeh="269.049520" HC_perVeh="0.017740" PMx_perVeh="0.003624" NOx_perVeh="0.100277" fuel_perVeh="0.115653" electricity_perVeh="0"/>
        <edge id=":1110673549_1" sampledSeconds="3197.94" CO_abs="70194.353857" CO2_abs="9248446.614073" HC_abs="540.062042" PMx_abs="162.380367" NOx_abs="3455.598810" fuel_abs="3975.484029" electricity_abs="0"
            CO_normed="1575.506275" CO2_normed="207580.594143" HC_normed="12.121646" PMx_normed="3.644613" NOx_normed="77.560620" fuel_normed="89.229399" electricity_normed="0"
            traveltime="0.81" CO_perVeh="17.706968" CO2_perVeh="2332.978893" HC_perVeh="0.136234" PMx_perVeh="0.040961" NOx_perVeh="0.871697" fuel_perVeh="1.002841" electricity_perVeh="0"/>
        <edge id=":1110673556_0" sampledSeconds="464.94" CO_abs="56999.575377" CO2_abs="2746243.637652" HC_abs="324.755695" PMx_abs="55.383575" NOx_abs="1183.477935" fuel_abs="1180.493117" electricity_abs="0"
            CO_normed="980.736515" CO2_normed="47251.955791" HC_normed="5.587757" PMx_normed="0.952932" NOx_normed="20.362959" fuel_normed="20.311602" electricity_normed="0"
            traveltime="2.74" CO_perVeh="336.007016" CO2_perVeh="16188.842189" HC_perVeh="1.914404" PMx_perVeh="0.326481" NOx_perVeh="6.976489" fuel_perVeh="6.958893" electricity_perVeh="0"/>
        <edge id=":1110673556_2" sampledSeconds="178.07" CO_abs="17669.727385" CO2_abs="744267.110872" HC_abs="97.940561" PMx_abs="14.444944" NOx_abs="318.004875" fuel_abs="319.931385" electricity_abs="0"
            CO_normed="317.892189" CO2_normed="13389.946318" HC_normed="1.762027" PMx_normed="0.259876" NOx_normed="5.721156" fuel_normed="5.755815" electricity_normed="0"
            traveltime="3.08" CO_perVeh="305.534836" CO2_perVeh="12869.441871" HC_perVeh="1.693532" PMx_perVeh="0.249774" NOx_perVeh="5.498759" fuel_perVeh="5.532071" electricity_perVeh="0"/>
        <edge id=":1110673556_3" sampledSeconds="238.29" CO_abs="26084.921928" CO2_abs="904001.500956" HC_abs="139.963590" PMx_abs="18.120968" NOx_abs="391.107327" fuel_abs="388.597923" electricity_abs="0"
            CO_normed="1067.552749" CO2_normed="36997.208201" HC_normed="5.728157" PMx_normed="0.741620" NOx_normed="16.006477" fuel_normed="15.903777" electricity_normed="0"
            traveltime="1.86" CO_perVeh="203.725210" CO2_perVeh="7060.319988" HC_perVeh="1.093126" PMx_perVeh="0.141526" NOx_perVeh="3.054578" fuel_perVeh="3.034979" electricity_perVeh="0"/>
        <edge id=":1110673556_4" sampledSeconds="49.24" CO_abs="5456.847324" CO2_abs="214124.635183" HC_abs="29.882453" PMx_abs="4.253627" NOx_abs="92.263981" fuel_abs="92.043979" electricity_abs="0"
            CO_normed="136.435897" CO2_normed="5353.693261" HC_normed="0.747142" PMx_normed="0.106352" NOx_normed="2.306848" fuel_normed="2.301348" electricity_normed="0"
            traveltime="2.49" CO_perVeh="275.536418" CO2_perVeh="10811.945318" HC_perVeh="1.508876" PMx_perVeh="0.214781" NOx_perVeh="4.658750" fuel_perVeh="4.647641" electricity_perVeh="0"/>
        <edge id=":1110673556_5" sampledSeconds="22.18" CO_abs="1264.676150" CO2_abs="57846.540924" HC_abs="7.104286" PMx_abs="1.037500" NOx_abs="24.166409" fuel_abs="24.866008" electricity_abs="0"
            CO_normed="44.072298" CO2_normed="2015.875776" HC_normed="0.247575" PMx_normed="0.036155" NOx_normed="0.842168" fuel_normed="0.866548" electricity_normed="0"
            traveltime="1.53" CO_perVeh="87.434400" CO2_perVeh="3999.267027" HC_perVeh="0.491161" PMx_perVeh="0.071728" NOx_perVeh="1.670764" fuel_perVeh="1.719131" electricity_perVeh="0"/>
        <edge id=":1110673556_6" sampledSeconds="207.60" CO_abs="24643.609865" CO2_abs="1261793.456494" HC_abs="142.242734" PMx_abs="25.472792" NOx_abs="542.932604" fuel_abs="542.389981" electricity_abs="0"
            CO_normed="434.709982" CO2_normed="22257.867813" HC_normed="2.509143" PMx_normed="0.449337" NOx_normed="9.577259" fuel_normed="9.567687" electricity_normed="0"
            traveltime="2.42" CO_perVeh="287.160419" CO2_perVeh="14703.086898" HC_perVeh="1.657488" PMx_perVeh="0.296822" NOx_perVeh="6.326539" fuel_perVeh="6.320216" electricity_perVeh="0"/>
        <edge id=":1110673561_0" sampledSeconds="161.61" CO_abs="17037.862566" CO2_abs="1199054.439062" HC_abs="106.479870" PMx_abs="24.520758" NOx_abs="509.458917" fuel_abs="515.416156" electricity_abs="0"
            CO_normed="377.613202" CO2_normed="26574.858450" HC_normed="2.359932" PMx_normed="0.543458" NOx_normed="11.291229" fuel_normed="11.423261" electricity_normed="0"
            traveltime="1.19" CO_perVeh="125.815654" CO2_perVeh="8854.386409" HC_perVeh="0.786298" PMx_perVeh="0.181073" NOx_perVeh="3.762086" fuel_perVeh="3.806077" electricity_perVeh="0"/>
        <edge id=":1110673561_1" sampledSeconds="5242.60" CO_abs="490397.467171" CO2_abs="34016251.692947" HC_abs="3055.752659" PMx_abs="710.551935" NOx_abs="14538.684025" fuel_abs="14621.944066" electricity_abs="0"
            CO_normed="10596.414411" CO2_normed="735016.642181" HC_normed="66.028117" PMx_normed="15.353470" NOx_normed="314.149096" fuel_normed="315.948163" electricity_normed="0"
            traveltime="1.19" CO_perVeh="111.343401" CO2_perVeh="7723.296740" HC_perVeh="0.693800" PMx_perVeh="0.161329" NOx_perVeh="3.300968" fuel_perVeh="3.319872" electricity_perVeh="0"/>
        <edge id=":1110673562_0" sampledSeconds="300.93" CO_abs="6765.312566" CO2_abs="513331.835088" HC_abs="42.526760" PMx_abs="7.075707" NOx_abs="197.016322" fuel_abs="220.661476" electricity_abs="0"
            CO_normed="9290.778406" CO2_normed="704956.686357" HC_normed="58.401840" PMx_normed="9.717042" NOx_normed="270.561776" fuel_normed="303.033578" electricity_normed="0"
            traveltime="0.03" CO_perVeh="0.606452" CO2_perVeh="46.015802" HC_perVeh="0.003812" PMx_perVeh="0.000634" NOx_perVeh="0.017661" fuel_perVeh="0.019780" electricity_perVeh="0"/>
        <edge id=":1110673564_0" sampledSeconds="27.92" CO_abs="399.385075" CO2_abs="46517.436913" HC_abs="2.881072" PMx_abs="0.649966" NOx_abs="17.488270" fuel_abs="19.995890" electricity_abs="0"
            CO_normed="1480.879876" CO2_normed="172481.999061" HC_normed="10.682728" PMx_normed="2.410008" NOx_normed="64.844754" fuel_normed="74.142757" electricity_normed="0"
            traveltime="7.885717e-03" CO_perVeh="0.112805" CO2_perVeh="13.138663" HC_perVeh="0.000814" PMx_perVeh="0.000184" NOx_perVeh="0.004939" fuel_perVeh="0.005648" electricity_perVeh="0"/>
        <edge id=":1110673588_0" sampledSeconds="63.09" CO_abs="1075.844619" CO2_abs="120480.930539" HC_abs="7.660053" PMx_abs="1.664342" NOx_abs="45.358849" fuel_abs="51.789733" electricity_abs="0"
            CO_normed="1595.649656" CO2_normed="178692.491479" HC_normed="11.361083" PMx_normed="2.468486" NOx_normed="67.274428" fuel_normed="76.812458" electricity_normed="0"
            traveltime="0.02" CO_perVeh="0.347047" CO2_perVeh="38.864816" HC_perVeh="0.002471" PMx_perVeh="0.000537" NOx_perVeh="0.014632" fuel_perVeh="0.016706" electricity_perVeh="0"/>
        <edge id=":1110673601_0" sampledSeconds="28.79" CO_abs="446.464200" CO2_abs="52666.929341" HC_abs="3.237461" PMx_abs="0.728864" NOx_abs="19.752559" fuel_abs="22.639304" electricity_abs="0"
            CO_normed="591.230199" CO2_normed="69744.179049" HC_normed="4.287207" PMx_normed="0.965199" NOx_normed="26.157325" fuel_normed="29.980098" electricity_normed="0"
            traveltime="0.02" CO_perVeh="0.340450" CO2_perVeh="40.161062" HC_perVeh="0.002469" PMx_perVeh="0.000556" NOx_perVeh="0.015062" fuel_perVeh="0.017264" electricity_perVeh="0"/>
        <edge id=":1110673617_0" sampledSeconds="853.07" CO_abs="30788.970177" CO2_abs="3163097.282798" HC_abs="216.085968" PMx_abs="59.397744" NOx_abs="1237.308699" fuel_abs="1359.667596" electricity_abs="0"
            CO_normed="38054.139677" CO2_normed="3909482.685505" HC_normed="267.075045" PMx_normed="73.413629" NOx_normed="1529.272261" fuel_normed="1680.503776" electricity_normed="0"
            traveltime="0.02" CO_perVeh="0.545897" CO2_perVeh="56.082607" HC_perVeh="0.003831" PMx_perVeh="0.001053" NOx_perVeh="0.021938" fuel_perVeh="0.024107" electricity_perVeh="0"/>
        <edge id=":1110673621_0" sampledSeconds="42.10" CO_abs="1203.191931" CO2_abs="108429.768698" HC_abs="8.008427" PMx_abs="1.759470" NOx_abs="42.824944" fuel_abs="46.609210" electricity_abs="0"
            CO_normed="1784.526090" CO2_normed="160818.690828" HC_normed="11.877778" PMx_normed="2.609575" NOx_normed="63.516242" fuel_normed="69.128915" electricity_normed="0"
            traveltime="0.02" CO_perVeh="0.567543" CO2_perVeh="51.146117" HC_perVeh="0.003778" PMx_perVeh="0.000830" NOx_perVeh="0.020200" fuel_perVeh="0.021985" electricity_perVeh="0"/>
        <edge id=":1110673630_0" sampledSeconds="285.32" CO_abs="1460.919570" CO2_abs="130110.483831" HC_abs="9.617782" PMx_abs="1.698768" NOx_abs="48.989901" fuel_abs="55.929420" electricity_abs="0"
            CO_normed="38.637258" CO2_normed="3441.060259" HC_normed="0.254364" PMx_normed="0.044928" NOx_normed="1.295647" fuel_normed="1.479178" electricity_normed="0"
            traveltime="1.28" CO_perVeh="6.573585" CO2_perVeh="585.447945" HC_perVeh="0.043276" PMx_perVeh="0.007644" NOx_perVeh="0.220436" fuel_perVeh="0.251661" electricity_perVeh="0"/>
        <edge id=":1110673630_1" sampledSeconds="337.47" CO_abs="1138.700007" CO2_abs="98391.180374" HC_abs="7.416155" PMx_abs="1.235809" NOx_abs="36.797216" fuel_abs="42.294626" electricity_abs="0"
            CO_normed="36.714658" CO2_normed="3172.388231" HC_normed="0.239116" PMx_normed="0.039846" NOx_normed="1.186438" fuel_normed="1.363689" electricity_normed="0"
            traveltime="1.08" CO_perVeh="3.629952" CO2_perVeh="313.651718" HC_perVeh="0.023641" PMx_perVeh="0.003940" NOx_perVeh="0.117302" fuel_perVeh="0.134827" electricity_perVeh="0"/>
        <edge id=":1110673650_0" sampledSeconds="200.63" CO_abs="2692.785429" CO2_abs="346124.935923" HC_abs="20.143322" PMx_abs="4.640601" NOx_abs="128.542877" fuel_abs="148.784646" electricity_abs="0"
            CO_normed="3328.192929" CO2_normed="427798.870231" HC_normed="24.896474" PMx_normed="5.735628" NOx_normed="158.874706" fuel_normed="183.892857" electricity_normed="0"
            traveltime="0.02" CO_perVeh="0.311221" CO2_perVeh="40.003652" HC_perVeh="0.002328" PMx_perVeh="0.000536" NOx_perVeh="0.014856" fuel_perVeh="0.017196" electricity_perVeh="0"/>
        <edge id=":1110673655_0" sampledSeconds="20.59" CO_abs="411.849640" CO2_abs="45445.167706" HC_abs="2.923464" PMx_abs="0.645256" NOx_abs="17.228525" fuel_abs="19.534963" electricity_abs="0"
            CO_normed="509.032412" CO2_normed="56168.710730" HC_normed="3.613304" PMx_normed="0.797515" NOx_normed="21.293882" fuel_normed="24.144562" electricity_normed="0"
            traveltime="0.02" CO_perVeh="0.470536" CO2_perVeh="51.920839" HC_perVeh="0.003340" PMx_perVeh="0.000737" NOx_perVeh="0.019683" fuel_perVeh="0.022319" electricity_perVeh="0"/>
        <edge id=":1110673663_0" sampledSeconds="177.74" CO_abs="3163.190997" CO2_abs="364495.125597" HC_abs="22.767262" PMx_abs="5.096161" NOx_abs="137.310849" fuel_abs="156.681129" electricity_abs="0"
            CO_normed="71.604368" CO2_normed="8250.985561" HC_normed="0.515377" PMx_normed="0.115361" NOx_normed="3.108272" fuel_normed="3.546752" electricity_normed="0"
            traveltime="1.30" CO_perVeh="23.133106" CO2_perVeh="2665.632409" HC_perVeh="0.166502" PMx_perVeh="0.037269" NOx_perVeh="1.004184" fuel_perVeh="1.145843" electricity_perVeh="0"/>
        <edge id=":1110673663_1" sampledSeconds="171.07" CO_abs="2801.177253" CO2_abs="339626.604071" HC_abs="20.525119" PMx_abs="4.646718" NOx_abs="127.035442" fuel_abs="145.991252" electricity_abs="0"
            CO_normed="63.487071" CO2_normed="7697.441606" HC_normed="0.465190" PMx_normed="0.105315" NOx_normed="2.879185" fuel_normed="3.308808" electricity_normed="0"
            traveltime="1.28" CO_perVeh="20.877076" CO2_perVeh="2531.225196" HC_perVeh="0.152973" PMx_perVeh="0.034632" NOx_perVeh="0.946791" fuel_perVeh="1.088068" electricity_perVeh="0"/>