<?xml version="1.0" encoding="UTF-8"?>

<!-- generated on Mon Nov  9 22:46:34 2020 by Eclipse SUMO sumo Version 1.7.0
<configuration xmlns:xsi="http://www.w3.org/2001/XMLSchema-instance" xsi:noNamespaceSchemaLocation="http://sumo.dlr.de/xsd/sumoConfiguration.xsd">

    <input>
        <net-file value="../dataSets/Porto/6AM7AM_Routing_SaoBento/Porto.net.xml"/>
        <route-files value="../results/Porto/6AM7AM_Routing_SaoBento/cost_co-length/solution16/Porto.rou.xml"/>
        <additional-files value="moreOutputInfo.xml"/>
    </input>

    <output>
        <emission-output.precision value="6"/>
        <tripinfo-output value="../results/Porto/6AM7AM_Routing_SaoBento/cost_co-length/solution16/Porto-tripinfo"/>
    </output>

    <processing>
        <collision.action value="warn"/>
        <time-to-teleport value="-1"/>
    </processing>

    <emissions>
        <device.emissions.probability value="1"/>
    </emissions>

    <gui_only>
        <quit-on-end value="true"/>
        <start value="true"/>
    </gui_only>

</configuration>
-->

<meandata xmlns:xsi="http://www.w3.org/2001/XMLSchema-instance" xsi:noNamespaceSchemaLocation="http://sumo.dlr.de/xsd/meandata_file.xsd">
    <interval begin="0.00" end="4698.00" id="emissions-detector">
        <edge id=":1092997347_0" sampledSeconds="272.76" CO_abs="35267.455882" CO2_abs="1377750.703500" HC_abs="193.149170" PMx_abs="28.217764" NOx_abs="598.814270" fuel_abs="592.241128" electricity_abs="0"
            CO_normed="61420.160018" CO2_normed="2399426.512539" HC_normed="336.379606" PMx_normed="49.142745" NOx_normed="1042.867067" fuel_normed="1031.419589" electricity_normed="0"
            traveltime="0.08" CO_perVeh="9.916214" CO2_perVeh="387.384645" HC_perVeh="0.054308" PMx_perVeh="0.007934" NOx_perVeh="0.168370" fuel_perVeh="0.166522" electricity_perVeh="0"/>
        <edge id=":1103427051_0" sampledSeconds="10.94" CO_abs="859.599153" CO2_abs="48776.900762" HC_abs="5.070527" PMx_abs="0.946855" NOx_abs="20.743013" fuel_abs="20.967041" electricity_abs="0"
            CO_normed="2271.367823" CO2_normed="128885.984311" HC_normed="13.398142" PMx_normed="2.501929" NOx_normed="54.810446" fuel_normed="55.402407" electricity_normed="0"
            traveltime="0.03" CO_perVeh="2.355289" CO2_perVeh="133.647971" HC_perVeh="0.013893" PMx_perVeh="0.002594" NOx_perVeh="0.056836" fuel_perVeh="0.057449" electricity_perVeh="0"/>
        <edge id=":1105984386_0" sampledSeconds="22.61" CO_abs="552.842625" CO2_abs="43324.645144" HC_abs="3.505732" PMx_abs="0.588499" NOx_abs="16.557646" fuel_abs="18.623586" electricity_abs="0"
            CO_normed="43.628650" CO2_normed="3419.048589" HC_normed="0.276662" PMx_normed="0.046443" NOx_normed="1.306679" fuel_normed="1.469717" electricity_normed="0"
            traveltime="0.95" CO_perVeh="23.202377" CO2_perVeh="1818.301800" HC_perVeh="0.147133" PMx_perVeh="0.024699" NOx_perVeh="0.694912" fuel_perVeh="0.781617" electricity_perVeh="0"/>
        <edge id=":1105984390_0" sampledSeconds="22.88" CO_abs="4.271920" CO2_abs="686.523121" HC_abs="0.034563" PMx_abs="0.005348" NOx_abs="0.231428" fuel_abs="0.295112" electricity_abs="0"
            CO_normed="0.260629" CO2_normed="41.884662" HC_normed="0.002109" PMx_normed="0.000326" NOx_normed="0.014119" fuel_normed="0.018005" electricity_normed="0"
            traveltime="1.04" CO_perVeh="0.193729" CO2_perVeh="31.133486" HC_perVeh="0.001567" PMx_perVeh="0.000243" NOx_perVeh="0.010495" fuel_perVeh="0.013383" electricity_perVeh="0"/>
        <edge id=":1105984390_1" sampledSeconds="646.05" CO_abs="14629.120738" CO2_abs="1915152.577565" HC_abs="112.352555" PMx_abs="33.802850" NOx_abs="715.300683" fuel_abs="823.236429" electricity_abs="0"
            CO_normed="853.774121" CO2_normed="111770.743935" HC_normed="6.557038" PMx_normed="1.972777" NOx_normed="41.745859" fuel_normed="48.045127" electricity_normed="0"
            traveltime="0.64" CO_perVeh="14.399261" CO2_perVeh="1885.060845" HC_perVeh="0.110587" PMx_perVeh="0.033272" NOx_perVeh="0.704062" fuel_perVeh="0.810301" electricity_perVeh="0"/>
        <edge id=":1105984395_0" sampledSeconds="9.08" CO_abs="132.732427" CO2_abs="11386.139222" HC_abs="0.857865" PMx_abs="0.119268" NOx_abs="4.112165" fuel_abs="4.894505" electricity_abs="0"
            CO_normed="110.555078" CO2_normed="9483.707498" HC_normed="0.714530" PMx_normed="0.099340" NOx_normed="3.425092" fuel_normed="4.076715" electricity_normed="0"
            traveltime="0.09" CO_perVeh="1.346052" CO2_perVeh="115.467902" HC_perVeh="0.008700" PMx_perVeh="0.001210" NOx_perVeh="0.041702" fuel_perVeh="0.049636" electricity_perVeh="0"/>
        <edge id=":1105984398_0" sampledSeconds="23.85" CO_abs="1356.588984" CO2_abs="93312.289240" HC_abs="8.379483" PMx_abs="1.687285" NOx_abs="38.532451" fuel_abs="40.110822" electricity_abs="0"
            CO_normed="85.982778" CO2_normed="5914.282044" HC_normed="0.531105" PMx_normed="0.106943" NOx_normed="2.442248" fuel_normed="2.542288" electricity_normed="0"
            traveltime="1.11" CO_perVeh="63.124313" CO2_perVeh="4341.974074" HC_perVeh="0.389911" PMx_perVeh="0.078512" NOx_perVeh="1.792978" fuel_perVeh="1.866422" electricity_perVeh="0"/>
        <edge id=":1105984398_1" sampledSeconds="452.73" CO_abs="8573.388642" CO2_abs="996241.818768" HC_abs="61.865666" PMx_abs="14.299041" NOx_abs="377.039047" fuel_abs="428.241889" electricity_abs="0"
            CO_normed="525.992512" CO2_normed="61121.192357" HC_normed="3.795568" PMx_normed="0.877271" NOx_normed="23.132010" fuel_normed="26.273395" electricity_normed="0"
            traveltime="0.95" CO_perVeh="18.058808" CO2_perVeh="2098.463083" HC_perVeh="0.130313" PMx_perVeh="0.030119" NOx_perVeh="0.794187" fuel_perVeh="0.902040" electricity_perVeh="0"/>
        <edge id=":1106006327_0" sampledSeconds="373.24" CO_abs="50125.207415" CO2_abs="1612639.814661" HC_abs="266.176436" PMx_abs="33.588705" NOx_abs="705.572532" fuel_abs="693.217371" electricity_abs="0"
            CO_normed="4335.228061" CO2_normed="139473.964061" HC_normed="23.021063" PMx_normed="2.905019" NOx_normed="61.023545" fuel_normed="59.954972" electricity_normed="0"
            traveltime="2.11" CO_perVeh="283.748738" CO2_perVeh="9128.830309" HC_perVeh="1.506771" PMx_perVeh="0.190139" NOx_perVeh="3.994104" fuel_perVeh="3.924164" electricity_perVeh="0"/>
        <edge id=":1106006327_1" sampledSeconds="161.48" CO_abs="21748.681589" CO2_abs="725541.609008" HC_abs="116.122781" PMx_abs="15.107961" NOx_abs="317.372197" fuel_abs="311.884248" electricity_abs="0"
            CO_normed="1640.320511" CO2_normed="54721.513938" HC_normed="8.758167" PMx_normed="1.139467" NOx_normed="23.936721" fuel_normed="23.522811" electricity_normed="0"
            traveltime="2.29" CO_perVeh="308.750566" CO2_perVeh="10299.998250" HC_perVeh="1.648513" PMx_perVeh="0.214477" NOx_perVeh="4.505507" fuel_perVeh="4.427599" electricity_perVeh="0"/>
        <edge id=":1106006327_2" sampledSeconds="0.00" CO_abs="0" CO2_abs="0" HC_abs="0" PMx_abs="0" NOx_abs="0" fuel_abs="0" electricity_abs="0"
            CO_normed="0" CO2_normed="0" HC_normed="0" PMx_normed="0" NOx_normed="0" fuel_normed="0" electricity_normed="0"/>
        <edge id=":1106006327_3" sampledSeconds="0.00" CO_abs="0" CO2_abs="0" HC_abs="0" PMx_abs="0" NOx_abs="0" fuel_abs="0" electricity_abs="0"
            CO_normed="0" CO2_normed="0" HC_normed="0" PMx_normed="0" NOx_normed="0" fuel_normed="0" electricity_normed="0"/>
        <edge id=":1107381198_0" sampledSeconds="0.00" CO_abs="0" CO2_abs="0" HC_abs="0" PMx_abs="0" NOx_abs="0" fuel_abs="0" electricity_abs="0"
            CO_normed="0" CO2_normed="0" HC_normed="0" PMx_normed="0" NOx_normed="0" fuel_normed="0" electricity_normed="0"/>
        <edge id=":1107381198_1" sampledSeconds="35.83" CO_abs="1677.831412" CO2_abs="70085.715298" HC_abs="9.260931" PMx_abs="1.235373" NOx_abs="29.187843" fuel_abs="30.127311" electricity_abs="0"
            CO_normed="140.206605" CO2_normed="5856.655285" HC_normed="0.773882" PMx_normed="0.103233" NOx_normed="2.439058" fuel_normed="2.517564" electricity_normed="0"
            traveltime="1.48" CO_perVeh="69.080972" CO2_perVeh="2885.623246" HC_perVeh="0.381298" PMx_perVeh="0.050864" NOx_perVeh="1.201744" fuel_perVeh="1.240425" electricity_perVeh="0"/>
        <edge id=":1110338277_0" sampledSeconds="96.33" CO_abs="1670.316057" CO2_abs="197840.727922" HC_abs="12.101669" PMx_abs="2.742753" NOx_abs="74.268186" fuel_abs="85.043410" electricity_abs="0"
            CO_normed="4571.198842" CO2_normed="541436.037005" HC_normed="33.118964" PMx_normed="7.506166" NOx_normed="203.251742" fuel_normed="232.740586" electricity_normed="0"
            traveltime="0.02" CO_perVeh="0.377290" CO2_perVeh="44.688194" HC_perVeh="0.002734" PMx_perVeh="0.000620" NOx_perVeh="0.016776" fuel_perVeh="0.019210" electricity_perVeh="0"/>
        <edge id=":1110338293_0" sampledSeconds="122.47" CO_abs="6791.556153" CO2_abs="467786.653582" HC_abs="41.937168" PMx_abs="8.307232" NOx_abs="192.154026" fuel_abs="201.080999" electricity_abs="0"
            CO_normed="17347.525295" CO2_normed="1194857.352699" HC_normed="107.119204" PMx_normed="21.218984" NOx_normed="490.814882" fuel_normed="513.616855" electricity_normed="0"
            traveltime="0.03" CO_perVeh="1.557756" CO2_perVeh="107.294618" HC_perVeh="0.009619" PMx_perVeh="0.001905" NOx_perVeh="0.044074" fuel_perVeh="0.046121" electricity_perVeh="0"/>
        <edge id=":1110338295_0" sampledSeconds="0.00" CO_abs="0" CO2_abs="0" HC_abs="0" PMx_abs="0" NOx_abs="0" fuel_abs="0" electricity_abs="0"
            CO_normed="0" CO2_normed="0" HC_normed="0" PMx_normed="0" NOx_normed="0" fuel_normed="0" electricity_normed="0"/>
        <edge id=":1110673403_0" sampledSeconds="143.80" CO_abs="2132.515897" CO2_abs="256649.345012" HC_abs="15.593466" PMx_abs="3.550398" NOx_abs="96.229329" fuel_abs="110.322760" electricity_abs="0"
            CO_normed="5447.039328" CO2_normed="655553.882535" HC_normed="39.830052" PMx_normed="9.068705" NOx_normed="245.796498" fuel_normed="281.795046" electricity_normed="0"
            traveltime="0.02" CO_perVeh="0.342389" CO2_perVeh="41.206745" HC_perVeh="0.002504" PMx_perVeh="0.000570" NOx_perVeh="0.015450" fuel_perVeh="0.017713" electricity_perVeh="0"/>
        <edge id=":1110673412_0" sampledSeconds="252.56" CO_abs="44494.609017" CO2_abs="3045219.853626" HC_abs="277.122022" PMx_abs="66.819299" NOx_abs="1307.990377" fuel_abs="1308.990073" electricity_abs="0"
            CO_normed="117570.640816" CO2_normed="8046557.943258" HC_normed="732.255310" PMx_normed="176.560441" NOx_normed="3456.177505" fuel_normed="3458.819059" electricity_normed="0"
            traveltime="0.02" CO_perVeh="2.740623" CO2_perVeh="187.568791" HC_perVeh="0.017069" PMx_perVeh="0.004116" NOx_perVeh="0.080565" fuel_perVeh="0.080627" electricity_perVeh="0"/>
        <edge id=":1110673414_0" sampledSeconds="0.00" CO_abs="0" CO2_abs="0" HC_abs="0" PMx_abs="0" NOx_abs="0" fuel_abs="0" electricity_abs="0"
            CO_normed="0" CO2_normed="0" HC_normed="0" PMx_normed="0" NOx_normed="0" fuel_normed="0" electricity_normed="0"/>
        <edge id=":1110673414_1" sampledSeconds="136.74" CO_abs="9684.156540" CO2_abs="359667.186801" HC_abs="52.456391" PMx_abs="6.736901" NOx_abs="152.518134" fuel_abs="154.608196" electricity_abs="0"
            CO_normed="821.795084" CO2_normed="30521.266854" HC_normed="4.451436" PMx_normed="0.571692" NOx_normed="12.942650" fuel_normed="13.120013" electricity_normed="0"
            traveltime="1.63" CO_perVeh="115.381927" CO2_perVeh="4285.256343" HC_perVeh="0.624992" PMx_perVeh="0.080267" NOx_perVeh="1.817178" fuel_perVeh="1.842080" electricity_perVeh="0"/>
        <edge id=":1110673417_0" sampledSeconds="29.63" CO_abs="482.735954" CO2_abs="55546.664202" HC_abs="3.474800" PMx_abs="0.812175" NOx_abs="21.112143" fuel_abs="23.877125" electricity_abs="0"
            CO_normed="1321.116458" CO2_normed="152016.048719" HC_normed="9.509579" PMx_normed="2.222702" NOx_normed="57.778168" fuel_normed="65.345170" electricity_normed="0"
            traveltime="0.02" CO_perVeh="0.358293" CO2_perVeh="41.227478" HC_perVeh="0.002579" PMx_perVeh="0.000603" NOx_perVeh="0.015670" fuel_perVeh="0.017722" electricity_perVeh="0"/>
        <edge id=":1110673446_0" sampledSeconds="334.44" CO_abs="3336.789250" CO2_abs="260338.212643" HC_abs="21.372862" PMx_abs="4.857835" NOx_abs="107.247748" fuel_abs="111.907381" electricity_abs="0"
            CO_normed="8523.088761" CO2_normed="664976.277504" HC_normed="54.592240" PMx_normed="12.408263" NOx_normed="273.940607" fuel_normed="285.842608" electricity_normed="0"
            traveltime="0.02" CO_perVeh="0.227585" CO2_perVeh="17.756275" HC_perVeh="0.001458" PMx_perVeh="0.000331" NOx_perVeh="0.007315" fuel_perVeh="0.007633" electricity_perVeh="0"/>
        <edge id=":1110673451_0" sampledSeconds="37.33" CO_abs="306.678880" CO2_abs="23198.287804" HC_abs="1.921922" PMx_abs="0.297821" NOx_abs="8.760666" fuel_abs="9.972080" electricity_abs="0"
            CO_normed="870.381381" CO2_normed="65838.762039" HC_normed="5.454583" PMx_normed="0.845241" NOx_normed="24.863534" fuel_normed="28.301632" electricity_normed="0"
            traveltime="0.03" CO_perVeh="0.219929" CO2_perVeh="16.636222" HC_perVeh="0.001378" PMx_perVeh="0.000214" NOx_perVeh="0.006283" fuel_perVeh="0.007151" electricity_perVeh="0"/>
        <edge id=":1110673464_0" sampledSeconds="322.47" CO_abs="684.282528" CO2_abs="51872.497276" HC_abs="4.303663" PMx_abs="0.727678" NOx_abs="19.930460" fuel_abs="22.297965" electricity_abs="0"
            CO_normed="37.135583" CO2_normed="2815.087823" HC_normed="0.233557" PMx_normed="0.039491" NOx_normed="1.081614" fuel_normed="1.210097" electricity_normed="0"
            traveltime="1.17" CO_perVeh="2.473591" CO2_perVeh="187.512234" HC_perVeh="0.015557" PMx_perVeh="0.002630" NOx_perVeh="0.072046" fuel_perVeh="0.080604" electricity_perVeh="0"/>
        <edge id=":1110673464_1" sampledSeconds="709.34" CO_abs="15519.067359" CO2_abs="2037970.621660" HC_abs="119.455710" PMx_abs="35.886838" NOx_abs="761.975863" fuel_abs="876.030259" electricity_abs="0"
            CO_normed="825.260627" CO2_normed="108373.581653" HC_normed="6.352321" PMx_normed="1.908362" NOx_normed="40.519747" fuel_normed="46.584841" electricity_normed="0"
            traveltime="0.70" CO_perVeh="15.324095" CO2_perVeh="2012.366722" HC_perVeh="0.117955" PMx_perVeh="0.035436" NOx_perVeh="0.752403" fuel_perVeh="0.865024" electricity_perVeh="0"/>
        <edge id=":1110673479_0" sampledSeconds="133.11" CO_abs="6917.781842" CO2_abs="473331.869166" HC_abs="42.649427" PMx_abs="8.450925" NOx_abs="194.748605" fuel_abs="203.464611" electricity_abs="0"
            CO_normed="17669.940849" CO2_normed="1209021.377181" HC_normed="108.938511" PMx_normed="21.586016" NOx_normed="497.442158" fuel_normed="519.705265" electricity_normed="0"
            traveltime="0.03" CO_perVeh="1.457306" CO2_perVeh="99.712523" HC_perVeh="0.008985" PMx_perVeh="0.001780" NOx_perVeh="0.041026" fuel_perVeh="0.042862" electricity_perVeh="0"/>
        <edge id=":1110673511_0" sampledSeconds="11.73" CO_abs="264.197737" CO2_abs="30956.604307" HC_abs="1.920927" PMx_abs="0.440296" NOx_abs="11.702722" fuel_abs="13.306929" electricity_abs="0"
            CO_normed="674.834577" CO2_normed="79071.786224" HC_normed="4.906583" PMx_normed="1.124638" NOx_normed="29.892010" fuel_normed="33.989602" electricity_normed="0"
            traveltime="0.02" CO_perVeh="0.523164" CO2_perVeh="61.300207" HC_perVeh="0.003804" PMx_perVeh="0.000872" NOx_perVeh="0.023174" fuel_perVeh="0.026350" electricity_perVeh="0"/>
        <edge id=":1110673517_0" sampledSeconds="17.01" CO_abs="883.670875" CO2_abs="63193.240050" HC_abs="5.509823" PMx_abs="1.103566" NOx_abs="25.770770" fuel_abs="27.164013" electricity_abs="0"
            CO_normed="2257.141442" CO2_normed="161413.129119" HC_normed="14.073622" PMx_normed="2.818814" NOx_normed="65.825722" fuel_normed="69.384453" electricity_normed="0"
            traveltime="0.03" CO_perVeh="1.418792" CO2_perVeh="101.460915" HC_perVeh="0.008846" PMx_perVeh="0.001772" NOx_perVeh="0.041377" fuel_perVeh="0.043614" electricity_perVeh="0"/>
        <edge id=":1110673534_0" sampledSeconds="475.07" CO_abs="2266.176071" CO2_abs="234672.921405" HC_abs="15.598700" PMx_abs="2.657157" NOx_abs="85.279242" fuel_abs="100.877084" electricity_abs="0"
            CO_normed="112.179159" CO2_normed="11616.666241" HC_normed="0.772159" PMx_normed="0.131533" NOx_normed="4.221452" fuel_normed="4.993569" electricity_normed="0"
            traveltime="1.43" CO_perVeh="6.827082" CO2_perVeh="706.975660" HC_perVeh="0.046993" PMx_perVeh="0.008005" NOx_perVeh="0.256912" fuel_perVeh="0.303902" electricity_perVeh="0"/>
        <edge id=":1110673534_1" sampledSeconds="183.94" CO_abs="3245.444064" CO2_abs="385313.087512" HC_abs="23.652829" PMx_abs="5.389604" NOx_abs="144.925758" fuel_abs="165.629838" electricity_abs="0"
            CO_normed="156.214216" CO2_normed="18546.424051" HC_normed="1.138491" PMx_normed="0.259420" NOx_normed="6.975768" fuel_normed="7.972325" electricity_normed="0"
            traveltime="1.22" CO_perVeh="21.548583" CO2_perVeh="2558.340571" HC_perVeh="0.157046" PMx_perVeh="0.035785" NOx_perVeh="0.962255" fuel_perVeh="1.099723" electricity_perVeh="0"/>
        <edge id=":1110673549_0" sampledSeconds="60.73" CO_abs="65.794337" CO2_abs="9595.984702" HC_abs="0.478958" PMx_abs="0.112143" NOx_abs="3.407274" fuel_abs="4.124929" electricity_abs="0"
            CO_normed="3.155014" CO2_normed="460.153003" HC_normed="0.022967" PMx_normed="0.005378" NOx_normed="0.163388" fuel_normed="0.197801" electricity_normed="0"
            traveltime="1.27" CO_perVeh="1.370769" CO2_perVeh="199.924167" HC_perVeh="0.009979" PMx_perVeh="0.002336" NOx_perVeh="0.070988" fuel_perVeh="0.085939" electricity_perVeh="0"/>
        <edge id=":1110673549_1" sampledSeconds="638.96" CO_abs="14103.492507" CO2_abs="1856047.904204" HC_abs="108.525144" PMx_abs="32.601605" NOx_abs="693.678718" fuel_abs="797.830065" electricity_abs="0"
            CO_normed="654.193338" CO2_normed="86093.155595" HC_normed="5.033961" PMx_normed="1.512232" NOx_normed="32.176427" fuel_normed="37.007508" electricity_normed="0"
            traveltime="0.80" CO_perVeh="17.753503" CO2_perVeh="2336.396625" HC_perVeh="0.136612" PMx_perVeh="0.041039" NOx_perVeh="0.873204" fuel_perVeh="1.004310" electricity_perVeh="0"/>
        <edge id=":1110673556_0" sampledSeconds="415.54" CO_abs="50772.358479" CO2_abs="2556357.338040" HC_abs="291.966442" PMx_abs="51.510650" NOx_abs="1100.467629" fuel_abs="1098.867292" electricity_abs="0"
            CO_normed="1805.383843" CO2_normed="90899.977351" HC_normed="10.381860" PMx_normed="1.831636" NOx_normed="39.130868" fuel_normed="39.073963" electricity_normed="0"
            traveltime="2.58" CO_perVeh="315.170044" CO2_perVeh="15868.619839" HC_perVeh="1.812385" PMx_perVeh="0.319753" NOx_perVeh="6.831166" fuel_perVeh="6.821232" electricity_perVeh="0"/>
        <edge id=":1110673556_2" sampledSeconds="246.58" CO_abs="24283.573525" CO2_abs="1056367.409998" HC_abs="135.406546" PMx_abs="20.472066" NOx_abs="451.117854" fuel_abs="454.090493" electricity_abs="0"
            CO_normed="902.867652" CO2_normed="39275.931224" HC_normed="5.034440" PMx_normed="0.761155" NOx_normed="16.772643" fuel_normed="16.883167" electricity_normed="0"
            traveltime="2.99" CO_perVeh="294.555093" CO2_perVeh="12813.534253" HC_perVeh="1.642455" PMx_perVeh="0.248322" NOx_perVeh="5.471973" fuel_perVeh="5.508031" electricity_perVeh="0"/>
        <edge id=":1110673556_3" sampledSeconds="409.83" CO_abs="35317.554336" CO2_abs="1259996.936850" HC_abs="190.144105" PMx_abs="24.044192" NOx_abs="537.360517" fuel_abs="541.628589" electricity_abs="0"
            CO_normed="2987.114793" CO2_normed="106568.972863" HC_normed="16.082152" PMx_normed="2.033628" NOx_normed="45.449284" fuel_normed="45.810272" electricity_normed="0"
            traveltime="1.73" CO_perVeh="149.483564" CO2_perVeh="5333.008922" HC_perVeh="0.804796" PMx_perVeh="0.101768" NOx_perVeh="2.274409" fuel_perVeh="2.292474" electricity_perVeh="0"/>
        <edge id=":1110673556_4" sampledSeconds="201.97" CO_abs="20859.793841" CO2_abs="838525.677067" HC_abs="114.638536" PMx_abs="16.244668" NOx_abs="358.556744" fuel_abs="360.450275" electricity_abs="0"
            CO_normed="1077.850058" CO2_normed="43327.606982" HC_normed="5.923508" PMx_normed="0.839381" NOx_normed="18.527048" fuel_normed="18.624889" electricity_normed="0"
            traveltime="2.39" CO_perVeh="246.864421" CO2_perVeh="9923.499578" HC_perVeh="1.356685" PMx_perVeh="0.192247" NOx_perVeh="4.243326" fuel_perVeh="4.265735" electricity_perVeh="0"/>
        <edge id=":1110673556_5" sampledSeconds="22.72" CO_abs="1442.229146" CO2_abs="63939.394953" HC_abs="8.059283" PMx_abs="1.179813" NOx_abs="26.940844" fuel_abs="27.485077" electricity_abs="0"
            CO_normed="103.868086" CO2_normed="4604.859487" HC_normed="0.580423" PMx_normed="0.084969" NOx_normed="1.940256" fuel_normed="1.979451" electricity_normed="0"
            traveltime="1.57" CO_perVeh="99.709669" CO2_perVeh="4420.501379" HC_perVeh="0.557185" PMx_perVeh="0.081567" NOx_perVeh="1.862577" fuel_perVeh="1.900203" electricity_perVeh="0"/>
        <edge id=":1110673556_6" sampledSeconds="307.76" CO_abs="37130.199647" CO2_abs="1903682.822270" HC_abs="214.373640" PMx_abs="38.426155" NOx_abs="819.294354" fuel_abs="818.310171" electricity_abs="0"
            CO_normed="1353.580412" CO2_normed="69398.705202" HC_normed="7.814985" PMx_normed="1.400824" NOx_normed="29.867353" fuel_normed="29.831475" electricity_normed="0"
            traveltime="2.44" CO_perVeh="294.041313" CO2_perVeh="15075.636578" HC_perVeh="1.697667" PMx_perVeh="0.304304" NOx_perVeh="6.488152" fuel_perVeh="6.480358" electricity_perVeh="0"/>
        <edge id=":1110673561_0" sampledSeconds="100.53" CO_abs="9795.201428" CO2_abs="705720.937971" HC_abs="61.581153" PMx_abs="14.208189" NOx_abs="298.031366" fuel_abs="303.355860" electricity_abs="0"
            CO_normed="448.649222" CO2_normed="32324.108066" HC_normed="2.820599" PMx_normed="0.650777" NOx_normed="13.650719" fuel_normed="13.894596" electricity_normed="0"
            traveltime="1.19" CO_perVeh="115.592884" CO2_perVeh="8328.192041" HC_perVeh="0.726717" PMx_perVeh="0.167670" NOx_perVeh="3.517059" fuel_perVeh="3.579894" electricity_perVeh="0"/>
        <edge id=":1110673561_1" sampledSeconds="1318.42" CO_abs="120572.498646" CO2_abs="8332184.924821" HC_abs="750.621978" PMx_abs="174.357609" NOx_abs="3564.492850" fuel_abs="3581.603752" electricity_abs="0"
            CO_normed="5384.191100" CO2_normed="372075.526477" HC_normed="33.519187" PMx_normed="7.785977" NOx_normed="159.173202" fuel_normed="159.937293" electricity_normed="0"
            traveltime="1.20" CO_perVeh="109.405792" CO2_perVeh="7560.507569" HC_perVeh="0.681104" PMx_perVeh="0.158210" NOx_perVeh="3.234371" fuel_perVeh="3.249897" electricity_perVeh="0"/>
        <edge id=":1110673562_0" sampledSeconds="104.27" CO_abs="2484.294869" CO2_abs="190529.982511" HC_abs="15.657221" PMx_abs="2.589994" NOx_abs="72.849746" fuel_abs="81.901498" electricity_abs="0"
            CO_normed="7050.645293" CO2_normed="540740.691106" HC_normed="44.436557" PMx_normed="7.350629" NOx_normed="206.753926" fuel_normed="232.443586" electricity_normed="0"
            traveltime="0.03" CO_perVeh="0.633258" CO2_perVeh="48.566960" HC_perVeh="0.003991" PMx_perVeh="0.000660" NOx_perVeh="0.018570" fuel_perVeh="0.020877" electricity_perVeh="0"/>
        <edge id=":1110673564_0" sampledSeconds="28.50" CO_abs="429.192068" CO2_abs="51836.205961" HC_abs="3.147730" PMx_abs="0.713625" NOx_abs="19.412144" fuel_abs="22.282210" electricity_abs="0"
            CO_normed="3288.828106" CO2_normed="397212.306215" HC_normed="24.120539" PMx_normed="5.468393" NOx_normed="148.752059" fuel_normed="170.744906" electricity_normed="0"
            traveltime="7.836052e-03" CO_perVeh="0.117991" CO2_perVeh="14.250503" HC_perVeh="0.000865" PMx_perVeh="0.000196" NOx_perVeh="0.005337" fuel_perVeh="0.006126" electricity_perVeh="0"/>
        <edge id=":1110673588_0" sampledSeconds="11.73" CO_abs="130.559650" CO2_abs="18188.574474" HC_abs="1.003902" PMx_abs="0.227969" NOx_abs="6.642570" fuel_abs="7.818524" electricity_abs="0"
            CO_normed="400.182835" CO2_normed="55750.419845" HC_normed="3.077095" PMx_normed="0.698757" NOx_normed="20.360369" fuel_normed="23.964823" electricity_normed="0"
            traveltime="0.02" CO_perVeh="0.217599" CO2_perVeh="30.314291" HC_perVeh="0.001673" PMx_perVeh="0.000380" NOx_perVeh="0.011071" fuel_perVeh="0.013031" electricity_perVeh="0"/>
        <edge id=":1110673601_0" sampledSeconds="29.55" CO_abs="432.844418" CO2_abs="55289.012559" HC_abs="3.239431" PMx_abs="0.751056" NOx_abs="20.567310" fuel_abs="23.766428" electricity_abs="0"
            CO_normed="1184.576950" CO2_normed="151310.926544" HC_normed="8.865437" PMx_normed="2.055434" NOx_normed="56.287111" fuel_normed="65.042222" electricity_normed="0"
            traveltime="0.02" CO_perVeh="0.321263" CO2_perVeh="41.036245" HC_perVeh="0.002404" PMx_perVeh="0.000557" NOx_perVeh="0.015265" fuel_perVeh="0.017640" electricity_perVeh="0"/>
        <edge id=":1110673617_0" sampledSeconds="238.13" CO_abs="6159.329032" CO2_abs="761722.326904" HC_abs="46.286644" PMx_abs="13.639826" NOx_abs="287.594784" fuel_abs="327.429373" electricity_abs="0"
            CO_normed="15732.641206" CO2_normed="1945650.898861" HC_normed="118.228976" PMx_normed="34.839913" NOx_normed="734.597150" fuel_normed="836.345779" electricity_normed="0"
            traveltime="0.01" CO_perVeh="0.377333" CO2_perVeh="46.664654" HC_perVeh="0.002836" PMx_perVeh="0.000836" NOx_perVeh="0.017619" fuel_perVeh="0.020059" electricity_perVeh="0"/>
        <edge id=":1110673621_0" sampledSeconds="25.91" CO_abs="672.410521" CO2_abs="72548.901034" HC_abs="4.738520" PMx_abs="1.045224" NOx_abs="27.605227" fuel_abs="31.185705" electricity_abs="0"
            CO_normed="2061.028415" CO2_normed="222372.110449" HC_normed="14.524199" PMx_normed="3.203752" NOx_normed="84.613721" fuel_normed="95.588369" electricity_normed="0"
            traveltime="0.02" CO_perVeh="0.509413" CO2_perVeh="54.962504" HC_perVeh="0.003590" PMx_perVeh="0.000792" NOx_perVeh="0.020914" fuel_perVeh="0.023626" electricity_perVeh="0"/>
        <edge id=":1110673630_0" sampledSeconds="53.93" CO_abs="285.906085" CO2_abs="24799.471787" HC_abs="1.867464" PMx_abs="0.327949" NOx_abs="9.378689" fuel_abs="10.660324" electricity_abs="0"
            CO_normed="15.626614" CO2_normed="1355.451259" HC_normed="0.102069" PMx_normed="0.017925" NOx_normed="0.512606" fuel_normed="0.582656" electricity_normed="0"
            traveltime="1.26" CO_perVeh="6.673554" CO2_perVeh="578.863536" HC_perVeh="0.043590" PMx_perVeh="0.007655" NOx_perVeh="0.218915" fuel_perVeh="0.248831" electricity_perVeh="0"/>
        <edge id=":1110673630_1" sampledSeconds="7.39" CO_abs="7.999230" CO2_abs="785.168204" HC_abs="0.054643" PMx_abs="0.011669" NOx_abs="0.303168" fuel_abs="0.337510" electricity_abs="0"
            CO_normed="0.533016" CO2_normed="52.318388" HC_normed="0.003641" PMx_normed="0.000778" NOx_normed="0.020201" fuel_normed="0.022489" electricity_normed="0"
            traveltime="1.05" CO_perVeh="1.132199" CO2_perVeh="111.131500" HC_perVeh="0.007734" PMx_perVeh="0.001652" NOx_perVeh="0.042910" fuel_perVeh="0.047771" electricity_perVeh="0"/>
        <edge id=":1110673650_0" sampledSeconds="143.67" CO_abs="2128.219587" CO2_abs="261393.543394" HC_abs="15.585827" PMx_abs="3.596883" NOx_abs="97.714369" fuel_abs="112.362083" electricity_abs="0"
            CO_normed="5436.065357" CO2_normed="667671.886063" HC_normed="39.810543" PMx_normed="9.187440" NOx_normed="249.589704" fuel_normed="287.004043" electricity_normed="0"
            traveltime="0.02" CO_perVeh="0.341701" CO2_perVeh="41.968655" HC_perVeh="0.002502" PMx_perVeh="0.000578" NOx_perVeh="0.015689" fuel_perVeh="0.018041" electricity_perVeh="0"/>
        <edge id=":1110673655_0" sampledSeconds="44.89" CO_abs="816.805805" CO2_abs="87418.761960" HC_abs="5.729485" PMx_abs="1.240897" NOx_abs="33.183263" fuel_abs="37.577659" electricity_abs="0"
            CO_normed="2086.349439" CO2_normed="223291.856859" HC_normed="14.634700" PMx_normed="3.169596" NOx_normed="84.759293" fuel_normed="95.983803" electricity_normed="0"
            traveltime="0.02" CO_perVeh="0.437145" CO2_perVeh="46.785530" HC_perVeh="0.003066" PMx_perVeh="0.000664" NOx_perVeh="0.017759" fuel_perVeh="0.020111" electricity_perVeh="0"/>
        <edge id=":1110673663_0" sampledSeconds="108.32" CO_abs="1972.355798" CO2_abs="231043.043799" HC_abs="14.279164" PMx_abs="3.212952" NOx_abs="86.822399" fuel_abs="99.315699" electricity_abs="0"
            CO_normed="92.270070" CO2_normed="10808.576191" HC_normed="0.668003" PMx_normed="0.150307" NOx_normed="4.061696" fuel_normed="4.646153" electricity_normed="0"
            traveltime="1.27" CO_perVeh="23.166249" CO2_perVeh="2713.709545" HC_perVeh="0.167716" PMx_perVeh="0.037738" NOx_perVeh="1.019770" fuel_perVeh="1.166510" electricity_perVeh="0"/>
        <edge id=":1110673663_1" sampledSeconds="154.23" CO_abs="2229.031777" CO2_abs="290391.487135" HC_abs="16.741334" PMx_abs="3.938820" NOx_abs="107.942214" fuel_abs="124.827084" electricity_abs="0"
            CO_normed="104.405277" CO2_normed="13601.602223" HC_normed="0.784145" PMx_normed="0.184490" NOx_normed="5.055889" fuel_normed="5.846757" electricity_normed="0"
            traveltime="1.25" CO_perVeh="17.994513" CO2_perVeh="2344.270453" HC_perVeh="0.135149" PMx_perVeh="0.031797" NOx_perVeh="0.871395" fuel_perVeh="1.007703" electricity_perVeh="0"/>
        <edge id=":1110673666_0" sampledSeconds="192.65" CO_abs="3867.720518" CO2_abs="307871.399066" HC_abs="24.610270" PMx_abs="4.030236" NOx_abs="116.511504" fuel_abs="132.342183" electricity_abs="0"