<?xml version="1.0" encoding="UTF-8"?>

<!-- generated on Mon Nov  9 20:58:41 2020 by Eclipse SUMO sumo Version 1.7.0
<configuration xmlns:xsi="http://www.w3.org/2001/XMLSchema-instance" xsi:noNamespaceSchemaLocation="http://sumo.dlr.de/xsd/sumoConfiguration.xsd">

    <input>
        <net-file value="../dataSets/Angeja_Estarreja/angeja_estarreja.net.xml"/>
        <route-files value="../results/angeja_estarreja/cost_PMx-cost_hc/solution3/angeja_estarreja.rou.xml"/>
        <additional-files value="moreOutputInfo.xml"/>
    </input>

    <output>
        <emission-output.precision value="6"/>
        <tripinfo-output value="../results/angeja_estarreja/cost_PMx-cost_hc/solution3/angeja_estarreja-tripinfo"/>
    </output>

    <processing>
        <collision.action value="warn"/>
        <time-to-teleport value="-1"/>
    </processing>

    <emissions>
        <device.emissions.probability value="1"/>
    </emissions>

    <gui_only>
        <quit-on-end value="true"/>
        <start value="true"/>
    </gui_only>

</configuration>
-->

<meandata xmlns:xsi="http://www.w3.org/2001/XMLSchema-instance" xsi:noNamespaceSchemaLocation="http://sumo.dlr.de/xsd/meandata_file.xsd">
    <interval begin="0.00" end="19078.00" id="emissions-detector">
        <edge id=":10_0" sampledSeconds="405.07" CO_abs="41425.968410" CO2_abs="2267280.325121" HC_abs="242.399632" PMx_abs="44.367989" NOx_abs="966.953730" fuel_abs="974.604592" electricity_abs="0"
            CO_normed="446.943388" CO2_normed="24461.611600" HC_normed="2.615242" PMx_normed="0.478685" NOx_normed="10.432431" fuel_normed="10.514976" electricity_normed="0"
            traveltime="1.93" CO_perVeh="197.121417" CO2_perVeh="10788.631566" HC_perVeh="1.153435" PMx_perVeh="0.211121" NOx_perVeh="4.601155" fuel_perVeh="4.637561" electricity_perVeh="0"/>
        <edge id=":10_1" sampledSeconds="0.00" CO_abs="0" CO2_abs="0" HC_abs="0" PMx_abs="0" NOx_abs="0" fuel_abs="0" electricity_abs="0"
            CO_normed="0" CO2_normed="0" HC_normed="0" PMx_normed="0" NOx_normed="0" fuel_normed="0" electricity_normed="0"/>
        <edge id=":100_0" sampledSeconds="0.00" CO_abs="0" CO2_abs="0" HC_abs="0" PMx_abs="0" NOx_abs="0" fuel_abs="0" electricity_abs="0"
            CO_normed="0" CO2_normed="0" HC_normed="0" PMx_normed="0" NOx_normed="0" fuel_normed="0" electricity_normed="0"/>
        <edge id=":100_1" sampledSeconds="912.11" CO_abs="20539.780887" CO2_abs="2691525.743497" HC_abs="158.837453" PMx_abs="48.158220" NOx_abs="999.106990" fuel_abs="1156.963924" electricity_abs="0"
            CO_normed="131.117613" CO2_normed="17181.606350" HC_normed="1.013954" PMx_normed="0.307423" NOx_normed="6.377893" fuel_normed="7.385587" electricity_normed="0"
            traveltime="1.37" CO_perVeh="30.883385" CO2_perVeh="4046.948034" HC_perVeh="0.238826" PMx_perVeh="0.072410" NOx_perVeh="1.502246" fuel_perVeh="1.739598" electricity_perVeh="0"/>
        <edge id=":101_0" sampledSeconds="438.24" CO_abs="10924.192335" CO2_abs="1350922.096502" HC_abs="82.597324" PMx_abs="24.572731" NOx_abs="506.185593" fuel_abs="580.699378" electricity_abs="0"
            CO_normed="252.311437" CO2_normed="31201.674729" HC_normed="1.907715" PMx_normed="0.567546" NOx_normed="11.691154" fuel_normed="13.412167" electricity_normed="0"
            traveltime="0.38" CO_perVeh="9.437084" CO2_perVeh="1167.021258" HC_perVeh="0.071353" PMx_perVeh="0.021228" NOx_perVeh="0.437279" fuel_perVeh="0.501649" electricity_perVeh="0"/>
        <edge id=":102_0" sampledSeconds="341.64" CO_abs="7781.173965" CO2_abs="962051.312402" HC_abs="58.853283" PMx_abs="17.504634" NOx_abs="360.516607" fuel_abs="413.541681" electricity_abs="0"
            CO_normed="181.271598" CO2_normed="22412.116630" HC_normed="1.371056" PMx_normed="0.407791" NOx_normed="8.398658" fuel_normed="9.633940" electricity_normed="0"
            traveltime="0.38" CO_perVeh="8.559988" CO2_perVeh="1058.342602" HC_perVeh="0.064744" PMx_perVeh="0.019257" NOx_perVeh="0.396601" fuel_perVeh="0.454933" electricity_perVeh="0"/>
        <edge id=":103_0" sampledSeconds="434.59" CO_abs="9972.885283" CO2_abs="1243370.303330" HC_abs="75.630306" PMx_abs="22.563393" NOx_abs="465.188297" fuel_abs="534.467845" electricity_abs="0"
            CO_normed="233.773134" CO2_normed="29145.684972" HC_normed="1.772840" PMx_normed="0.528906" NOx_normed="10.904420" fuel_normed="12.528393" electricity_normed="0"
            traveltime="0.37" CO_perVeh="8.568325" CO2_perVeh="1068.256644" HC_perVeh="0.064979" PMx_perVeh="0.019386" NOx_perVeh="0.399672" fuel_perVeh="0.459195" electricity_perVeh="0"/>
        <edge id=":104_0" sampledSeconds="340.93" CO_abs="8465.517579" CO2_abs="1068893.802225" HC_abs="64.503377" PMx_abs="19.325066" NOx_abs="399.082495" fuel_abs="459.468455" electricity_abs="0"
            CO_normed="197.457962" CO2_normed="24931.918216" HC_normed="1.504539" PMx_normed="0.450757" NOx_normed="9.308588" fuel_normed="10.717089" electricity_normed="0"
            traveltime="0.37" CO_perVeh="9.308577" CO2_perVeh="1175.342218" HC_perVeh="0.070927" PMx_perVeh="0.021250" NOx_perVeh="0.438826" fuel_perVeh="0.505226" electricity_perVeh="0"/>
        <edge id=":105_0" sampledSeconds="168.63" CO_abs="4021.490335" CO2_abs="507484.743416" HC_abs="30.623031" PMx_abs="9.175743" NOx_abs="189.449150" fuel_abs="218.144433" electricity_abs="0"
            CO_normed="3449.324116" CO2_normed="435281.255968" HC_normed="26.266073" PMx_normed="7.870244" NOx_normed="162.494863" fuel_normed="187.107463" electricity_normed="0"
            traveltime="0.01" CO_perVeh="0.243188" CO2_perVeh="30.688679" HC_perVeh="0.001852" PMx_perVeh="0.000555" NOx_perVeh="0.011456" fuel_perVeh="0.013192" electricity_perVeh="0"/>
        <edge id=":106_0" sampledSeconds="134.37" CO_abs="3277.679712" CO2_abs="406678.878113" HC_abs="24.802909" PMx_abs="7.390181" NOx_abs="152.236862" fuel_abs="174.812585" electricity_abs="0"
            CO_normed="1995.145052" CO2_normed="247548.089711" HC_normed="15.097693" PMx_normed="4.498451" NOx_normed="92.667572" fuel_normed="106.409563" electricity_normed="0"
            traveltime="0.01" CO_perVeh="0.350448" CO2_perVeh="43.481866" HC_perVeh="0.002652" PMx_perVeh="0.000790" NOx_perVeh="0.016277" fuel_perVeh="0.018691" electricity_perVeh="0"/>
        <edge id=":107_0" sampledSeconds="438.75" CO_abs="10940.841347" CO2_abs="1359238.112602" HC_abs="82.877740" PMx_abs="24.685618" NOx_abs="509.079619" fuel_abs="584.274065" electricity_abs="0"
            CO_normed="252.695973" CO2_normed="31393.746226" HC_normed="1.914192" PMx_normed="0.570153" NOx_normed="11.757996" fuel_normed="13.494730" electricity_normed="0"
            traveltime="0.38" CO_perVeh="9.451466" CO2_perVeh="1174.205216" HC_perVeh="0.071596" PMx_perVeh="0.021325" NOx_perVeh="0.439779" fuel_perVeh="0.504737" electricity_perVeh="0"/>
        <edge id=":108_0" sampledSeconds="92.55" CO_abs="7561.042164" CO2_abs="558953.515660" HC_abs="47.838209" PMx_abs="11.093000" NOx_abs="234.763241" fuel_abs="240.267626" electricity_abs="0"
            CO_normed="118.600273" CO2_normed="8767.579672" HC_normed="0.750376" PMx_normed="0.174002" NOx_normed="3.682427" fuel_normed="3.768767" electricity_normed="0"
            traveltime="0.85" CO_perVeh="69.682881" CO2_perVeh="5151.338977" HC_perVeh="0.440879" PMx_perVeh="0.102234" NOx_perVeh="2.163588" fuel_perVeh="2.214316" electricity_perVeh="0"/>
        <edge id=":108_1" sampledSeconds="403.14" CO_abs="9565.018543" CO2_abs="1218574.576486" HC_abs="73.171857" PMx_abs="21.979029" NOx_abs="454.392562" fuel_abs="523.809396" electricity_abs="0"
            CO_normed="139.915479" CO2_normed="17825.103453" HC_normed="1.070346" PMx_normed="0.321506" NOx_normed="6.646778" fuel_normed="7.662196" electricity_normed="0"
            traveltime="0.60" CO_perVeh="14.209072" CO2_perVeh="1810.222718" HC_perVeh="0.108699" PMx_perVeh="0.032650" NOx_perVeh="0.675011" fuel_perVeh="0.778132" electricity_perVeh="0"/>
        <edge id=":109_0" sampledSeconds="308.97" CO_abs="161.761235" CO2_abs="27471.803622" HC_abs="1.353723" PMx_abs="0.352978" NOx_abs="9.957731" fuel_abs="11.808973" electricity_abs="0"
            CO_normed="2.432206" CO2_normed="413.059965" HC_normed="0.020354" PMx_normed="0.005307" NOx_normed="0.149722" fuel_normed="0.177557" electricity_normed="0"
            traveltime="0.86" CO_perVeh="0.449607" CO2_perVeh="76.356428" HC_perVeh="0.003763" PMx_perVeh="0.000981" NOx_perVeh="0.027677" fuel_perVeh="0.032822" electricity_perVeh="0"/>
        <edge id=":109_1" sampledSeconds="524.44" CO_abs="11808.626464" CO2_abs="1490939.431401" HC_abs="89.935077" PMx_abs="26.950353" NOx_abs="556.582692" fuel_abs="640.886533" electricity_abs="0"
            CO_normed="115.814777" CO2_normed="14622.599642" HC_normed="0.882051" PMx_normed="0.264319" NOx_normed="5.458764" fuel_normed="6.285585" electricity_normed="0"
            traveltime="0.89" CO_perVeh="20.107279" CO2_perVeh="2538.714792" HC_perVeh="0.153138" PMx_perVeh="0.045890" NOx_perVeh="0.947728" fuel_perVeh="1.091277" electricity_perVeh="0"/>
        <edge id=":11_0" sampledSeconds="284.18" CO_abs="17892.809185" CO2_abs="1275428.506588" HC_abs="111.642004" PMx_abs="23.183647" NOx_abs="525.965214" fuel_abs="548.249661" electricity_abs="0"
            CO_normed="185.005789" CO2_normed="13187.513190" HC_normed="1.154342" PMx_normed="0.239711" NOx_normed="5.438308" fuel_normed="5.668722" electricity_normed="0"
            traveltime="1.59" CO_perVeh="99.982782" CO2_perVeh="7126.935164" HC_perVeh="0.623842" PMx_perVeh="0.129547" NOx_perVeh="2.939028" fuel_perVeh="3.063551" electricity_perVeh="0"/>
        <edge id=":11_1" sampledSeconds="50.67" CO_abs="1020.754020" CO2_abs="90116.210402" HC_abs="6.697676" PMx_abs="1.158187" NOx_abs="33.841180" fuel_abs="38.737476" electricity_abs="0"
            CO_normed="10.821084" CO2_normed="955.328149" HC_normed="0.071003" PMx_normed="0.012278" NOx_normed="0.358753" fuel_normed="0.410659" electricity_normed="0"
            traveltime="1.68" CO_perVeh="33.850116" CO2_perVeh="2988.422388" HC_perVeh="0.222107" PMx_perVeh="0.038408" NOx_perVeh="1.122237" fuel_perVeh="1.284607" electricity_perVeh="0"/>
        <edge id=":110_0" sampledSeconds="95.05" CO_abs="4.792503" CO2_abs="1911.684311" HC_abs="0.067003" PMx_abs="0.024195" NOx_abs="0.632348" fuel_abs="0.821754" electricity_abs="0"
            CO_normed="0.062154" CO2_normed="24.792644" HC_normed="0.000869" PMx_normed="0.000314" NOx_normed="0.008201" fuel_normed="0.010657" electricity_normed="0"
            traveltime="0.93" CO_perVeh="0.046922" CO2_perVeh="18.716780" HC_perVeh="0.000656" PMx_perVeh="0.000237" NOx_perVeh="0.006191" fuel_perVeh="0.008046" electricity_perVeh="0"/>
        <edge id=":110_1" sampledSeconds="444.09" CO_abs="10449.573637" CO2_abs="1266971.420315" HC_abs="78.356577" PMx_abs="23.171376" NOx_abs="476.161924" fuel_abs="544.612746" electricity_abs="0"
            CO_normed="134.137711" CO2_normed="16263.691958" HC_normed="1.005837" PMx_normed="0.297443" NOx_normed="6.112333" fuel_normed="6.991013" electricity_normed="0"
            traveltime="0.68" CO_perVeh="16.052115" CO2_perVeh="1946.258392" HC_perVeh="0.120367" PMx_perVeh="0.035595" NOx_perVeh="0.731456" fuel_perVeh="0.836607" electricity_perVeh="0"/>
        <edge id=":111_0" sampledSeconds="340.55" CO_abs="8390.775115" CO2_abs="1034485.348255" HC_abs="63.293030" PMx_abs="18.827157" NOx_abs="387.563384" fuel_abs="444.677754" electricity_abs="0"
            CO_normed="193.798174" CO2_normed="23893.069357" HC_normed="1.461852" PMx_normed="0.434843" NOx_normed="8.951387" fuel_normed="10.270533" electricity_normed="0"
            traveltime="0.38" CO_perVeh="9.325037" CO2_perVeh="1149.669016" HC_perVeh="0.070340" PMx_perVeh="0.020923" NOx_perVeh="0.430716" fuel_perVeh="0.494190" electricity_perVeh="0"/>
        <edge id=":114_0" sampledSeconds="107.18" CO_abs="10744.940052" CO2_abs="766574.269751" HC_abs="67.426612" PMx_abs="15.678266" NOx_abs="325.318651" fuel_abs="329.513530" electricity_abs="0"
            CO_normed="142.785895" CO2_normed="10186.747700" HC_normed="0.896010" PMx_normed="0.208343" NOx_normed="4.323050" fuel_normed="4.378795" electricity_normed="0"
            traveltime="0.99" CO_perVeh="99.403062" CO2_perVeh="7091.694239" HC_perVeh="0.623774" PMx_perVeh="0.145042" NOx_perVeh="3.009572" fuel_perVeh="3.048379" electricity_perVeh="0"/>
        <edge id=":114_1" sampledSeconds="416.02" CO_abs="10407.662082" CO2_abs="1263933.893466" HC_abs="78.117406" PMx_abs="23.106343" NOx_abs="474.988330" fuel_abs="543.307055" electricity_abs="0"
            CO_normed="137.432868" CO2_normed="16690.209477" HC_normed="1.031538" PMx_normed="0.305119" NOx_normed="6.272207" fuel_normed="7.174354" electricity_normed="0"
            traveltime="0.66" CO_perVeh="16.584316" CO2_perVeh="2014.042996" HC_perVeh="0.124478" PMx_perVeh="0.036819" NOx_perVeh="0.756881" fuel_perVeh="0.865744" electricity_perVeh="0"/>
        <edge id=":115_0" sampledSeconds="80.22" CO_abs="198.677656" CO2_abs="20518.230854" HC_abs="1.383297" PMx_abs="0.312960" NOx_abs="7.930724" fuel_abs="8.819900" electricity_abs="0"
            CO_normed="4.489854" CO2_normed="463.685049" HC_normed="0.031261" PMx_normed="0.007072" NOx_normed="0.179224" fuel_normed="0.199318" electricity_normed="0"
            traveltime="0.63" CO_perVeh="1.563433" CO2_perVeh="161.461905" HC_perVeh="0.010885" PMx_perVeh="0.002463" NOx_perVeh="0.062408" fuel_perVeh="0.069405" electricity_perVeh="0"/>
        <edge id=":115_1" sampledSeconds="72.22" CO_abs="1008.386330" CO2_abs="155619.341581" HC_abs="8.065503" PMx_abs="2.304196" NOx_abs="57.749319" fuel_abs="66.893871" electricity_abs="0"
            CO_normed="20.350964" CO2_normed="3140.665031" HC_normed="0.162776" PMx_normed="0.046503" NOx_normed="1.165480" fuel_normed="1.350033" electricity_normed="0"
            traveltime="0.59" CO_perVeh="8.255330" CO2_perVeh="1274.004766" HC_perVeh="0.066030" PMx_perVeh="0.018864" NOx_perVeh="0.472775" fuel_perVeh="0.547638" electricity_perVeh="0"/>
        <edge id=":116_0" sampledSeconds="74.34" CO_abs="104.922367" CO2_abs="16286.200530" HC_abs="0.849075" PMx_abs="0.208231" NOx_abs="5.941401" fuel_abs="7.000758" electricity_abs="0"
            CO_normed="2.646891" CO2_normed="410.854300" HC_normed="0.021420" PMx_normed="0.005253" NOx_normed="0.149885" fuel_normed="0.176609" electricity_normed="0"
            traveltime="0.56" CO_perVeh="0.792243" CO2_perVeh="122.973037" HC_perVeh="0.006411" PMx_perVeh="0.001572" NOx_perVeh="0.044862" fuel_perVeh="0.052861" electricity_perVeh="0"/>
        <edge id=":117_0" sampledSeconds="240.31" CO_abs="13791.341230" CO2_abs="1150120.849355" HC_abs="90.109526" PMx_abs="21.074548" NOx_abs="469.189043" fuel_abs="494.383870" electricity_abs="0"
            CO_normed="311.666185" CO2_normed="25991.219517" HC_normed="2.036357" PMx_normed="0.476257" NOx_normed="10.603056" fuel_normed="11.172426" electricity_normed="0"
            traveltime="0.60" CO_perVeh="34.580437" CO2_perVeh="2883.815394" HC_perVeh="0.225941" PMx_perVeh="0.052842" NOx_perVeh="1.176446" fuel_perVeh="1.239619" electricity_perVeh="0"/>
        <edge id=":117_1" sampledSeconds="76.07" CO_abs="4279.041278" CO2_abs="364139.163051" HC_abs="28.107224" PMx_abs="6.556898" NOx_abs="147.743754" fuel_abs="156.526726" electricity_abs="0"
            CO_normed="91.134415" CO2_normed="7755.384317" HC_normed="0.598624" PMx_normed="0.139648" NOx_normed="3.146626" fuel_normed="3.333684" electricity_normed="0"
            traveltime="0.64" CO_perVeh="36.176900" CO2_perVeh="3078.592884" HC_perVeh="0.237631" PMx_perVeh="0.055435" NOx_perVeh="1.249091" fuel_perVeh="1.323346" electricity_perVeh="0"/>
        <edge id=":118_0" sampledSeconds="899.06" CO_abs="13188.014075" CO2_abs="2041653.263471" HC_abs="105.985288" PMx_abs="30.266484" NOx_abs="756.774586" fuel_abs="877.616507" electricity_abs="0"
            CO_normed="40.015523" CO2_normed="6194.854162" HC_normed="0.321584" PMx_normed="0.091836" NOx_normed="2.296231" fuel_normed="2.662894" electricity_normed="0"
            traveltime="3.92" CO_perVeh="57.523335" CO2_perVeh="8905.260838" HC_perVeh="0.462285" PMx_perVeh="0.132016" NOx_perVeh="3.300891" fuel_perVeh="3.827978" electricity_perVeh="0"/>
        <edge id=":118_4" sampledSeconds="282.85" CO_abs="4054.345846" CO2_abs="651906.187219" HC_abs="33.194405" PMx_abs="9.490600" NOx_abs="240.317436" fuel_abs="280.225828" electricity_abs="0"
            CO_normed="12.325618" CO2_normed="1981.860189" HC_normed="0.100914" PMx_normed="0.028852" NOx_normed="0.730589" fuel_normed="0.851915" electricity_normed="0"
            traveltime="3.92" CO_perVeh="56.210994" CO2_perVeh="9038.275483" HC_perVeh="0.460220" PMx_perVeh="0.131581" NOx_perVeh="3.331852" fuel_perVeh="3.885158" electricity_perVeh="0"/>
        <edge id=":118_5" sampledSeconds="238.00" CO_abs="3677.992383" CO2_abs="566938.536031" HC_abs="29.398752" PMx_abs="8.494481" NOx_abs="210.547352" fuel_abs="243.701692" electricity_abs="0"
            CO_normed="11.292443" CO2_normed="1740.656509" HC_normed="0.090262" PMx_normed="0.026080" NOx_normed="0.646438" fuel_normed="0.748231" electricity_normed="0"
            traveltime="3.81" CO_perVeh="58.864275" CO2_perVeh="9073.544059" HC_perVeh="0.470511" PMx_perVeh="0.135950" NOx_perVeh="3.369696" fuel_perVeh="3.900314" electricity_perVeh="0"/>
        <edge id=":119_0" sampledSeconds="139.22" CO_abs="2390.306792" CO2_abs="354236.182009" HC_abs="18.857955" PMx_abs="5.324987" NOx_abs="132.237842" fuel_abs="152.270406" electricity_abs="0"
            CO_normed="51.255518" CO2_normed="7595.911612" HC_normed="0.404372" PMx_normed="0.114184" NOx_normed="2.835585" fuel_normed="3.265145" electricity_normed="0"
            traveltime="0.56" CO_perVeh="9.582570" CO2_perVeh="1420.107695" HC_perVeh="0.075600" PMx_perVeh="0.021347" NOx_perVeh="0.530132" fuel_perVeh="0.610441" electricity_perVeh="0"/>
        <edge id=":12_0" sampledSeconds="594.91" CO_abs="55894.791340" CO2_abs="3145581.042870" HC_abs="329.196631" PMx_abs="61.644217" NOx_abs="1340.806645" fuel_abs="1352.146283" electricity_abs="0"
            CO_normed="523.698740" CO2_normed="29472.099107" HC_normed="3.084364" PMx_normed="0.577567" NOx_normed="12.562508" fuel_normed="12.668753" electricity_normed="0"
            traveltime="2.14" CO_perVeh="200.915498" CO2_perVeh="11306.885064" HC_perVeh="1.183307" PMx_perVeh="0.221582" NOx_perVeh="4.819570" fuel_perVeh="4.860330" electricity_perVeh="0"/>
        <edge id=":12_1" sampledSeconds="56.15" CO_abs="1038.750135" CO2_abs="94193.984561" HC_abs="6.878356" PMx_abs="1.234051" NOx_abs="35.484428" fuel_abs="40.490297" electricity_abs="0"
            CO_normed="9.722775" CO2_normed="881.662354" HC_normed="0.064382" PMx_normed="0.011551" NOx_normed="0.332137" fuel_normed="0.378992" electricity_normed="0"
            traveltime="1.89" CO_perVeh="35.028186" CO2_perVeh="3176.360036" HC_perVeh="0.231948" PMx_perVeh="0.041614" NOx_perVeh="1.196587" fuel_perVeh="1.365393" electricity_perVeh="0"/>
        <edge id=":120_0" sampledSeconds="38.96" CO_abs="485.634120" CO2_abs="84415.446846" HC_abs="4.062084" PMx_abs="1.201745" NOx_abs="30.836893" fuel_abs="36.286500" electricity_abs="0"
            CO_normed="381.827854" CO2_normed="66371.302164" HC_normed="3.193797" PMx_normed="0.944867" NOx_normed="24.245382" fuel_normed="28.530114" electricity_normed="0"
            traveltime="0.01" CO_perVeh="0.186862" CO2_perVeh="32.481376" HC_perVeh="0.001563" PMx_perVeh="0.000462" NOx_perVeh="0.011865" fuel_perVeh="0.013962" electricity_perVeh="0"/>
        <edge id=":121_0" sampledSeconds="370.58" CO_abs="52847.523185" CO2_abs="1427345.602203" HC_abs="274.166589" PMx_abs="30.812808" NOx_abs="631.311105" fuel_abs="613.571502" electricity_abs="0"
            CO_normed="30219.018489" CO2_normed="816177.950159" HC_normed="156.772631" PMx_normed="17.619233" NOx_normed="360.993303" fuel_normed="350.849528" electricity_normed="0"
            traveltime="0.11" CO_perVeh="16.174418" CO2_perVeh="436.850838" HC_perVeh="0.083911" PMx_perVeh="0.009431" NOx_perVeh="0.193218" fuel_perVeh="0.187789" electricity_perVeh="0"/>
        <edge id=":122_0" sampledSeconds="134.90" CO_abs="855.948541" CO2_abs="87584.213938" HC_abs="5.957792" PMx_abs="1.559755" NOx_abs="34.671940" fuel_abs="37.648388" electricity_abs="0"
            CO_normed="18.846751" CO2_normed="1928.477921" HC_normed="0.131182" PMx_normed="0.034344" NOx_normed="0.763426" fuel_normed="0.828963" electricity_normed="0"
            traveltime="0.54" CO_perVeh="3.410387" CO2_perVeh="348.965005" HC_perVeh="0.023738" PMx_perVeh="0.006215" NOx_perVeh="0.138145" fuel_perVeh="0.150004" electricity_perVeh="0"/>
        <edge id=":123_0" sampledSeconds="309.74" CO_abs="40020.223661" CO2_abs="2465684.444435" HC_abs="241.439690" PMx_abs="50.651506" NOx_abs="1057.949043" fuel_abs="1059.882815" electricity_abs="0"
            CO_normed="152.622821" CO2_normed="9403.238698" HC_normed="0.920765" PMx_normed="0.193167" NOx_normed="4.034639" fuel_normed="4.042014" electricity_normed="0"
            traveltime="4.22" CO_perVeh="544.997858" CO2_perVeh="33577.841837" HC_perVeh="3.287940" PMx_perVeh="0.689775" NOx_perVeh="14.407215" fuel_perVeh="14.433549" electricity_perVeh="0"/>
        <edge id=":123_1" sampledSeconds="0.00" CO_abs="0" CO2_abs="0" HC_abs="0" PMx_abs="0" NOx_abs="0" fuel_abs="0" electricity_abs="0"
            CO_normed="0" CO2_normed="0" HC_normed="0" PMx_normed="0" NOx_normed="0" fuel_normed="0" electricity_normed="0"/>
        <edge id=":123_2" sampledSeconds="263.57" CO_abs="35676.237029" CO2_abs="2186959.416099" HC_abs="215.041481" PMx_abs="45.322100" NOx_abs="940.875056" fuel_abs="940.071471" electricity_abs="0"
            CO_normed="137.361174" CO2_normed="8420.263409" HC_normed="0.827956" PMx_normed="0.174500" NOx_normed="3.622571" fuel_normed="3.619477" electricity_normed="0"
            traveltime="4.14" CO_perVeh="560.759306" CO2_perVeh="34374.641120" HC_perVeh="3.380023" PMx_perVeh="0.712373" NOx_perVeh="14.788680" fuel_perVeh="14.776049" electricity_perVeh="0"/>
        <edge id=":123_3" sampledSeconds="468.39" CO_abs="23213.663156" CO2_abs="2163950.756901" HC_abs="156.929795" PMx_abs="40.583681" NOx_abs="869.765982" fuel_abs="930.180639" electricity_abs="0"
            CO_normed="91.448760" CO2_normed="8524.747351" HC_normed="0.618215" PMx_normed="0.159877" NOx_normed="3.426388" fuel_normed="3.664388" electricity_normed="0"
            traveltime="2.80" CO_perVeh="138.943178" CO2_perVeh="12952.121914" HC_perVeh="0.939288" PMx_perVeh="0.242910" NOx_perVeh="5.205902" fuel_perVeh="5.567508" electricity_perVeh="0"/>
        <edge id=":123_5" sampledSeconds="0.00" CO_abs="0" CO2_abs="0" HC_abs="0" PMx_abs="0" NOx_abs="0" fuel_abs="0" electricity_abs="0"
            CO_normed="0" CO2_normed="0" HC_normed="0" PMx_normed="0" NOx_normed="0" fuel_normed="0" electricity_normed="0"/>
        <edge id=":123_6" sampledSeconds="195.12" CO_abs="9698.318825" CO2_abs="897759.454003" HC_abs="65.568528" PMx_abs="16.914610" NOx_abs="361.669531" fuel_abs="385.904492" electricity_abs="0"
            CO_normed="36.903878" CO2_normed="3416.139014" HC_normed="0.249500" PMx_normed="0.064363" NOx_normed="1.376219" fuel_normed="1.468437" electricity_normed="0"
            traveltime="2.92" CO_perVeh="145.091208" CO2_perVeh="13430.884873" HC_perVeh="0.980935" PMx_perVeh="0.253050" NOx_perVeh="5.410739" fuel_perVeh="5.773305" electricity_perVeh="0"/>
        <edge id=":124_0" sampledSeconds="119.10" CO_abs="4554.388740" CO2_abs="387946.838792" HC_abs="29.925508" PMx_abs="7.578967" NOx_abs="158.487249" fuel_abs="166.759901" electricity_abs="0"
            CO_normed="106.626391" CO2_normed="9082.529808" HC_normed="0.700610" PMx_normed="0.177437" NOx_normed="3.710470" fuel_normed="3.904148" electricity_normed="0"
            traveltime="0.46" CO_perVeh="17.698251" CO2_perVeh="1507.552584" HC_perVeh="0.116290" PMx_perVeh="0.029452" NOx_perVeh="0.615878" fuel_perVeh="0.648025" electricity_perVeh="0"/>
        <edge id=":125_0" sampledSeconds="141.17" CO_abs="5136.890845" CO2_abs="529120.596478" HC_abs="35.965923" PMx_abs="9.779538" NOx_abs="208.226207" fuel_abs="227.444181" electricity_abs="0"
            CO_normed="323.108765" CO2_normed="33281.513564" HC_normed="2.262245" PMx_normed="0.615130" NOx_normed="13.097361" fuel_normed="14.306165" electricity_normed="0"
            traveltime="0.16" CO_perVeh="5.883059" CO2_perVeh="605.978923" HC_perVeh="0.041190" PMx_perVeh="0.011200" NOx_perVeh="0.238472" fuel_perVeh="0.260482" electricity_perVeh="0"/>
        <edge id=":125_3" sampledSeconds="0.00" CO_abs="0" CO2_abs="0" HC_abs="0" PMx_abs="0" NOx_abs="0" fuel_abs="0" electricity_abs="0"
            CO_normed="0" CO2_normed="0" HC_normed="0" PMx_normed="0" NOx_normed="0" fuel_normed="0" electricity_normed="0"/>
        <edge id=":126_0" sampledSeconds="27.20" CO_abs="81.805947" CO2_abs="5946.149520" HC_abs="0.510014" PMx_abs="0.091970" NOx_abs="2.352705" fuel_abs="2.556006" electricity_abs="0"
            CO_normed="2.694014" CO2_normed="195.817211" HC_normed="0.016796" PMx_normed="0.003029" NOx_normed="0.077479" fuel_normed="0.084174" electricity_normed="0"
            traveltime="0.57" CO_perVeh="1.702620" CO2_perVeh="123.756700" HC_perVeh="0.010615" PMx_perVeh="0.001914" NOx_perVeh="0.048967" fuel_perVeh="0.053198" electricity_perVeh="0"/>
        <edge id=":126_1" sampledSeconds="80.76" CO_abs="1508.066801" CO2_abs="215078.246430" HC_abs="11.765916" PMx_abs="3.519690" NOx_abs="80.445195" fuel_abs="92.452372" electricity_abs="0"
            CO_normed="44.188002" CO2_normed="6302.027238" HC_normed="0.344754" PMx_normed="0.103131" NOx_normed="2.357132" fuel_normed="2.708955" electricity_normed="0"
            traveltime="0.35" CO_perVeh="6.525664" CO2_perVeh="930.680526" HC_perVeh="0.050913" PMx_perVeh="0.015230" NOx_perVeh="0.348100" fuel_perVeh="0.400057" electricity_perVeh="0"/>
        <edge id=":127_0" sampledSeconds="234.05" CO_abs="5205.773386" CO2_abs="671877.363634" HC_abs="39.445371" PMx_abs="11.528545" NOx_abs="254.399121" fuel_abs="288.809280" electricity_abs="0"
            CO_normed="120.382888" CO2_normed="15537.083759" HC_normed="0.912169" PMx_normed="0.266596" NOx_normed="5.882949" fuel_normed="6.678680" electricity_normed="0"
            traveltime="0.44" CO_perVeh="9.734960" CO2_perVeh="1256.431757" HC_perVeh="0.073764" PMx_perVeh="0.021559" NOx_perVeh="0.475734" fuel_perVeh="0.540082" electricity_perVeh="0"/>
        <edge id=":128_0" sampledSeconds="229.29" CO_abs="275.069016" CO2_abs="37848.204462" HC_abs="2.099923" PMx_abs="0.580726" NOx_abs="14.209565" fuel_abs="16.269260" electricity_abs="0"
            CO_normed="4.251045" CO2_normed="584.923774" HC_normed="0.032453" PMx_normed="0.008975" NOx_normed="0.219601" fuel_normed="0.251433" electricity_normed="0"
            traveltime="0.75" CO_perVeh="0.904252" CO2_perVeh="124.420825" HC_perVeh="0.006903" PMx_perVeh="0.001909" NOx_perVeh="0.046712" fuel_perVeh="0.053483" electricity_perVeh="0"/>
        <edge id=":128_1" sampledSeconds="142.50" CO_abs="129.174710" CO2_abs="19729.758407" HC_abs="1.035254" PMx_abs="0.235339" NOx_abs="7.117141" fuel_abs="8.481025" electricity_abs="0"
            CO_normed="2.062195" CO2_normed="314.973450" HC_normed="0.016527" PMx_normed="0.003757" NOx_normed="0.113621" fuel_normed="0.135394" electricity_normed="0"
            traveltime="0.85" CO_perVeh="0.774329" CO2_perVeh="118.268687" HC_perVeh="0.006206" PMx_perVeh="0.001411" NOx_perVeh="0.042663" fuel_perVeh="0.050839" electricity_perVeh="0"/>
        <edge id=":129_0" sampledSeconds="104.63" CO_abs="6200.708276" CO2_abs="552538.419191" HC_abs="41.346889" PMx_abs="10.425370" NOx_abs="224.144976" fuel_abs="237.510251" electricity_abs="0"
            CO_normed="144.452791" CO2_normed="12872.032223" HC_normed="0.963224" PMx_normed="0.242871" NOx_normed="5.221721" fuel_normed="5.533081" electricity_normed="0"
            traveltime="0.50" CO_perVeh="29.388103" CO2_perVeh="2618.742106" HC_perVeh="0.195963" PMx_perVeh="0.049411" NOx_perVeh="1.062330" fuel_perVeh="1.125674" electricity_perVeh="0"/>
        <edge id=":13_0" sampledSeconds="59.92" CO_abs="4873.539819" CO2_abs="350836.384728" HC_abs="30.570739" PMx_abs="6.759109" NOx_abs="146.766093" fuel_abs="150.808283" electricity_abs="0"
            CO_normed="34.456059" CO2_normed="2480.422771" HC_normed="0.216136" PMx_normed="0.047787" NOx_normed="1.037640" fuel_normed="1.066219" electricity_normed="0"
            traveltime="2.12" CO_perVeh="172.384937" CO2_perVeh="12409.646825" HC_perVeh="1.081336" PMx_perVeh="0.239081" NOx_perVeh="5.191353" fuel_perVeh="5.334331" electricity_perVeh="0"/>
        <edge id=":13_1" sampledSeconds="531.59" CO_abs="14943.072792" CO2_abs="1137405.055482" HC_abs="94.210105" PMx_abs="16.675877" NOx_abs="442.886179" fuel_abs="488.924830" electricity_abs="0"
            CO_normed="148.877680" CO2_normed="11331.954861" HC_normed="0.938614" PMx_normed="0.166142" NOx_normed="4.412470" fuel_normed="4.871153" electricity_normed="0"
            traveltime="1.86" CO_perVeh="52.169821" CO2_perVeh="3970.951528" HC_perVeh="0.328910" PMx_perVeh="0.058219" NOx_perVeh="1.546221" fuel_perVeh="1.706953" electricity_perVeh="0"/>
        <edge id=":132_0" sampledSeconds="41.00" CO_abs="665.417906" CO2_abs="101161.901080" HC_abs="5.275581" PMx_abs="1.484117" NOx_abs="37.522617" fuel_abs="43.485047" electricity_abs="0"
            CO_normed="1255.637100" CO2_normed="190891.521065" HC_normed="9.954970" PMx_normed="2.800513" NOx_normed="70.804813" fuel_normed="82.055859" electricity_normed="0"
            traveltime="6.355983e-03" CO_perVeh="0.103158" CO2_perVeh="15.682800" HC_perVeh="0.000818" PMx_perVeh="0.000230" NOx_perVeh="0.005817" fuel_perVeh="0.006741" electricity_perVeh="0"/>