<?xml version="1.0" encoding="UTF-8"?>

<!-- generated on Tue Nov 10 00:08:12 2020 by Eclipse SUMO sumo Version 1.7.0
<configuration xmlns:xsi="http://www.w3.org/2001/XMLSchema-instance" xsi:noNamespaceSchemaLocation="http://sumo.dlr.de/xsd/sumoConfiguration.xsd">

    <input>
        <net-file value="../dataSets/Porto/6AM7AM_Routing_SaoBento/Porto.net.xml"/>
        <route-files value="../results/Porto/6AM7AM_Routing_SaoBento/cost_hc-length/solution12/Porto.rou.xml"/>
        <additional-files value="moreOutputInfo.xml"/>
    </input>

    <output>
        <emission-output.precision value="6"/>
        <tripinfo-output value="../results/Porto/6AM7AM_Routing_SaoBento/cost_hc-length/solution12/Porto-tripinfo"/>
    </output>

    <processing>
        <collision.action value="warn"/>
        <time-to-teleport value="-1"/>
    </processing>

    <emissions>
        <device.emissions.probability value="1"/>
    </emissions>

    <gui_only>
        <quit-on-end value="true"/>
        <start value="true"/>
    </gui_only>

</configuration>
-->

<meandata xmlns:xsi="http://www.w3.org/2001/XMLSchema-instance" xsi:noNamespaceSchemaLocation="http://sumo.dlr.de/xsd/meandata_file.xsd">
    <interval begin="0.00" end="4700.00" id="emissions-detector">
        <edge id=":1092997347_0" sampledSeconds="270.51" CO_abs="34679.615108" CO2_abs="1359603.597063" HC_abs="190.026425" PMx_abs="27.739483" NOx_abs="590.262304" fuel_abs="584.440452" electricity_abs="0"
            CO_normed="60370.703283" CO2_normed="2366814.772450" HC_normed="330.800353" PMx_normed="48.289235" NOx_normed="1027.535926" fuel_normed="1017.401174" electricity_normed="0"
            traveltime="0.08" CO_perVeh="9.763961" CO2_perVeh="382.793056" HC_perVeh="0.053501" PMx_perVeh="0.007810" NOx_perVeh="0.166187" fuel_perVeh="0.164548" electricity_perVeh="0"/>
        <edge id=":1103427051_0" sampledSeconds="11.08" CO_abs="834.652913" CO2_abs="46511.088168" HC_abs="4.902560" PMx_abs="0.902935" NOx_abs="19.793964" fuel_abs="19.993079" electricity_abs="0"
            CO_normed="2204.512464" CO2_normed="122846.601178" HC_normed="12.948800" PMx_normed="2.384861" NOx_normed="52.280462" fuel_normed="52.806372" electricity_normed="0"
            traveltime="0.03" CO_perVeh="2.286936" CO2_perVeh="127.439678" HC_perVeh="0.013433" PMx_perVeh="0.002474" NOx_perVeh="0.054235" fuel_perVeh="0.054781" electricity_perVeh="0"/>
        <edge id=":1105984386_0" sampledSeconds="22.82" CO_abs="312.979640" CO2_abs="25413.096381" HC_abs="1.999493" PMx_abs="0.314841" NOx_abs="9.509276" fuel_abs="10.924143" electricity_abs="0"
            CO_normed="24.688886" CO2_normed="2004.670486" HC_normed="0.157727" PMx_normed="0.024836" NOx_normed="0.750124" fuel_normed="0.861733" electricity_normed="0"
            traveltime="0.96" CO_perVeh="13.135513" CO2_perVeh="1066.567971" HC_perVeh="0.083917" PMx_perVeh="0.013214" NOx_perVeh="0.399097" fuel_perVeh="0.458478" electricity_perVeh="0"/>
        <edge id=":1105984390_0" sampledSeconds="23.68" CO_abs="109.156563" CO2_abs="7799.976714" HC_abs="0.675753" PMx_abs="0.112449" NOx_abs="3.035580" fuel_abs="3.352905" electricity_abs="0"
            CO_normed="6.656790" CO2_normed="475.672791" HC_normed="0.041210" PMx_normed="0.006858" NOx_normed="0.185121" fuel_normed="0.204473" electricity_normed="0"
            traveltime="1.07" CO_perVeh="4.950197" CO2_perVeh="353.725114" HC_perVeh="0.030645" PMx_perVeh="0.005099" NOx_perVeh="0.137662" fuel_perVeh="0.152053" electricity_perVeh="0"/>
        <edge id=":1105984390_1" sampledSeconds="645.95" CO_abs="14608.144357" CO2_abs="1938737.608567" HC_abs="112.810655" PMx_abs="34.055424" NOx_abs="723.152466" fuel_abs="833.374625" electricity_abs="0"
            CO_normed="852.187125" CO2_normed="113099.048644" HC_normed="6.580972" PMx_normed="1.986672" NOx_normed="42.186140" fuel_normed="48.616108" electricity_normed="0"
            traveltime="0.64" CO_perVeh="14.383131" CO2_perVeh="1908.874743" HC_perVeh="0.111073" PMx_perVeh="0.033531" NOx_perVeh="0.712014" fuel_perVeh="0.820538" electricity_perVeh="0"/>
        <edge id=":1105984395_0" sampledSeconds="8.97" CO_abs="192.259418" CO2_abs="13765.364414" HC_abs="1.193217" PMx_abs="0.210574" NOx_abs="5.433698" fuel_abs="5.917173" electricity_abs="0"
            CO_normed="160.067971" CO2_normed="11460.525414" HC_normed="0.993427" PMx_normed="0.175316" NOx_normed="4.523893" fuel_normed="4.926416" electricity_normed="0"
            traveltime="0.09" CO_perVeh="1.949721" CO2_perVeh="139.595847" HC_perVeh="0.012101" PMx_perVeh="0.002135" NOx_perVeh="0.055104" fuel_perVeh="0.060007" electricity_perVeh="0"/>
        <edge id=":1105984398_0" sampledSeconds="22.75" CO_abs="1391.707155" CO2_abs="98026.756489" HC_abs="8.642786" PMx_abs="1.723313" NOx_abs="40.121446" fuel_abs="42.137413" electricity_abs="0"
            CO_normed="88.171088" CO2_normed="6210.448645" HC_normed="0.547560" PMx_normed="0.109180" NOx_normed="2.541879" fuel_normed="2.669600" electricity_normed="0"
            traveltime="1.10" CO_perVeh="67.162240" CO2_perVeh="4730.662250" HC_perVeh="0.417091" PMx_perVeh="0.083165" NOx_perVeh="1.936216" fuel_perVeh="2.033505" electricity_perVeh="0"/>
        <edge id=":1105984398_1" sampledSeconds="450.12" CO_abs="7773.484242" CO2_abs="929939.883125" HC_abs="56.630707" PMx_abs="13.040532" NOx_abs="349.790023" fuel_abs="399.741800" electricity_abs="0"
            CO_normed="476.714023" CO2_normed="57029.173624" HC_normed="3.472915" PMx_normed="0.799719" NOx_normed="21.451103" fuel_normed="24.514428" electricity_normed="0"
            traveltime="0.95" CO_perVeh="16.461938" CO2_perVeh="1969.337365" HC_perVeh="0.119927" PMx_perVeh="0.027616" NOx_perVeh="0.740752" fuel_perVeh="0.846535" electricity_perVeh="0"/>
        <edge id=":1106006327_0" sampledSeconds="134.23" CO_abs="18179.312668" CO2_abs="593250.166194" HC_abs="96.747929" PMx_abs="12.390266" NOx_abs="259.784500" fuel_abs="255.017192" electricity_abs="0"
            CO_normed="1571.623015" CO2_normed="51287.176368" HC_normed="8.363973" PMx_normed="1.071153" NOx_normed="22.458676" fuel_normed="22.046537" electricity_normed="0"
            traveltime="2.08" CO_perVeh="281.775848" CO2_perVeh="9195.263414" HC_perVeh="1.499574" PMx_perVeh="0.192047" NOx_perVeh="4.026610" fuel_perVeh="3.952717" electricity_perVeh="0"/>
        <edge id=":1106006327_1" sampledSeconds="163.01" CO_abs="21839.954706" CO2_abs="722573.594406" HC_abs="116.457675" PMx_abs="15.019683" NOx_abs="315.915001" fuel_abs="310.608599" electricity_abs="0"
            CO_normed="1646.503538" CO2_normed="54474.471014" HC_normed="8.779687" PMx_normed="1.132327" NOx_normed="23.816678" fuel_normed="23.416631" electricity_normed="0"
            traveltime="2.31" CO_perVeh="310.046305" CO2_perVeh="10257.863457" HC_perVeh="1.653267" PMx_perVeh="0.213224" NOx_perVeh="4.484821" fuel_perVeh="4.409489" electricity_perVeh="0"/>
        <edge id=":1106006327_2" sampledSeconds="0.00" CO_abs="0" CO2_abs="0" HC_abs="0" PMx_abs="0" NOx_abs="0" fuel_abs="0" electricity_abs="0"
            CO_normed="0" CO2_normed="0" HC_normed="0" PMx_normed="0" NOx_normed="0" fuel_normed="0" electricity_normed="0"/>
        <edge id=":1106006327_3" sampledSeconds="0.00" CO_abs="0" CO2_abs="0" HC_abs="0" PMx_abs="0" NOx_abs="0" fuel_abs="0" electricity_abs="0"
            CO_normed="0" CO2_normed="0" HC_normed="0" PMx_normed="0" NOx_normed="0" fuel_normed="0" electricity_normed="0"/>
        <edge id=":1107381198_0" sampledSeconds="0.00" CO_abs="0" CO2_abs="0" HC_abs="0" PMx_abs="0" NOx_abs="0" fuel_abs="0" electricity_abs="0"
            CO_normed="0" CO2_normed="0" HC_normed="0" PMx_normed="0" NOx_normed="0" fuel_normed="0" electricity_normed="0"/>
        <edge id=":1107381198_1" sampledSeconds="36.05" CO_abs="989.922491" CO2_abs="39323.357274" HC_abs="5.404484" PMx_abs="0.635968" NOx_abs="16.012078" fuel_abs="16.903816" electricity_abs="0"
            CO_normed="82.686860" CO2_normed="3284.625773" HC_normed="0.451429" PMx_normed="0.053122" NOx_normed="1.337467" fuel_normed="1.411952" electricity_normed="0"
            traveltime="1.48" CO_perVeh="40.757854" CO2_perVeh="1619.051662" HC_perVeh="0.222518" PMx_perVeh="0.026185" NOx_perVeh="0.659262" fuel_perVeh="0.695977" electricity_perVeh="0"/>
        <edge id=":1110338277_0" sampledSeconds="97.37" CO_abs="1534.145188" CO2_abs="185148.550531" HC_abs="11.230209" PMx_abs="2.517940" NOx_abs="69.181581" fuel_abs="79.587636" electricity_abs="0"
            CO_normed="4196.749755" CO2_normed="506485.396590" HC_normed="30.720936" PMx_normed="6.887983" NOx_normed="189.250526" fuel_normed="217.716937" electricity_normed="0"
            traveltime="0.02" CO_perVeh="0.345750" CO2_perVeh="41.726876" HC_perVeh="0.002531" PMx_perVeh="0.000567" NOx_perVeh="0.015591" fuel_perVeh="0.017937" electricity_perVeh="0"/>
        <edge id=":1110338293_0" sampledSeconds="123.31" CO_abs="6666.755278" CO2_abs="451375.575385" HC_abs="40.990393" PMx_abs="8.082001" NOx_abs="185.938305" fuel_abs="194.026580" electricity_abs="0"
            CO_normed="17021.502838" CO2_normed="1152448.277577" HC_normed="104.656323" PMx_normed="20.634897" NOx_normed="474.736097" fuel_normed="495.387014" electricity_normed="0"
            traveltime="0.03" CO_perVeh="1.529139" CO2_perVeh="103.531029" HC_perVeh="0.009402" PMx_perVeh="0.001854" NOx_perVeh="0.042648" fuel_perVeh="0.044503" electricity_perVeh="0"/>
        <edge id=":1110338295_0" sampledSeconds="0.00" CO_abs="0" CO2_abs="0" HC_abs="0" PMx_abs="0" NOx_abs="0" fuel_abs="0" electricity_abs="0"
            CO_normed="0" CO2_normed="0" HC_normed="0" PMx_normed="0" NOx_normed="0" fuel_normed="0" electricity_normed="0"/>
        <edge id=":1110673403_0" sampledSeconds="143.89" CO_abs="2250.871283" CO2_abs="277887.127553" HC_abs="16.603104" PMx_abs="3.839949" NOx_abs="104.024569" fuel_abs="119.451958" electricity_abs="0"
            CO_normed="5746.905403" CO2_normed="709499.049072" HC_normed="42.390905" PMx_normed="9.804124" NOx_normed="265.594645" fuel_normed="304.983722" electricity_normed="0"
            traveltime="0.02" CO_perVeh="0.361392" CO2_perVeh="44.616611" HC_perVeh="0.002666" PMx_perVeh="0.000617" NOx_perVeh="0.016702" fuel_perVeh="0.019179" electricity_perVeh="0"/>
        <edge id=":1110673412_0" sampledSeconds="252.99" CO_abs="44597.286400" CO2_abs="3047329.396805" HC_abs="277.642919" PMx_abs="66.906513" NOx_abs="1309.303018" fuel_abs="1309.896845" electricity_abs="0"
            CO_normed="117791.805605" CO2_normed="8048705.670212" HC_normed="733.319523" PMx_normed="176.715661" NOx_normed="3458.173782" fuel_normed="3459.742218" electricity_normed="0"
            traveltime="0.02" CO_perVeh="2.746525" CO2_perVeh="187.669857" HC_perVeh="0.017099" PMx_perVeh="0.004120" NOx_perVeh="0.080633" fuel_perVeh="0.080670" electricity_perVeh="0"/>
        <edge id=":1110673414_0" sampledSeconds="0.00" CO_abs="0" CO2_abs="0" HC_abs="0" PMx_abs="0" NOx_abs="0" fuel_abs="0" electricity_abs="0"
            CO_normed="0" CO2_normed="0" HC_normed="0" PMx_normed="0" NOx_normed="0" fuel_normed="0" electricity_normed="0"/>
        <edge id=":1110673414_1" sampledSeconds="14.51" CO_abs="940.704296" CO2_abs="34258.106814" HC_abs="5.073604" PMx_abs="0.612474" NOx_abs="14.334753" fuel_abs="14.726408" electricity_abs="0"
            CO_normed="79.793960" CO2_normed="2905.897234" HC_normed="0.430362" PMx_normed="0.051952" NOx_normed="1.215926" fuel_normed="1.249148" electricity_normed="0"
            traveltime="1.58" CO_perVeh="102.740201" CO2_perVeh="3741.542145" HC_perVeh="0.554120" PMx_perVeh="0.066892" NOx_perVeh="1.565588" fuel_perVeh="1.608363" electricity_perVeh="0"/>
        <edge id=":1110673417_0" sampledSeconds="29.55" CO_abs="458.334677" CO2_abs="52546.209662" HC_abs="3.298770" PMx_abs="0.733255" NOx_abs="19.803259" fuel_abs="22.587410" electricity_abs="0"
            CO_normed="1253.803068" CO2_normed="143743.430686" HC_normed="9.023992" PMx_normed="2.005864" NOx_normed="54.173049" fuel_normed="61.789267" electricity_normed="0"
            traveltime="0.02" CO_perVeh="0.340182" CO2_perVeh="39.000500" HC_perVeh="0.002448" PMx_perVeh="0.000544" NOx_perVeh="0.014698" fuel_perVeh="0.016765" electricity_perVeh="0"/>
        <edge id=":1110673446_0" sampledSeconds="334.72" CO_abs="3199.033170" CO2_abs="254870.553960" HC_abs="20.555359" PMx_abs="4.705036" NOx_abs="104.511653" fuel_abs="109.557112" electricity_abs="0"
            CO_normed="8167.744263" CO2_normed="650733.329259" HC_normed="52.481768" PMx_normed="12.012859" NOx_normed="266.838262" fuel_normed="279.720287" electricity_normed="0"
            traveltime="0.02" CO_perVeh="0.218188" CO2_perVeh="17.383303" HC_perVeh="0.001402" PMx_perVeh="0.000321" NOx_perVeh="0.007128" fuel_perVeh="0.007472" electricity_perVeh="0"/>
        <edge id=":1110673451_0" sampledSeconds="36.87" CO_abs="274.893535" CO2_abs="20755.071604" HC_abs="1.723460" PMx_abs="0.274965" NOx_abs="7.893840" fuel_abs="8.921820" electricity_abs="0"
            CO_normed="779.839816" CO2_normed="58879.635756" HC_normed="4.889250" PMx_normed="0.780043" NOx_normed="22.393873" fuel_normed="25.310127" electricity_normed="0"
            traveltime="0.03" CO_perVeh="0.197135" CO2_perVeh="14.884115" HC_perVeh="0.001236" PMx_perVeh="0.000197" NOx_perVeh="0.005661" fuel_perVeh="0.006398" electricity_perVeh="0"/>
        <edge id=":1110673464_0" sampledSeconds="322.61" CO_abs="612.045837" CO2_abs="45201.568991" HC_abs="3.829148" PMx_abs="0.678961" NOx_abs="17.723901" fuel_abs="19.430331" electricity_abs="0"
            CO_normed="33.201209" CO2_normed="2452.016882" HC_normed="0.207717" PMx_normed="0.036831" NOx_normed="0.961456" fuel_normed="1.054023" electricity_normed="0"
            traveltime="1.17" CO_perVeh="2.212465" CO2_perVeh="163.397708" HC_perVeh="0.013842" PMx_perVeh="0.002454" NOx_perVeh="0.064070" fuel_perVeh="0.070238" electricity_perVeh="0"/>
        <edge id=":1110673464_1" sampledSeconds="708.89" CO_abs="15716.707473" CO2_abs="2036240.410007" HC_abs="120.032077" PMx_abs="35.951814" NOx_abs="762.533471" fuel_abs="875.286440" electricity_abs="0"
            CO_normed="835.414929" CO2_normed="108235.496567" HC_normed="6.380254" PMx_normed="1.911003" NOx_normed="40.532144" fuel_normed="46.525480" electricity_normed="0"
            traveltime="0.70" CO_perVeh="15.509607" CO2_perVeh="2009.408713" HC_perVeh="0.118450" PMx_perVeh="0.035478" NOx_perVeh="0.752486" fuel_perVeh="0.863753" electricity_perVeh="0"/>
        <edge id=":1110673479_0" sampledSeconds="132.89" CO_abs="6932.961611" CO2_abs="482589.513759" HC_abs="42.907219" PMx_abs="8.436859" NOx_abs="197.297018" fuel_abs="207.444249" electricity_abs="0"
            CO_normed="17701.178581" CO2_normed="1232143.439384" HC_normed="109.550346" PMx_normed="21.540918" NOx_normed="503.737067" fuel_normed="529.644890" electricity_normed="0"
            traveltime="0.03" CO_perVeh="1.460493" CO2_perVeh="101.662000" HC_perVeh="0.009039" PMx_perVeh="0.001777" NOx_perVeh="0.041562" fuel_perVeh="0.043700" electricity_perVeh="0"/>
        <edge id=":1110673511_0" sampledSeconds="11.82" CO_abs="138.662947" CO2_abs="20331.340920" HC_abs="1.100715" PMx_abs="0.266943" NOx_abs="7.473565" fuel_abs="8.739591" electricity_abs="0"
            CO_normed="354.033056" CO2_normed="51909.806605" HC_normed="2.810335" PMx_normed="0.681557" NOx_normed="19.081443" fuel_normed="22.313850" electricity_normed="0"
            traveltime="0.02" CO_perVeh="0.274580" CO2_perVeh="40.260081" HC_perVeh="0.002180" PMx_perVeh="0.000529" NOx_perVeh="0.014799" fuel_perVeh="0.017306" electricity_perVeh="0"/>
        <edge id=":1110673517_0" sampledSeconds="17.08" CO_abs="688.428756" CO2_abs="49532.164411" HC_abs="4.298035" PMx_abs="0.856390" NOx_abs="20.142236" fuel_abs="21.291723" electricity_abs="0"
            CO_normed="1757.690441" CO2_normed="126465.100624" HC_normed="10.973706" PMx_normed="2.186529" NOx_normed="51.426985" fuel_normed="54.361847" electricity_normed="0"
            traveltime="0.03" CO_perVeh="1.105318" CO2_perVeh="79.527157" HC_perVeh="0.006901" PMx_perVeh="0.001375" NOx_perVeh="0.032340" fuel_perVeh="0.034185" electricity_perVeh="0"/>
        <edge id=":1110673534_0" sampledSeconds="474.26" CO_abs="2615.616881" CO2_abs="240647.054273" HC_abs="17.374039" PMx_abs="3.031883" NOx_abs="89.802246" fuel_abs="103.444883" electricity_abs="0"
            CO_normed="129.421914" CO2_normed="11907.325793" HC_normed="0.859675" PMx_normed="0.150019" NOx_normed="4.443456" fuel_normed="5.118500" electricity_normed="0"
            traveltime="1.43" CO_perVeh="7.879805" CO2_perVeh="724.973124" HC_perVeh="0.052341" PMx_perVeh="0.009134" NOx_perVeh="0.270538" fuel_perVeh="0.311638" electricity_perVeh="0"/>
        <edge id=":1110673534_1" sampledSeconds="184.43" CO_abs="2447.800475" CO2_abs="327746.992082" HC_abs="18.625674" PMx_abs="4.328516" NOx_abs="121.071287" fuel_abs="140.884776" electricity_abs="0"
            CO_normed="117.770792" CO2_normed="15768.859878" HC_normed="0.896135" PMx_normed="0.208257" NOx_normed="5.825091" fuel_normed="6.778376" electricity_normed="0"
            traveltime="1.22" CO_perVeh="16.252516" CO2_perVeh="2176.122364" HC_perVeh="0.123668" PMx_perVeh="0.028740" NOx_perVeh="0.803870" fuel_perVeh="0.935424" electricity_perVeh="0"/>
        <edge id=":1110673549_0" sampledSeconds="60.04" CO_abs="32.507329" CO2_abs="6519.606197" HC_abs="0.273335" PMx_abs="0.056196" NOx_abs="2.193523" fuel_abs="2.802538" electricity_abs="0"
            CO_normed="1.558150" CO2_normed="312.499432" HC_normed="0.013102" PMx_normed="0.002694" NOx_normed="0.105141" fuel_normed="0.134332" electricity_normed="0"
            traveltime="1.25" CO_perVeh="0.677263" CO2_perVeh="135.830442" HC_perVeh="0.005695" PMx_perVeh="0.001171" NOx_perVeh="0.045700" fuel_perVeh="0.058388" electricity_perVeh="0"/>
        <edge id=":1110673549_1" sampledSeconds="639.24" CO_abs="12812.039225" CO2_abs="1738989.629953" HC_abs="99.898687" PMx_abs="30.344112" NOx_abs="646.315106" fuel_abs="747.512281" electricity_abs="0"
            CO_normed="594.036129" CO2_normed="80629.059140" HC_normed="4.631849" PMx_normed="1.406919" NOx_normed="29.966699" fuel_normed="34.658753" electricity_normed="0"
            traveltime="0.80" CO_perVeh="16.127838" CO2_perVeh="2189.045931" HC_perVeh="0.125753" PMx_perVeh="0.038197" NOx_perVeh="0.813584" fuel_perVeh="0.940971" electricity_perVeh="0"/>
        <edge id=":1110673556_0" sampledSeconds="417.02" CO_abs="51146.331291" CO2_abs="2569462.875475" HC_abs="293.983216" PMx_abs="51.810400" NOx_abs="1106.411668" fuel_abs="1104.500830" electricity_abs="0"
            CO_normed="1817.907811" CO2_normed="91327.110152" HC_normed="10.449125" PMx_normed="1.841511" NOx_normed="39.325488" fuel_normed="39.257570" electricity_normed="0"
            traveltime="2.59" CO_perVeh="317.491485" CO2_perVeh="15949.972625" HC_perVeh="1.824904" PMx_perVeh="0.321614" NOx_perVeh="6.868064" fuel_perVeh="6.856203" electricity_perVeh="0"/>
        <edge id=":1110673556_2" sampledSeconds="246.52" CO_abs="23899.464786" CO2_abs="1034006.595941" HC_abs="133.124486" PMx_abs="20.018478" NOx_abs="441.406245" fuel_abs="444.478611" electricity_abs="0"
            CO_normed="888.208298" CO2_normed="38428.192732" HC_normed="4.947486" PMx_normed="0.743974" NOx_normed="16.404580" fuel_normed="16.518763" electricity_normed="0"
            traveltime="2.99" CO_perVeh="289.895928" CO2_perVeh="12542.301864" HC_perVeh="1.614775" PMx_perVeh="0.242820" NOx_perVeh="5.354173" fuel_perVeh="5.391440" electricity_perVeh="0"/>
        <edge id=":1110673556_3" sampledSeconds="410.30" CO_abs="34462.440439" CO2_abs="1232799.751151" HC_abs="185.631807" PMx_abs="23.583311" NOx_abs="526.110002" fuel_abs="529.937305" electricity_abs="0"
            CO_normed="2913.549988" CO2_normed="104224.299097" HC_normed="15.693826" PMx_normed="1.993798" NOx_normed="44.478794" fuel_normed="44.802365" electricity_normed="0"
            traveltime="1.74" CO_perVeh="145.864245" CO2_perVeh="5217.895282" HC_perVeh="0.785697" PMx_perVeh="0.099818" NOx_perVeh="2.226791" fuel_perVeh="2.242990" electricity_perVeh="0"/>
        <edge id=":1110673556_4" sampledSeconds="203.12" CO_abs="21142.475387" CO2_abs="850024.329965" HC_abs="116.232011" PMx_abs="16.660112" NOx_abs="364.751766" fuel_abs="365.392808" electricity_abs="0"
            CO_normed="1091.991670" CO2_normed="43903.065779" HC_normed="6.003289" PMx_normed="0.860481" NOx_normed="18.839132" fuel_normed="18.872242" electricity_normed="0"
            traveltime="2.40" CO_perVeh="250.209804" CO2_perVeh="10059.579939" HC_perVeh="1.375543" PMx_perVeh="0.197163" NOx_perVeh="4.316641" fuel_perVeh="4.324227" electricity_perVeh="0"/>
        <edge id=":1110673556_5" sampledSeconds="25.24" CO_abs="2229.967659" CO2_abs="88490.963811" HC_abs="12.225716" PMx_abs="1.706670" NOx_abs="37.799648" fuel_abs="38.038933" electricity_abs="0"
            CO_normed="160.531986" CO2_normed="6370.330142" HC_normed="0.880111" PMx_normed="0.122861" NOx_normed="2.721139" fuel_normed="2.738365" electricity_normed="0"
            traveltime="1.75" CO_perVeh="154.170604" CO2_perVeh="6117.893794" HC_perVeh="0.845235" PMx_perVeh="0.117992" NOx_perVeh="2.613309" fuel_perVeh="2.629852" electricity_perVeh="0"/>
        <edge id=":1110673556_6" sampledSeconds="314.12" CO_abs="37537.130893" CO2_abs="1905069.554230" HC_abs="216.200151" PMx_abs="38.225723" NOx_abs="818.663805" fuel_abs="818.906915" electricity_abs="0"
            CO_normed="1367.832775" CO2_normed="69419.705602" HC_normed="7.878217" PMx_normed="1.392925" NOx_normed="29.831667" fuel_normed="29.840526" electricity_normed="0"
            traveltime="2.49" CO_perVeh="297.263881" CO2_perVeh="15086.618379" HC_perVeh="1.712131" PMx_perVeh="0.302717" NOx_perVeh="6.483159" fuel_perVeh="6.485084" electricity_perVeh="0"/>
        <edge id=":1110673561_0" sampledSeconds="99.88" CO_abs="9818.251977" CO2_abs="707934.834917" HC_abs="61.692183" PMx_abs="14.309012" NOx_abs="299.124686" fuel_abs="304.307427" electricity_abs="0"
            CO_normed="449.513641" CO2_normed="32411.713010" HC_normed="2.824482" PMx_normed="0.655116" NOx_normed="13.694966" fuel_normed="13.932250" electricity_normed="0"
            traveltime="1.18" CO_perVeh="115.864903" CO2_perVeh="8354.318173" HC_perVeh="0.728028" PMx_perVeh="0.168860" NOx_perVeh="3.529962" fuel_perVeh="3.591123" electricity_perVeh="0"/>
        <edge id=":1110673561_1" sampledSeconds="1318.77" CO_abs="122180.637121" CO2_abs="8430227.632802" HC_abs="760.218072" PMx_abs="176.604687" NOx_abs="3607.711792" fuel_abs="3623.747412" electricity_abs="0"
            CO_normed="5453.681169" CO2_normed="376293.451844" HC_normed="33.933257" PMx_normed="7.882965" NOx_normed="161.034599" fuel_normed="161.750368" electricity_normed="0"
            traveltime="1.19" CO_perVeh="110.630413" CO2_perVeh="7633.284484" HC_perVeh="0.688352" PMx_perVeh="0.159910" NOx_perVeh="3.266660" fuel_perVeh="3.281180" electricity_perVeh="0"/>
        <edge id=":1110673562_0" sampledSeconds="104.22" CO_abs="2244.457231" CO2_abs="174504.780059" HC_abs="14.214163" PMx_abs="2.438892" NOx_abs="67.109210" fuel_abs="75.012757" electricity_abs="0"
            CO_normed="6367.254555" CO2_normed="495049.021444" HC_normed="40.323866" PMx_normed="6.918841" NOx_normed="190.380738" fuel_normed="212.802147" electricity_normed="0"
            traveltime="0.03" CO_perVeh="0.572122" CO2_perVeh="44.482063" HC_perVeh="0.003623" PMx_perVeh="0.000622" NOx_perVeh="0.017106" fuel_perVeh="0.019121" electricity_perVeh="0"/>
        <edge id=":1110673564_0" sampledSeconds="28.81" CO_abs="319.345287" CO2_abs="40953.667083" HC_abs="2.383722" PMx_abs="0.512200" NOx_abs="15.013177" fuel_abs="17.604324" electricity_abs="0"
            CO_normed="2446.049010" CO2_normed="313687.662765" HC_normed="18.258300" PMx_normed="3.923233" NOx_normed="114.994548" fuel_normed="134.841627" electricity_normed="0"
            traveltime="7.921565e-03" CO_perVeh="0.087793" CO2_perVeh="11.258740" HC_perVeh="0.000655" PMx_perVeh="0.000141" NOx_perVeh="0.004127" fuel_perVeh="0.004840" electricity_perVeh="0"/>
        <edge id=":1110673588_0" sampledSeconds="11.62" CO_abs="214.611866" CO2_abs="24162.635163" HC_abs="1.534334" PMx_abs="0.339341" NOx_abs="9.116722" fuel_abs="10.386503" electricity_abs="0"
            CO_normed="657.534229" CO2_normed="74030.201349" HC_normed="4.700937" PMx_normed="1.039683" NOx_normed="27.932085" fuel_normed="31.822477" electricity_normed="0"
            traveltime="0.02" CO_perVeh="0.357686" CO2_perVeh="40.271059" HC_perVeh="0.002557" PMx_perVeh="0.000566" NOx_perVeh="0.015195" fuel_perVeh="0.017311" electricity_perVeh="0"/>
        <edge id=":1110673601_0" sampledSeconds="29.57" CO_abs="416.138810" CO2_abs="51763.795867" HC_abs="3.078861" PMx_abs="0.715307" NOx_abs="19.368378" fuel_abs="22.251071" electricity_abs="0"
            CO_normed="1138.373644" CO2_normed="141603.088999" HC_normed="8.422417" PMx_normed="1.956768" NOx_normed="52.983405" fuel_normed="60.869192" electricity_normed="0"
            traveltime="0.02" CO_perVeh="0.308864" CO2_perVeh="38.419782" HC_perVeh="0.002285" PMx_perVeh="0.000531" NOx_perVeh="0.014375" fuel_perVeh="0.016515" electricity_perVeh="0"/>
        <edge id=":1110673617_0" sampledSeconds="238.16" CO_abs="5569.287631" CO2_abs="685793.731121" HC_abs="41.703728" PMx_abs="12.291160" NOx_abs="258.817585" fuel_abs="294.791171" electricity_abs="0"
            CO_normed="14219.457782" CO2_normed="1750962.717755" HC_normed="106.477604" PMx_normed="31.381684" NOx_normed="660.810856" fuel_normed="752.658308" electricity_normed="0"
            traveltime="0.01" CO_perVeh="0.341568" CO2_perVeh="42.060203" HC_perVeh="0.002558" PMx_perVeh="0.000754" NOx_perVeh="0.015873" fuel_perVeh="0.018080" electricity_perVeh="0"/>
        <edge id=":1110673621_0" sampledSeconds="25.76" CO_abs="593.319337" CO2_abs="61003.929994" HC_abs="4.106374" PMx_abs="0.936136" NOx_abs="23.579106" fuel_abs="26.222944" electricity_abs="0"
            CO_normed="1817.829458" CO2_normed="186905.657853" HC_normed="12.581231" PMx_normed="2.868162" NOx_normed="72.242368" fuel_normed="80.342638" electricity_normed="0"
            traveltime="0.02" CO_perVeh="0.449484" CO2_perVeh="46.215098" HC_perVeh="0.003111" PMx_perVeh="0.000709" NOx_perVeh="0.017863" fuel_perVeh="0.019866" electricity_perVeh="0"/>
        <edge id=":1110673630_0" sampledSeconds="54.26" CO_abs="211.570735" CO2_abs="16800.326768" HC_abs="1.348671" PMx_abs="0.237248" NOx_abs="6.466688" fuel_abs="7.221795" electricity_abs="0"
            CO_normed="11.558786" CO2_normed="917.855592" HC_normed="0.073682" PMx_normed="0.012962" NOx_normed="0.353296" fuel_normed="0.394550" electricity_normed="0"
            traveltime="1.27" CO_perVeh="4.938435" CO2_perVeh="392.149343" HC_perVeh="0.031480" PMx_perVeh="0.005538" NOx_perVeh="0.150944" fuel_perVeh="0.168569" electricity_perVeh="0"/>
        <edge id=":1110673630_1" sampledSeconds="7.35" CO_abs="72.149100" CO2_abs="5768.028541" HC_abs="0.462944" PMx_abs="0.092388" NOx_abs="2.290164" fuel_abs="2.479430" electricity_abs="0"
            CO_normed="4.805490" CO2_normed="384.179514" HC_normed="0.030834" PMx_normed="0.006154" NOx_normed="0.152536" fuel_normed="0.165142" electricity_normed="0"
            traveltime="1.04" CO_perVeh="10.211873" CO2_perVeh="816.397886" HC_perVeh="0.065524" PMx_perVeh="0.013076" NOx_perVeh="0.324146" fuel_perVeh="0.350935" electricity_perVeh="0"/>
        <edge id=":1110673650_0" sampledSeconds="143.31" CO_abs="2248.009377" CO2_abs="282958.877208" HC_abs="16.656930" PMx_abs="3.869672" NOx_abs="105.577040" fuel_abs="121.632114" electricity_abs="0"
            CO_normed="5739.598410" CO2_normed="722448.197127" HC_normed="42.528331" PMx_normed="9.880013" NOx_normed="269.558400" fuel_normed="310.550077" electricity_normed="0"
            traveltime="0.02" CO_perVeh="0.361477" CO2_perVeh="45.499454" HC_perVeh="0.002678" PMx_perVeh="0.000622" NOx_perVeh="0.016977" fuel_perVeh="0.019558" electricity_perVeh="0"/>
        <edge id=":1110673655_0" sampledSeconds="45.29" CO_abs="685.190704" CO2_abs="80782.942491" HC_abs="4.934196" PMx_abs="1.056377" NOx_abs="29.965111" fuel_abs="34.725283" electricity_abs="0"
            CO_normed="1749.423074" CO2_normed="206254.321252" HC_normed="12.597949" PMx_normed="2.697133" NOx_normed="76.506667" fuel_normed="88.660297" electricity_normed="0"
            traveltime="0.02" CO_perVeh="0.366706" CO2_perVeh="43.234114" HC_perVeh="0.002641" PMx_perVeh="0.000565" NOx_perVeh="0.016037" fuel_perVeh="0.018585" electricity_perVeh="0"/>
        <edge id=":1110673663_0" sampledSeconds="108.76" CO_abs="1542.669205" CO2_abs="189177.820624" HC_abs="11.364718" PMx_abs="2.544789" NOx_abs="70.462655" fuel_abs="81.319678" electricity_abs="0"
            CO_normed="72.137910" CO2_normed="8846.285743" HC_normed="0.531434" PMx_normed="0.118999" NOx_normed="3.294957" fuel_normed="3.802650" electricity_normed="0"
            traveltime="1.28" CO_perVeh="18.119378" CO2_perVeh="2221.982749" HC_perVeh="0.133484" PMx_perVeh="0.029890" NOx_perVeh="0.827617" fuel_perVeh="0.955138" electricity_perVeh="0"/>
        <edge id=":1110673663_1" sampledSeconds="153.42" CO_abs="2326.259921" CO2_abs="305567.227239" HC_abs="17.531973" PMx_abs="4.165463" NOx_abs="113.673342" fuel_abs="131.350452" electricity_abs="0"
            CO_normed="108.912965" CO2_normed="14306.325990" HC_normed="0.820828" PMx_normed="0.195022" NOx_normed="5.322063" fuel_normed="6.149686" electricity_normed="0"
            traveltime="1.24" CO_perVeh="18.855854" CO2_perVeh="2476.821663" HC_perVeh="0.142108" PMx_perVeh="0.033764" NOx_perVeh="0.921397" fuel_perVeh="1.064681" electricity_perVeh="0"/>
        <edge id=":1110673666_0" sampledSeconds="191.80" CO_abs="4296.215542" CO2_abs="337199.605707" HC_abs="27.253280" PMx_abs="4.560951" NOx_abs="128.646530" fuel_abs="144.949080" electricity_abs="0"