<?xml version="1.0" encoding="UTF-8"?>

<!-- generated on Mon Nov  9 23:25:46 2020 by Eclipse SUMO sumo Version 1.7.0
<configuration xmlns:xsi="http://www.w3.org/2001/XMLSchema-instance" xsi:noNamespaceSchemaLocation="http://sumo.dlr.de/xsd/sumoConfiguration.xsd">

    <input>
        <net-file value="../dataSets/Porto/6AM7AM_Routing_SaoBento/Porto.net.xml"/>
        <route-files value="../results/Porto/6AM7AM_Routing_SaoBento/cost_PMx-length/solution3/Porto.rou.xml"/>
        <additional-files value="moreOutputInfo.xml"/>
    </input>

    <output>
        <emission-output.precision value="6"/>
        <tripinfo-output value="../results/Porto/6AM7AM_Routing_SaoBento/cost_PMx-length/solution3/Porto-tripinfo"/>
    </output>

    <processing>
        <collision.action value="warn"/>
        <time-to-teleport value="-1"/>
    </processing>

    <emissions>
        <device.emissions.probability value="1"/>
    </emissions>

    <gui_only>
        <quit-on-end value="true"/>
        <start value="true"/>
    </gui_only>

</configuration>
-->

<meandata xmlns:xsi="http://www.w3.org/2001/XMLSchema-instance" xsi:noNamespaceSchemaLocation="http://sumo.dlr.de/xsd/meandata_file.xsd">
    <interval begin="0.00" end="4700.00" id="emissions-detector">
        <edge id=":1092997347_0" sampledSeconds="272.37" CO_abs="34900.827583" CO2_abs="1361704.611686" HC_abs="191.071717" PMx_abs="27.752586" NOx_abs="591.031953" fuel_abs="585.343780" electricity_abs="0"
            CO_normed="60755.792698" CO2_normed="2370472.244714" HC_normed="332.620010" PMx_normed="48.312046" NOx_normed="1028.875741" fuel_normed="1018.973698" electricity_normed="0"
            traveltime="0.08" CO_perVeh="9.818881" CO2_perVeh="383.097378" HC_perVeh="0.053755" PMx_perVeh="0.007808" NOx_perVeh="0.166279" fuel_perVeh="0.164679" electricity_perVeh="0"/>
        <edge id=":1103427051_0" sampledSeconds="10.97" CO_abs="853.429931" CO2_abs="48038.815978" HC_abs="5.027074" PMx_abs="0.945375" NOx_abs="20.520977" fuel_abs="20.649756" electricity_abs="0"
            CO_normed="2254.106934" CO2_normed="126881.685634" HC_normed="13.277671" PMx_normed="2.496955" NOx_normed="54.200672" fuel_normed="54.540808" electricity_normed="0"
            traveltime="0.03" CO_perVeh="2.338385" CO2_perVeh="131.625630" HC_perVeh="0.013774" PMx_perVeh="0.002590" NOx_perVeh="0.056227" fuel_perVeh="0.056580" electricity_perVeh="0"/>
        <edge id=":1105984386_0" sampledSeconds="22.82" CO_abs="491.948532" CO2_abs="38588.524298" HC_abs="3.123692" PMx_abs="0.541116" NOx_abs="14.857048" fuel_abs="16.587685" electricity_abs="0"
            CO_normed="38.806554" CO2_normed="3043.992538" HC_normed="0.246407" PMx_normed="0.042685" NOx_normed="1.171974" fuel_normed="1.308492" electricity_normed="0"
            traveltime="0.96" CO_perVeh="20.646699" CO2_perVeh="1619.530476" HC_perVeh="0.131099" PMx_perVeh="0.022710" NOx_perVeh="0.623539" fuel_perVeh="0.696172" electricity_perVeh="0"/>
        <edge id=":1105984390_0" sampledSeconds="23.49" CO_abs="4.541542" CO2_abs="540.160562" HC_abs="0.032699" PMx_abs="0.005185" NOx_abs="0.189934" fuel_abs="0.232196" electricity_abs="0"
            CO_normed="0.276961" CO2_normed="32.941083" HC_normed="0.001994" PMx_normed="0.000316" NOx_normed="0.011583" fuel_normed="0.014160" electricity_normed="0"
            traveltime="1.07" CO_perVeh="0.205957" CO2_perVeh="24.496016" HC_perVeh="0.001483" PMx_perVeh="0.000235" NOx_perVeh="0.008613" fuel_perVeh="0.010530" electricity_perVeh="0"/>
        <edge id=":1105984390_1" sampledSeconds="646.57" CO_abs="13693.399796" CO2_abs="1808914.110773" HC_abs="105.412806" PMx_abs="31.779205" NOx_abs="675.199889" fuel_abs="777.569419" electricity_abs="0"
            CO_normed="798.824185" CO2_normed="105525.608057" HC_normed="6.149408" PMx_normed="1.853886" NOx_normed="39.388757" fuel_normed="45.360631" electricity_normed="0"
            traveltime="0.64" CO_perVeh="13.479171" CO2_perVeh="1780.614220" HC_perVeh="0.103764" PMx_perVeh="0.031282" NOx_perVeh="0.664637" fuel_perVeh="0.765405" electricity_perVeh="0"/>
        <edge id=":1105984395_0" sampledSeconds="9.15" CO_abs="103.802808" CO2_abs="7866.690689" HC_abs="0.651256" PMx_abs="0.103232" NOx_abs="2.987544" fuel_abs="3.381594" electricity_abs="0"
            CO_normed="86.422320" CO2_normed="6549.511212" HC_normed="0.542212" PMx_normed="0.085947" NOx_normed="2.487317" fuel_normed="2.815388" electricity_normed="0"
            traveltime="0.09" CO_perVeh="1.052674" CO2_perVeh="79.776846" HC_perVeh="0.006604" PMx_perVeh="0.001047" NOx_perVeh="0.030297" fuel_perVeh="0.034293" electricity_perVeh="0"/>
        <edge id=":1105984398_0" sampledSeconds="23.60" CO_abs="1669.586400" CO2_abs="109793.070331" HC_abs="10.217686" PMx_abs="2.125766" NOx_abs="46.301859" fuel_abs="47.195022" electricity_abs="0"
            CO_normed="105.776024" CO2_normed="6955.899076" HC_normed="0.647338" PMx_normed="0.134677" NOx_normed="2.933437" fuel_normed="2.990023" electricity_normed="0"
            traveltime="1.10" CO_perVeh="77.538617" CO2_perVeh="5098.989109" HC_perVeh="0.474528" PMx_perVeh="0.098724" NOx_perVeh="2.150342" fuel_perVeh="2.191822" electricity_perVeh="0"/>
        <edge id=":1105984398_1" sampledSeconds="454.36" CO_abs="8107.832519" CO2_abs="963036.549364" HC_abs="58.961738" PMx_abs="13.631724" NOx_abs="362.949835" fuel_abs="413.968528" electricity_abs="0"
            CO_normed="497.218150" CO2_normed="59058.848401" HC_normed="3.615867" PMx_normed="0.835974" NOx_normed="22.258137" fuel_normed="25.386892" electricity_normed="0"
            traveltime="0.96" CO_perVeh="17.073602" CO2_perVeh="2027.977561" HC_perVeh="0.124163" PMx_perVeh="0.028706" NOx_perVeh="0.764305" fuel_perVeh="0.871741" electricity_perVeh="0"/>
        <edge id=":1106006327_0" sampledSeconds="38.50" CO_abs="5196.874046" CO2_abs="168833.221600" HC_abs="27.637895" PMx_abs="3.522523" NOx_abs="73.904729" fuel_abs="72.575436" electricity_abs="0"
            CO_normed="449.275889" CO2_normed="14595.831078" HC_normed="2.389329" PMx_normed="0.304526" NOx_normed="6.389151" fuel_normed="6.274232" electricity_normed="0"
            traveltime="2.09" CO_perVeh="281.926917" CO2_perVeh="9159.088559" HC_perVeh="1.499337" PMx_perVeh="0.191095" NOx_perVeh="4.009282" fuel_perVeh="3.937169" electricity_perVeh="0"/>
        <edge id=":1106006327_1" sampledSeconds="162.33" CO_abs="21896.724377" CO2_abs="728212.524722" HC_abs="116.860168" PMx_abs="15.175251" NOx_abs="318.603481" fuel_abs="313.032420" electricity_abs="0"
            CO_normed="1650.783376" CO2_normed="54899.587221" HC_normed="8.810031" PMx_normed="1.144055" NOx_normed="24.019361" fuel_normed="23.599362" electricity_normed="0"
            traveltime="2.30" CO_perVeh="310.852224" CO2_perVeh="10337.915341" HC_perVeh="1.658981" PMx_perVeh="0.215432" NOx_perVeh="4.522987" fuel_perVeh="4.443899" electricity_perVeh="0"/>
        <edge id=":1106006327_2" sampledSeconds="0.00" CO_abs="0" CO2_abs="0" HC_abs="0" PMx_abs="0" NOx_abs="0" fuel_abs="0" electricity_abs="0"
            CO_normed="0" CO2_normed="0" HC_normed="0" PMx_normed="0" NOx_normed="0" fuel_normed="0" electricity_normed="0"/>
        <edge id=":1106006327_3" sampledSeconds="0.00" CO_abs="0" CO2_abs="0" HC_abs="0" PMx_abs="0" NOx_abs="0" fuel_abs="0" electricity_abs="0"
            CO_normed="0" CO2_normed="0" HC_normed="0" PMx_normed="0" NOx_normed="0" fuel_normed="0" electricity_normed="0"/>
        <edge id=":1107381198_0" sampledSeconds="0.00" CO_abs="0" CO2_abs="0" HC_abs="0" PMx_abs="0" NOx_abs="0" fuel_abs="0" electricity_abs="0"
            CO_normed="0" CO2_normed="0" HC_normed="0" PMx_normed="0" NOx_normed="0" fuel_normed="0" electricity_normed="0"/>
        <edge id=":1107381198_1" sampledSeconds="36.04" CO_abs="1117.266945" CO2_abs="44446.833321" HC_abs="6.104412" PMx_abs="0.734965" NOx_abs="18.199425" fuel_abs="19.106204" electricity_abs="0"
            CO_normed="93.323766" CO2_normed="3712.582657" HC_normed="0.509893" PMx_normed="0.061391" NOx_normed="1.520173" fuel_normed="1.595915" electricity_normed="0"
            traveltime="1.48" CO_perVeh="46.000978" CO2_perVeh="1829.999378" HC_perVeh="0.251336" PMx_perVeh="0.030261" NOx_perVeh="0.749321" fuel_perVeh="0.786655" electricity_perVeh="0"/>
        <edge id=":1110338277_0" sampledSeconds="96.79" CO_abs="1328.944848" CO2_abs="173048.241955" HC_abs="9.961945" PMx_abs="2.277522" NOx_abs="63.965826" fuel_abs="74.386256" electricity_abs="0"
            CO_normed="3635.411438" CO2_normed="473384.248508" HC_normed="27.251521" PMx_normed="6.230303" NOx_normed="174.982503" fuel_normed="203.488239" electricity_normed="0"
            traveltime="0.02" CO_perVeh="0.299517" CO2_perVeh="39.001525" HC_perVeh="0.002245" PMx_perVeh="0.000513" NOx_perVeh="0.014417" fuel_perVeh="0.016765" electricity_perVeh="0"/>
        <edge id=":1110338293_0" sampledSeconds="123.96" CO_abs="6238.094493" CO2_abs="428042.758071" HC_abs="38.467809" PMx_abs="7.536201" NOx_abs="175.425544" fuel_abs="183.996956" electricity_abs="0"
            CO_normed="15927.049769" CO2_normed="1092875.126990" HC_normed="98.215682" PMx_normed="19.241363" NOx_normed="447.895007" fuel_normed="469.779462" electricity_normed="0"
            traveltime="0.03" CO_perVeh="1.430816" CO2_perVeh="98.179105" HC_perVeh="0.008823" PMx_perVeh="0.001729" NOx_perVeh="0.040237" fuel_perVeh="0.042203" electricity_perVeh="0"/>
        <edge id=":1110338295_0" sampledSeconds="0.00" CO_abs="0" CO2_abs="0" HC_abs="0" PMx_abs="0" NOx_abs="0" fuel_abs="0" electricity_abs="0"
            CO_normed="0" CO2_normed="0" HC_normed="0" PMx_normed="0" NOx_normed="0" fuel_normed="0" electricity_normed="0"/>
        <edge id=":1110673403_0" sampledSeconds="143.86" CO_abs="2110.113617" CO2_abs="267147.437236" HC_abs="15.709441" PMx_abs="3.648842" NOx_abs="99.635629" fuel_abs="114.835446" electricity_abs="0"
            CO_normed="5387.524128" CO2_normed="682078.563156" HC_normed="40.109210" PMx_normed="9.316191" NOx_normed="254.388840" fuel_normed="293.196884" electricity_normed="0"
            traveltime="0.02" CO_perVeh="0.338793" CO2_perVeh="42.892283" HC_perVeh="0.002522" PMx_perVeh="0.000586" NOx_perVeh="0.015997" fuel_perVeh="0.018438" electricity_perVeh="0"/>
        <edge id=":1110673412_0" sampledSeconds="253.25" CO_abs="44684.899403" CO2_abs="3053329.780294" HC_abs="278.191900" PMx_abs="67.032936" NOx_abs="1311.687527" fuel_abs="1312.476140" electricity_abs="0"
            CO_normed="118023.211922" CO2_normed="8064554.078547" HC_normed="734.769509" PMx_normed="177.049574" NOx_normed="3464.471826" fuel_normed="3466.554734" electricity_normed="0"
            traveltime="0.02" CO_perVeh="2.748590" CO2_perVeh="187.811822" HC_perVeh="0.017112" PMx_perVeh="0.004123" NOx_perVeh="0.080683" fuel_perVeh="0.080731" electricity_perVeh="0"/>
        <edge id=":1110673414_0" sampledSeconds="0.00" CO_abs="0" CO2_abs="0" HC_abs="0" PMx_abs="0" NOx_abs="0" fuel_abs="0" electricity_abs="0"
            CO_normed="0" CO2_normed="0" HC_normed="0" PMx_normed="0" NOx_normed="0" fuel_normed="0" electricity_normed="0"/>
        <edge id=":1110673414_1" sampledSeconds="138.79" CO_abs="10528.674470" CO2_abs="385529.717440" HC_abs="56.910765" PMx_abs="7.282815" NOx_abs="163.854708" fuel_abs="165.725618" electricity_abs="0"
            CO_normed="893.080467" CO2_normed="32702.033005" HC_normed="4.827378" PMx_normed="0.617755" NOx_normed="13.898752" fuel_normed="14.057450" electricity_normed="0"
            traveltime="1.65" CO_perVeh="125.443898" CO2_perVeh="4593.394047" HC_perVeh="0.678063" PMx_perVeh="0.086771" NOx_perVeh="1.952247" fuel_perVeh="1.974538" electricity_perVeh="0"/>
        <edge id=":1110673417_0" sampledSeconds="29.90" CO_abs="583.559279" CO2_abs="63239.977912" HC_abs="4.102122" PMx_abs="0.911039" NOx_abs="24.059342" fuel_abs="27.184188" electricity_abs="0"
            CO_normed="1596.362771" CO2_normed="172996.900064" HC_normed="11.221610" PMx_normed="2.492204" NOx_normed="65.815829" fuel_normed="74.364040" electricity_normed="0"
            traveltime="0.02" CO_perVeh="0.433126" CO2_perVeh="46.937558" HC_perVeh="0.003045" PMx_perVeh="0.000676" NOx_perVeh="0.017857" fuel_perVeh="0.020176" electricity_perVeh="0"/>
        <edge id=":1110673446_0" sampledSeconds="333.44" CO_abs="3743.275672" CO2_abs="304465.278724" HC_abs="24.223899" PMx_abs="5.569005" NOx_abs="124.351577" fuel_abs="130.875635" electricity_abs="0"
            CO_normed="9557.299587" CO2_normed="777358.158444" HC_normed="61.848254" PMx_normed="14.218737" NOx_normed="317.493387" fuel_normed="334.150557" electricity_normed="0"
            traveltime="0.02" CO_perVeh="0.255435" CO2_perVeh="20.776172" HC_perVeh="0.001653" PMx_perVeh="0.000380" NOx_perVeh="0.008486" fuel_perVeh="0.008931" electricity_perVeh="0"/>
        <edge id=":1110673451_0" sampledSeconds="37.67" CO_abs="354.230176" CO2_abs="26131.199031" HC_abs="2.210262" PMx_abs="0.366251" NOx_abs="10.086191" fuel_abs="11.232788" electricity_abs="0"
            CO_normed="1004.908300" CO2_normed="74131.061082" HC_normed="6.270245" PMx_normed="1.039010" NOx_normed="28.613308" fuel_normed="31.866065" electricity_normed="0"
            traveltime="0.03" CO_perVeh="0.254030" CO2_perVeh="18.739505" HC_perVeh="0.001585" PMx_perVeh="0.000263" NOx_perVeh="0.007233" fuel_perVeh="0.008055" electricity_perVeh="0"/>
        <edge id=":1110673464_0" sampledSeconds="324.40" CO_abs="456.116766" CO2_abs="37837.297802" HC_abs="2.937222" PMx_abs="0.492232" NOx_abs="14.287732" fuel_abs="16.264802" electricity_abs="0"
            CO_normed="24.742637" CO2_normed="2052.532579" HC_normed="0.159333" PMx_normed="0.026702" NOx_normed="0.775056" fuel_normed="0.882305" electricity_normed="0"
            traveltime="1.17" CO_perVeh="1.648802" CO2_perVeh="136.776839" HC_perVeh="0.010618" PMx_perVeh="0.001779" NOx_perVeh="0.051648" fuel_perVeh="0.058795" electricity_perVeh="0"/>
        <edge id=":1110673464_1" sampledSeconds="709.46" CO_abs="16257.130891" CO2_abs="2123615.592396" HC_abs="124.631160" PMx_abs="37.423096" NOx_abs="794.332542" fuel_abs="912.845081" electricity_abs="0"
            CO_normed="864.140907" CO2_normed="112879.887381" HC_normed="6.624717" PMx_normed="1.989209" NOx_normed="42.222410" fuel_normed="48.521894" electricity_normed="0"
            traveltime="0.70" CO_perVeh="16.050809" CO2_perVeh="2096.664441" HC_perVeh="0.123049" PMx_perVeh="0.036948" NOx_perVeh="0.784252" fuel_perVeh="0.901260" electricity_perVeh="0"/>
        <edge id=":1110673479_0" sampledSeconds="133.18" CO_abs="7292.040263" CO2_abs="502412.628542" HC_abs="45.013541" PMx_abs="8.828745" NOx_abs="205.756404" fuel_abs="215.965332" electricity_abs="0"
            CO_normed="18617.975141" CO2_normed="1282755.647341" HC_normed="114.928190" PMx_normed="22.541476" NOx_normed="525.335500" fuel_normed="551.400847" electricity_normed="0"
            traveltime="0.03" CO_perVeh="1.536144" CO2_perVeh="105.838420" HC_perVeh="0.009483" PMx_perVeh="0.001860" NOx_perVeh="0.043345" fuel_perVeh="0.045495" electricity_perVeh="0"/>
        <edge id=":1110673511_0" sampledSeconds="11.73" CO_abs="173.335244" CO2_abs="20608.070126" HC_abs="1.249255" PMx_abs="0.275229" NOx_abs="7.673203" fuel_abs="8.858557" electricity_abs="0"
            CO_normed="442.558069" CO2_normed="52616.349258" HC_normed="3.189588" PMx_normed="0.702711" NOx_normed="19.591156" fuel_normed="22.617591" electricity_normed="0"
            traveltime="0.02" CO_perVeh="0.343238" CO2_perVeh="40.808060" HC_perVeh="0.002474" PMx_perVeh="0.000545" NOx_perVeh="0.015194" fuel_perVeh="0.017542" electricity_perVeh="0"/>
        <edge id=":1110673517_0" sampledSeconds="17.13" CO_abs="750.910399" CO2_abs="52597.372234" HC_abs="4.656770" PMx_abs="0.926198" NOx_abs="21.523658" fuel_abs="22.609312" electricity_abs="0"
            CO_normed="1917.218040" CO2_normed="134291.163151" HC_normed="11.889625" PMx_normed="2.364760" NOx_normed="54.954021" fuel_normed="57.725902" electricity_normed="0"
            traveltime="0.03" CO_perVeh="1.205636" CO2_perVeh="84.448551" HC_perVeh="0.007477" PMx_perVeh="0.001487" NOx_perVeh="0.034558" fuel_perVeh="0.036301" electricity_perVeh="0"/>
        <edge id=":1110673534_0" sampledSeconds="475.37" CO_abs="2708.372842" CO2_abs="243328.757503" HC_abs="17.868529" PMx_abs="3.119876" NOx_abs="91.231807" fuel_abs="104.597608" electricity_abs="0"
            CO_normed="134.011521" CO2_normed="12040.017689" HC_normed="0.884143" PMx_normed="0.154373" NOx_normed="4.514191" fuel_normed="5.175537" electricity_normed="0"
            traveltime="1.43" CO_perVeh="8.159242" CO2_perVeh="733.052021" HC_perVeh="0.053831" PMx_perVeh="0.009399" NOx_perVeh="0.274845" fuel_perVeh="0.315111" electricity_perVeh="0"/>
        <edge id=":1110673534_1" sampledSeconds="184.82" CO_abs="2676.527327" CO2_abs="347614.686966" HC_abs="20.107804" PMx_abs="4.720939" NOx_abs="129.234286" fuel_abs="149.424935" electricity_abs="0"
            CO_normed="128.775505" CO2_normed="16724.752393" HC_normed="0.967445" PMx_normed="0.227138" NOx_normed="6.217837" fuel_normed="7.189268" electricity_normed="0"
            traveltime="1.23" CO_perVeh="17.771181" CO2_perVeh="2308.036725" HC_perVeh="0.133509" PMx_perVeh="0.031345" NOx_perVeh="0.858069" fuel_perVeh="0.992128" electricity_perVeh="0"/>
        <edge id=":1110673549_0" sampledSeconds="60.77" CO_abs="38.468114" CO2_abs="3747.088144" HC_abs="0.259155" PMx_abs="0.040771" NOx_abs="1.354958" fuel_abs="1.610737" electricity_abs="0"
            CO_normed="1.843863" CO2_normed="179.606387" HC_normed="0.012422" PMx_normed="0.001954" NOx_normed="0.064946" fuel_normed="0.077206" electricity_normed="0"
            traveltime="1.27" CO_perVeh="0.801450" CO2_perVeh="78.067390" HC_perVeh="0.005399" PMx_perVeh="0.000849" NOx_perVeh="0.028229" fuel_perVeh="0.033558" electricity_perVeh="0"/>
        <edge id=":1110673549_1" sampledSeconds="639.46" CO_abs="12859.628314" CO2_abs="1761881.139067" HC_abs="100.269258" PMx_abs="30.602664" NOx_abs="653.657047" fuel_abs="757.352364" electricity_abs="0"
            CO_normed="596.242619" CO2_normed="81690.434556" HC_normed="4.649031" PMx_normed="1.418907" NOx_normed="30.307112" fuel_normed="35.114993" electricity_normed="0"
            traveltime="0.81" CO_perVeh="16.193492" CO2_perVeh="2218.649572" HC_perVeh="0.126264" PMx_perVeh="0.038536" NOx_perVeh="0.823118" fuel_perVeh="0.953696" electricity_perVeh="0"/>
        <edge id=":1110673556_0" sampledSeconds="414.02" CO_abs="51433.941463" CO2_abs="2597612.307714" HC_abs="296.006682" PMx_abs="52.565155" NOx_abs="1119.733254" fuel_abs="1116.600534" electricity_abs="0"
            CO_normed="1828.130417" CO2_normed="92327.632994" HC_normed="10.521045" PMx_normed="1.868337" NOx_normed="39.798980" fuel_normed="39.687633" electricity_normed="0"
            traveltime="2.57" CO_perVeh="319.276829" CO2_perVeh="16124.710575" HC_perVeh="1.837465" PMx_perVeh="0.326299" NOx_perVeh="6.950758" fuel_perVeh="6.931312" electricity_perVeh="0"/>
        <edge id=":1110673556_2" sampledSeconds="247.81" CO_abs="24158.830712" CO2_abs="1042390.550249" HC_abs="134.504567" PMx_abs="20.202363" NOx_abs="445.132112" fuel_abs="448.082564" electricity_abs="0"
            CO_normed="897.847467" CO2_normed="38739.777023" HC_normed="4.998776" PMx_normed="0.750808" NOx_normed="16.543050" fuel_normed="16.652701" electricity_normed="0"
            traveltime="3.01" CO_perVeh="293.041987" CO2_perVeh="12643.997623" HC_perVeh="1.631515" PMx_perVeh="0.245051" NOx_perVeh="5.399367" fuel_perVeh="5.435156" electricity_perVeh="0"/>
        <edge id=":1110673556_3" sampledSeconds="420.14" CO_abs="36109.238811" CO2_abs="1289827.869406" HC_abs="194.444976" PMx_abs="24.613392" NOx_abs="550.063173" fuel_abs="554.451827" electricity_abs="0"
            CO_normed="3052.774875" CO2_normed="109045.613871" HC_normed="16.438916" PMx_normed="2.080884" NOx_normed="46.503861" fuel_normed="46.874890" electricity_normed="0"
            traveltime="1.73" CO_perVeh="148.989523" CO2_perVeh="5321.929919" HC_perVeh="0.802295" PMx_perVeh="0.101557" NOx_perVeh="2.269603" fuel_perVeh="2.287711" electricity_perVeh="0"/>
        <edge id=":1110673556_4" sampledSeconds="191.42" CO_abs="19549.252211" CO2_abs="778086.901533" HC_abs="107.262857" PMx_abs="15.154725" NOx_abs="333.319744" fuel_abs="334.469979" electricity_abs="0"
            CO_normed="1009.702988" CO2_normed="40187.556068" HC_normed="5.540039" PMx_normed="0.782729" NOx_normed="17.215694" fuel_normed="17.275103" electricity_normed="0"
            traveltime="2.42" CO_perVeh="246.778524" CO2_perVeh="9822.121850" HC_perVeh="1.354025" PMx_perVeh="0.191305" NOx_perVeh="4.207637" fuel_perVeh="4.222157" electricity_perVeh="0"/>
        <edge id=":1110673556_5" sampledSeconds="25.23" CO_abs="2257.289294" CO2_abs="88865.707683" HC_abs="12.364835" PMx_abs="1.747681" NOx_abs="38.180217" fuel_abs="38.199984" electricity_abs="0"
            CO_normed="162.498829" CO2_normed="6397.307384" HC_normed="0.890126" PMx_normed="0.125813" NOx_normed="2.748536" fuel_normed="2.749959" electricity_normed="0"
            traveltime="1.74" CO_perVeh="156.059507" CO2_perVeh="6143.802013" HC_perVeh="0.854853" PMx_perVeh="0.120827" NOx_perVeh="2.639620" fuel_perVeh="2.640987" electricity_perVeh="0"/>
        <edge id=":1110673556_6" sampledSeconds="308.18" CO_abs="36459.869994" CO2_abs="1865184.523551" HC_abs="210.385954" PMx_abs="37.563648" NOx_abs="802.191390" fuel_abs="801.761630" electricity_abs="0"
            CO_normed="1328.577970" CO2_normed="67966.316626" HC_normed="7.666351" PMx_normed="1.368799" NOx_normed="29.231421" fuel_normed="29.215761" electricity_normed="0"
            traveltime="2.44" CO_perVeh="288.732841" CO2_perVeh="14770.761021" HC_perVeh="1.666088" PMx_perVeh="0.297474" NOx_perVeh="6.352711" fuel_perVeh="6.349307" electricity_perVeh="0"/>
        <edge id=":1110673561_0" sampledSeconds="102.17" CO_abs="9588.554750" CO2_abs="678606.359819" HC_abs="60.031454" PMx_abs="13.861145" NOx_abs="287.926357" fuel_abs="291.700430" electricity_abs="0"
            CO_normed="438.997305" CO2_normed="31068.953661" HC_normed="2.748448" PMx_normed="0.634611" NOx_normed="13.182268" fuel_normed="13.355058" electricity_normed="0"
            traveltime="1.21" CO_perVeh="113.154253" CO2_perVeh="8008.213701" HC_perVeh="0.708429" PMx_perVeh="0.163575" NOx_perVeh="3.397810" fuel_perVeh="3.442348" electricity_perVeh="0"/>
        <edge id=":1110673561_1" sampledSeconds="1314.38" CO_abs="123410.574076" CO2_abs="8553133.189520" HC_abs="768.749229" PMx_abs="178.793738" NOx_abs="3656.568752" fuel_abs="3676.578818" electricity_abs="0"
            CO_normed="5508.580899" CO2_normed="381779.490679" HC_normed="34.314056" PMx_normed="7.980676" NOx_normed="163.215388" fuel_normed="164.108562" electricity_normed="0"
            traveltime="1.19" CO_perVeh="111.796715" CO2_perVeh="7748.219301" HC_perVeh="0.696404" PMx_perVeh="0.161968" NOx_perVeh="3.312458" fuel_perVeh="3.330585" electricity_perVeh="0"/>
        <edge id=":1110673562_0" sampledSeconds="104.38" CO_abs="2025.677699" CO2_abs="162577.693283" HC_abs="12.932308" PMx_abs="2.190068" NOx_abs="61.913076" fuel_abs="69.885848" electricity_abs="0"
            CO_normed="5746.603400" CO2_normed="461213.314279" HC_normed="36.687400" PMx_normed="6.212960" NOx_normed="175.639933" fuel_normed="198.257725" electricity_normed="0"
            traveltime="0.03" CO_perVeh="0.516354" CO2_perVeh="41.441794" HC_perVeh="0.003297" PMx_perVeh="0.000558" NOx_perVeh="0.015782" fuel_perVeh="0.017814" electricity_perVeh="0"/>
        <edge id=":1110673564_0" sampledSeconds="28.67" CO_abs="527.944987" CO2_abs="56531.515420" HC_abs="3.706906" PMx_abs="0.803639" NOx_abs="21.481000" fuel_abs="24.300524" electricity_abs="0"
            CO_normed="4043.833941" CO2_normed="433007.352151" HC_normed="28.393321" PMx_normed="6.155531" NOx_normed="164.535318" fuel_normed="186.131674" electricity_normed="0"
            traveltime="7.882043e-03" CO_perVeh="0.145140" CO2_perVeh="15.541310" HC_perVeh="0.001019" PMx_perVeh="0.000221" NOx_perVeh="0.005905" fuel_perVeh="0.006681" electricity_perVeh="0"/>
        <edge id=":1110673588_0" sampledSeconds="11.58" CO_abs="245.205572" CO2_abs="28181.436551" HC_abs="1.770267" PMx_abs="0.402316" NOx_abs="10.660990" fuel_abs="12.114004" electricity_abs="0"
            CO_normed="751.268136" CO2_normed="86343.124752" HC_normed="5.423796" PMx_normed="1.232628" NOx_normed="32.663459" fuel_normed="37.115248" electricity_normed="0"
            traveltime="0.02" CO_perVeh="0.408676" CO2_perVeh="46.969061" HC_perVeh="0.002950" PMx_perVeh="0.000671" NOx_perVeh="0.017768" fuel_perVeh="0.020190" electricity_perVeh="0"/>
        <edge id=":1110673601_0" sampledSeconds="29.72" CO_abs="593.431563" CO2_abs="64150.202056" HC_abs="4.170280" PMx_abs="0.907001" NOx_abs="24.314909" fuel_abs="27.575481" electricity_abs="0"
            CO_normed="1623.369018" CO2_normed="175486.874925" HC_normed="11.408061" PMx_normed="2.481157" NOx_normed="66.514950" fuel_normed="75.434447" electricity_normed="0"
            traveltime="0.02" CO_perVeh="0.440453" CO2_perVeh="47.613139" HC_perVeh="0.003095" PMx_perVeh="0.000673" NOx_perVeh="0.018047" fuel_perVeh="0.020467" electricity_perVeh="0"/>
        <edge id=":1110673617_0" sampledSeconds="238.47" CO_abs="5681.266297" CO2_abs="713974.675464" HC_abs="42.984087" PMx_abs="12.724393" NOx_abs="268.923051" fuel_abs="306.904899" electricity_abs="0"
            CO_normed="14505.360758" CO2_normed="1822914.065015" HC_normed="109.746605" PMx_normed="32.487812" NOx_normed="686.612045" fuel_normed="783.586976" electricity_normed="0"
            traveltime="0.01" CO_perVeh="0.348047" CO2_perVeh="43.739652" HC_perVeh="0.002633" PMx_perVeh="0.000780" NOx_perVeh="0.016475" fuel_perVeh="0.018802" electricity_perVeh="0"/>
        <edge id=":1110673621_0" sampledSeconds="25.68" CO_abs="565.783243" CO2_abs="60390.234756" HC_abs="3.976399" PMx_abs="0.875794" NOx_abs="23.018025" fuel_abs="25.959206" electricity_abs="0"
            CO_normed="1733.463553" CO2_normed="185025.400105" HC_normed="12.183009" PMx_normed="2.683285" NOx_normed="70.523310" fuel_normed="79.534588" electricity_normed="0"
            traveltime="0.02" CO_perVeh="0.428624" CO2_perVeh="45.750178" HC_perVeh="0.003012" PMx_perVeh="0.000663" NOx_perVeh="0.017438" fuel_perVeh="0.019666" electricity_perVeh="0"/>
        <edge id=":1110673630_0" sampledSeconds="54.14" CO_abs="264.840162" CO2_abs="18712.457195" HC_abs="1.639110" PMx_abs="0.293216" NOx_abs="7.434175" fuel_abs="8.043720" electricity_abs="0"
            CO_normed="14.469065" CO2_normed="1022.321393" HC_normed="0.089550" PMx_normed="0.016019" NOx_normed="0.406153" fuel_normed="0.439454" electricity_normed="0"
            traveltime="1.26" CO_perVeh="6.181838" CO2_perVeh="436.781849" HC_perVeh="0.038260" PMx_perVeh="0.006844" NOx_perVeh="0.173527" fuel_perVeh="0.187755" electricity_perVeh="0"/>
        <edge id=":1110673630_1" sampledSeconds="7.25" CO_abs="1.369291" CO2_abs="220.319312" HC_abs="0.010993" PMx_abs="0.001254" NOx_abs="0.071420" fuel_abs="0.094708" electricity_abs="0"
            CO_normed="0.091202" CO2_normed="14.674367" HC_normed="0.000732" PMx_normed="0.000084" NOx_normed="0.004757" fuel_normed="0.006308" electricity_normed="0"
            traveltime="1.03" CO_perVeh="0.193807" CO2_perVeh="31.183656" HC_perVeh="0.001556" PMx_perVeh="0.000177" NOx_perVeh="0.010109" fuel_perVeh="0.013405" electricity_perVeh="0"/>
        <edge id=":1110673650_0" sampledSeconds="143.26" CO_abs="2318.840340" CO2_abs="285513.525837" HC_abs="17.070256" PMx_abs="3.966909" NOx_abs="107.008724" fuel_abs="122.730194" electricity_abs="0"
            CO_normed="5920.443422" CO2_normed="728970.704263" HC_normed="43.583632" PMx_normed="10.128279" NOx_normed="273.213764" fuel_normed="313.353687" electricity_normed="0"
            traveltime="0.02" CO_perVeh="0.372310" CO2_perVeh="45.841666" HC_perVeh="0.002741" PMx_perVeh="0.000637" NOx_perVeh="0.017181" fuel_perVeh="0.019705" electricity_perVeh="0"/>
        <edge id=":1110673655_0" sampledSeconds="45.36" CO_abs="636.734588" CO2_abs="73858.662905" HC_abs="4.579820" PMx_abs="0.964814" NOx_abs="27.416712" fuel_abs="31.748830" electricity_abs="0"
            CO_normed="1625.705330" CO2_normed="188575.309546" HC_normed="11.693158" PMx_normed="2.463356" NOx_normed="70.000116" fuel_normed="81.060844" electricity_normed="0"
            traveltime="0.02" CO_perVeh="0.340773" CO2_perVeh="39.528318" HC_perVeh="0.002451" PMx_perVeh="0.000516" NOx_perVeh="0.014673" fuel_perVeh="0.016992" electricity_perVeh="0"/>
        <edge id=":1110673663_0" sampledSeconds="108.67" CO_abs="1616.445235" CO2_abs="205369.037363" HC_abs="12.085148" PMx_abs="2.722474" NOx_abs="76.127631" fuel_abs="88.279635" electricity_abs="0"
            CO_normed="75.587806" CO2_normed="9603.415355" HC_normed="0.565123" PMx_normed="0.127308" NOx_normed="3.559861" fuel_normed="4.128110" electricity_normed="0"
            traveltime="1.28" CO_perVeh="18.985912" CO2_perVeh="2412.156228" HC_perVeh="0.141946" PMx_perVeh="0.031977" NOx_perVeh="0.894155" fuel_perVeh="1.036886" electricity_perVeh="0"/>
        <edge id=":1110673663_1" sampledSeconds="154.64" CO_abs="2488.082112" CO2_abs="310533.640607" HC_abs="18.409233" PMx_abs="4.315347" NOx_abs="116.220652" fuel_abs="133.485270" electricity_abs="0"
            CO_normed="116.489305" CO2_normed="14538.848075" HC_normed="0.861900" PMx_normed="0.202040" NOx_normed="5.441325" fuel_normed="6.249635" electricity_normed="0"
            traveltime="1.25" CO_perVeh="20.106654" CO2_perVeh="2509.480013" HC_perVeh="0.148768" PMx_perVeh="0.034873" NOx_perVeh="0.939201" fuel_perVeh="1.078719" electricity_perVeh="0"/>
        <edge id=":1110673666_0" sampledSeconds="191.53" CO_abs="4480.384782" CO2_abs="352481.432986" HC_abs="28.449061" PMx_abs="4.809696" NOx_abs="134.735031" fuel_abs="151.518075" electricity_abs="0"