<?xml version="1.0" encoding="UTF-8"?>

<!-- generated on Tue Nov 10 00:43:17 2020 by Eclipse SUMO sumo Version 1.7.0
<configuration xmlns:xsi="http://www.w3.org/2001/XMLSchema-instance" xsi:noNamespaceSchemaLocation="http://sumo.dlr.de/xsd/sumoConfiguration.xsd">

    <input>
        <net-file value="../dataSets/Porto/6AM7AM_Routing_SaoBento/Porto.net.xml"/>
        <route-files value="../results/Porto/6AM7AM_Routing_SaoBento/cost_co-cost_co2/solution1/Porto.rou.xml"/>
        <additional-files value="moreOutputInfo.xml"/>
    </input>

    <output>
        <emission-output.precision value="6"/>
        <tripinfo-output value="../results/Porto/6AM7AM_Routing_SaoBento/cost_co-cost_co2/solution1/Porto-tripinfo"/>
    </output>

    <processing>
        <collision.action value="warn"/>
        <time-to-teleport value="-1"/>
    </processing>

    <emissions>
        <device.emissions.probability value="1"/>
    </emissions>

    <gui_only>
        <quit-on-end value="true"/>
        <start value="true"/>
    </gui_only>

</configuration>
-->

<meandata xmlns:xsi="http://www.w3.org/2001/XMLSchema-instance" xsi:noNamespaceSchemaLocation="http://sumo.dlr.de/xsd/meandata_file.xsd">
    <interval begin="0.00" end="4700.00" id="emissions-detector">
        <edge id=":1092997347_0" sampledSeconds="285.37" CO_abs="36539.886696" CO2_abs="1448604.903850" HC_abs="200.623010" PMx_abs="29.607374" NOx_abs="629.163880" fuel_abs="622.698213" electricity_abs="0"
            CO_normed="63609.087092" CO2_normed="2521749.349061" HC_normed="349.247020" PMx_normed="51.540884" NOx_normed="1095.256271" fuel_normed="1084.000758" electricity_normed="0"
            traveltime="0.08" CO_perVeh="9.620496" CO2_perVeh="381.399573" HC_perVeh="0.052822" PMx_perVeh="0.007795" NOx_perVeh="0.165651" fuel_perVeh="0.163949" electricity_perVeh="0"/>
        <edge id=":1103427051_0" sampledSeconds="11.01" CO_abs="816.995814" CO2_abs="46955.644212" HC_abs="4.826988" PMx_abs="0.875616" NOx_abs="19.721187" fuel_abs="20.184210" electricity_abs="0"
            CO_normed="2157.875958" CO2_normed="124020.777082" HC_normed="12.749197" PMx_normed="2.312705" NOx_normed="52.088242" fuel_normed="53.311194" electricity_normed="0"
            traveltime="0.03" CO_perVeh="2.238556" CO2_perVeh="128.657755" HC_perVeh="0.013226" PMx_perVeh="0.002399" NOx_perVeh="0.054036" fuel_perVeh="0.055304" electricity_perVeh="0"/>
        <edge id=":1105984386_0" sampledSeconds="22.93" CO_abs="492.761036" CO2_abs="37560.531886" HC_abs="3.097173" PMx_abs="0.496132" NOx_abs="14.287272" fuel_abs="16.145848" electricity_abs="0"
            CO_normed="38.870647" CO2_normed="2962.901041" HC_normed="0.244315" PMx_normed="0.039137" NOx_normed="1.127028" fuel_normed="1.273639" electricity_normed="0"
            traveltime="0.96" CO_perVeh="20.680799" CO2_perVeh="1576.386431" HC_perVeh="0.129986" PMx_perVeh="0.020822" NOx_perVeh="0.599626" fuel_perVeh="0.677629" electricity_perVeh="0"/>
        <edge id=":1105984390_0" sampledSeconds="23.26" CO_abs="34.842902" CO2_abs="2799.432232" HC_abs="0.222775" PMx_abs="0.039105" NOx_abs="1.075596" fuel_abs="1.203365" electricity_abs="0"
            CO_normed="2.124855" CO2_normed="170.720220" HC_normed="0.013586" PMx_normed="0.002385" NOx_normed="0.065594" fuel_normed="0.073386" electricity_normed="0"
            traveltime="1.05" CO_perVeh="1.580108" CO2_perVeh="126.952877" HC_perVeh="0.010103" PMx_perVeh="0.001773" NOx_perVeh="0.048778" fuel_perVeh="0.054572" electricity_perVeh="0"/>
        <edge id=":1105984390_1" sampledSeconds="645.80" CO_abs="13888.014142" CO2_abs="1828722.992078" HC_abs="107.103911" PMx_abs="32.250287" NOx_abs="682.844441" fuel_abs="786.084315" electricity_abs="0"
            CO_normed="810.177293" CO2_normed="106681.187657" HC_normed="6.248061" PMx_normed="1.881367" NOx_normed="39.834713" fuel_normed="45.857360" electricity_normed="0"
            traveltime="0.64" CO_perVeh="13.680627" CO2_perVeh="1801.415060" HC_perVeh="0.105505" PMx_perVeh="0.031769" NOx_perVeh="0.672648" fuel_perVeh="0.774346" electricity_perVeh="0"/>
        <edge id=":1105984395_0" sampledSeconds="9.16" CO_abs="149.819907" CO2_abs="13116.018371" HC_abs="0.979241" PMx_abs="0.162594" NOx_abs="4.893020" fuel_abs="5.638079" electricity_abs="0"
            CO_normed="124.734428" CO2_normed="10919.904287" HC_normed="0.815279" PMx_normed="0.135369" NOx_normed="4.073745" fuel_normed="4.694053" electricity_normed="0"
            traveltime="0.09" CO_perVeh="1.519338" CO2_perVeh="133.010768" HC_perVeh="0.009931" PMx_perVeh="0.001649" NOx_perVeh="0.049621" fuel_perVeh="0.057176" electricity_perVeh="0"/>
        <edge id=":1105984398_0" sampledSeconds="22.78" CO_abs="1326.899617" CO2_abs="94007.105378" HC_abs="8.254599" PMx_abs="1.657541" NOx_abs="38.489493" fuel_abs="40.409529" electricity_abs="0"
            CO_normed="84.065231" CO2_normed="5955.785146" HC_normed="0.522967" PMx_normed="0.105013" NOx_normed="2.438487" fuel_normed="2.560131" electricity_normed="0"
            traveltime="1.11" CO_perVeh="64.521864" CO2_perVeh="4571.192594" HC_perVeh="0.401388" PMx_perVeh="0.080600" NOx_perVeh="1.871591" fuel_perVeh="1.964955" electricity_perVeh="0"/>
        <edge id=":1105984398_1" sampledSeconds="452.12" CO_abs="8059.585316" CO2_abs="936677.366115" HC_abs="58.208017" PMx_abs="13.373353" NOx_abs="354.147580" fuel_abs="402.637778" electricity_abs="0"
            CO_normed="494.259359" CO2_normed="57442.354190" HC_normed="3.569645" PMx_normed="0.820130" NOx_normed="21.718333" fuel_normed="24.692026" electricity_normed="0"
            traveltime="0.95" CO_perVeh="16.987731" CO2_perVeh="1974.298050" HC_perVeh="0.122689" PMx_perVeh="0.028188" NOx_perVeh="0.746461" fuel_perVeh="0.848667" electricity_perVeh="0"/>
        <edge id=":1106006327_0" sampledSeconds="304.80" CO_abs="41061.229350" CO2_abs="1333362.949329" HC_abs="218.350600" PMx_abs="27.794904" NOx_abs="583.547418" fuel_abs="573.165664" electricity_abs="0"
            CO_normed="3549.791693" CO2_normed="115270.799135" HC_normed="18.876667" PMx_normed="2.402902" NOx_normed="50.448362" fuel_normed="49.550847" electricity_normed="0"
            traveltime="2.09" CO_perVeh="281.373984" CO2_perVeh="9136.931615" HC_perVeh="1.496258" PMx_perVeh="0.190466" NOx_perVeh="3.998786" fuel_perVeh="3.927644" electricity_perVeh="0"/>
        <edge id=":1106006327_1" sampledSeconds="162.40" CO_abs="22063.103469" CO2_abs="735343.351340" HC_abs="117.795686" PMx_abs="15.365761" NOx_abs="321.968714" fuel_abs="316.097604" electricity_abs="0"
            CO_normed="1663.326614" CO2_normed="55437.176764" HC_normed="8.880559" PMx_normed="1.158417" NOx_normed="24.273064" fuel_normed="23.830444" electricity_normed="0"
            traveltime="2.31" CO_perVeh="313.214190" CO2_perVeh="10439.146615" HC_perVeh="1.672262" PMx_perVeh="0.218137" NOx_perVeh="4.570761" fuel_perVeh="4.487413" electricity_perVeh="0"/>
        <edge id=":1106006327_2" sampledSeconds="0.00" CO_abs="0" CO2_abs="0" HC_abs="0" PMx_abs="0" NOx_abs="0" fuel_abs="0" electricity_abs="0"
            CO_normed="0" CO2_normed="0" HC_normed="0" PMx_normed="0" NOx_normed="0" fuel_normed="0" electricity_normed="0"/>
        <edge id=":1106006327_3" sampledSeconds="0.00" CO_abs="0" CO2_abs="0" HC_abs="0" PMx_abs="0" NOx_abs="0" fuel_abs="0" electricity_abs="0"
            CO_normed="0" CO2_normed="0" HC_normed="0" PMx_normed="0" NOx_normed="0" fuel_normed="0" electricity_normed="0"/>
        <edge id=":1107381198_0" sampledSeconds="0.00" CO_abs="0" CO2_abs="0" HC_abs="0" PMx_abs="0" NOx_abs="0" fuel_abs="0" electricity_abs="0"
            CO_normed="0" CO2_normed="0" HC_normed="0" PMx_normed="0" NOx_normed="0" fuel_normed="0" electricity_normed="0"/>
        <edge id=":1107381198_1" sampledSeconds="35.55" CO_abs="1499.725479" CO2_abs="62563.897203" HC_abs="8.269886" PMx_abs="1.070887" NOx_abs="25.840040" fuel_abs="26.894006" electricity_abs="0"
            CO_normed="125.270000" CO2_normed="5225.876005" HC_normed="0.690772" PMx_normed="0.089450" NOx_normed="2.158383" fuel_normed="2.246419" electricity_normed="0"
            traveltime="1.46" CO_perVeh="61.747857" CO2_perVeh="2575.929137" HC_perVeh="0.340494" PMx_perVeh="0.044091" NOx_perVeh="1.063906" fuel_perVeh="1.107301" electricity_perVeh="0"/>
        <edge id=":1110338277_0" sampledSeconds="96.67" CO_abs="1574.147277" CO2_abs="186353.798310" HC_abs="11.410435" PMx_abs="2.632253" NOx_abs="70.218234" fuel_abs="80.105593" electricity_abs="0"
            CO_normed="4306.177963" CO2_normed="509782.426987" HC_normed="31.213956" PMx_normed="7.200692" NOx_normed="192.086353" fuel_normed="219.133842" electricity_normed="0"
            traveltime="0.02" CO_perVeh="0.354763" CO2_perVeh="41.998264" HC_perVeh="0.002572" PMx_perVeh="0.000593" NOx_perVeh="0.015825" fuel_perVeh="0.018053" electricity_perVeh="0"/>
        <edge id=":1110338293_0" sampledSeconds="123.86" CO_abs="5898.980701" CO2_abs="412206.493270" HC_abs="36.514334" PMx_abs="7.042040" NOx_abs="167.464395" fuel_abs="177.189880" electricity_abs="0"
            CO_normed="15061.227323" CO2_normed="1052442.110478" HC_normed="93.228088" PMx_normed="17.979677" NOx_normed="427.568668" fuel_normed="452.399693" electricity_normed="0"
            traveltime="0.03" CO_perVeh="1.353030" CO2_perVeh="94.546491" HC_perVeh="0.008375" PMx_perVeh="0.001615" NOx_perVeh="0.038411" fuel_perVeh="0.040641" electricity_perVeh="0"/>
        <edge id=":1110338295_0" sampledSeconds="0.00" CO_abs="0" CO2_abs="0" HC_abs="0" PMx_abs="0" NOx_abs="0" fuel_abs="0" electricity_abs="0"
            CO_normed="0" CO2_normed="0" HC_normed="0" PMx_normed="0" NOx_normed="0" fuel_normed="0" electricity_normed="0"/>
        <edge id=":1110673403_0" sampledSeconds="143.64" CO_abs="2263.331307" CO2_abs="279065.026673" HC_abs="16.686762" PMx_abs="3.839599" NOx_abs="104.395709" fuel_abs="119.958312" electricity_abs="0"
            CO_normed="5778.718230" CO2_normed="712506.451081" HC_normed="42.604499" PMx_normed="9.803230" NOx_normed="266.542236" fuel_normed="306.276540" electricity_normed="0"
            traveltime="0.02" CO_perVeh="0.363394" CO2_perVeh="44.805934" HC_perVeh="0.002679" PMx_perVeh="0.000616" NOx_perVeh="0.016761" fuel_perVeh="0.019260" electricity_perVeh="0"/>
        <edge id=":1110673412_0" sampledSeconds="252.67" CO_abs="45106.745324" CO2_abs="3078777.430923" HC_abs="280.741671" PMx_abs="67.643935" NOx_abs="1323.118318" fuel_abs="1323.414777" electricity_abs="0"
            CO_normed="119137.405112" CO2_normed="8131767.242350" HC_normed="741.504047" PMx_normed="178.663366" NOx_normed="3494.663203" fuel_normed="3495.446220" electricity_normed="0"
            traveltime="0.02" CO_perVeh="2.774378" CO2_perVeh="189.366197" HC_perVeh="0.017268" PMx_perVeh="0.004161" NOx_perVeh="0.081381" fuel_perVeh="0.081399" electricity_perVeh="0"/>
        <edge id=":1110673414_0" sampledSeconds="0.00" CO_abs="0" CO2_abs="0" HC_abs="0" PMx_abs="0" NOx_abs="0" fuel_abs="0" electricity_abs="0"
            CO_normed="0" CO2_normed="0" HC_normed="0" PMx_normed="0" NOx_normed="0" fuel_normed="0" electricity_normed="0"/>
        <edge id=":1110673414_1" sampledSeconds="182.74" CO_abs="12158.121454" CO2_abs="462767.443607" HC_abs="66.111228" PMx_abs="8.582297" NOx_abs="195.642184" fuel_abs="198.927225" electricity_abs="0"
            CO_normed="1031.296087" CO2_normed="39253.617893" HC_normed="5.607795" PMx_normed="0.727982" NOx_normed="16.595082" fuel_normed="16.873731" electricity_normed="0"
            traveltime="1.60" CO_perVeh="106.229160" CO2_perVeh="4043.338187" HC_perVeh="0.577634" PMx_perVeh="0.074986" NOx_perVeh="1.709385" fuel_perVeh="1.738087" electricity_perVeh="0"/>
        <edge id=":1110673417_0" sampledSeconds="29.72" CO_abs="492.660603" CO2_abs="60468.604318" HC_abs="3.628406" PMx_abs="0.823166" NOx_abs="22.584151" fuel_abs="25.992923" electricity_abs="0"
            CO_normed="1347.703777" CO2_normed="165415.634912" HC_normed="9.925731" PMx_normed="2.251823" NOx_normed="61.780352" fuel_normed="71.105259" electricity_normed="0"
            traveltime="0.02" CO_perVeh="0.365659" CO2_perVeh="44.880608" HC_perVeh="0.002693" PMx_perVeh="0.000611" NOx_perVeh="0.016762" fuel_perVeh="0.019292" electricity_perVeh="0"/>
        <edge id=":1110673446_0" sampledSeconds="334.23" CO_abs="3625.592649" CO2_abs="285665.479037" HC_abs="23.304799" PMx_abs="5.350366" NOx_abs="117.679460" fuel_abs="122.794358" electricity_abs="0"
            CO_normed="9256.832296" CO2_normed="729358.669881" HC_normed="59.501614" PMx_normed="13.660508" NOx_normed="300.458197" fuel_normed="313.517510" electricity_normed="0"
            traveltime="0.02" CO_perVeh="0.247281" CO2_perVeh="19.483646" HC_perVeh="0.001589" PMx_perVeh="0.000365" NOx_perVeh="0.008026" fuel_perVeh="0.008375" electricity_perVeh="0"/>
        <edge id=":1110673451_0" sampledSeconds="37.52" CO_abs="328.582972" CO2_abs="23075.868398" HC_abs="2.021597" PMx_abs="0.316800" NOx_abs="8.882838" fuel_abs="9.919441" electricity_abs="0"
            CO_normed="932.150275" CO2_normed="65463.456449" HC_normed="5.735028" PMx_normed="0.898725" NOx_normed="25.199539" fuel_normed="28.140259" electricity_normed="0"
            traveltime="0.03" CO_perVeh="0.235637" CO2_perVeh="16.548432" HC_perVeh="0.001450" PMx_perVeh="0.000227" NOx_perVeh="0.006370" fuel_perVeh="0.007114" electricity_perVeh="0"/>
        <edge id=":1110673464_0" sampledSeconds="325.10" CO_abs="584.736872" CO2_abs="48429.391643" HC_abs="3.767436" PMx_abs="0.646244" NOx_abs="18.351674" fuel_abs="20.817917" electricity_abs="0"
            CO_normed="31.719799" CO2_normed="2627.114247" HC_normed="0.204369" PMx_normed="0.035056" NOx_normed="0.995510" fuel_normed="1.129295" electricity_normed="0"
            traveltime="1.18" CO_perVeh="2.113747" CO2_perVeh="175.065861" HC_perVeh="0.013619" PMx_perVeh="0.002336" NOx_perVeh="0.066339" fuel_perVeh="0.075254" electricity_perVeh="0"/>
        <edge id=":1110673464_1" sampledSeconds="709.45" CO_abs="15945.521438" CO2_abs="2042867.349906" HC_abs="121.426643" PMx_abs="36.220589" NOx_abs="766.507450" fuel_abs="878.134958" electricity_abs="0"
            CO_normed="847.577438" CO2_normed="108587.748751" HC_normed="6.454382" PMx_normed="1.925290" NOx_normed="40.743379" fuel_normed="46.676892" electricity_normed="0"
            traveltime="0.70" CO_perVeh="15.740316" CO2_perVeh="2016.577313" HC_perVeh="0.119864" PMx_perVeh="0.035754" NOx_perVeh="0.756643" fuel_perVeh="0.866834" electricity_perVeh="0"/>
        <edge id=":1110673479_0" sampledSeconds="134.06" CO_abs="6340.419704" CO2_abs="439341.091007" HC_abs="39.197738" PMx_abs="7.710931" NOx_abs="179.823903" fuel_abs="188.853609" electricity_abs="0"
            CO_normed="16188.305627" CO2_normed="1121721.934485" HC_normed="100.079331" PMx_normed="19.687484" NOx_normed="459.124858" fuel_normed="482.179428" electricity_normed="0"
            traveltime="0.03" CO_perVeh="1.335675" CO2_perVeh="92.551748" HC_perVeh="0.008257" PMx_perVeh="0.001624" NOx_perVeh="0.037882" fuel_perVeh="0.039784" electricity_perVeh="0"/>
        <edge id=":1110673511_0" sampledSeconds="11.67" CO_abs="205.004717" CO2_abs="23197.308456" HC_abs="1.461718" PMx_abs="0.334094" NOx_abs="8.787770" fuel_abs="9.971536" electricity_abs="0"
            CO_normed="523.416300" CO2_normed="59227.170526" HC_normed="3.732046" PMx_normed="0.853006" NOx_normed="22.436860" fuel_normed="25.459241" electricity_normed="0"
            traveltime="0.02" CO_perVeh="0.405950" CO2_perVeh="45.935264" HC_perVeh="0.002894" PMx_perVeh="0.000662" NOx_perVeh="0.017402" fuel_perVeh="0.019746" electricity_perVeh="0"/>
        <edge id=":1110673517_0" sampledSeconds="17.53" CO_abs="565.307604" CO2_abs="42621.985963" HC_abs="3.556156" PMx_abs="0.633452" NOx_abs="16.652198" fuel_abs="18.321474" electricity_abs="0"
            CO_normed="1443.338563" CO2_normed="108822.091820" HC_normed="9.079546" PMx_normed="1.617325" NOx_normed="42.516249" fuel_normed="46.778232" electricity_normed="0"
            traveltime="0.03" CO_perVeh="0.907639" CO2_perVeh="68.432410" HC_perVeh="0.005710" PMx_perVeh="0.001017" NOx_perVeh="0.026736" fuel_perVeh="0.029416" electricity_perVeh="0"/>
        <edge id=":1110673534_0" sampledSeconds="475.45" CO_abs="2938.681692" CO2_abs="267942.905969" HC_abs="19.485561" PMx_abs="3.467360" NOx_abs="100.611069" fuel_abs="115.178196" electricity_abs="0"
            CO_normed="145.407308" CO2_normed="13257.936960" HC_normed="0.964154" PMx_normed="0.171567" NOx_normed="4.978281" fuel_normed="5.699070" electricity_normed="0"
            traveltime="1.43" CO_perVeh="8.853070" CO2_perVeh="807.204585" HC_perVeh="0.058702" PMx_perVeh="0.010446" NOx_perVeh="0.303101" fuel_perVeh="0.346986" electricity_perVeh="0"/>
        <edge id=":1110673534_1" sampledSeconds="185.12" CO_abs="2789.227163" CO2_abs="347712.405232" HC_abs="20.722333" PMx_abs="4.790287" NOx_abs="130.023284" fuel_abs="149.466917" electricity_abs="0"
            CO_normed="134.197821" CO2_normed="16729.453903" HC_normed="0.997012" PMx_normed="0.230475" NOx_normed="6.255798" fuel_normed="7.191288" electricity_normed="0"
            traveltime="1.23" CO_perVeh="18.519467" CO2_perVeh="2308.685539" HC_perVeh="0.137589" PMx_perVeh="0.031806" NOx_perVeh="0.863308" fuel_perVeh="0.992407" electricity_perVeh="0"/>
        <edge id=":1110673549_0" sampledSeconds="60.54" CO_abs="72.623994" CO2_abs="6655.483406" HC_abs="0.485416" PMx_abs="0.101728" NOx_abs="2.594847" fuel_abs="2.860909" electricity_abs="0"
            CO_normed="3.481032" CO2_normed="319.012333" HC_normed="0.023267" PMx_normed="0.004876" NOx_normed="0.124377" fuel_normed="0.137130" electricity_normed="0"
            traveltime="1.26" CO_perVeh="1.513059" CO2_perVeh="138.661328" HC_perVeh="0.010113" PMx_perVeh="0.002119" NOx_perVeh="0.054061" fuel_perVeh="0.059605" electricity_perVeh="0"/>
        <edge id=":1110673549_1" sampledSeconds="638.33" CO_abs="13651.846957" CO2_abs="1858201.282615" HC_abs="106.793674" PMx_abs="32.440784" NOx_abs="691.064356" fuel_abs="798.755879" electricity_abs="0"
            CO_normed="632.974203" CO2_normed="86156.362596" HC_normed="4.951538" PMx_normed="1.504132" NOx_normed="32.041519" fuel_normed="37.034686" electricity_normed="0"
            traveltime="0.80" CO_perVeh="17.190017" CO2_perVeh="2339.794135" HC_perVeh="0.134472" PMx_perVeh="0.040849" NOx_perVeh="0.870169" fuel_perVeh="1.005771" electricity_perVeh="0"/>
        <edge id=":1110673556_0" sampledSeconds="410.63" CO_abs="50374.871744" CO2_abs="2557300.839049" HC_abs="290.198184" PMx_abs="51.542025" NOx_abs="1100.679183" fuel_abs="1099.272516" electricity_abs="0"
            CO_normed="1790.487617" CO2_normed="90894.831619" HC_normed="10.314592" PMx_normed="1.831972" NOx_normed="39.121736" fuel_normed="39.071739" electricity_normed="0"
            traveltime="2.55" CO_perVeh="312.702640" CO2_perVeh="15874.476634" HC_perVeh="1.801409" PMx_perVeh="0.319948" NOx_perVeh="6.832480" fuel_perVeh="6.823748" electricity_perVeh="0"/>
        <edge id=":1110673556_2" sampledSeconds="248.41" CO_abs="24099.853462" CO2_abs="1039263.269861" HC_abs="134.120010" PMx_abs="19.927519" NOx_abs="442.462865" fuel_abs="446.738603" electricity_abs="0"
            CO_normed="895.655615" CO2_normed="38623.553651" HC_normed="4.984484" PMx_normed="0.740593" NOx_normed="16.443849" fuel_normed="16.602754" electricity_normed="0"
            traveltime="3.01" CO_perVeh="292.326604" CO2_perVeh="12606.064311" HC_perVeh="1.626850" PMx_perVeh="0.241717" NOx_perVeh="5.366990" fuel_perVeh="5.418854" electricity_perVeh="0"/>
        <edge id=":1110673556_3" sampledSeconds="372.88" CO_abs="31876.923424" CO2_abs="1127439.931188" HC_abs="171.389891" PMx_abs="21.546984" NOx_abs="481.033638" fuel_abs="484.647157" electricity_abs="0"
            CO_normed="2694.963232" CO2_normed="95316.888645" HC_normed="14.489775" PMx_normed="1.821642" NOx_normed="40.667914" fuel_normed="40.973411" electricity_normed="0"
            traveltime="1.75" CO_perVeh="149.376707" CO2_perVeh="5283.234600" HC_perVeh="0.803141" PMx_perVeh="0.100970" NOx_perVeh="2.254145" fuel_perVeh="2.271079" electricity_perVeh="0"/>
        <edge id=":1110673556_4" sampledSeconds="171.76" CO_abs="17759.260313" CO2_abs="710919.047033" HC_abs="97.545209" PMx_abs="13.868878" NOx_abs="304.647893" fuel_abs="305.596954" electricity_abs="0"
            CO_normed="917.251361" CO2_normed="36718.390975" HC_normed="5.038131" PMx_normed="0.716316" NOx_normed="15.734816" fuel_normed="15.783834" electricity_normed="0"
            traveltime="2.41" CO_perVeh="249.091884" CO2_perVeh="9971.370510" HC_perVeh="1.368172" PMx_perVeh="0.194525" NOx_perVeh="4.273000" fuel_perVeh="4.286311" electricity_perVeh="0"/>
        <edge id=":1110673556_5" sampledSeconds="24.57" CO_abs="2254.737105" CO2_abs="91025.363848" HC_abs="12.390253" PMx_abs="1.708893" NOx_abs="38.565861" fuel_abs="39.128415" electricity_abs="0"
            CO_normed="162.315101" CO2_normed="6552.777753" HC_normed="0.891955" PMx_normed="0.123021" NOx_normed="2.776298" fuel_normed="2.816795" electricity_normed="0"
            traveltime="1.70" CO_perVeh="155.883059" CO2_perVeh="6293.111575" HC_perVeh="0.856610" PMx_perVeh="0.118146" NOx_perVeh="2.666282" fuel_perVeh="2.705174" electricity_perVeh="0"/>
        <edge id=":1110673556_6" sampledSeconds="315.52" CO_abs="38037.838659" CO2_abs="1916979.743047" HC_abs="218.789743" PMx_abs="38.648589" NOx_abs="825.021230" fuel_abs="824.026531" electricity_abs="0"
            CO_normed="1386.078296" CO2_normed="69853.706449" HC_normed="7.972580" PMx_normed="1.408334" NOx_normed="30.063328" fuel_normed="30.027082" electricity_normed="0"
            traveltime="2.50" CO_perVeh="301.229083" CO2_perVeh="15180.937494" HC_perVeh="1.732639" PMx_perVeh="0.306066" NOx_perVeh="6.533504" fuel_perVeh="6.525627" electricity_perVeh="0"/>
        <edge id=":1110673561_0" sampledSeconds="100.66" CO_abs="9350.408888" CO2_abs="671977.894781" HC_abs="58.765436" PMx_abs="13.606982" NOx_abs="284.201518" fuel_abs="288.851242" electricity_abs="0"
            CO_normed="428.094161" CO2_normed="30765.479534" HC_normed="2.690486" PMx_normed="0.622975" NOx_normed="13.011732" fuel_normed="13.224612" electricity_normed="0"
            traveltime="1.19" CO_perVeh="110.343900" CO2_perVeh="7929.991380" HC_perVeh="0.693489" PMx_perVeh="0.160576" NOx_perVeh="3.353854" fuel_perVeh="3.408725" electricity_perVeh="0"/>
        <edge id=":1110673561_1" sampledSeconds="1317.31" CO_abs="121659.568585" CO2_abs="8419737.731018" HC_abs="757.724940" PMx_abs="176.135257" NOx_abs="3600.957071" fuel_abs="3619.238475" electricity_abs="0"
            CO_normed="5430.422642" CO2_normed="375825.222334" HC_normed="33.821973" PMx_normed="7.862011" NOx_normed="160.733093" fuel_normed="161.549106" electricity_normed="0"
            traveltime="1.19" CO_perVeh="110.272255" CO2_perVeh="7631.651823" HC_perVeh="0.686802" PMx_perVeh="0.159649" NOx_perVeh="3.263908" fuel_perVeh="3.280478" electricity_perVeh="0"/>
        <edge id=":1110673562_0" sampledSeconds="104.29" CO_abs="2138.373527" CO2_abs="177154.339067" HC_abs="13.754136" PMx_abs="2.246287" NOx_abs="66.485501" fuel_abs="76.151946" electricity_abs="0"
            CO_normed="6066.307879" CO2_normed="502565.500899" HC_normed="39.018826" PMx_normed="6.372444" NOx_normed="188.611351" fuel_normed="216.033889" electricity_normed="0"
            traveltime="0.03" CO_perVeh="0.545082" CO2_perVeh="45.157548" HC_perVeh="0.003506" PMx_perVeh="0.000573" NOx_perVeh="0.016947" fuel_perVeh="0.019412" electricity_perVeh="0"/>
        <edge id=":1110673564_0" sampledSeconds="28.47" CO_abs="584.460374" CO2_abs="65099.982387" HC_abs="4.168033" PMx_abs="0.932165" NOx_abs="24.704205" fuel_abs="27.983726" electricity_abs="0"
            CO_normed="4476.717761" CO2_normed="498638.162965" HC_normed="31.925361" PMx_normed="7.139990" NOx_normed="189.223694" fuel_normed="214.343435" electricity_normed="0"
            traveltime="7.825512e-03" CO_perVeh="0.160676" CO2_perVeh="17.896902" HC_perVeh="0.001146" PMx_perVeh="0.000256" NOx_perVeh="0.006792" fuel_perVeh="0.007693" electricity_perVeh="0"/>
        <edge id=":1110673588_0" sampledSeconds="11.66" CO_abs="176.375376" CO2_abs="22262.275572" HC_abs="1.316419" PMx_abs="0.297205" NOx_abs="8.267201" fuel_abs="9.569627" electricity_abs="0"
            CO_normed="540.384131" CO2_normed="68207.823029" HC_normed="4.033285" PMx_normed="0.910586" NOx_normed="25.329296" fuel_normed="29.319709" electricity_normed="0"
            traveltime="0.02" CO_perVeh="0.293959" CO2_perVeh="37.103793" HC_perVeh="0.002194" PMx_perVeh="0.000495" NOx_perVeh="0.013779" fuel_perVeh="0.015949" electricity_perVeh="0"/>
        <edge id=":1110673601_0" sampledSeconds="29.58" CO_abs="474.112987" CO2_abs="59601.832725" HC_abs="3.516549" PMx_abs="0.796056" NOx_abs="22.142171" fuel_abs="25.620348" electricity_abs="0"
            CO_normed="1296.965618" CO2_normed="163044.527211" HC_normed="9.619739" PMx_normed="2.177661" NOx_normed="60.571289" fuel_normed="70.086059" electricity_normed="0"
            traveltime="0.02" CO_perVeh="0.351893" CO2_perVeh="44.237278" HC_perVeh="0.002610" PMx_perVeh="0.000591" NOx_perVeh="0.016434" fuel_perVeh="0.019016" electricity_perVeh="0"/>
        <edge id=":1110673617_0" sampledSeconds="238.26" CO_abs="5606.912719" CO2_abs="705358.552571" HC_abs="42.497051" PMx_abs="12.600364" NOx_abs="265.394122" fuel_abs="303.201232" electricity_abs="0"
            CO_normed="14315.521836" CO2_normed="1800915.453372" HC_normed="108.503110" PMx_normed="32.171143" NOx_normed="677.602015" fuel_normed="774.130804" electricity_normed="0"
            traveltime="0.01" CO_perVeh="0.343386" CO2_perVeh="43.198513" HC_perVeh="0.002603" PMx_perVeh="0.000772" NOx_perVeh="0.016254" fuel_perVeh="0.018569" electricity_perVeh="0"/>
        <edge id=":1110673621_0" sampledSeconds="25.49" CO_abs="655.286043" CO2_abs="69986.595416" HC_abs="4.613172" PMx_abs="1.050874" NOx_abs="26.858602" fuel_abs="30.084225" electricity_abs="0"
            CO_normed="2007.684897" CO2_normed="214427.015744" HC_normed="14.133974" PMx_normed="3.219700" NOx_normed="82.290183" fuel_normed="92.172944" electricity_normed="0"
            traveltime="0.02" CO_perVeh="0.496429" CO2_perVeh="53.020148" HC_perVeh="0.003495" PMx_perVeh="0.000796" NOx_perVeh="0.020347" fuel_perVeh="0.022791" electricity_perVeh="0"/>
        <edge id=":1110673630_0" sampledSeconds="53.47" CO_abs="387.855398" CO2_abs="37410.697018" HC_abs="2.608523" PMx_abs="0.510377" NOx_abs="14.156235" fuel_abs="16.081342" electricity_abs="0"
            CO_normed="21.189781" CO2_normed="2043.866046" HC_normed="0.142512" PMx_normed="0.027884" NOx_normed="0.773400" fuel_normed="0.878575" electricity_normed="0"
            traveltime="1.25" CO_perVeh="9.053231" CO2_perVeh="873.231840" HC_perVeh="0.060888" PMx_perVeh="0.011913" NOx_perVeh="0.330432" fuel_perVeh="0.375367" electricity_perVeh="0"/>
        <edge id=":1110673630_1" sampledSeconds="7.38" CO_abs="6.511567" CO2_abs="851.188402" HC_abs="0.049101" PMx_abs="0.010516" NOx_abs="0.311846" fuel_abs="0.365891" electricity_abs="0"
            CO_normed="0.433703" CO2_normed="56.693400" HC_normed="0.003270" PMx_normed="0.000700" NOx_normed="0.020770" fuel_normed="0.024370" electricity_normed="0"
            traveltime="1.04" CO_perVeh="0.921637" CO2_perVeh="120.475897" HC_perVeh="0.006950" PMx_perVeh="0.001488" NOx_perVeh="0.044138" fuel_perVeh="0.051788" electricity_perVeh="0"/>
        <edge id=":1110673650_0" sampledSeconds="143.17" CO_abs="2327.086431" CO2_abs="288948.222924" HC_abs="17.206024" PMx_abs="4.010261" NOx_abs="108.213834" fuel_abs="124.206624" electricity_abs="0"
            CO_normed="5941.497271" CO2_normed="737740.143636" HC_normed="43.930275" PMx_normed="10.238963" NOx_normed="276.290639" fuel_normed="317.123296" electricity_normed="0"
            traveltime="0.02" CO_perVeh="0.373629" CO2_perVeh="46.392543" HC_perVeh="0.002763" PMx_perVeh="0.000644" NOx_perVeh="0.017374" fuel_perVeh="0.019942" electricity_perVeh="0"/>
        <edge id=":1110673655_0" sampledSeconds="45.04" CO_abs="668.964370" CO2_abs="81989.388798" HC_abs="4.917993" PMx_abs="1.100607" NOx_abs="30.550320" fuel_abs="35.243828" electricity_abs="0"
            CO_normed="1707.994136" CO2_normed="209334.609698" HC_normed="12.556578" PMx_normed="2.810062" NOx_normed="78.000817" fuel_normed="89.984242" electricity_normed="0"
            traveltime="0.02" CO_perVeh="0.358022" CO2_perVeh="43.879791" HC_perVeh="0.002632" PMx_perVeh="0.000589" NOx_perVeh="0.016350" fuel_perVeh="0.018862" electricity_perVeh="0"/>
        <edge id=":1110673663_0" sampledSeconds="108.49" CO_abs="1680.506391" CO2_abs="198084.177909" HC_abs="12.198757" PMx_abs="2.759100" NOx_abs="74.461073" fuel_abs="85.148052" electricity_abs="0"
            CO_normed="78.583418" CO2_normed="9262.762586" HC_normed="0.570435" PMx_normed="0.129020" NOx_normed="3.481930" fuel_normed="3.981672" electricity_normed="0"
            traveltime="1.27" CO_perVeh="19.738340" CO2_perVeh="2326.592117" HC_perVeh="0.143280" PMx_perVeh="0.032407" NOx_perVeh="0.874580" fuel_perVeh="1.000104" electricity_perVeh="0"/>
        <edge id=":1110673663_1" sampledSeconds="153.84" CO_abs="2456.416154" CO2_abs="315378.411722" HC_abs="18.389836" PMx_abs="4.319319" NOx_abs="117.542028" fuel_abs="135.567882" electricity_abs="0"
            CO_normed="115.006739" CO2_normed="14765.675001" HC_normed="0.860992" PMx_normed="0.202226" NOx_normed="5.503190" fuel_normed="6.347141" electricity_normed="0"
            traveltime="1.25" CO_perVeh="19.924133" CO2_perVeh="2558.052504" HC_perVeh="0.149161" PMx_perVeh="0.035034" NOx_perVeh="0.953390" fuel_perVeh="1.099599" electricity_perVeh="0"/>
        <edge id=":1110673666_0" sampledSeconds="191.83" CO_abs="3965.062307" CO2_abs="315508.357866" HC_abs="25.247620" PMx_abs="4.240102" NOx_abs="120.155458" fuel_abs="135.624850" electricity_abs="0"