<?xml version="1.0" encoding="UTF-8"?>

<!-- generated on Wed Sep 30 01:46:57 2020 by Eclipse SUMO Version 1.1.0
<configuration xmlns:xsi="http://www.w3.org/2001/XMLSchema-instance" xsi:noNamespaceSchemaLocation="http://sumo.dlr.de/xsd/sumoConfiguration.xsd">

    <input>
        <net-file value="../dataSets/Angeja_Estarreja/angeja_estarreja.net.xml"/>
        <route-files value="../results/angeja_estarreja/cost_co2-ttime/solution12/angeja_estarreja.rou.xml"/>
        <additional-files value="moreOutputInfo.xml"/>
    </input>

    <output>
        <emission-output.precision value="6"/>
        <tripinfo-output value="../results/angeja_estarreja/cost_co2-ttime/solution12/angeja_estarreja-tripinfo"/>
    </output>

    <processing>
        <collision.action value="warn"/>
        <time-to-teleport value="-1"/>
    </processing>

    <emissions>
        <device.emissions.probability value="1"/>
    </emissions>

    <gui_only>
        <quit-on-end value="true"/>
        <start value="true"/>
    </gui_only>

</configuration>
-->

<meandata xmlns:xsi="http://www.w3.org/2001/XMLSchema-instance" xsi:noNamespaceSchemaLocation="http://sumo.dlr.de/xsd/meandata_file.xsd">
    <interval begin="0.00" end="19079.00" id="emissions-detector">
        <edge id=":10_0" sampledSeconds="390.72" CO_abs="38514.810405" CO2_abs="2136443.505654" HC_abs="226.079272" PMx_abs="41.889422" NOx_abs="911.247437" fuel_abs="918.363044" electricity_abs="0"
            CO_normed="415.513222" CO2_normed="23048.809395" HC_normed="2.439034" PMx_normed="0.451920" NOx_normed="9.830903" fuel_normed="9.907669" electricity_normed="0"
            traveltime="1.89" CO_perVeh="185.821168" CO2_perVeh="10307.630344" HC_perVeh="1.090757" PMx_perVeh="0.202103" NOx_perVeh="4.396466" fuel_perVeh="4.430797" electricity_perVeh="0"/>
        <edge id=":10_1" sampledSeconds="0.00" CO_abs="0" CO2_abs="0" HC_abs="0" PMx_abs="0" NOx_abs="0" fuel_abs="0" electricity_abs="0"
            CO_normed="0" CO2_normed="0" HC_normed="0" PMx_normed="0" NOx_normed="0" fuel_normed="0" electricity_normed="0"/>
        <edge id=":100_0" sampledSeconds="0.00" CO_abs="0" CO2_abs="0" HC_abs="0" PMx_abs="0" NOx_abs="0" fuel_abs="0" electricity_abs="0"
            CO_normed="0" CO2_normed="0" HC_normed="0" PMx_normed="0" NOx_normed="0" fuel_normed="0" electricity_normed="0"/>
        <edge id=":100_1" sampledSeconds="911.90" CO_abs="21240.171613" CO2_abs="2736114.232046" HC_abs="163.204916" PMx_abs="49.200483" NOx_abs="1018.450160" fuel_abs="1176.130301" electricity_abs="0"
            CO_normed="135.581516" CO2_normed="17465.325668" HC_normed="1.041779" PMx_normed="0.314059" NOx_normed="6.501031" fuel_normed="7.507544" electricity_normed="0"
            traveltime="1.37" CO_perVeh="31.936485" CO2_perVeh="4113.990850" HC_perVeh="0.245393" PMx_perVeh="0.073977" NOx_perVeh="1.531330" fuel_perVeh="1.768416" electricity_perVeh="0"/>
        <edge id=":101_0" sampledSeconds="438.77" CO_abs="10111.431519" CO2_abs="1253596.733346" HC_abs="76.489822" PMx_abs="22.776673" NOx_abs="469.560966" fuel_abs="538.863683" electricity_abs="0"
            CO_normed="233.527205" CO2_normed="28952.274518" HC_normed="1.766560" PMx_normed="0.526036" NOx_normed="10.844682" fuel_normed="12.445254" electricity_normed="0"
            traveltime="0.38" CO_perVeh="8.734964" CO2_perVeh="1082.944783" HC_perVeh="0.066077" PMx_perVeh="0.019676" NOx_perVeh="0.405640" fuel_perVeh="0.465508" electricity_perVeh="0"/>
        <edge id=":102_0" sampledSeconds="341.06" CO_abs="8502.490467" CO2_abs="1039660.748043" HC_abs="63.994666" PMx_abs="18.973140" NOx_abs="390.182272" fuel_abs="446.902378" electricity_abs="0"
            CO_normed="198.065132" CO2_normed="24218.850232" HC_normed="1.490753" PMx_normed="0.441978" NOx_normed="9.089278" fuel_normed="10.410571" electricity_normed="0"
            traveltime="0.38" CO_perVeh="9.353484" CO2_perVeh="1143.717897" HC_perVeh="0.070400" PMx_perVeh="0.020872" NOx_perVeh="0.429235" fuel_perVeh="0.491632" electricity_perVeh="0"/>
        <edge id=":103_0" sampledSeconds="434.54" CO_abs="9986.895738" CO2_abs="1306999.251183" HC_abs="77.202336" PMx_abs="23.396986" NOx_abs="485.250203" fuel_abs="561.819247" electricity_abs="0"
            CO_normed="234.089281" CO2_normed="30635.597229" HC_normed="1.809595" PMx_normed="0.548417" NOx_normed="11.374092" fuel_normed="13.168843" electricity_normed="0"
            traveltime="0.37" CO_perVeh="8.580357" CO2_perVeh="1122.923494" HC_perVeh="0.066329" PMx_perVeh="0.020102" NOx_perVeh="0.416908" fuel_perVeh="0.482693" electricity_perVeh="0"/>
        <edge id=":104_0" sampledSeconds="341.06" CO_abs="8734.837576" CO2_abs="1065512.190110" HC_abs="65.670798" PMx_abs="19.453867" NOx_abs="400.119793" fuel_abs="458.014709" electricity_abs="0"
            CO_normed="203.729165" CO2_normed="24851.739569" HC_normed="1.531689" PMx_normed="0.453737" NOx_normed="9.332294" fuel_normed="10.682620" electricity_normed="0"
            traveltime="0.38" CO_perVeh="9.604698" CO2_perVeh="1171.621408" HC_perVeh="0.072211" PMx_perVeh="0.021391" NOx_perVeh="0.439966" fuel_perVeh="0.503626" electricity_perVeh="0"/>
        <edge id=":105_0" sampledSeconds="168.51" CO_abs="4150.441216" CO2_abs="516145.775604" HC_abs="31.469880" PMx_abs="9.378342" NOx_abs="193.200644" fuel_abs="221.867381" electricity_abs="0"
            CO_normed="3559.741643" CO2_normed="442686.817056" HC_normed="26.991020" PMx_normed="8.043597" NOx_normed="165.703920" fuel_normed="190.290746" electricity_normed="0"
            traveltime="0.01" CO_perVeh="0.250986" CO2_perVeh="31.212430" HC_perVeh="0.001903" PMx_perVeh="0.000567" NOx_perVeh="0.011683" fuel_perVeh="0.013417" electricity_perVeh="0"/>
        <edge id=":106_0" sampledSeconds="134.38" CO_abs="3133.853898" CO2_abs="388475.600060" HC_abs="23.710410" PMx_abs="7.061326" NOx_abs="145.466971" fuel_abs="166.987829" electricity_abs="0"
            CO_normed="1907.497356" CO2_normed="236455.241317" HC_normed="14.431925" PMx_normed="4.298050" NOx_normed="88.542055" fuel_normed="101.641254" electricity_normed="0"
            traveltime="0.01" CO_perVeh="0.335070" CO2_perVeh="41.535586" HC_perVeh="0.002535" PMx_perVeh="0.000755" NOx_perVeh="0.015553" fuel_perVeh="0.017854" electricity_perVeh="0"/>
        <edge id=":107_0" sampledSeconds="438.36" CO_abs="10682.934828" CO2_abs="1343713.974781" HC_abs="81.298325" PMx_abs="24.321196" NOx_abs="502.082351" fuel_abs="577.601026" electricity_abs="0"
            CO_normed="246.726283" CO2_normed="31033.565131" HC_normed="1.877615" PMx_normed="0.561707" NOx_normed="11.595775" fuel_normed="13.339907" electricity_normed="0"
            traveltime="0.38" CO_perVeh="9.228673" CO2_perVeh="1160.794919" HC_perVeh="0.070231" PMx_perVeh="0.021010" NOx_perVeh="0.433734" fuel_perVeh="0.498973" electricity_perVeh="0"/>
        <edge id=":108_0" sampledSeconds="93.60" CO_abs="7772.443755" CO2_abs="577331.157795" HC_abs="49.246044" PMx_abs="11.416792" NOx_abs="242.183272" fuel_abs="248.167340" electricity_abs="0"
            CO_normed="121.909866" CO2_normed="9055.371286" HC_normed="0.772418" PMx_normed="0.179071" NOx_normed="3.798616" fuel_normed="3.892476" electricity_normed="0"
            traveltime="0.86" CO_perVeh="71.011335" CO2_perVeh="5274.667484" HC_perVeh="0.449926" PMx_perVeh="0.104307" NOx_perVeh="2.212658" fuel_perVeh="2.267330" electricity_perVeh="0"/>
        <edge id=":108_1" sampledSeconds="402.88" CO_abs="10271.243068" CO2_abs="1225747.437126" HC_abs="76.589680" PMx_abs="22.520669" NOx_abs="462.108423" fuel_abs="526.892360" electricity_abs="0"
            CO_normed="150.238137" CO2_normed="17929.087071" HC_normed="1.120282" PMx_normed="0.329411" NOx_normed="6.759290" fuel_normed="7.706889" electricity_normed="0"
            traveltime="0.60" CO_perVeh="15.258186" CO2_perVeh="1820.878180" HC_perVeh="0.113776" PMx_perVeh="0.033455" NOx_perVeh="0.686474" fuel_perVeh="0.782712" electricity_perVeh="0"/>
        <edge id=":109_0" sampledSeconds="306.20" CO_abs="103.735380" CO2_abs="18472.968656" HC_abs="0.888133" PMx_abs="0.225440" NOx_abs="6.641172" fuel_abs="7.940764" electricity_abs="0"
            CO_normed="1.559660" CO2_normed="277.740914" HC_normed="0.013353" PMx_normed="0.003389" NOx_normed="0.099850" fuel_normed="0.119389" electricity_normed="0"
            traveltime="0.85" CO_perVeh="0.288326" CO2_perVeh="51.344486" HC_perVeh="0.002469" PMx_perVeh="0.000627" NOx_perVeh="0.018459" fuel_perVeh="0.022071" electricity_perVeh="0"/>
        <edge id=":109_1" sampledSeconds="524.03" CO_abs="12287.495214" CO2_abs="1569882.040959" HC_abs="94.070010" PMx_abs="28.293295" NOx_abs="584.936689" fuel_abs="674.820414" electricity_abs="0"
            CO_normed="120.505033" CO2_normed="15396.033462" HC_normed="0.922557" PMx_normed="0.277476" NOx_normed="5.736549" fuel_normed="6.618050" electricity_normed="0"
            traveltime="0.89" CO_perVeh="20.922678" CO2_perVeh="2673.135256" HC_perVeh="0.160179" PMx_perVeh="0.048177" NOx_perVeh="0.996008" fuel_perVeh="1.149058" electricity_perVeh="0"/>
        <edge id=":11_0" sampledSeconds="278.34" CO_abs="17294.280155" CO2_abs="1244892.094705" HC_abs="108.140251" PMx_abs="22.308273" NOx_abs="511.136946" fuel_abs="535.123785" electricity_abs="0"
            CO_normed="178.807822" CO2_normed="12871.102032" HC_normed="1.118076" PMx_normed="0.230648" NOx_normed="5.284712" fuel_normed="5.532715" electricity_normed="0"
            traveltime="1.59" CO_perVeh="98.723995" CO2_perVeh="7106.437513" HC_perVeh="0.617316" PMx_perVeh="0.127346" NOx_perVeh="2.917813" fuel_perVeh="3.054742" electricity_perVeh="0"/>
        <edge id=":11_1" sampledSeconds="50.50" CO_abs="1103.666406" CO2_abs="101058.448175" HC_abs="7.329451" PMx_abs="1.315380" NOx_abs="37.997411" fuel_abs="43.441066" electricity_abs="0"
            CO_normed="11.699430" CO2_normed="1071.271412" HC_normed="0.077696" PMx_normed="0.013944" NOx_normed="0.402792" fuel_normed="0.460498" electricity_normed="0"
            traveltime="1.66" CO_perVeh="36.299449" CO2_perVeh="3323.799663" HC_perVeh="0.241065" PMx_perVeh="0.043263" NOx_perVeh="1.249730" fuel_perVeh="1.428771" electricity_perVeh="0"/>
        <edge id=":110_0" sampledSeconds="94.61" CO_abs="0" CO2_abs="0" HC_abs="0" PMx_abs="0" NOx_abs="0" fuel_abs="0" electricity_abs="0"
            CO_normed="0" CO2_normed="0" HC_normed="0" PMx_normed="0" NOx_normed="0" fuel_normed="0" electricity_normed="0"
            traveltime="0.93" CO_perVeh="0" CO2_perVeh="0" HC_perVeh="0" PMx_perVeh="0" NOx_perVeh="0" fuel_perVeh="0" electricity_perVeh="0"/>
        <edge id=":110_1" sampledSeconds="443.62" CO_abs="11382.222346" CO2_abs="1386871.545861" HC_abs="85.486108" PMx_abs="25.322408" NOx_abs="520.795435" fuel_abs="596.152323" electricity_abs="0"
            CO_normed="146.102155" CO2_normed="17801.876997" HC_normed="1.097299" PMx_normed="0.325038" NOx_normed="6.684928" fuel_normed="7.652209" electricity_normed="0"
            traveltime="0.68" CO_perVeh="17.484817" CO2_perVeh="2130.444688" HC_perVeh="0.131320" PMx_perVeh="0.038899" NOx_perVeh="0.800021" fuel_perVeh="0.915780" electricity_perVeh="0"/>
        <edge id=":111_0" sampledSeconds="340.86" CO_abs="8233.825847" CO2_abs="1000061.671324" HC_abs="61.834672" PMx_abs="18.288684" NOx_abs="375.809481" fuel_abs="429.880523" electricity_abs="0"
            CO_normed="190.163216" CO2_normed="23096.789640" HC_normed="1.428094" PMx_normed="0.422384" NOx_normed="8.679457" fuel_normed="9.928248" electricity_normed="0"
            traveltime="0.38" CO_perVeh="9.150622" CO2_perVeh="1111.413630" HC_perVeh="0.068720" PMx_perVeh="0.020325" NOx_perVeh="0.417654" fuel_perVeh="0.477746" electricity_perVeh="0"/>
        <edge id=":114_0" sampledSeconds="107.27" CO_abs="10390.452183" CO2_abs="753579.743175" HC_abs="65.451166" PMx_abs="15.226819" NOx_abs="318.399836" fuel_abs="323.927960" electricity_abs="0"
            CO_normed="138.067988" CO2_normed="10013.542932" HC_normed="0.869713" PMx_normed="0.202333" NOx_normed="4.230887" fuel_normed="4.304344" electricity_normed="0"
            traveltime="0.99" CO_perVeh="96.123275" CO2_perVeh="6971.453372" HC_perVeh="0.605496" PMx_perVeh="0.140865" NOx_perVeh="2.945554" fuel_perVeh="2.996695" electricity_perVeh="0"/>
        <edge id=":114_1" sampledSeconds="416.59" CO_abs="9795.051034" CO2_abs="1228609.445316" HC_abs="74.399642" PMx_abs="22.239677" NOx_abs="459.330564" fuel_abs="528.122851" electricity_abs="0"
            CO_normed="129.336578" CO2_normed="16222.900844" HC_normed="0.982394" PMx_normed="0.293659" NOx_normed="6.065129" fuel_normed="6.973481" electricity_normed="0"
            traveltime="0.66" CO_perVeh="15.608147" CO2_perVeh="1957.755710" HC_perVeh="0.118554" PMx_perVeh="0.035438" NOx_perVeh="0.731931" fuel_perVeh="0.841549" electricity_perVeh="0"/>
        <edge id=":115_0" sampledSeconds="79.52" CO_abs="171.245914" CO2_abs="15576.112900" HC_abs="1.145542" PMx_abs="0.256666" NOx_abs="6.174551" fuel_abs="6.695482" electricity_abs="0"
            CO_normed="3.869730" CO2_normed="351.981229" HC_normed="0.025886" PMx_normed="0.005800" NOx_normed="0.139529" fuel_normed="0.151301" electricity_normed="0"
            traveltime="0.63" CO_perVeh="1.347567" CO2_perVeh="122.571428" HC_perVeh="0.009014" PMx_perVeh="0.002020" NOx_perVeh="0.048589" fuel_perVeh="0.052688" electricity_perVeh="0"/>
        <edge id=":115_1" sampledSeconds="72.32" CO_abs="1183.291345" CO2_abs="177444.774068" HC_abs="9.377294" PMx_abs="2.646616" NOx_abs="66.044565" fuel_abs="76.275655" electricity_abs="0"
            CO_normed="23.879596" CO2_normed="3580.951964" HC_normed="0.189240" PMx_normed="0.053410" NOx_normed="1.332823" fuel_normed="1.539293" electricity_normed="0"
            traveltime="0.59" CO_perVeh="9.687220" CO2_perVeh="1452.682460" HC_perVeh="0.076769" PMx_perVeh="0.021667" NOx_perVeh="0.540685" fuel_perVeh="0.624444" electricity_perVeh="0"/>
        <edge id=":116_0" sampledSeconds="74.99" CO_abs="102.529117" CO2_abs="14251.040269" HC_abs="0.793111" PMx_abs="0.176067" NOx_abs="5.195060" fuel_abs="6.125943" electricity_abs="0"
            CO_normed="2.586381" CO2_normed="359.494179" HC_normed="0.020007" PMx_normed="0.004441" NOx_normed="0.131050" fuel_normed="0.154532" electricity_normed="0"
            traveltime="0.57" CO_perVeh="0.774172" CO2_perVeh="107.606050" HC_perVeh="0.005989" PMx_perVeh="0.001329" NOx_perVeh="0.039227" fuel_perVeh="0.046255" electricity_perVeh="0"/>
        <edge id=":117_0" sampledSeconds="237.38" CO_abs="12933.389765" CO2_abs="1071235.374177" HC_abs="84.340976" PMx_abs="19.685121" NOx_abs="437.564384" fuel_abs="460.474615" electricity_abs="0"
            CO_normed="292.262290" CO2_normed="24207.242606" HC_normed="1.905895" PMx_normed="0.444835" NOx_normed="9.887862" fuel_normed="10.405576" electricity_normed="0"
            traveltime="0.60" CO_perVeh="32.909984" CO2_perVeh="2725.839066" HC_perVeh="0.214612" PMx_perVeh="0.050090" NOx_perVeh="1.113416" fuel_perVeh="1.171712" electricity_perVeh="0"/>
        <edge id=":117_1" sampledSeconds="75.82" CO_abs="4751.549168" CO2_abs="392034.539892" HC_abs="30.974015" PMx_abs="7.204937" NOx_abs="160.198379" fuel_abs="168.517557" electricity_abs="0"
            CO_normed="101.192517" CO2_normed="8349.058475" HC_normed="0.659646" PMx_normed="0.153442" NOx_normed="3.411704" fuel_normed="3.588875" electricity_normed="0"
            traveltime="0.64" CO_perVeh="40.171690" CO2_perVeh="3314.432687" HC_perVeh="0.261868" PMx_perVeh="0.060914" NOx_perVeh="1.354388" fuel_perVeh="1.424722" electricity_perVeh="0"/>
        <edge id=":118_0" sampledSeconds="898.53" CO_abs="13143.520843" CO2_abs="2081920.317672" HC_abs="106.488900" PMx_abs="30.551503" NOx_abs="769.343351" fuel_abs="894.925756" electricity_abs="0"
            CO_normed="39.878430" CO2_normed="6316.702736" HC_normed="0.323095" PMx_normed="0.092696" NOx_normed="2.334246" fuel_normed="2.715272" electricity_normed="0"
            traveltime="3.92" CO_perVeh="57.328023" CO2_perVeh="9080.700435" HC_perVeh="0.464472" PMx_perVeh="0.133256" NOx_perVeh="3.355641" fuel_perVeh="3.903393" electricity_perVeh="0"/>
        <edge id=":118_4" sampledSeconds="283.18" CO_abs="3505.905628" CO2_abs="587625.528500" HC_abs="29.045638" PMx_abs="8.427309" NOx_abs="215.361752" fuel_abs="252.594475" electricity_abs="0"
            CO_normed="10.657746" CO2_normed="1786.346906" HC_normed="0.088297" PMx_normed="0.025619" NOx_normed="0.654687" fuel_normed="0.767872" electricity_normed="0"
            traveltime="3.93" CO_perVeh="48.607210" CO2_perVeh="8147.063966" HC_perVeh="0.402700" PMx_perVeh="0.116839" NOx_perVeh="2.985857" fuel_perVeh="3.502066" electricity_perVeh="0"/>
        <edge id=":118_5" sampledSeconds="238.56" CO_abs="4273.762013" CO2_abs="579917.666015" HC_abs="32.746722" PMx_abs="9.117028" NOx_abs="219.410576" fuel_abs="249.280551" electricity_abs="0"
            CO_normed="13.120932" CO2_normed="1780.412668" HC_normed="0.100536" PMx_normed="0.027990" NOx_normed="0.673615" fuel_normed="0.765319" electricity_normed="0"
            traveltime="3.82" CO_perVeh="68.399245" CO2_perVeh="9281.268001" HC_perVeh="0.524094" PMx_perVeh="0.145913" NOx_perVeh="3.511547" fuel_perVeh="3.989600" electricity_perVeh="0"/>
        <edge id=":119_0" sampledSeconds="139.26" CO_abs="2159.445518" CO2_abs="318370.744964" HC_abs="17.188944" PMx_abs="4.851141" NOx_abs="119.142065" fuel_abs="136.853404" electricity_abs="0"
            CO_normed="46.302717" CO2_normed="6826.488678" HC_normed="0.368564" PMx_normed="0.104018" NOx_normed="2.554638" fuel_normed="2.934403" electricity_normed="0"
            traveltime="0.56" CO_perVeh="8.657064" CO2_perVeh="1276.325705" HC_perVeh="0.068909" PMx_perVeh="0.019448" NOx_perVeh="0.477632" fuel_perVeh="0.548636" electricity_perVeh="0"/>
        <edge id=":12_0" sampledSeconds="599.54" CO_abs="54061.503741" CO2_abs="3067220.141477" HC_abs="318.944087" PMx_abs="59.771294" NOx_abs="1304.743065" fuel_abs="1318.462583" electricity_abs="0"
            CO_normed="506.495450" CO2_normed="28736.400908" HC_normed="2.988147" PMx_normed="0.559990" NOx_normed="12.223974" fuel_normed="12.352511" electricity_normed="0"
            traveltime="2.12" CO_perVeh="191.023681" CO2_perVeh="10837.872429" HC_perVeh="1.126973" PMx_perVeh="0.211199" NOx_perVeh="4.610246" fuel_perVeh="4.658723" electricity_perVeh="0"/>
        <edge id=":12_1" sampledSeconds="55.81" CO_abs="1035.489763" CO2_abs="91222.895122" HC_abs="6.794126" PMx_abs="1.194145" NOx_abs="34.393662" fuel_abs="39.213166" electricity_abs="0"
            CO_normed="9.691749" CO2_normed="853.807993" HC_normed="0.063590" PMx_normed="0.011177" NOx_normed="0.321910" fuel_normed="0.367019" electricity_normed="0"
            traveltime="1.88" CO_perVeh="34.918161" CO2_perVeh="3076.163465" HC_perVeh="0.229107" PMx_perVeh="0.040268" NOx_perVeh="1.159802" fuel_perVeh="1.322323" electricity_perVeh="0"/>
        <edge id=":120_0" sampledSeconds="39.01" CO_abs="442.338514" CO2_abs="83514.499512" HC_abs="3.833462" PMx_abs="1.147012" NOx_abs="30.174769" fuel_abs="35.899259" electricity_abs="0"
            CO_normed="347.768631" CO2_normed="65659.494349" HC_normed="3.013886" PMx_normed="0.901786" NOx_normed="23.723546" fuel_normed="28.224168" electricity_normed="0"
            traveltime="0.02" CO_perVeh="0.170198" CO2_perVeh="32.133835" HC_perVeh="0.001475" PMx_perVeh="0.000441" NOx_perVeh="0.011610" fuel_perVeh="0.013813" electricity_perVeh="0"/>
        <edge id=":121_0" sampledSeconds="374.87" CO_abs="53442.572291" CO2_abs="1429157.939299" HC_abs="276.907884" PMx_abs="30.873742" NOx_abs="632.179850" fuel_abs="614.350995" electricity_abs="0"
            CO_normed="30557.674906" CO2_normed="817171.438925" HC_normed="158.331845" PMx_normed="17.653151" NOx_normed="361.471118" fuel_normed="351.276842" electricity_normed="0"
            traveltime="0.12" CO_perVeh="16.447533" CO2_perVeh="439.838907" HC_perVeh="0.085221" PMx_perVeh="0.009502" NOx_perVeh="0.194560" fuel_perVeh="0.189073" electricity_perVeh="0"/>
        <edge id=":122_0" sampledSeconds="134.51" CO_abs="925.209244" CO2_abs="103881.982836" HC_abs="6.590046" PMx_abs="1.745008" NOx_abs="40.358140" fuel_abs="44.654126" electricity_abs="0"
            CO_normed="20.370704" CO2_normed="2287.211371" HC_normed="0.145096" PMx_normed="0.038421" NOx_normed="0.888581" fuel_normed="0.983168" electricity_normed="0"
            traveltime="0.54" CO_perVeh="3.700866" CO2_perVeh="415.531213" HC_perVeh="0.026360" PMx_perVeh="0.006980" NOx_perVeh="0.161434" fuel_perVeh="0.178618" electricity_perVeh="0"/>
        <edge id=":123_0" sampledSeconds="312.32" CO_abs="39711.616915" CO2_abs="2443921.251546" HC_abs="239.469868" PMx_abs="50.026065" NOx_abs="1047.451175" fuel_abs="1050.528143" electricity_abs="0"
            CO_normed="151.437967" CO2_normed="9319.753155" HC_normed="0.913205" PMx_normed="0.190772" NOx_normed="3.994395" fuel_normed="4.006129" electricity_normed="0"
            traveltime="4.25" CO_perVeh="540.795232" CO2_perVeh="33281.469343" HC_perVeh="3.261115" PMx_perVeh="0.681258" NOx_perVeh="14.264254" fuel_perVeh="14.306157" electricity_perVeh="0"/>
        <edge id=":123_1" sampledSeconds="0.00" CO_abs="0" CO2_abs="0" HC_abs="0" PMx_abs="0" NOx_abs="0" fuel_abs="0" electricity_abs="0"
            CO_normed="0" CO2_normed="0" HC_normed="0" PMx_normed="0" NOx_normed="0" fuel_normed="0" electricity_normed="0"/>
        <edge id=":123_2" sampledSeconds="263.52" CO_abs="34567.526988" CO2_abs="2136049.637600" HC_abs="208.731510" PMx_abs="43.984417" NOx_abs="916.984160" fuel_abs="918.187952" electricity_abs="0"
            CO_normed="133.085427" CO2_normed="8223.818765" HC_normed="0.803619" PMx_normed="0.169341" NOx_normed="3.530401" fuel_normed="3.535036" electricity_normed="0"
            traveltime="4.14" CO_perVeh="543.332595" CO2_perVeh="33574.440918" HC_perVeh="3.280843" PMx_perVeh="0.691347" NOx_perVeh="14.413162" fuel_perVeh="14.432084" electricity_perVeh="0"/>
        <edge id=":123_3" sampledSeconds="468.79" CO_abs="22798.428843" CO2_abs="2133588.071307" HC_abs="154.225011" PMx_abs="39.957277" NOx_abs="856.681842" fuel_abs="917.129195" electricity_abs="0"
            CO_normed="89.808263" CO2_normed="8404.694924" HC_normed="0.607528" PMx_normed="0.157401" NOx_normed="3.374667" fuel_normed="3.612783" electricity_normed="0"
            traveltime="2.81" CO_perVeh="136.457832" CO2_perVeh="12770.388941" HC_perVeh="0.923099" PMx_perVeh="0.239160" NOx_perVeh="5.127588" fuel_perVeh="5.489390" electricity_perVeh="0"/>
        <edge id=":123_5" sampledSeconds="0.00" CO_abs="0" CO2_abs="0" HC_abs="0" PMx_abs="0" NOx_abs="0" fuel_abs="0" electricity_abs="0"
            CO_normed="0" CO2_normed="0" HC_normed="0" PMx_normed="0" NOx_normed="0" fuel_normed="0" electricity_normed="0"/>
        <edge id=":123_6" sampledSeconds="194.37" CO_abs="9204.327350" CO2_abs="877025.715309" HC_abs="62.653261" PMx_abs="16.275802" NOx_abs="351.306725" fuel_abs="376.992199" electricity_abs="0"
            CO_normed="35.022314" CO2_normed="3337.068427" HC_normed="0.238395" PMx_normed="0.061929" NOx_normed="1.336716" fuel_normed="1.434449" electricity_normed="0"
            traveltime="2.91" CO_perVeh="137.700873" CO2_perVeh="13120.698825" HC_perVeh="0.937321" PMx_perVeh="0.243493" NOx_perVeh="5.255706" fuel_perVeh="5.639973" electricity_perVeh="0"/>
        <edge id=":124_0" sampledSeconds="118.67" CO_abs="4364.953771" CO2_abs="395834.326294" HC_abs="29.188867" PMx_abs="7.496357" NOx_abs="159.811159" fuel_abs="170.150510" electricity_abs="0"
            CO_normed="102.186024" CO2_normed="9266.704280" HC_normed="0.683328" PMx_normed="0.175494" NOx_normed="3.741269" fuel_normed="3.983319" electricity_normed="0"
            traveltime="0.46" CO_perVeh="16.966369" CO2_perVeh="1538.589277" HC_perVeh="0.113456" PMx_perVeh="0.029138" NOx_perVeh="0.621178" fuel_perVeh="0.661367" electricity_perVeh="0"/>
        <edge id=":125_0" sampledSeconds="141.43" CO_abs="5617.859608" CO2_abs="565193.296706" HC_abs="38.954177" PMx_abs="10.543912" NOx_abs="223.192675" fuel_abs="242.950081" electricity_abs="0"
            CO_normed="353.343023" CO2_normed="35548.611355" HC_normed="2.450077" PMx_normed="0.663174" NOx_normed="14.038011" fuel_normed="15.280680" electricity_normed="0"
            traveltime="0.16" CO_perVeh="6.433892" CO2_perVeh="647.291426" HC_perVeh="0.044613" PMx_perVeh="0.012075" NOx_perVeh="0.255613" fuel_perVeh="0.278240" electricity_perVeh="0"/>
        <edge id=":125_3" sampledSeconds="0.00" CO_abs="0" CO2_abs="0" HC_abs="0" PMx_abs="0" NOx_abs="0" fuel_abs="0" electricity_abs="0"
            CO_normed="0" CO2_normed="0" HC_normed="0" PMx_normed="0" NOx_normed="0" fuel_normed="0" electricity_normed="0"/>
        <edge id=":126_0" sampledSeconds="27.58" CO_abs="226.571844" CO2_abs="15750.199206" HC_abs="1.395857" PMx_abs="0.245552" NOx_abs="6.254212" fuel_abs="6.770371" electricity_abs="0"
            CO_normed="7.461020" CO2_normed="518.654705" HC_normed="0.045966" PMx_normed="0.008086" NOx_normed="0.205951" fuel_normed="0.222949" electricity_normed="0"
            traveltime="0.56" CO_perVeh="4.621364" CO2_perVeh="321.255288" HC_perVeh="0.028471" PMx_perVeh="0.005009" NOx_perVeh="0.127567" fuel_perVeh="0.138095" electricity_perVeh="0"/>
        <edge id=":126_1" sampledSeconds="80.79" CO_abs="1481.106971" CO2_abs="216518.283788" HC_abs="11.740398" PMx_abs="3.545775" NOx_abs="80.675805" fuel_abs="93.071388" electricity_abs="0"
            CO_normed="43.395775" CO2_normed="6343.889380" HC_normed="0.343988" PMx_normed="0.103890" NOx_normed="2.363765" fuel_normed="2.726950" electricity_normed="0"
            traveltime="0.35" CO_perVeh="6.409004" CO2_perVeh="936.911815" HC_perVeh="0.050803" PMx_perVeh="0.015343" NOx_perVeh="0.349098" fuel_perVeh="0.402736" electricity_perVeh="0"/>
        <edge id=":127_0" sampledSeconds="234.34" CO_abs="5070.498737" CO2_abs="664138.073235" HC_abs="38.423564" PMx_abs="11.267944" NOx_abs="250.733549" fuel_abs="285.482597" electricity_abs="0"
            CO_normed="117.248532" CO2_normed="15357.308619" HC_normed="0.888494" PMx_normed="0.260556" NOx_normed="5.797879" fuel_normed="6.601405" electricity_normed="0"
            traveltime="0.44" CO_perVeh="9.481955" CO2_perVeh="1241.954239" HC_perVeh="0.071853" PMx_perVeh="0.021071" NOx_perVeh="0.468878" fuel_perVeh="0.533859" electricity_perVeh="0"/>
        <edge id=":128_0" sampledSeconds="229.68" CO_abs="260.453915" CO2_abs="43650.948869" HC_abs="2.162551" PMx_abs="0.617198" NOx_abs="15.951911" fuel_abs="18.763645" electricity_abs="0"
            CO_normed="4.024965" CO2_normed="674.566730" HC_normed="0.033419" PMx_normed="0.009538" NOx_normed="0.246515" fuel_normed="0.289967" electricity_normed="0"
            traveltime="0.76" CO_perVeh="0.856203" CO2_perVeh="143.495866" HC_perVeh="0.007109" PMx_perVeh="0.002029" NOx_perVeh="0.052439" fuel_perVeh="0.061683" electricity_perVeh="0"/>
        <edge id=":128_1" sampledSeconds="142.04" CO_abs="227.043259" CO2_abs="26157.410229" HC_abs="1.631728" PMx_abs="0.375550" NOx_abs="9.904926" fuel_abs="11.243956" electricity_abs="0"
            CO_normed="3.624416" CO2_normed="417.565068" HC_normed="0.026048" PMx_normed="0.005995" NOx_normed="0.158118" fuel_normed="0.179493" electricity_normed="0"
            traveltime="0.85" CO_perVeh="1.360995" CO2_perVeh="156.798806" HC_perVeh="0.009781" PMx_perVeh="0.002251" NOx_perVeh="0.059374" fuel_perVeh="0.067401" electricity_perVeh="0"/>
        <edge id=":129_0" sampledSeconds="105.17" CO_abs="5748.249340" CO2_abs="515085.553472" HC_abs="38.421164" PMx_abs="9.694490" NOx_abs="208.796838" fuel_abs="221.411042" electricity_abs="0"
            CO_normed="133.905209" CO2_normed="11998.894735" HC_normed="0.895019" PMx_normed="0.225833" NOx_normed="4.863913" fuel_normed="5.157760" electricity_normed="0"
            traveltime="0.50" CO_perVeh="27.243685" CO2_perVeh="2441.235179" HC_perVeh="0.182096" PMx_perVeh="0.045947" NOx_perVeh="0.989587" fuel_perVeh="1.049372" electricity_perVeh="0"/>
        <edge id=":13_0" sampledSeconds="59.74" CO_abs="5022.262322" CO2_abs="366604.412317" HC_abs="31.613111" PMx_abs="6.984033" NOx_abs="152.744422" fuel_abs="157.586298" electricity_abs="0"
            CO_normed="35.505670" CO2_normed="2591.767303" HC_normed="0.223494" PMx_normed="0.049375" NOx_normed="1.079851" fuel_normed="1.114081" electricity_normed="0"
            traveltime="2.11" CO_perVeh="177.645491" CO2_perVeh="12967.387305" HC_perVeh="1.118207" PMx_perVeh="0.247036" NOx_perVeh="5.402816" fuel_perVeh="5.574081" electricity_perVeh="0"/>
        <edge id=":13_1" sampledSeconds="544.49" CO_abs="12493.649796" CO2_abs="945167.895943" HC_abs="78.512084" PMx_abs="13.253596" NOx_abs="364.341663" fuel_abs="406.290748" electricity_abs="0"
            CO_normed="124.467580" CO2_normed="9416.204455" HC_normed="0.782174" PMx_normed="0.132039" NOx_normed="3.629742" fuel_normed="4.047658" electricity_normed="0"
            traveltime="1.90" CO_perVeh="43.618310" CO2_perVeh="3299.806494" HC_perVeh="0.274104" PMx_perVeh="0.046271" NOx_perVeh="1.272004" fuel_perVeh="1.418458" electricity_perVeh="0"/>
        <edge id=":132_0" sampledSeconds="41.11" CO_abs="474.228387" CO2_abs="74118.734317" HC_abs="3.814280" PMx_abs="1.077648" NOx_abs="27.437925" fuel_abs="31.860385" electricity_abs="0"
            CO_normed="894.817440" CO2_normed="139853.998398" HC_normed="7.197132" PMx_normed="2.033405" NOx_normed="51.772383" fuel_normed="60.117084" electricity_normed="0"
            traveltime="6.373348e-03" CO_perVeh="0.073518" CO2_perVeh="11.490386" HC_perVeh="0.000591" PMx_perVeh="0.000167" NOx_perVeh="0.004254" fuel_perVeh="0.004939" electricity_perVeh="0"/>
        <edge id=":133_0" sampledSeconds="44.81" CO_abs="772.801495" CO2_abs="104466.888900" HC_abs="5.878988" PMx_abs="1.400412" NOx_abs="38.692824" fuel_abs="44.905923" electricity_abs="0"