<?xml version="1.0" encoding="UTF-8"?>

<!-- generated on Mon Nov  9 22:03:49 2020 by Eclipse SUMO sumo Version 1.7.0
<configuration xmlns:xsi="http://www.w3.org/2001/XMLSchema-instance" xsi:noNamespaceSchemaLocation="http://sumo.dlr.de/xsd/sumoConfiguration.xsd">

    <input>
        <net-file value="../dataSets/Porto/6AM7AM_Routing_SaoBento/Porto.net.xml"/>
        <route-files value="../results/Porto/6AM7AM_Routing_SaoBento/cost_PMx-ttime/solution12/Porto.rou.xml"/>
        <additional-files value="moreOutputInfo.xml"/>
    </input>

    <output>
        <emission-output.precision value="6"/>
        <tripinfo-output value="../results/Porto/6AM7AM_Routing_SaoBento/cost_PMx-ttime/solution12/Porto-tripinfo"/>
    </output>

    <processing>
        <collision.action value="warn"/>
        <time-to-teleport value="-1"/>
    </processing>

    <emissions>
        <device.emissions.probability value="1"/>
    </emissions>

    <gui_only>
        <quit-on-end value="true"/>
        <start value="true"/>
    </gui_only>

</configuration>
-->

<meandata xmlns:xsi="http://www.w3.org/2001/XMLSchema-instance" xsi:noNamespaceSchemaLocation="http://sumo.dlr.de/xsd/meandata_file.xsd">
    <interval begin="0.00" end="4700.00" id="emissions-detector">
        <edge id=":1092997347_0" sampledSeconds="302.53" CO_abs="38692.751001" CO2_abs="1531858.394836" HC_abs="212.376188" PMx_abs="31.231280" NOx_abs="664.889259" fuel_abs="658.485768" electricity_abs="0"
            CO_normed="67356.819924" CO2_normed="2666678.056774" HC_normed="369.707098" PMx_normed="54.367799" NOx_normed="1157.447453" fuel_normed="1146.300176" electricity_normed="0"
            traveltime="0.08" CO_perVeh="9.604339" CO2_perVeh="380.238859" HC_perVeh="0.052716" PMx_perVeh="0.007752" NOx_perVeh="0.165039" fuel_perVeh="0.163450" electricity_perVeh="0"/>
        <edge id=":1103427051_0" sampledSeconds="11.23" CO_abs="865.074958" CO2_abs="47285.659290" HC_abs="5.063765" PMx_abs="0.944262" NOx_abs="20.309382" fuel_abs="20.326006" electricity_abs="0"
            CO_normed="2284.864159" CO2_normed="124892.423656" HC_normed="13.374580" PMx_normed="2.494017" NOx_normed="53.641803" fuel_normed="53.685708" electricity_normed="0"
            traveltime="0.03" CO_perVeh="2.370292" CO2_perVeh="129.561992" HC_perVeh="0.013875" PMx_perVeh="0.002587" NOx_perVeh="0.055647" fuel_perVeh="0.055693" electricity_perVeh="0"/>
        <edge id=":1105984386_0" sampledSeconds="23.11" CO_abs="361.301593" CO2_abs="29502.271314" HC_abs="2.319054" PMx_abs="0.400738" NOx_abs="11.250568" fuel_abs="12.681873" electricity_abs="0"
            CO_normed="28.500684" CO2_normed="2327.238353" HC_normed="0.182935" PMx_normed="0.031612" NOx_normed="0.887483" fuel_normed="1.000389" electricity_normed="0"
            traveltime="0.97" CO_perVeh="15.163548" CO2_perVeh="1238.187476" HC_perVeh="0.097329" PMx_perVeh="0.016819" NOx_perVeh="0.472178" fuel_perVeh="0.532248" electricity_perVeh="0"/>
        <edge id=":1105984390_0" sampledSeconds="22.87" CO_abs="10.064937" CO2_abs="771.231944" HC_abs="0.063737" PMx_abs="0.012155" NOx_abs="0.305903" fuel_abs="0.331520" electricity_abs="0"
            CO_normed="0.613799" CO2_normed="47.032711" HC_normed="0.003887" PMx_normed="0.000741" NOx_normed="0.018655" fuel_normed="0.020217" electricity_normed="0"
            traveltime="1.04" CO_perVeh="0.456440" CO2_perVeh="34.974990" HC_perVeh="0.002890" PMx_perVeh="0.000551" NOx_perVeh="0.013873" fuel_perVeh="0.015034" electricity_perVeh="0"/>
        <edge id=":1105984390_1" sampledSeconds="647.02" CO_abs="14792.404823" CO2_abs="1885026.146911" HC_abs="112.551022" PMx_abs="33.541937" NOx_abs="707.663659" fuel_abs="810.286214" electricity_abs="0"
            CO_normed="862.936225" CO2_normed="109965.713226" HC_normed="6.565826" PMx_normed="1.956717" NOx_normed="41.282578" fuel_normed="47.269212" electricity_normed="0"
            traveltime="0.64" CO_perVeh="14.549616" CO2_perVeh="1854.087060" HC_perVeh="0.110704" PMx_perVeh="0.032991" NOx_perVeh="0.696049" fuel_perVeh="0.796987" electricity_perVeh="0"/>
        <edge id=":1105984395_0" sampledSeconds="8.98" CO_abs="217.826456" CO2_abs="16653.896829" HC_abs="1.371148" PMx_abs="0.224329" NOx_abs="6.360625" fuel_abs="7.158872" electricity_abs="0"
            CO_normed="181.354127" CO2_normed="13865.409016" HC_normed="1.141566" PMx_normed="0.186768" NOx_normed="5.295617" fuel_normed="5.960208" electricity_normed="0"
            traveltime="0.09" CO_perVeh="2.208998" CO2_perVeh="168.888724" HC_perVeh="0.013905" PMx_perVeh="0.002275" NOx_perVeh="0.064504" fuel_perVeh="0.072599" electricity_perVeh="0"/>
        <edge id=":1105984398_0" sampledSeconds="23.04" CO_abs="1562.857142" CO2_abs="104686.962600" HC_abs="9.603036" PMx_abs="1.984207" NOx_abs="43.851824" fuel_abs="45.000182" electricity_abs="0"
            CO_normed="99.014232" CO2_normed="6632.403523" HC_normed="0.608397" PMx_normed="0.125709" NOx_normed="2.778216" fuel_normed="2.850970" electricity_normed="0"
            traveltime="1.11" CO_perVeh="75.033730" CO2_perVeh="5026.085257" HC_perVeh="0.461048" PMx_perVeh="0.095263" NOx_perVeh="2.105353" fuel_perVeh="2.160486" electricity_perVeh="0"/>
        <edge id=":1105984398_1" sampledSeconds="452.75" CO_abs="7838.811157" CO2_abs="929259.738579" HC_abs="56.821952" PMx_abs="13.220894" NOx_abs="350.550721" fuel_abs="399.449203" electricity_abs="0"
            CO_normed="480.720239" CO2_normed="56987.463313" HC_normed="3.484643" PMx_normed="0.810780" NOx_normed="21.497753" fuel_normed="24.496484" electricity_normed="0"
            traveltime="0.96" CO_perVeh="16.545382" CO2_perVeh="1961.388958" HC_perVeh="0.119934" PMx_perVeh="0.027905" NOx_perVeh="0.739908" fuel_perVeh="0.843118" electricity_perVeh="0"/>
        <edge id=":1106006327_0" sampledSeconds="38.14" CO_abs="5168.141519" CO2_abs="169335.755045" HC_abs="27.520865" PMx_abs="3.536679" NOx_abs="74.154063" fuel_abs="72.791413" electricity_abs="0"
            CO_normed="446.791928" CO2_normed="14639.275687" HC_normed="2.379211" PMx_normed="0.305750" NOx_normed="6.410706" fuel_normed="6.292904" electricity_normed="0"
            traveltime="2.07" CO_perVeh="280.368197" CO2_perVeh="9186.350659" HC_perVeh="1.492988" PMx_perVeh="0.191862" NOx_perVeh="4.022808" fuel_perVeh="3.948885" electricity_perVeh="0"/>
        <edge id=":1106006327_1" sampledSeconds="160.90" CO_abs="21863.159417" CO2_abs="733476.945310" HC_abs="116.844638" PMx_abs="15.322677" NOx_abs="321.140302" fuel_abs="315.295185" electricity_abs="0"
            CO_normed="1648.252930" CO2_normed="55296.469323" HC_normed="8.808860" PMx_normed="1.155169" NOx_normed="24.210611" fuel_normed="23.769950" electricity_normed="0"
            traveltime="2.28" CO_perVeh="310.375726" CO2_perVeh="10412.650576" HC_perVeh="1.658760" PMx_perVeh="0.217525" NOx_perVeh="4.559000" fuel_perVeh="4.476022" electricity_perVeh="0"/>
        <edge id=":1106006327_2" sampledSeconds="0.00" CO_abs="0" CO2_abs="0" HC_abs="0" PMx_abs="0" NOx_abs="0" fuel_abs="0" electricity_abs="0"
            CO_normed="0" CO2_normed="0" HC_normed="0" PMx_normed="0" NOx_normed="0" fuel_normed="0" electricity_normed="0"/>
        <edge id=":1106006327_3" sampledSeconds="0.00" CO_abs="0" CO2_abs="0" HC_abs="0" PMx_abs="0" NOx_abs="0" fuel_abs="0" electricity_abs="0"
            CO_normed="0" CO2_normed="0" HC_normed="0" PMx_normed="0" NOx_normed="0" fuel_normed="0" electricity_normed="0"/>
        <edge id=":1107381198_0" sampledSeconds="0.00" CO_abs="0" CO2_abs="0" HC_abs="0" PMx_abs="0" NOx_abs="0" fuel_abs="0" electricity_abs="0"
            CO_normed="0" CO2_normed="0" HC_normed="0" PMx_normed="0" NOx_normed="0" fuel_normed="0" electricity_normed="0"/>
        <edge id=":1107381198_1" sampledSeconds="36.24" CO_abs="1106.412515" CO2_abs="45634.424375" HC_abs="6.086259" PMx_abs="0.769225" NOx_abs="18.777959" fuel_abs="19.616652" electricity_abs="0"
            CO_normed="92.417111" CO2_normed="3811.780500" HC_normed="0.508377" PMx_normed="0.064252" NOx_normed="1.568497" fuel_normed="1.638552" electricity_normed="0"
            traveltime="1.49" CO_perVeh="45.554071" CO2_perVeh="1878.895795" HC_perVeh="0.250588" PMx_perVeh="0.031671" NOx_perVeh="0.773141" fuel_perVeh="0.807672" electricity_perVeh="0"/>
        <edge id=":1110338277_0" sampledSeconds="96.51" CO_abs="1348.419766" CO2_abs="172121.376569" HC_abs="10.048929" PMx_abs="2.257247" NOx_abs="63.686508" fuel_abs="73.987863" electricity_abs="0"
            CO_normed="3688.686291" CO2_normed="470848.750492" HC_normed="27.489471" PMx_normed="6.174840" NOx_normed="174.218410" fuel_normed="202.398409" electricity_normed="0"
            traveltime="0.02" CO_perVeh="0.303891" CO2_perVeh="38.790726" HC_perVeh="0.002265" PMx_perVeh="0.000509" NOx_perVeh="0.014353" fuel_perVeh="0.016675" electricity_perVeh="0"/>
        <edge id=":1110338293_0" sampledSeconds="122.92" CO_abs="6549.190210" CO2_abs="450679.146872" HC_abs="40.421211" PMx_abs="7.958839" NOx_abs="184.826186" fuel_abs="193.727305" electricity_abs="0"
            CO_normed="16721.336707" CO2_normed="1150670.162225" HC_normed="103.203092" PMx_normed="20.320439" NOx_normed="471.896644" fuel_normed="494.622906" electricity_normed="0"
            traveltime="0.03" CO_perVeh="1.502165" CO2_perVeh="103.370728" HC_perVeh="0.009271" PMx_perVeh="0.001825" NOx_perVeh="0.042393" fuel_perVeh="0.044435" electricity_perVeh="0"/>
        <edge id=":1110338295_0" sampledSeconds="0.00" CO_abs="0" CO2_abs="0" HC_abs="0" PMx_abs="0" NOx_abs="0" fuel_abs="0" electricity_abs="0"
            CO_normed="0" CO2_normed="0" HC_normed="0" PMx_normed="0" NOx_normed="0" fuel_normed="0" electricity_normed="0"/>
        <edge id=":1110673403_0" sampledSeconds="144.04" CO_abs="2251.176625" CO2_abs="272336.691496" HC_abs="16.461022" PMx_abs="3.814179" NOx_abs="102.321742" fuel_abs="117.066011" electricity_abs="0"
            CO_normed="5747.685000" CO2_normed="695327.722970" HC_normed="42.028142" PMx_normed="9.738329" NOx_normed="261.247002" fuel_normed="298.891942" electricity_normed="0"
            traveltime="0.02" CO_perVeh="0.361441" CO2_perVeh="43.725452" HC_perVeh="0.002643" PMx_perVeh="0.000612" NOx_perVeh="0.016428" fuel_perVeh="0.018796" electricity_perVeh="0"/>
        <edge id=":1110673412_0" sampledSeconds="252.90" CO_abs="44331.142083" CO2_abs="3037051.103248" HC_abs="276.171105" PMx_abs="66.589449" NOx_abs="1304.038895" fuel_abs="1305.478781" electricity_abs="0"
            CO_normed="117088.856565" CO2_normed="8021558.306450" HC_normed="729.432119" PMx_normed="175.878222" NOx_normed="3444.270008" fuel_normed="3448.073082" electricity_normed="0"
            traveltime="0.02" CO_perVeh="2.731444" CO2_perVeh="187.126592" HC_perVeh="0.017016" PMx_perVeh="0.004103" NOx_perVeh="0.080348" fuel_perVeh="0.080437" electricity_perVeh="0"/>
        <edge id=":1110673414_0" sampledSeconds="0.00" CO_abs="0" CO2_abs="0" HC_abs="0" PMx_abs="0" NOx_abs="0" fuel_abs="0" electricity_abs="0"
            CO_normed="0" CO2_normed="0" HC_normed="0" PMx_normed="0" NOx_normed="0" fuel_normed="0" electricity_normed="0"/>
        <edge id=":1110673414_1" sampledSeconds="230.35" CO_abs="14206.647320" CO2_abs="549301.532869" HC_abs="77.464792" PMx_abs="10.231817" NOx_abs="232.509929" fuel_abs="236.124884" electricity_abs="0"
            CO_normed="1205.059503" CO2_normed="46593.754113" HC_normed="6.570845" PMx_normed="0.867900" NOx_normed="19.722338" fuel_normed="20.028972" electricity_normed="0"
            traveltime="1.59" CO_perVeh="97.995589" CO2_perVeh="3789.009886" HC_perVeh="0.534342" PMx_perVeh="0.070578" NOx_perVeh="1.603823" fuel_perVeh="1.628758" electricity_perVeh="0"/>
        <edge id=":1110673417_0" sampledSeconds="29.67" CO_abs="633.570237" CO2_abs="67161.145951" HC_abs="4.430356" PMx_abs="0.992809" NOx_abs="25.714909" fuel_abs="28.869706" electricity_abs="0"
            CO_normed="1733.170861" CO2_normed="183723.499562" HC_normed="12.119514" PMx_normed="2.715892" NOx_normed="70.344736" fuel_normed="78.974881" electricity_normed="0"
            traveltime="0.02" CO_perVeh="0.470244" CO2_perVeh="49.847902" HC_perVeh="0.003288" PMx_perVeh="0.000737" NOx_perVeh="0.019086" fuel_perVeh="0.021427" electricity_perVeh="0"/>
        <edge id=":1110673446_0" sampledSeconds="333.86" CO_abs="3762.236422" CO2_abs="302270.904511" HC_abs="24.312776" PMx_abs="5.561941" NOx_abs="123.776640" fuel_abs="129.932362" electricity_abs="0"
            CO_normed="9605.710013" CO2_normed="771755.500879" HC_normed="62.075173" PMx_normed="14.200700" NOx_normed="316.025463" fuel_normed="331.742200" electricity_normed="0"
            traveltime="0.02" CO_perVeh="0.256691" CO2_perVeh="20.623440" HC_perVeh="0.001659" PMx_perVeh="0.000379" NOx_perVeh="0.008445" fuel_perVeh="0.008865" electricity_perVeh="0"/>
        <edge id=":1110673451_0" sampledSeconds="37.42" CO_abs="363.717680" CO2_abs="25393.400890" HC_abs="2.241440" PMx_abs="0.385408" NOx_abs="10.008832" fuel_abs="10.915607" electricity_abs="0"
            CO_normed="1031.823206" CO2_normed="72038.016708" HC_normed="6.358695" PMx_normed="1.093355" NOx_normed="28.393850" fuel_normed="30.966261" electricity_normed="0"
            traveltime="0.03" CO_perVeh="0.260833" CO2_perVeh="18.210407" HC_perVeh="0.001607" PMx_perVeh="0.000276" NOx_perVeh="0.007178" fuel_perVeh="0.007828" electricity_perVeh="0"/>
        <edge id=":1110673464_0" sampledSeconds="322.12" CO_abs="344.941106" CO2_abs="27558.991505" HC_abs="2.196712" PMx_abs="0.358118" NOx_abs="10.411253" fuel_abs="11.846563" electricity_abs="0"
            CO_normed="18.711771" CO2_normed="1494.972717" HC_normed="0.119163" PMx_normed="0.019427" NOx_normed="0.564772" fuel_normed="0.642632" electricity_normed="0"
            traveltime="1.16" CO_perVeh="1.246917" CO2_perVeh="99.622118" HC_perVeh="0.007941" PMx_perVeh="0.001295" NOx_perVeh="0.037635" fuel_perVeh="0.042824" electricity_perVeh="0"/>
        <edge id=":1110673464_1" sampledSeconds="708.29" CO_abs="15545.358025" CO2_abs="2069866.545670" HC_abs="120.291151" PMx_abs="36.335852" NOx_abs="771.930893" fuel_abs="889.740963" electricity_abs="0"
            CO_normed="826.306922" CO2_normed="110022.879567" HC_normed="6.394025" PMx_normed="1.931417" NOx_normed="41.031660" fuel_normed="47.293804" electricity_normed="0"
            traveltime="0.70" CO_perVeh="15.348338" CO2_perVeh="2043.633255" HC_perVeh="0.118767" PMx_perVeh="0.035875" NOx_perVeh="0.762148" fuel_perVeh="0.878464" electricity_perVeh="0"/>
        <edge id=":1110673479_0" sampledSeconds="132.79" CO_abs="6753.732023" CO2_abs="473855.528930" HC_abs="41.890820" PMx_abs="8.294964" NOx_abs="193.717182" fuel_abs="203.689834" electricity_abs="0"
            CO_normed="17243.571123" CO2_normed="1209843.903652" HC_normed="106.955285" PMx_normed="21.178633" NOx_normed="494.597061" fuel_normed="520.059151" electricity_normed="0"
            traveltime="0.03" CO_perVeh="1.422737" CO2_perVeh="99.822104" HC_perVeh="0.008825" PMx_perVeh="0.001747" NOx_perVeh="0.040808" fuel_perVeh="0.042909" electricity_perVeh="0"/>
        <edge id=":1110673511_0" sampledSeconds="11.66" CO_abs="201.791351" CO2_abs="26400.150494" HC_abs="1.512063" PMx_abs="0.335836" NOx_abs="9.692397" fuel_abs="11.348345" electricity_abs="0"
            CO_normed="515.211961" CO2_normed="67404.639558" HC_normed="3.860587" PMx_normed="0.857454" NOx_normed="24.746545" fuel_normed="28.974497" electricity_normed="0"
            traveltime="0.02" CO_perVeh="0.399587" CO2_perVeh="52.277526" HC_perVeh="0.002994" PMx_perVeh="0.000665" NOx_perVeh="0.019193" fuel_perVeh="0.022472" electricity_perVeh="0"/>
        <edge id=":1110673517_0" sampledSeconds="16.92" CO_abs="822.414388" CO2_abs="61431.465910" HC_abs="5.182745" PMx_abs="1.029878" NOx_abs="24.745594" fuel_abs="26.406741" electricity_abs="0"
            CO_normed="2099.781417" CO2_normed="156846.295939" HC_normed="13.232541" PMx_normed="2.629475" NOx_normed="63.180240" fuel_normed="67.421466" electricity_normed="0"
            traveltime="0.03" CO_perVeh="1.320441" CO2_perVeh="98.632271" HC_perVeh="0.008321" PMx_perVeh="0.001654" NOx_perVeh="0.039731" fuel_perVeh="0.042398" electricity_perVeh="0"/>
        <edge id=":1110673534_0" sampledSeconds="474.18" CO_abs="2894.415743" CO2_abs="251180.796844" HC_abs="18.937669" PMx_abs="3.466788" NOx_abs="95.842108" fuel_abs="107.972596" electricity_abs="0"
            CO_normed="143.217009" CO2_normed="12428.540170" HC_normed="0.937044" PMx_normed="0.171538" NOx_normed="4.742311" fuel_normed="5.342533" electricity_normed="0"
            traveltime="1.43" CO_perVeh="8.719715" CO2_perVeh="756.707069" HC_perVeh="0.057052" PMx_perVeh="0.010444" NOx_perVeh="0.288734" fuel_perVeh="0.325278" electricity_perVeh="0"/>
        <edge id=":1110673534_1" sampledSeconds="184.44" CO_abs="2575.019146" CO2_abs="352990.160041" HC_abs="19.656556" PMx_abs="4.576462" NOx_abs="129.758867" fuel_abs="151.735828" electricity_abs="0"
            CO_normed="123.891651" CO2_normed="16983.382018" HC_normed="0.945734" PMx_normed="0.220187" NOx_normed="6.243076" fuel_normed="7.300451" electricity_normed="0"
            traveltime="1.22" CO_perVeh="17.097203" CO2_perVeh="2343.727936" HC_perVeh="0.130512" PMx_perVeh="0.030386" NOx_perVeh="0.861552" fuel_perVeh="1.007471" electricity_perVeh="0"/>
        <edge id=":1110673549_0" sampledSeconds="60.36" CO_abs="76.029092" CO2_abs="6609.879186" HC_abs="0.496358" PMx_abs="0.083939" NOx_abs="2.472324" fuel_abs="2.841334" electricity_abs="0"
            CO_normed="3.644246" CO2_normed="316.826420" HC_normed="0.023792" PMx_normed="0.004023" NOx_normed="0.118504" fuel_normed="0.136192" electricity_normed="0"
            traveltime="1.26" CO_perVeh="1.584001" CO2_perVeh="137.711202" HC_perVeh="0.010341" PMx_perVeh="0.001749" NOx_perVeh="0.051509" fuel_perVeh="0.059197" electricity_perVeh="0"/>
        <edge id=":1110673549_1" sampledSeconds="638.82" CO_abs="14031.106178" CO2_abs="1828941.102542" HC_abs="107.745360" PMx_abs="32.276282" NOx_abs="684.659305" fuel_abs="786.177993" electricity_abs="0"
            CO_normed="650.558733" CO2_normed="84799.700803" HC_normed="4.995663" PMx_normed="1.496505" NOx_normed="31.744546" fuel_normed="36.451507" electricity_normed="0"
            traveltime="0.80" CO_perVeh="17.663787" CO2_perVeh="2302.457525" HC_perVeh="0.135641" PMx_perVeh="0.040633" NOx_perVeh="0.861919" fuel_perVeh="0.989721" electricity_perVeh="0"/>
        <edge id=":1110673556_0" sampledSeconds="417.31" CO_abs="50831.798729" CO2_abs="2548323.101023" HC_abs="292.040848" PMx_abs="51.357647" NOx_abs="1097.083985" fuel_abs="1095.413893" electricity_abs="0"
            CO_normed="1806.728296" CO2_normed="90575.733462" HC_normed="10.380086" PMx_normed="1.825419" NOx_normed="38.993951" fuel_normed="38.934591" electricity_normed="0"
            traveltime="2.59" CO_perVeh="315.539020" CO2_perVeh="15818.747214" HC_perVeh="1.812847" PMx_perVeh="0.318803" NOx_perVeh="6.810162" fuel_perVeh="6.799795" electricity_perVeh="0"/>
        <edge id=":1110673556_2" sampledSeconds="247.17" CO_abs="23603.783128" CO2_abs="1021209.962002" HC_abs="131.437270" PMx_abs="19.559624" NOx_abs="434.538706" fuel_abs="438.978170" electricity_abs="0"
            CO_normed="877.219479" CO2_normed="37952.614030" HC_normed="4.884782" PMx_normed="0.726921" NOx_normed="16.149353" fuel_normed="16.314342" electricity_normed="0"
            traveltime="3.00" CO_perVeh="286.309366" CO2_perVeh="12387.081146" HC_perVeh="1.594309" PMx_perVeh="0.237254" NOx_perVeh="5.270871" fuel_perVeh="5.324721" electricity_perVeh="0"/>
        <edge id=":1110673556_3" sampledSeconds="363.23" CO_abs="32132.592539" CO2_abs="1139186.935725" HC_abs="172.851744" PMx_abs="21.884867" NOx_abs="486.773834" fuel_abs="489.696547" electricity_abs="0"
            CO_normed="2716.578205" CO2_normed="96310.012884" HC_normed="14.613364" PMx_normed="1.850207" NOx_normed="41.153206" fuel_normed="41.400300" electricity_normed="0"
            traveltime="1.75" CO_perVeh="155.003455" CO2_perVeh="5495.289878" HC_perVeh="0.833814" PMx_perVeh="0.105570" NOx_perVeh="2.348134" fuel_perVeh="2.362233" electricity_perVeh="0"/>
        <edge id=":1110673556_4" sampledSeconds="181.27" CO_abs="18621.201457" CO2_abs="755463.556467" HC_abs="102.503874" PMx_abs="14.636707" NOx_abs="323.041026" fuel_abs="324.744882" electricity_abs="0"
            CO_normed="961.769921" CO2_normed="39019.078683" HC_normed="5.294242" PMx_normed="0.755974" NOx_normed="16.684806" fuel_normed="16.772809" electricity_normed="0"
            traveltime="2.37" CO_perVeh="243.168978" CO2_perVeh="9865.383874" HC_perVeh="1.338569" PMx_perVeh="0.191137" NOx_perVeh="4.218501" fuel_perVeh="4.240751" electricity_perVeh="0"/>
        <edge id=":1110673556_5" sampledSeconds="24.98" CO_abs="2071.266535" CO2_abs="81688.652369" HC_abs="11.336479" PMx_abs="1.540426" NOx_abs="34.680585" fuel_abs="35.114938" electricity_abs="0"
            CO_normed="149.107333" CO2_normed="5880.642068" HC_normed="0.816096" PMx_normed="0.110893" NOx_normed="2.496603" fuel_normed="2.527871" electricity_normed="0"
            traveltime="1.73" CO_perVeh="143.198674" CO2_perVeh="5647.610534" HC_perVeh="0.783757" PMx_perVeh="0.106499" NOx_perVeh="2.397670" fuel_perVeh="2.427699" electricity_perVeh="0"/>
        <edge id=":1110673556_6" sampledSeconds="310.45" CO_abs="37278.740532" CO2_abs="1903997.598149" HC_abs="215.029668" PMx_abs="38.325748" NOx_abs="818.931166" fuel_abs="818.445745" electricity_abs="0"
            CO_normed="1358.417170" CO2_normed="69380.644101" HC_normed="7.835565" PMx_normed="1.396570" NOx_normed="29.841409" fuel_normed="29.823721" electricity_normed="0"
            traveltime="2.46" CO_perVeh="295.217637" CO2_perVeh="15078.129349" HC_perVeh="1.702862" PMx_perVeh="0.303509" NOx_perVeh="6.485276" fuel_perVeh="6.481432" electricity_perVeh="0"/>
        <edge id=":1110673561_0" sampledSeconds="100.52" CO_abs="9545.747180" CO2_abs="694277.822427" HC_abs="60.181193" PMx_abs="13.952110" NOx_abs="292.755402" fuel_abs="298.437002" electricity_abs="0"
            CO_normed="437.037426" CO2_normed="31786.447594" HC_normed="2.755304" PMx_normed="0.638776" NOx_normed="13.403358" fuel_normed="13.663481" electricity_normed="0"
            traveltime="1.19" CO_perVeh="112.649082" CO2_perVeh="8193.152171" HC_perVeh="0.710196" PMx_perVeh="0.164648" NOx_perVeh="3.454798" fuel_perVeh="3.521846" electricity_perVeh="0"/>
        <edge id=":1110673561_1" sampledSeconds="1311.75" CO_abs="124450.814373" CO2_abs="8617300.877275" HC_abs="775.216150" PMx_abs="180.206184" NOx_abs="3684.703528" fuel_abs="3704.161404" electricity_abs="0"
            CO_normed="5555.013288" CO2_normed="384643.693376" HC_normed="34.602715" PMx_normed="8.043722" NOx_normed="164.471218" fuel_normed="165.339744" electricity_normed="0"
            traveltime="1.19" CO_perVeh="112.987875" CO2_perVeh="7823.576879" HC_perVeh="0.703812" PMx_perVeh="0.163608" NOx_perVeh="3.345312" fuel_perVeh="3.362978" electricity_perVeh="0"/>
        <edge id=":1110673562_0" sampledSeconds="103.97" CO_abs="2336.219623" CO2_abs="191189.608152" HC_abs="14.998503" PMx_abs="2.563768" NOx_abs="72.686747" fuel_abs="82.184984" electricity_abs="0"
            CO_normed="6627.573398" CO2_normed="542381.867097" HC_normed="42.548945" PMx_normed="7.273099" NOx_normed="206.203539" fuel_normed="233.148892" electricity_normed="0"
            traveltime="0.03" CO_perVeh="0.595516" CO2_perVeh="48.735338" HC_perVeh="0.003823" PMx_perVeh="0.000654" NOx_perVeh="0.018528" fuel_perVeh="0.020949" electricity_perVeh="0"/>
        <edge id=":1110673564_0" sampledSeconds="28.74" CO_abs="507.016664" CO2_abs="55276.573915" HC_abs="3.587970" PMx_abs="0.819165" NOx_abs="21.129184" fuel_abs="23.761027" electricity_abs="0"
            CO_normed="3883.531894" CO2_normed="423395.034246" HC_normed="27.482326" PMx_normed="6.274455" NOx_normed="161.840557" fuel_normed="181.999360" electricity_normed="0"
            traveltime="7.899734e-03" CO_perVeh="0.139386" CO2_perVeh="15.196309" HC_perVeh="0.000986" PMx_perVeh="0.000225" NOx_perVeh="0.005809" fuel_perVeh="0.006532" electricity_perVeh="0"/>
        <edge id=":1110673588_0" sampledSeconds="11.78" CO_abs="200.765298" CO2_abs="25498.513692" HC_abs="1.503488" PMx_abs="0.347464" NOx_abs="9.515004" fuel_abs="10.960739" electricity_abs="0"
            CO_normed="615.110701" CO2_normed="78123.105781" HC_normed="4.606433" PMx_normed="1.064569" NOx_normed="29.152352" fuel_normed="33.581840" electricity_normed="0"
            traveltime="0.02" CO_perVeh="0.334609" CO2_perVeh="42.497523" HC_perVeh="0.002506" PMx_perVeh="0.000579" NOx_perVeh="0.015858" fuel_perVeh="0.018268" electricity_perVeh="0"/>
        <edge id=":1110673601_0" sampledSeconds="29.68" CO_abs="415.881595" CO2_abs="52933.650887" HC_abs="3.090621" PMx_abs="0.690046" NOx_abs="19.545734" fuel_abs="22.753996" electricity_abs="0"
            CO_normed="1137.670016" CO2_normed="144803.300299" HC_normed="8.454586" PMx_normed="1.887664" NOx_normed="53.468574" fuel_normed="62.244973" electricity_normed="0"
            traveltime="0.02" CO_perVeh="0.308673" CO2_perVeh="39.288064" HC_perVeh="0.002294" PMx_perVeh="0.000512" NOx_perVeh="0.014507" fuel_perVeh="0.016888" electricity_perVeh="0"/>
        <edge id=":1110673617_0" sampledSeconds="238.31" CO_abs="6071.778840" CO2_abs="758118.512461" HC_abs="45.795198" PMx_abs="13.548733" NOx_abs="285.645659" fuel_abs="325.880291" electricity_abs="0"
            CO_normed="15502.414061" CO2_normed="1935621.733942" HC_normed="116.923909" PMx_normed="34.592509" NOx_normed="729.308065" fuel_normed="832.034785" electricity_normed="0"
            traveltime="0.01" CO_perVeh="0.371895" CO2_perVeh="46.434560" HC_perVeh="0.002805" PMx_perVeh="0.000830" NOx_perVeh="0.017496" fuel_perVeh="0.019960" electricity_perVeh="0"/>
        <edge id=":1110673621_0" sampledSeconds="25.72" CO_abs="523.025350" CO2_abs="59811.972652" HC_abs="3.763968" PMx_abs="0.855397" NOx_abs="22.648916" fuel_abs="25.710628" electricity_abs="0"
            CO_normed="1602.460648" CO2_normed="183253.703445" HC_normed="11.532157" PMx_normed="2.620789" NOx_normed="69.392423" fuel_normed="78.772989" electricity_normed="0"
            traveltime="0.02" CO_perVeh="0.396231" CO2_perVeh="45.312100" HC_perVeh="0.002851" PMx_perVeh="0.000648" NOx_perVeh="0.017158" fuel_perVeh="0.019478" electricity_perVeh="0"/>
        <edge id=":1110673630_0" sampledSeconds="54.13" CO_abs="119.678998" CO2_abs="11066.231345" HC_abs="0.794957" PMx_abs="0.131949" NOx_abs="4.082043" fuel_abs="4.756957" electricity_abs="0"
            CO_normed="6.538446" CO2_normed="604.583617" HC_normed="0.043431" PMx_normed="0.007209" NOx_normed="0.223015" fuel_normed="0.259888" electricity_normed="0"
            traveltime="1.26" CO_perVeh="2.793519" CO2_perVeh="258.305413" HC_perVeh="0.018556" PMx_perVeh="0.003080" NOx_perVeh="0.095282" fuel_perVeh="0.111036" electricity_perVeh="0"/>
        <edge id=":1110673630_1" sampledSeconds="7.35" CO_abs="1.614631" CO2_abs="193.226072" HC_abs="0.011626" PMx_abs="0.001722" NOx_abs="0.067107" fuel_abs="0.083061" electricity_abs="0"
            CO_normed="0.107542" CO2_normed="12.869822" HC_normed="0.000774" PMx_normed="0.000115" NOx_normed="0.004470" fuel_normed="0.005532" electricity_normed="0"
            traveltime="1.04" CO_perVeh="0.228532" CO2_perVeh="27.348921" HC_perVeh="0.001646" PMx_perVeh="0.000244" NOx_perVeh="0.009498" fuel_perVeh="0.011756" electricity_perVeh="0"/>
        <edge id=":1110673650_0" sampledSeconds="143.21" CO_abs="2421.038308" CO2_abs="289192.365320" HC_abs="17.633154" PMx_abs="4.090325" NOx_abs="108.943233" fuel_abs="124.311514" electricity_abs="0"
            CO_normed="6181.374403" CO2_normed="738363.485924" HC_normed="45.020818" PMx_normed="10.443383" NOx_normed="278.152936" fuel_normed="317.391101" electricity_normed="0"
            traveltime="0.02" CO_perVeh="0.389471" CO2_perVeh="46.522219" HC_perVeh="0.002837" PMx_perVeh="0.000658" NOx_perVeh="0.017526" fuel_perVeh="0.019998" electricity_perVeh="0"/>
        <edge id=":1110673655_0" sampledSeconds="45.23" CO_abs="707.461839" CO2_abs="81223.550076" HC_abs="5.088869" PMx_abs="1.127678" NOx_abs="30.562236" fuel_abs="34.914603" electricity_abs="0"
            CO_normed="1806.285546" CO2_normed="207379.276791" HC_normed="12.992857" PMx_normed="2.879177" NOx_normed="78.031241" fuel_normed="89.143667" electricity_normed="0"
            traveltime="0.02" CO_perVeh="0.378626" CO2_perVeh="43.469922" HC_perVeh="0.002724" PMx_perVeh="0.000604" NOx_perVeh="0.016357" fuel_perVeh="0.018686" electricity_perVeh="0"/>
        <edge id=":1110673663_0" sampledSeconds="108.15" CO_abs="1645.262678" CO2_abs="202407.278592" HC_abs="12.132438" PMx_abs="2.823610" NOx_abs="75.869169" fuel_abs="87.006327" electricity_abs="0"
            CO_normed="76.935360" CO2_normed="9464.918335" HC_normed="0.567334" PMx_normed="0.132037" NOx_normed="3.547775" fuel_normed="4.068568" electricity_normed="0"
            traveltime="1.27" CO_perVeh="19.324386" CO2_perVeh="2377.368974" HC_perVeh="0.142501" PMx_perVeh="0.033165" NOx_perVeh="0.891119" fuel_perVeh="1.021930" electricity_perVeh="0"/>
        <edge id=":1110673663_1" sampledSeconds="153.80" CO_abs="2541.491794" CO2_abs="326277.546557" HC_abs="19.007421" PMx_abs="4.423148" NOx_abs="121.396116" fuel_abs="140.253019" electricity_abs="0"
            CO_normed="118.989888" CO2_normed="15275.960667" HC_normed="0.889907" PMx_normed="0.207087" NOx_normed="5.683634" fuel_normed="6.566494" electricity_normed="0"
            traveltime="1.25" CO_perVeh="20.622551" CO2_perVeh="2647.529776" HC_perVeh="0.154233" PMx_perVeh="0.035891" NOx_perVeh="0.985050" fuel_perVeh="1.138062" electricity_perVeh="0"/>
        <edge id=":1110673666_0" sampledSeconds="191.35" CO_abs="4344.584283" CO2_abs="341085.329532" HC_abs="27.593947" PMx_abs="4.780492" NOx_abs="131.237931" fuel_abs="146.619143" electricity_abs="0"