<?xml version="1.0" encoding="UTF-8"?>

<!-- generated on Fri Oct  2 15:40:47 2020 by Eclipse SUMO Version 1.1.0
<configuration xmlns:xsi="http://www.w3.org/2001/XMLSchema-instance" xsi:noNamespaceSchemaLocation="http://sumo.dlr.de/xsd/sumoConfiguration.xsd">

    <input>
        <net-file value="../dataSets/Angeja_Estarreja/angeja_estarreja.net.xml"/>
        <route-files value="../results/angeja_estarreja/cost_nox-length/solution7/angeja_estarreja.rou.xml"/>
        <additional-files value="moreOutputInfo.xml"/>
    </input>

    <output>
        <emission-output.precision value="6"/>
        <tripinfo-output value="../results/angeja_estarreja/cost_nox-length/solution7/angeja_estarreja-tripinfo"/>
    </output>

    <processing>
        <collision.action value="warn"/>
        <time-to-teleport value="-1"/>
    </processing>

    <emissions>
        <device.emissions.probability value="1"/>
    </emissions>

    <gui_only>
        <quit-on-end value="true"/>
        <start value="true"/>
    </gui_only>

</configuration>
-->

<meandata xmlns:xsi="http://www.w3.org/2001/XMLSchema-instance" xsi:noNamespaceSchemaLocation="http://sumo.dlr.de/xsd/meandata_file.xsd">
    <interval begin="0.00" end="19078.00" id="emissions-detector">
        <edge id=":10_0" sampledSeconds="386.76" CO_abs="39927.803115" CO2_abs="2192432.455951" HC_abs="233.849674" PMx_abs="43.123308" NOx_abs="936.424633" fuel_abs="942.430324" electricity_abs="0"
            CO_normed="430.779732" CO2_normed="23654.080442" HC_normed="2.522996" PMx_normed="0.465256" NOx_normed="10.103054" fuel_normed="10.167849" electricity_normed="0"
            traveltime="1.91" CO_perVeh="197.484638" CO2_perVeh="10843.865565" HC_perVeh="1.156631" PMx_perVeh="0.213290" NOx_perVeh="4.631597" fuel_perVeh="4.661301" electricity_perVeh="0"/>
        <edge id=":10_1" sampledSeconds="0.00" CO_abs="0" CO2_abs="0" HC_abs="0" PMx_abs="0" NOx_abs="0" fuel_abs="0" electricity_abs="0"
            CO_normed="0" CO2_normed="0" HC_normed="0" PMx_normed="0" NOx_normed="0" fuel_normed="0" electricity_normed="0"/>
        <edge id=":100_0" sampledSeconds="0.00" CO_abs="0" CO2_abs="0" HC_abs="0" PMx_abs="0" NOx_abs="0" fuel_abs="0" electricity_abs="0"
            CO_normed="0" CO2_normed="0" HC_normed="0" PMx_normed="0" NOx_normed="0" fuel_normed="0" electricity_normed="0"/>
        <edge id=":100_1" sampledSeconds="912.41" CO_abs="21348.282040" CO2_abs="2684373.198684" HC_abs="162.465122" PMx_abs="48.591378" NOx_abs="1003.213104" fuel_abs="1153.888942" electricity_abs="0"
            CO_normed="136.278755" CO2_normed="17135.947411" HC_normed="1.037111" PMx_normed="0.310188" NOx_normed="6.404105" fuel_normed="7.365958" electricity_normed="0"
            traveltime="1.37" CO_perVeh="32.099038" CO2_perVeh="4036.193548" HC_perVeh="0.244281" PMx_perVeh="0.073061" NOx_perVeh="1.508420" fuel_perVeh="1.734975" electricity_perVeh="0"/>
        <edge id=":101_0" sampledSeconds="438.18" CO_abs="10928.093804" CO2_abs="1363749.480451" HC_abs="82.889588" PMx_abs="24.738643" NOx_abs="510.150760" fuel_abs="586.213334" electricity_abs="0"
            CO_normed="252.401548" CO2_normed="31497.943376" HC_normed="1.914466" PMx_normed="0.571378" NOx_normed="11.782736" fuel_normed="13.539521" electricity_normed="0"
            traveltime="0.38" CO_perVeh="9.440454" CO2_perVeh="1178.102452" HC_perVeh="0.071606" PMx_perVeh="0.021371" NOx_perVeh="0.440704" fuel_perVeh="0.506412" electricity_perVeh="0"/>
        <edge id=":102_0" sampledSeconds="341.70" CO_abs="7938.348592" CO2_abs="995538.018285" HC_abs="60.346574" PMx_abs="18.035217" NOx_abs="372.173872" fuel_abs="427.936135" electricity_abs="0"
            CO_normed="184.933165" CO2_normed="23192.228822" HC_normed="1.405844" PMx_normed="0.420152" NOx_normed="8.670228" fuel_normed="9.969275" electricity_normed="0"
            traveltime="0.38" CO_perVeh="8.732879" CO2_perVeh="1095.179029" HC_perVeh="0.066387" PMx_perVeh="0.019840" NOx_perVeh="0.409424" fuel_perVeh="0.470767" electricity_perVeh="0"/>
        <edge id=":103_0" sampledSeconds="434.32" CO_abs="10202.232791" CO2_abs="1275576.506783" HC_abs="77.434794" PMx_abs="23.125121" NOx_abs="477.029048" fuel_abs="548.311827" electricity_abs="0"
            CO_normed="239.149240" CO2_normed="29900.626486" HC_normed="1.815139" PMx_normed="0.542073" NOx_normed="11.181977" fuel_normed="12.852908" electricity_normed="0"
            traveltime="0.37" CO_perVeh="8.765368" CO2_perVeh="1095.926485" HC_perVeh="0.066529" PMx_perVeh="0.019868" NOx_perVeh="0.409845" fuel_perVeh="0.471089" electricity_perVeh="0"/>
        <edge id=":104_0" sampledSeconds="341.25" CO_abs="8212.817285" CO2_abs="1025594.535736" HC_abs="62.300502" PMx_abs="18.599017" NOx_abs="383.601031" fuel_abs="440.856041" electricity_abs="0"
            CO_normed="191.563735" CO2_normed="23921.964029" HC_normed="1.453157" PMx_normed="0.433822" NOx_normed="8.947483" fuel_normed="10.282955" electricity_normed="0"
            traveltime="0.38" CO_perVeh="9.030692" CO2_perVeh="1127.728547" HC_perVeh="0.068505" PMx_perVeh="0.020451" NOx_perVeh="0.421802" fuel_perVeh="0.484759" electricity_perVeh="0"/>
        <edge id=":105_0" sampledSeconds="168.63" CO_abs="4203.494668" CO2_abs="514672.001822" HC_abs="31.633096" PMx_abs="9.385129" NOx_abs="193.108248" fuel_abs="221.233844" electricity_abs="0"
            CO_normed="3605.433390" CO2_normed="441445.931668" HC_normed="27.132429" PMx_normed="8.049840" NOx_normed="165.633355" fuel_normed="189.757321" electricity_normed="0"
            traveltime="0.01" CO_perVeh="0.254195" CO2_perVeh="31.123422" HC_perVeh="0.001913" PMx_perVeh="0.000568" NOx_perVeh="0.011678" fuel_perVeh="0.013379" electricity_perVeh="0"/>
        <edge id=":106_0" sampledSeconds="134.32" CO_abs="3280.466990" CO2_abs="413341.772337" HC_abs="24.989471" PMx_abs="7.480405" NOx_abs="154.376255" fuel_abs="177.676680" electricity_abs="0"
            CO_normed="1996.841686" CO2_normed="251603.836950" HC_normed="15.211254" PMx_normed="4.553371" NOx_normed="93.969835" fuel_normed="108.152956" electricity_normed="0"
            traveltime="0.01" CO_perVeh="0.350746" CO2_perVeh="44.194259" HC_perVeh="0.002672" PMx_perVeh="0.000800" NOx_perVeh="0.016506" fuel_perVeh="0.018997" electricity_perVeh="0"/>
        <edge id=":107_0" sampledSeconds="438.80" CO_abs="10565.020468" CO2_abs="1312720.546258" HC_abs="79.948167" PMx_abs="23.827870" NOx_abs="491.506098" fuel_abs="564.278309" electricity_abs="0"
            CO_normed="244.015797" CO2_normed="30319.349724" HC_normed="1.846529" PMx_normed="0.550342" NOx_normed="11.352108" fuel_normed="13.032897" electricity_normed="0"
            traveltime="0.38" CO_perVeh="9.126810" CO2_perVeh="1134.020614" HC_perVeh="0.069065" PMx_perVeh="0.020584" NOx_perVeh="0.424598" fuel_perVeh="0.487463" electricity_perVeh="0"/>
        <edge id=":108_0" sampledSeconds="92.63" CO_abs="8808.319824" CO2_abs="639613.463193" HC_abs="55.486493" PMx_abs="12.886683" NOx_abs="270.021484" fuel_abs="274.939341" electricity_abs="0"
            CO_normed="138.164702" CO2_normed="10032.787774" HC_normed="0.870345" PMx_normed="0.202137" NOx_normed="4.235477" fuel_normed="4.312617" electricity_normed="0"
            traveltime="0.84" CO_perVeh="80.251360" CO2_perVeh="5827.428073" HC_perVeh="0.505530" PMx_perVeh="0.117409" NOx_perVeh="2.460128" fuel_perVeh="2.504934" electricity_perVeh="0"/>
        <edge id=":108_1" sampledSeconds="402.36" CO_abs="9779.932465" CO2_abs="1227394.821623" HC_abs="74.348448" PMx_abs="22.229389" NOx_abs="458.727340" fuel_abs="527.600749" electricity_abs="0"
            CO_normed="143.059203" CO2_normed="17954.124511" HC_normed="1.087557" PMx_normed="0.325168" NOx_normed="6.710186" fuel_normed="7.717655" electricity_normed="0"
            traveltime="0.60" CO_perVeh="14.528332" CO2_perVeh="1823.325410" HC_perVeh="0.110446" PMx_perVeh="0.033022" NOx_perVeh="0.681451" fuel_perVeh="0.783764" electricity_perVeh="0"/>
        <edge id=":109_0" sampledSeconds="306.56" CO_abs="134.854960" CO2_abs="25169.190329" HC_abs="1.164960" PMx_abs="0.328571" NOx_abs="8.920015" fuel_abs="10.819178" electricity_abs="0"
            CO_normed="2.027649" CO2_normed="378.438381" HC_normed="0.017516" PMx_normed="0.004940" NOx_normed="0.134119" fuel_normed="0.162675" electricity_normed="0"
            traveltime="0.85" CO_perVeh="0.374821" CO2_perVeh="69.956224" HC_perVeh="0.003238" PMx_perVeh="0.000913" NOx_perVeh="0.024793" fuel_perVeh="0.030071" electricity_perVeh="0"/>
        <edge id=":109_1" sampledSeconds="524.55" CO_abs="11484.083344" CO2_abs="1461100.248922" HC_abs="87.754996" PMx_abs="26.363101" NOx_abs="544.696389" fuel_abs="628.060083" electricity_abs="0"
            CO_normed="112.631774" CO2_normed="14329.947634" HC_normed="0.860670" PMx_normed="0.258560" NOx_normed="5.342187" fuel_normed="6.159788" electricity_normed="0"
            traveltime="0.89" CO_perVeh="19.554659" CO2_perVeh="2487.905770" HC_perVeh="0.149426" PMx_perVeh="0.044890" NOx_perVeh="0.927488" fuel_perVeh="1.069437" electricity_perVeh="0"/>
        <edge id=":11_0" sampledSeconds="269.63" CO_abs="15925.069401" CO2_abs="1161811.508472" HC_abs="99.948634" PMx_abs="20.790679" NOx_abs="476.553606" fuel_abs="499.411022" electricity_abs="0"
            CO_normed="164.660004" CO2_normed="12012.750627" HC_normed="1.033436" PMx_normed="0.214969" NOx_normed="4.927408" fuel_normed="5.163746" electricity_normed="0"
            traveltime="1.58" CO_perVeh="93.601455" CO2_perVeh="6828.682779" HC_perVeh="0.587460" PMx_perVeh="0.122200" NOx_perVeh="2.800999" fuel_perVeh="2.935347" electricity_perVeh="0"/>
        <edge id=":11_1" sampledSeconds="50.60" CO_abs="1085.729247" CO2_abs="92093.556371" HC_abs="7.052566" PMx_abs="1.267263" NOx_abs="35.176478" fuel_abs="39.587363" electricity_abs="0"
            CO_normed="11.509890" CO2_normed="976.290129" HC_normed="0.074765" PMx_normed="0.013434" NOx_normed="0.372908" fuel_normed="0.419668" electricity_normed="0"
            traveltime="1.66" CO_perVeh="35.709499" CO2_perVeh="3028.945498" HC_perVeh="0.231958" PMx_perVeh="0.041680" NOx_perVeh="1.156950" fuel_perVeh="1.302023" electricity_perVeh="0"/>
        <edge id=":110_0" sampledSeconds="94.45" CO_abs="17.196897" CO2_abs="1941.865616" HC_abs="0.121498" PMx_abs="0.018753" NOx_abs="0.684203" fuel_abs="0.834739" electricity_abs="0"
            CO_normed="0.223027" CO2_normed="25.184065" HC_normed="0.001576" PMx_normed="0.000243" NOx_normed="0.008873" fuel_normed="0.010826" electricity_normed="0"
            traveltime="0.92" CO_perVeh="0.168370" CO2_perVeh="19.012277" HC_perVeh="0.001190" PMx_perVeh="0.000184" NOx_perVeh="0.006699" fuel_perVeh="0.008173" electricity_perVeh="0"/>
        <edge id=":110_1" sampledSeconds="443.73" CO_abs="10497.920116" CO2_abs="1328512.391993" HC_abs="80.059890" PMx_abs="24.003201" NOx_abs="495.838150" fuel_abs="571.066599" electricity_abs="0"
            CO_normed="134.758319" CO2_normed="17053.673003" HC_normed="1.027702" PMx_normed="0.308121" NOx_normed="6.364910" fuel_normed="7.330593" electricity_normed="0"
            traveltime="0.68" CO_perVeh="16.126363" CO2_perVeh="2040.792215" HC_perVeh="0.122984" PMx_perVeh="0.036872" NOx_perVeh="0.761681" fuel_perVeh="0.877243" electricity_perVeh="0"/>
        <edge id=":111_0" sampledSeconds="340.61" CO_abs="8634.501614" CO2_abs="1079771.166188" HC_abs="65.507568" PMx_abs="19.568953" NOx_abs="403.758721" fuel_abs="464.144096" electricity_abs="0"
            CO_normed="199.427422" CO2_normed="24939.016688" HC_normed="1.513001" PMx_normed="0.451976" NOx_normed="9.325444" fuel_normed="10.720139" electricity_normed="0"
            traveltime="0.38" CO_perVeh="9.595958" CO2_perVeh="1200.004255" HC_perVeh="0.072802" PMx_perVeh="0.021748" NOx_perVeh="0.448717" fuel_perVeh="0.515827" electricity_perVeh="0"/>
        <edge id=":114_0" sampledSeconds="107.20" CO_abs="10329.515014" CO2_abs="748933.325208" HC_abs="65.077206" PMx_abs="15.155811" NOx_abs="316.547982" fuel_abs="321.930660" electricity_abs="0"
            CO_normed="137.265452" CO2_normed="9952.323120" HC_normed="0.864789" PMx_normed="0.201400" NOx_normed="4.206500" fuel_normed="4.278028" electricity_normed="0"
            traveltime="0.99" CO_perVeh="95.559538" CO2_perVeh="6928.468822" HC_perVeh="0.602037" PMx_perVeh="0.140208" NOx_perVeh="2.928422" fuel_perVeh="2.978218" electricity_perVeh="0"/>
        <edge id=":114_1" sampledSeconds="416.18" CO_abs="9492.403726" CO2_abs="1217831.002944" HC_abs="72.745668" PMx_abs="21.909174" NOx_abs="453.545381" fuel_abs="523.489805" electricity_abs="0"
            CO_normed="125.346909" CO2_normed="16081.422179" HC_normed="0.960604" PMx_normed="0.289310" NOx_normed="5.989053" fuel_normed="6.912667" electricity_normed="0"
            traveltime="0.66" CO_perVeh="15.125877" CO2_perVeh="1940.579340" HC_perVeh="0.115918" PMx_perVeh="0.034912" NOx_perVeh="0.722712" fuel_perVeh="0.834166" electricity_perVeh="0"/>
        <edge id=":115_0" sampledSeconds="80.11" CO_abs="90.194984" CO2_abs="15061.744642" HC_abs="0.741396" PMx_abs="0.172398" NOx_abs="5.371495" fuel_abs="6.474438" electricity_abs="0"
            CO_normed="2.038288" CO2_normed="340.375632" HC_normed="0.016755" PMx_normed="0.003896" NOx_normed="0.121389" fuel_normed="0.146314" electricity_normed="0"
            traveltime="0.63" CO_perVeh="0.709762" CO2_perVeh="118.523766" HC_perVeh="0.005834" PMx_perVeh="0.001357" NOx_perVeh="0.042269" fuel_perVeh="0.050949" electricity_perVeh="0"/>
        <edge id=":115_1" sampledSeconds="72.49" CO_abs="816.055442" CO2_abs="138358.688636" HC_abs="6.725791" PMx_abs="1.966325" NOx_abs="50.572441" fuel_abs="59.474348" electricity_abs="0"
            CO_normed="16.469397" CO2_normed="2792.315471" HC_normed="0.135738" PMx_normed="0.039684" NOx_normed="1.020639" fuel_normed="1.200294" electricity_normed="0"
            traveltime="0.59" CO_perVeh="6.680780" CO2_perVeh="1132.697433" HC_perVeh="0.055062" PMx_perVeh="0.016098" NOx_perVeh="0.414020" fuel_perVeh="0.486897" electricity_perVeh="0"/>
        <edge id=":116_0" sampledSeconds="74.75" CO_abs="68.908014" CO2_abs="10022.547377" HC_abs="0.539002" PMx_abs="0.122323" NOx_abs="3.633362" fuel_abs="4.308286" electricity_abs="0"
            CO_normed="1.738352" CO2_normed="252.840230" HC_normed="0.013597" PMx_normed="0.003086" NOx_normed="0.091659" fuel_normed="0.108686" electricity_normed="0"
            traveltime="0.56" CO_perVeh="0.520307" CO2_perVeh="75.677755" HC_perVeh="0.004070" PMx_perVeh="0.000924" NOx_perVeh="0.027435" fuel_perVeh="0.032531" electricity_perVeh="0"/>
        <edge id=":117_0" sampledSeconds="239.64" CO_abs="14453.928622" CO2_abs="1171587.588454" HC_abs="93.686364" PMx_abs="21.831743" NOx_abs="480.898680" fuel_abs="503.611158" electricity_abs="0"
            CO_normed="326.639789" CO2_normed="26476.339606" HC_normed="2.117189" PMx_normed="0.493369" NOx_normed="10.867678" fuel_normed="11.380950" electricity_normed="0"
            traveltime="0.60" CO_perVeh="36.395891" CO2_perVeh="2950.130404" HC_perVeh="0.235908" PMx_perVeh="0.054974" NOx_perVeh="1.210933" fuel_perVeh="1.268124" electricity_perVeh="0"/>
        <edge id=":117_1" sampledSeconds="76.57" CO_abs="4235.655632" CO2_abs="351947.324780" HC_abs="27.622031" PMx_abs="6.442747" NOx_abs="143.572476" fuel_abs="151.285926" electricity_abs="0"
            CO_normed="90.210394" CO2_normed="7495.724273" HC_normed="0.588290" PMx_normed="0.137217" NOx_normed="3.057786" fuel_normed="3.222066" electricity_normed="0"
            traveltime="0.65" CO_perVeh="35.810098" CO2_perVeh="2975.517713" HC_perVeh="0.233529" PMx_perVeh="0.054470" NOx_perVeh="1.213825" fuel_perVeh="1.279038" electricity_perVeh="0"/>
        <edge id=":118_0" sampledSeconds="897.68" CO_abs="12211.609909" CO2_abs="2007811.779933" HC_abs="100.638916" PMx_abs="29.164595" NOx_abs="739.181180" fuel_abs="863.069927" electricity_abs="0"
            CO_normed="37.052884" CO2_normed="6092.171175" HC_normed="0.305362" PMx_normed="0.088492" NOx_normed="2.242849" fuel_normed="2.618756" electricity_normed="0"
            traveltime="3.92" CO_perVeh="53.269937" CO2_perVeh="8758.550959" HC_perVeh="0.439011" PMx_perVeh="0.127223" NOx_perVeh="3.224484" fuel_perVeh="3.764916" electricity_perVeh="0"/>
        <edge id=":118_4" sampledSeconds="283.26" CO_abs="4097.299222" CO2_abs="620443.366685" HC_abs="32.467833" PMx_abs="9.234023" NOx_abs="230.212572" fuel_abs="266.701175" electricity_abs="0"
            CO_normed="12.456201" CO2_normed="1886.210060" HC_normed="0.098705" PMx_normed="0.028072" NOx_normed="0.699869" fuel_normed="0.810798" electricity_normed="0"
            traveltime="3.93" CO_perVeh="56.806516" CO2_perVeh="8602.062965" HC_perVeh="0.450146" PMx_perVeh="0.128024" NOx_perVeh="3.191755" fuel_perVeh="3.697647" electricity_perVeh="0"/>
        <edge id=":118_5" sampledSeconds="238.82" CO_abs="3980.966153" CO2_abs="602564.149978" HC_abs="31.549724" PMx_abs="9.042447" NOx_abs="224.210209" fuel_abs="259.015562" electricity_abs="0"
            CO_normed="12.222656" CO2_normed="1850.036896" HC_normed="0.096866" PMx_normed="0.027763" NOx_normed="0.688387" fuel_normed="0.795249" electricity_normed="0"
            traveltime="3.82" CO_perVeh="63.713206" CO2_perVeh="9643.712706" HC_perVeh="0.504936" PMx_perVeh="0.144719" NOx_perVeh="3.588363" fuel_perVeh="4.145404" electricity_perVeh="0"/>
        <edge id=":119_0" sampledSeconds="138.90" CO_abs="1802.241834" CO2_abs="321867.327845" HC_abs="15.300076" PMx_abs="4.519259" NOx_abs="117.290298" fuel_abs="138.356706" electricity_abs="0"
            CO_normed="38.645600" CO2_normed="6901.823973" HC_normed="0.328081" PMx_normed="0.096907" NOx_normed="2.515064" fuel_normed="2.966793" electricity_normed="0"
            traveltime="0.56" CO_perVeh="7.225060" CO2_perVeh="1290.343258" HC_perVeh="0.061337" PMx_perVeh="0.018117" NOx_perVeh="0.470208" fuel_perVeh="0.554662" electricity_perVeh="0"/>
        <edge id=":12_0" sampledSeconds="601.57" CO_abs="55113.790210" CO2_abs="3113717.110675" HC_abs="324.870257" PMx_abs="60.897730" NOx_abs="1326.212433" fuel_abs="1338.449413" electricity_abs="0"
            CO_normed="516.381255" CO2_normed="29173.554274" HC_normed="3.043828" PMx_normed="0.570573" NOx_normed="12.425769" fuel_normed="12.540422" electricity_normed="0"
            traveltime="2.13" CO_perVeh="194.984077" CO2_perVeh="11015.850205" HC_perVeh="1.149341" PMx_perVeh="0.215447" NOx_perVeh="4.691935" fuel_perVeh="4.735227" electricity_perVeh="0"/>
        <edge id=":12_1" sampledSeconds="55.69" CO_abs="1141.361359" CO2_abs="106244.798011" HC_abs="7.606651" PMx_abs="1.314326" NOx_abs="39.506677" fuel_abs="45.670563" electricity_abs="0"
            CO_normed="10.683223" CO2_normed="994.458820" HC_normed="0.071199" PMx_normed="0.012302" NOx_normed="0.369785" fuel_normed="0.427480" electricity_normed="0"
            traveltime="1.88" CO_perVeh="38.488300" CO2_perVeh="3582.723016" HC_perVeh="0.256507" PMx_perVeh="0.044321" NOx_perVeh="1.332220" fuel_perVeh="1.540075" electricity_perVeh="0"/>
        <edge id=":120_0" sampledSeconds="39.09" CO_abs="471.163231" CO2_abs="76843.602008" HC_abs="3.849606" PMx_abs="1.124915" NOx_abs="28.330909" fuel_abs="33.031670" electricity_abs="0"
            CO_normed="370.450176" CO2_normed="60417.969920" HC_normed="3.026737" PMx_normed="0.884460" NOx_normed="22.275062" fuel_normed="25.971017" electricity_normed="0"
            traveltime="0.02" CO_perVeh="0.181289" CO2_perVeh="29.567077" HC_perVeh="0.001481" PMx_perVeh="0.000433" NOx_perVeh="0.010901" fuel_perVeh="0.012710" electricity_perVeh="0"/>
        <edge id=":121_0" sampledSeconds="375.91" CO_abs="53471.026386" CO2_abs="1432749.491951" HC_abs="277.117356" PMx_abs="30.914678" NOx_abs="633.570906" fuel_abs="615.894855" electricity_abs="0"
            CO_normed="30575.547115" CO2_normed="819267.976604" HC_normed="158.459924" PMx_normed="17.677484" NOx_normed="362.285491" fuel_normed="352.178056" electricity_normed="0"
            traveltime="0.11" CO_perVeh="16.307566" CO2_perVeh="436.959200" HC_perVeh="0.084515" PMx_perVeh="0.009428" NOx_perVeh="0.193226" fuel_perVeh="0.187835" electricity_perVeh="0"/>
        <edge id=":122_0" sampledSeconds="134.29" CO_abs="1048.406801" CO2_abs="100483.450818" HC_abs="7.160737" PMx_abs="1.843088" NOx_abs="40.274009" fuel_abs="43.193134" electricity_abs="0"
            CO_normed="23.084404" CO2_normed="2212.500490" HC_normed="0.157669" PMx_normed="0.040582" NOx_normed="0.886776" fuel_normed="0.951050" electricity_normed="0"
            traveltime="0.54" CO_perVeh="4.191998" CO2_perVeh="401.777652" HC_perVeh="0.028632" PMx_perVeh="0.007369" NOx_perVeh="0.161033" fuel_perVeh="0.172705" electricity_perVeh="0"/>
        <edge id=":123_0" sampledSeconds="307.88" CO_abs="40077.328627" CO2_abs="2472866.607727" HC_abs="241.917246" PMx_abs="50.910639" NOx_abs="1061.576174" fuel_abs="1062.969893" electricity_abs="0"
            CO_normed="152.840599" CO2_normed="9430.628900" HC_normed="0.922586" PMx_normed="0.194155" NOx_normed="4.048472" fuel_normed="4.053787" electricity_normed="0"
            traveltime="4.19" CO_perVeh="545.775517" CO2_perVeh="33675.648977" HC_perVeh="3.294444" PMx_perVeh="0.693304" NOx_perVeh="14.456609" fuel_perVeh="14.475589" electricity_perVeh="0"/>
        <edge id=":123_1" sampledSeconds="0.00" CO_abs="0" CO2_abs="0" HC_abs="0" PMx_abs="0" NOx_abs="0" fuel_abs="0" electricity_abs="0"
            CO_normed="0" CO2_normed="0" HC_normed="0" PMx_normed="0" NOx_normed="0" fuel_normed="0" electricity_normed="0"/>
        <edge id=":123_2" sampledSeconds="258.24" CO_abs="35066.889550" CO2_abs="2170987.081808" HC_abs="211.929039" PMx_abs="45.064172" NOx_abs="933.930732" fuel_abs="933.205361" electricity_abs="0"
            CO_normed="135.015055" CO2_normed="8358.766491" HC_normed="0.815972" PMx_normed="0.173507" NOx_normed="3.595834" fuel_normed="3.593041" electricity_normed="0"
            traveltime="4.06" CO_perVeh="551.181579" CO2_perVeh="34123.587874" HC_perVeh="3.331102" PMx_perVeh="0.708319" NOx_perVeh="14.679529" fuel_perVeh="14.668127" electricity_perVeh="0"/>
        <edge id=":123_3" sampledSeconds="469.64" CO_abs="23804.313021" CO2_abs="2179310.435688" HC_abs="159.866323" PMx_abs="41.117391" NOx_abs="878.657422" fuel_abs="936.782888" electricity_abs="0"
            CO_normed="93.775588" CO2_normed="8585.255835" HC_normed="0.629783" PMx_normed="0.161979" NOx_normed="3.461415" fuel_normed="3.690397" electricity_normed="0"
            traveltime="2.81" CO_perVeh="142.478457" CO2_perVeh="13044.055814" HC_perVeh="0.956865" PMx_perVeh="0.246104" NOx_perVeh="5.259121" fuel_perVeh="5.607025" electricity_perVeh="0"/>
        <edge id=":123_5" sampledSeconds="0.00" CO_abs="0" CO2_abs="0" HC_abs="0" PMx_abs="0" NOx_abs="0" fuel_abs="0" electricity_abs="0"
            CO_normed="0" CO2_normed="0" HC_normed="0" PMx_normed="0" NOx_normed="0" fuel_normed="0" electricity_normed="0"/>
        <edge id=":123_6" sampledSeconds="194.82" CO_abs="9454.339983" CO2_abs="881090.614750" HC_abs="64.010891" PMx_abs="16.519003" NOx_abs="354.294495" fuel_abs="378.739420" electricity_abs="0"
            CO_normed="35.975494" CO2_normed="3352.711030" HC_normed="0.243573" PMx_normed="0.062858" NOx_normed="1.348155" fuel_normed="1.441173" electricity_normed="0"
            traveltime="2.91" CO_perVeh="141.441175" CO2_perVeh="13181.511547" HC_perVeh="0.957632" PMx_perVeh="0.247132" NOx_perVeh="5.300405" fuel_perVeh="5.666112" electricity_perVeh="0"/>
        <edge id=":124_0" sampledSeconds="119.01" CO_abs="4116.650849" CO2_abs="363200.697922" HC_abs="27.399883" PMx_abs="6.975769" NOx_abs="147.584551" fuel_abs="156.122784" electricity_abs="0"
            CO_normed="96.378164" CO2_normed="8503.178362" HC_normed="0.641480" PMx_normed="0.163315" NOx_normed="3.455218" fuel_normed="3.655114" electricity_normed="0"
            traveltime="0.46" CO_perVeh="15.993718" CO2_perVeh="1411.081445" HC_perVeh="0.106452" PMx_perVeh="0.027102" NOx_perVeh="0.573385" fuel_perVeh="0.606557" electricity_perVeh="0"/>
        <edge id=":125_0" sampledSeconds="141.33" CO_abs="5169.414526" CO2_abs="543947.791107" HC_abs="36.259252" PMx_abs="9.957560" NOx_abs="212.890596" fuel_abs="233.817769" electricity_abs="0"
            CO_normed="325.154494" CO2_normed="34214.139288" HC_normed="2.280695" PMx_normed="0.626327" NOx_normed="13.390749" fuel_normed="14.707062" electricity_normed="0"
            traveltime="0.16" CO_perVeh="5.920307" CO2_perVeh="622.959868" HC_perVeh="0.041526" PMx_perVeh="0.011404" NOx_perVeh="0.243814" fuel_perVeh="0.267781" electricity_perVeh="0"/>
        <edge id=":125_3" sampledSeconds="0.00" CO_abs="0" CO2_abs="0" HC_abs="0" PMx_abs="0" NOx_abs="0" fuel_abs="0" electricity_abs="0"
            CO_normed="0" CO2_normed="0" HC_normed="0" PMx_normed="0" NOx_normed="0" fuel_normed="0" electricity_normed="0"/>
        <edge id=":126_0" sampledSeconds="26.38" CO_abs="236.182638" CO2_abs="16052.884349" HC_abs="1.450711" PMx_abs="0.272706" NOx_abs="6.524322" fuel_abs="6.900453" electricity_abs="0"
            CO_normed="7.777912" CO2_normed="528.649847" HC_normed="0.047774" PMx_normed="0.008981" NOx_normed="0.214857" fuel_normed="0.227244" electricity_normed="0"
            traveltime="0.56" CO_perVeh="5.049145" CO2_perVeh="343.180770" HC_perVeh="0.031013" PMx_perVeh="0.005830" NOx_perVeh="0.139478" fuel_perVeh="0.147519" electricity_perVeh="0"/>
        <edge id=":126_1" sampledSeconds="80.79" CO_abs="1285.560372" CO2_abs="183461.861603" HC_abs="10.018061" PMx_abs="3.015952" NOx_abs="68.461468" fuel_abs="78.861924" electricity_abs="0"
            CO_normed="37.668321" CO2_normed="5375.632674" HC_normed="0.293540" PMx_normed="0.088371" NOx_normed="2.005996" fuel_normed="2.310740" electricity_normed="0"
            traveltime="0.35" CO_perVeh="5.562841" CO2_perVeh="793.870997" HC_perVeh="0.043350" PMx_perVeh="0.013051" NOx_perVeh="0.296245" fuel_perVeh="0.341249" electricity_perVeh="0"/>
        <edge id=":127_0" sampledSeconds="234.45" CO_abs="4551.153745" CO2_abs="627128.043386" HC_abs="35.191279" PMx_abs="10.475221" NOx_abs="235.274643" fuel_abs="269.573771" electricity_abs="0"
            CO_normed="105.244887" CO2_normed="14502.261075" HC_normed="0.813794" PMx_normed="0.242238" NOx_normed="5.440698" fuel_normed="6.233861" electricity_normed="0"
            traveltime="0.44" CO_perVeh="8.510773" CO2_perVeh="1172.745319" HC_perVeh="0.065809" PMx_perVeh="0.019589" NOx_perVeh="0.439970" fuel_perVeh="0.504110" electricity_perVeh="0"/>
        <edge id=":128_0" sampledSeconds="228.86" CO_abs="235.251689" CO2_abs="36955.218121" HC_abs="1.873438" PMx_abs="0.546174" NOx_abs="13.556261" fuel_abs="15.885422" electricity_abs="0"
            CO_normed="3.635689" CO2_normed="571.123147" HC_normed="0.028953" PMx_normed="0.008441" NOx_normed="0.209505" fuel_normed="0.245501" electricity_normed="0"
            traveltime="0.75" CO_perVeh="0.773354" CO2_perVeh="121.484668" HC_perVeh="0.006159" PMx_perVeh="0.001795" NOx_perVeh="0.044564" fuel_perVeh="0.052221" electricity_perVeh="0"/>
        <edge id=":128_1" sampledSeconds="141.85" CO_abs="226.272927" CO2_abs="24720.866512" HC_abs="1.603465" PMx_abs="0.361051" NOx_abs="9.442901" fuel_abs="10.626445" electricity_abs="0"
            CO_normed="3.612308" CO2_normed="394.653419" HC_normed="0.025598" PMx_normed="0.005764" NOx_normed="0.150750" fuel_normed="0.169645" electricity_normed="0"
            traveltime="0.85" CO_perVeh="1.356378" CO2_perVeh="148.187543" HC_perVeh="0.009612" PMx_perVeh="0.002164" NOx_perVeh="0.056605" fuel_perVeh="0.063699" electricity_perVeh="0"/>
        <edge id=":129_0" sampledSeconds="104.81" CO_abs="6054.990967" CO2_abs="532124.017419" HC_abs="40.253374" PMx_abs="10.124672" NOx_abs="216.539550" fuel_abs="228.734997" electricity_abs="0"
            CO_normed="141.058135" CO2_normed="12396.454728" HC_normed="0.937750" PMx_normed="0.235866" NOx_normed="5.044543" fuel_normed="5.328651" electricity_normed="0"
            traveltime="0.50" CO_perVeh="28.697681" CO2_perVeh="2522.006278" HC_perVeh="0.190781" PMx_perVeh="0.047986" NOx_perVeh="1.026291" fuel_perVeh="1.084091" electricity_perVeh="0"/>
        <edge id=":13_0" sampledSeconds="59.28" CO_abs="4993.074494" CO2_abs="357634.360479" HC_abs="31.282211" PMx_abs="6.919721" NOx_abs="149.810581" fuel_abs="153.730392" electricity_abs="0"
            CO_normed="35.301172" CO2_normed="2528.484644" HC_normed="0.221166" PMx_normed="0.048923" NOx_normed="1.059165" fuel_normed="1.086878" electricity_normed="0"
            traveltime="2.10" CO_perVeh="176.613070" CO2_perVeh="12650.102154" HC_perVeh="1.106502" PMx_perVeh="0.244762" NOx_perVeh="5.299041" fuel_perVeh="5.437691" electricity_perVeh="0"/>
        <edge id=":13_1" sampledSeconds="543.07" CO_abs="12421.300888" CO2_abs="945015.615882" HC_abs="78.149399" PMx_abs="13.079651" NOx_abs="363.091068" fuel_abs="406.225500" electricity_abs="0"
            CO_normed="123.753293" CO2_normed="9415.180854" HC_normed="0.778602" PMx_normed="0.130312" NOx_normed="3.617473" fuel_normed="4.047220" electricity_normed="0"
            traveltime="1.90" CO_perVeh="43.365715" CO2_perVeh="3299.274244" HC_perVeh="0.272838" PMx_perVeh="0.045664" NOx_perVeh="1.267637" fuel_perVeh="1.418230" electricity_perVeh="0"/>
        <edge id=":132_0" sampledSeconds="41.09" CO_abs="597.750061" CO2_abs="94829.689336" HC_abs="4.811239" PMx_abs="1.369386" NOx_abs="34.993650" fuel_abs="40.763120" electricity_abs="0"
            CO_normed="1127.948538" CO2_normed="178942.699240" HC_normed="9.078761" PMx_normed="2.584018" NOx_normed="66.032676" fuel_normed="76.919611" electricity_normed="0"
            traveltime="6.369581e-03" CO_perVeh="0.092667" CO2_perVeh="14.701138" HC_perVeh="0.000746" PMx_perVeh="0.000212" NOx_perVeh="0.005425" fuel_perVeh="0.006319" electricity_perVeh="0"/>