<?xml version="1.0" encoding="UTF-8"?>

<!-- generated on Mon Nov  9 21:07:31 2020 by Eclipse SUMO sumo Version 1.7.0
<configuration xmlns:xsi="http://www.w3.org/2001/XMLSchema-instance" xsi:noNamespaceSchemaLocation="http://sumo.dlr.de/xsd/sumoConfiguration.xsd">

    <input>
        <net-file value="../dataSets/Angeja_Estarreja/angeja_estarreja.net.xml"/>
        <route-files value="../results/angeja_estarreja/cost_hc-cost_nox/solution14/angeja_estarreja.rou.xml"/>
        <additional-files value="moreOutputInfo.xml"/>
    </input>

    <output>
        <emission-output.precision value="6"/>
        <tripinfo-output value="../results/angeja_estarreja/cost_hc-cost_nox/solution14/angeja_estarreja-tripinfo"/>
    </output>

    <processing>
        <collision.action value="warn"/>
        <time-to-teleport value="-1"/>
    </processing>

    <emissions>
        <device.emissions.probability value="1"/>
    </emissions>

    <gui_only>
        <quit-on-end value="true"/>
        <start value="true"/>
    </gui_only>

</configuration>
-->

<meandata xmlns:xsi="http://www.w3.org/2001/XMLSchema-instance" xsi:noNamespaceSchemaLocation="http://sumo.dlr.de/xsd/meandata_file.xsd">
    <interval begin="0.00" end="19079.00" id="emissions-detector">
        <edge id=":10_0" sampledSeconds="407.15" CO_abs="40953.878714" CO2_abs="2237824.241918" HC_abs="239.560246" PMx_abs="43.851359" NOx_abs="954.824931" fuel_abs="961.942671" electricity_abs="0"
            CO_normed="441.826869" CO2_normed="24142.545438" HC_normed="2.584472" PMx_normed="0.473086" NOx_normed="10.301034" fuel_normed="10.377823" electricity_normed="0"
            traveltime="1.92" CO_perVeh="193.424211" CO2_perVeh="10569.191523" HC_perVeh="1.131437" PMx_perVeh="0.207109" NOx_perVeh="4.509616" fuel_perVeh="4.543233" electricity_perVeh="0"/>
        <edge id=":10_1" sampledSeconds="0.00" CO_abs="0" CO2_abs="0" HC_abs="0" PMx_abs="0" NOx_abs="0" fuel_abs="0" electricity_abs="0"
            CO_normed="0" CO2_normed="0" HC_normed="0" PMx_normed="0" NOx_normed="0" fuel_normed="0" electricity_normed="0"/>
        <edge id=":100_0" sampledSeconds="0.00" CO_abs="0" CO2_abs="0" HC_abs="0" PMx_abs="0" NOx_abs="0" fuel_abs="0" electricity_abs="0"
            CO_normed="0" CO2_normed="0" HC_normed="0" PMx_normed="0" NOx_normed="0" fuel_normed="0" electricity_normed="0"/>
        <edge id=":100_1" sampledSeconds="911.46" CO_abs="21469.813963" CO2_abs="2767546.657544" HC_abs="164.940482" PMx_abs="49.745926" NOx_abs="1029.932527" fuel_abs="1189.641676" electricity_abs="0"
            CO_normed="137.047382" CO2_normed="17665.966980" HC_normed="1.052858" PMx_normed="0.317541" NOx_normed="6.574326" fuel_normed="7.593791" electricity_normed="0"
            traveltime="1.37" CO_perVeh="32.281797" CO2_perVeh="4161.255458" HC_perVeh="0.248003" PMx_perVeh="0.074797" NOx_perVeh="1.548596" fuel_perVeh="1.788733" electricity_perVeh="0"/>
        <edge id=":101_0" sampledSeconds="438.44" CO_abs="10636.918535" CO2_abs="1329178.213929" HC_abs="80.746962" PMx_abs="24.107070" NOx_abs="497.110681" fuel_abs="571.352740" electricity_abs="0"
            CO_normed="245.663519" CO2_normed="30697.856424" HC_normed="1.864881" PMx_normed="0.556762" NOx_normed="11.480953" fuel_normed="13.195600" electricity_normed="0"
            traveltime="0.38" CO_perVeh="9.188916" CO2_perVeh="1148.237367" HC_perVeh="0.069755" PMx_perVeh="0.020825" NOx_perVeh="0.429439" fuel_perVeh="0.493575" electricity_perVeh="0"/>
        <edge id=":102_0" sampledSeconds="341.69" CO_abs="7638.517915" CO2_abs="973878.843892" HC_abs="58.445200" PMx_abs="17.562975" NOx_abs="363.048292" fuel_abs="418.625915" electricity_abs="0"
            CO_normed="177.938930" CO2_normed="22686.463742" HC_normed="1.361478" PMx_normed="0.409129" NOx_normed="8.457194" fuel_normed="9.751872" electricity_normed="0"
            traveltime="0.38" CO_perVeh="8.403039" CO2_perVeh="1071.352040" HC_perVeh="0.064295" PMx_perVeh="0.019321" NOx_perVeh="0.399385" fuel_perVeh="0.460525" electricity_perVeh="0"/>
        <edge id=":103_0" sampledSeconds="434.18" CO_abs="10136.338166" CO2_abs="1274415.922607" HC_abs="77.133787" PMx_abs="23.076689" NOx_abs="476.081046" fuel_abs="547.812979" electricity_abs="0"
            CO_normed="237.592159" CO2_normed="29871.855605" HC_normed="1.807989" PMx_normed="0.540909" NOx_normed="11.159170" fuel_normed="12.840541" electricity_normed="0"
            traveltime="0.37" CO_perVeh="8.708752" CO2_perVeh="1094.929151" HC_perVeh="0.066270" PMx_perVeh="0.019827" NOx_perVeh="0.409031" fuel_perVeh="0.470660" electricity_perVeh="0"/>
        <edge id=":104_0" sampledSeconds="341.12" CO_abs="7820.419254" CO2_abs="975972.026214" HC_abs="59.330693" PMx_abs="17.707841" NOx_abs="365.049720" fuel_abs="419.525601" electricity_abs="0"
            CO_normed="182.401501" CO2_normed="22763.327203" HC_normed="1.383814" PMx_normed="0.413013" NOx_normed="8.514328" fuel_normed="9.784910" electricity_normed="0"
            traveltime="0.38" CO_perVeh="8.599217" CO2_perVeh="1073.164371" HC_perVeh="0.065239" PMx_perVeh="0.019471" NOx_perVeh="0.401403" fuel_perVeh="0.461304" electricity_perVeh="0"/>
        <edge id=":105_0" sampledSeconds="168.55" CO_abs="4137.726284" CO2_abs="517242.811195" HC_abs="31.390385" PMx_abs="9.377768" NOx_abs="193.369217" fuel_abs="222.338962" electricity_abs="0"
            CO_normed="3548.836327" CO2_normed="443627.720221" HC_normed="26.922839" PMx_normed="8.043104" NOx_normed="165.848501" fuel_normed="190.695211" electricity_normed="0"
            traveltime="0.01" CO_perVeh="0.250217" CO2_perVeh="31.278771" HC_perVeh="0.001898" PMx_perVeh="0.000567" NOx_perVeh="0.011693" fuel_perVeh="0.013445" electricity_perVeh="0"/>
        <edge id=":106_0" sampledSeconds="134.37" CO_abs="3061.651843" CO2_abs="392420.908047" HC_abs="23.480749" PMx_abs="7.068786" NOx_abs="146.134853" fuel_abs="168.683787" electricity_abs="0"
            CO_normed="1863.549796" CO2_normed="238856.650188" HC_normed="14.292136" PMx_normed="4.302591" NOx_normed="88.948577" fuel_normed="102.673541" electricity_normed="0"
            traveltime="0.01" CO_perVeh="0.327352" CO2_perVeh="41.957695" HC_perVeh="0.002511" PMx_perVeh="0.000756" NOx_perVeh="0.015625" fuel_perVeh="0.018036" electricity_perVeh="0"/>
        <edge id=":107_0" sampledSeconds="438.89" CO_abs="10875.634984" CO2_abs="1327770.562895" HC_abs="81.785171" PMx_abs="24.228474" NOx_abs="498.672601" fuel_abs="570.747523" electricity_abs="0"
            CO_normed="251.176763" CO2_normed="30665.346209" HC_normed="1.888858" PMx_normed="0.559565" NOx_normed="11.517026" fuel_normed="13.181623" electricity_normed="0"
            traveltime="0.38" CO_perVeh="9.395150" CO2_perVeh="1147.022954" HC_perVeh="0.070652" PMx_perVeh="0.020930" NOx_perVeh="0.430789" fuel_perVeh="0.493052" electricity_perVeh="0"/>
        <edge id=":108_0" sampledSeconds="93.04" CO_abs="8098.475101" CO2_abs="588685.127817" HC_abs="51.039975" PMx_abs="11.857682" NOx_abs="248.486712" fuel_abs="253.047678" electricity_abs="0"
            CO_normed="127.023629" CO2_normed="9233.456970" HC_normed="0.800556" PMx_normed="0.185986" NOx_normed="3.897485" fuel_normed="3.969023" electricity_normed="0"
            traveltime="0.85" CO_perVeh="73.888906" CO2_perVeh="5371.048209" HC_perVeh="0.465679" PMx_perVeh="0.108187" NOx_perVeh="2.267144" fuel_perVeh="2.308758" electricity_perVeh="0"/>
        <edge id=":108_1" sampledSeconds="403.55" CO_abs="9131.838446" CO2_abs="1177746.225968" HC_abs="70.158680" PMx_abs="21.160104" NOx_abs="438.357670" fuel_abs="506.259210" electricity_abs="0"
            CO_normed="133.571992" CO2_normed="17226.970249" HC_normed="1.026216" PMx_normed="0.309510" NOx_normed="6.411886" fuel_normed="7.405086" electricity_normed="0"
            traveltime="0.60" CO_perVeh="13.565572" CO2_perVeh="1749.571192" HC_perVeh="0.104222" PMx_perVeh="0.031434" NOx_perVeh="0.651191" fuel_perVeh="0.752061" electricity_perVeh="0"/>
        <edge id=":109_0" sampledSeconds="307.21" CO_abs="140.767114" CO2_abs="23958.710205" HC_abs="1.182126" PMx_abs="0.303296" NOx_abs="8.662111" fuel_abs="10.298848" electricity_abs="0"
            CO_normed="2.116432" CO2_normed="360.218988" HC_normed="0.017773" PMx_normed="0.004560" NOx_normed="0.130235" fuel_normed="0.154843" electricity_normed="0"
            traveltime="0.85" CO_perVeh="0.391254" CO2_perVeh="66.591769" HC_perVeh="0.003286" PMx_perVeh="0.000843" NOx_perVeh="0.024076" fuel_perVeh="0.028625" electricity_perVeh="0"/>
        <edge id=":109_1" sampledSeconds="524.27" CO_abs="11208.785539" CO2_abs="1470663.263686" HC_abs="86.732807" PMx_abs="26.311659" NOx_abs="545.651218" fuel_abs="632.170951" electricity_abs="0"
            CO_normed="109.925990" CO2_normed="14422.982255" HC_normed="0.850600" PMx_normed="0.258042" NOx_normed="5.351271" fuel_normed="6.199781" electricity_normed="0"
            traveltime="0.89" CO_perVeh="19.085904" CO2_perVeh="2504.190810" HC_perVeh="0.147685" PMx_perVeh="0.044803" NOx_perVeh="0.929115" fuel_perVeh="1.076437" electricity_perVeh="0"/>
        <edge id=":11_0" sampledSeconds="286.29" CO_abs="17612.312358" CO2_abs="1267457.032543" HC_abs="110.158917" PMx_abs="22.905686" NOx_abs="521.605448" fuel_abs="544.823162" electricity_abs="0"
            CO_normed="182.095999" CO2_normed="13104.403873" HC_normed="1.138947" PMx_normed="0.236825" NOx_normed="5.392947" fuel_normed="5.632998" electricity_normed="0"
            traveltime="1.59" CO_perVeh="97.727182" CO2_perVeh="7032.864349" HC_perVeh="0.611250" PMx_perVeh="0.127099" NOx_perVeh="2.894284" fuel_perVeh="3.023114" electricity_perVeh="0"/>
        <edge id=":11_1" sampledSeconds="50.81" CO_abs="1041.513401" CO2_abs="91611.746515" HC_abs="6.831575" PMx_abs="1.206534" NOx_abs="34.600717" fuel_abs="39.380306" electricity_abs="0"
            CO_normed="11.040577" CO2_normed="971.131527" HC_normed="0.072418" PMx_normed="0.012790" NOx_normed="0.366785" fuel_normed="0.417451" electricity_normed="0"
            traveltime="1.67" CO_perVeh="34.255245" CO2_perVeh="3013.098832" HC_perVeh="0.224690" PMx_perVeh="0.039683" NOx_perVeh="1.138013" fuel_perVeh="1.295213" electricity_perVeh="0"/>
        <edge id=":110_0" sampledSeconds="94.70" CO_abs="3.163199" CO2_abs="467.749195" HC_abs="0.024861" PMx_abs="0.004523" NOx_abs="0.163384" fuel_abs="0.201068" electricity_abs="0"
            CO_normed="0.041021" CO2_normed="6.065924" HC_normed="0.000322" PMx_normed="0.000059" NOx_normed="0.002119" fuel_normed="0.002608" electricity_normed="0"
            traveltime="0.93" CO_perVeh="0.030970" CO2_perVeh="4.579605" HC_perVeh="0.000243" PMx_perVeh="0.000044" NOx_perVeh="0.001600" fuel_perVeh="0.001969" electricity_perVeh="0"/>
        <edge id=":110_1" sampledSeconds="443.70" CO_abs="10940.499046" CO2_abs="1326345.935763" HC_abs="82.068420" PMx_abs="24.265887" NOx_abs="498.460422" fuel_abs="570.135121" electricity_abs="0"
            CO_normed="140.432197" CO2_normed="17024.970535" HC_normed="1.053430" PMx_normed="0.311477" NOx_normed="6.398236" fuel_normed="7.318252" electricity_normed="0"
            traveltime="0.68" CO_perVeh="16.806238" CO2_perVeh="2037.465102" HC_perVeh="0.126069" PMx_perVeh="0.037276" NOx_perVeh="0.765710" fuel_perVeh="0.875813" electricity_perVeh="0"/>
        <edge id=":111_0" sampledSeconds="341.04" CO_abs="8027.838091" CO2_abs="992624.199462" HC_abs="60.668537" PMx_abs="18.051326" NOx_abs="371.914955" fuel_abs="426.683565" electricity_abs="0"
            CO_normed="185.405853" CO2_normed="22925.018510" HC_normed="1.401162" PMx_normed="0.416902" NOx_normed="8.589512" fuel_normed="9.854413" electricity_normed="0"
            traveltime="0.38" CO_perVeh="8.921735" CO2_perVeh="1103.152530" HC_perVeh="0.067424" PMx_perVeh="0.020061" NOx_perVeh="0.413328" fuel_perVeh="0.474195" electricity_perVeh="0"/>
        <edge id=":114_0" sampledSeconds="107.82" CO_abs="10280.062578" CO2_abs="733197.487382" HC_abs="64.499552" PMx_abs="14.974274" NOx_abs="311.053050" fuel_abs="315.166483" electricity_abs="0"
            CO_normed="136.601135" CO2_normed="9742.704185" HC_normed="0.857068" PMx_normed="0.198978" NOx_normed="4.133263" fuel_normed="4.187922" electricity_normed="0"
            traveltime="1.00" CO_perVeh="95.102048" CO2_perVeh="6782.894766" HC_perVeh="0.596693" PMx_perVeh="0.138529" NOx_perVeh="2.877588" fuel_perVeh="2.915642" electricity_perVeh="0"/>
        <edge id=":114_1" sampledSeconds="416.13" CO_abs="10376.877396" CO2_abs="1255536.409092" HC_abs="77.786169" PMx_abs="22.973347" NOx_abs="472.275852" fuel_abs="539.697335" electricity_abs="0"
            CO_normed="137.019175" CO2_normed="16578.451963" HC_normed="1.027110" PMx_normed="0.303346" NOx_normed="6.236062" fuel_normed="7.126314" electricity_normed="0"
            traveltime="0.66" CO_perVeh="16.535261" CO2_perVeh="2000.661841" HC_perVeh="0.123950" PMx_perVeh="0.036607" NOx_perVeh="0.752558" fuel_perVeh="0.859992" electricity_perVeh="0"/>
        <edge id=":115_0" sampledSeconds="80.60" CO_abs="203.668331" CO2_abs="18545.693304" HC_abs="1.355604" PMx_abs="0.311469" NOx_abs="7.372634" fuel_abs="7.971965" electricity_abs="0"
            CO_normed="4.602395" CO2_normed="419.086326" HC_normed="0.030633" PMx_normed="0.007038" NOx_normed="0.166603" fuel_normed="0.180146" electricity_normed="0"
            traveltime="0.63" CO_perVeh="1.602705" CO2_perVeh="145.939628" HC_perVeh="0.010668" PMx_perVeh="0.002451" NOx_perVeh="0.058017" fuel_perVeh="0.062733" electricity_perVeh="0"/>
        <edge id=":115_1" sampledSeconds="72.15" CO_abs="1168.946610" CO2_abs="177987.094274" HC_abs="9.292516" PMx_abs="2.641526" NOx_abs="66.115981" fuel_abs="76.508779" electricity_abs="0"
            CO_normed="23.590110" CO2_normed="3591.896342" HC_normed="0.187529" PMx_normed="0.053308" NOx_normed="1.334264" fuel_normed="1.543997" electricity_normed="0"
            traveltime="0.59" CO_perVeh="9.569818" CO2_perVeh="1457.127364" HC_perVeh="0.076075" PMx_perVeh="0.021625" NOx_perVeh="0.541272" fuel_perVeh="0.626355" electricity_perVeh="0"/>
        <edge id=":116_0" sampledSeconds="74.90" CO_abs="103.918235" CO2_abs="16748.011571" HC_abs="0.857517" PMx_abs="0.209522" NOx_abs="6.077807" fuel_abs="7.199276" electricity_abs="0"
            CO_normed="2.621423" CO2_normed="422.482328" HC_normed="0.021632" PMx_normed="0.005285" NOx_normed="0.153318" fuel_normed="0.181608" electricity_normed="0"
            traveltime="0.57" CO_perVeh="0.784661" CO2_perVeh="126.460057" HC_perVeh="0.006475" PMx_perVeh="0.001582" NOx_perVeh="0.045892" fuel_perVeh="0.054360" electricity_perVeh="0"/>
        <edge id=":117_0" sampledSeconds="239.29" CO_abs="13450.201617" CO2_abs="1118257.310732" HC_abs="87.889922" PMx_abs="20.547820" NOx_abs="456.594790" fuel_abs="480.687164" electricity_abs="0"
            CO_normed="303.940947" CO2_normed="25269.820872" HC_normed="1.986093" PMx_normed="0.464329" NOx_normed="10.317901" fuel_normed="10.862329" electricity_normed="0"
            traveltime="0.60" CO_perVeh="33.949406" CO2_perVeh="2822.572691" HC_perVeh="0.221841" PMx_perVeh="0.051864" NOx_perVeh="1.152483" fuel_perVeh="1.213294" electricity_perVeh="0"/>
        <edge id=":117_1" sampledSeconds="75.62" CO_abs="4993.694126" CO2_abs="406455.980810" HC_abs="32.409423" PMx_abs="7.548534" NOx_abs="166.713320" fuel_abs="174.716590" electricity_abs="0"
            CO_normed="106.349416" CO2_normed="8656.188182" HC_normed="0.690215" PMx_normed="0.160759" NOx_normed="3.550451" fuel_normed="3.720894" electricity_normed="0"
            traveltime="0.64" CO_perVeh="42.218890" CO2_perVeh="3436.357901" HC_perVeh="0.274004" PMx_perVeh="0.063819" NOx_perVeh="1.409468" fuel_perVeh="1.477131" electricity_perVeh="0"/>
        <edge id=":118_0" sampledSeconds="898.90" CO_abs="13708.513034" CO2_abs="2065709.074260" HC_abs="109.063615" PMx_abs="30.988147" NOx_abs="768.737790" fuel_abs="887.956742" electricity_abs="0"
            CO_normed="41.592659" CO2_normed="6267.516605" HC_normed="0.330907" PMx_normed="0.094020" NOx_normed="2.332408" fuel_normed="2.694127" electricity_normed="0"
            traveltime="3.92" CO_perVeh="59.808236" CO2_perVeh="9012.386319" HC_perVeh="0.475829" PMx_perVeh="0.135197" NOx_perVeh="3.353890" fuel_perVeh="3.874025" electricity_perVeh="0"/>
        <edge id=":118_4" sampledSeconds="283.28" CO_abs="3975.376357" CO2_abs="618853.609311" HC_abs="32.140973" PMx_abs="9.122053" NOx_abs="229.012287" fuel_abs="266.017905" electricity_abs="0"
            CO_normed="12.084909" CO2_normed="1881.278428" HC_normed="0.097707" PMx_normed="0.027731" NOx_normed="0.696184" fuel_normed="0.808679" electricity_normed="0"
            traveltime="3.93" CO_perVeh="55.116131" CO2_perVeh="8580.021964" HC_perVeh="0.445615" PMx_perVeh="0.126472" NOx_perVeh="3.175114" fuel_perVeh="3.688173" electricity_perVeh="0"/>
        <edge id=":118_5" sampledSeconds="238.29" CO_abs="3762.620955" CO2_abs="544033.734833" HC_abs="29.254948" PMx_abs="8.332147" NOx_abs="203.615918" fuel_abs="233.855809" electricity_abs="0"
            CO_normed="11.551671" CO2_normed="1670.244950" HC_normed="0.089816" PMx_normed="0.025581" NOx_normed="0.625124" fuel_normed="0.717964" electricity_normed="0"
            traveltime="3.81" CO_perVeh="60.218710" CO2_perVeh="8706.965127" HC_perVeh="0.468210" PMx_perVeh="0.133351" NOx_perVeh="3.258762" fuel_perVeh="3.742736" electricity_perVeh="0"/>
        <edge id=":119_0" sampledSeconds="139.64" CO_abs="1865.661047" CO2_abs="301701.349094" HC_abs="15.234946" PMx_abs="4.390489" NOx_abs="111.381339" fuel_abs="129.688116" electricity_abs="0"
            CO_normed="40.003406" CO2_normed="6469.064373" HC_normed="0.326667" PMx_normed="0.094141" NOx_normed="2.388233" fuel_normed="2.780766" electricity_normed="0"
            traveltime="0.56" CO_perVeh="7.479303" CO2_perVeh="1209.499281" HC_perVeh="0.061076" PMx_perVeh="0.017601" NOx_perVeh="0.446520" fuel_perVeh="0.519910" electricity_perVeh="0"/>
        <edge id=":12_0" sampledSeconds="588.16" CO_abs="55005.830386" CO2_abs="3135840.451985" HC_abs="324.955884" PMx_abs="61.488638" NOx_abs="1336.242356" fuel_abs="1347.958634" electricity_abs="0"
            CO_normed="515.342728" CO2_normed="29379.295992" HC_normed="3.044471" PMx_normed="0.576079" NOx_normed="12.519087" fuel_normed="12.628855" electricity_normed="0"
            traveltime="2.11" CO_perVeh="197.013433" CO2_perVeh="11231.585584" HC_perVeh="1.163889" PMx_perVeh="0.220233" NOx_perVeh="4.785996" fuel_perVeh="4.827960" electricity_perVeh="0"/>
        <edge id=":12_1" sampledSeconds="56.18" CO_abs="799.912924" CO2_abs="74886.620488" HC_abs="5.350796" PMx_abs="0.976140" NOx_abs="28.144640" fuel_abs="32.190808" electricity_abs="0"
            CO_normed="7.486849" CO2_normed="700.907322" HC_normed="0.050081" PMx_normed="0.009136" NOx_normed="0.263422" fuel_normed="0.301292" electricity_normed="0"
            traveltime="1.89" CO_perVeh="26.974181" CO2_perVeh="2525.281462" HC_perVeh="0.180436" PMx_perVeh="0.032917" NOx_perVeh="0.949077" fuel_perVeh="1.085519" electricity_perVeh="0"/>
        <edge id=":120_0" sampledSeconds="38.99" CO_abs="544.712002" CO2_abs="90928.381440" HC_abs="4.506068" PMx_abs="1.325846" NOx_abs="33.418330" fuel_abs="39.086101" electricity_abs="0"
            CO_normed="428.255151" CO2_normed="71488.323371" HC_normed="3.542692" PMx_normed="1.042387" NOx_normed="26.273649" fuel_normed="30.729678" electricity_normed="0"
            traveltime="0.02" CO_perVeh="0.209589" CO2_perVeh="34.986471" HC_perVeh="0.001734" PMx_perVeh="0.000510" NOx_perVeh="0.012858" fuel_perVeh="0.015039" electricity_perVeh="0"/>
        <edge id=":121_0" sampledSeconds="370.90" CO_abs="52928.351053" CO2_abs="1432111.984196" HC_abs="274.650400" PMx_abs="30.920479" NOx_abs="633.452743" fuel_abs="615.620332" electricity_abs="0"
            CO_normed="30263.650784" CO2_normed="818860.518245" HC_normed="157.041049" PMx_normed="17.679874" NOx_normed="362.198939" fuel_normed="352.002629" electricity_normed="0"
            traveltime="0.11" CO_perVeh="16.145591" CO2_perVeh="436.860290" HC_perVeh="0.083781" PMx_perVeh="0.009432" NOx_perVeh="0.193232" fuel_perVeh="0.187793" electricity_perVeh="0"/>
        <edge id=":122_0" sampledSeconds="135.33" CO_abs="740.802300" CO2_abs="81666.549806" HC_abs="5.271561" PMx_abs="1.393876" NOx_abs="31.901448" fuel_abs="35.104704" electricity_abs="0"
            CO_normed="16.310542" CO2_normed="1798.085252" HC_normed="0.116066" PMx_normed="0.030690" NOx_normed="0.702387" fuel_normed="0.772914" electricity_normed="0"
            traveltime="0.54" CO_perVeh="2.947973" CO2_perVeh="324.986559" HC_perVeh="0.020978" PMx_perVeh="0.005547" NOx_perVeh="0.126950" fuel_perVeh="0.139697" electricity_perVeh="0"/>
        <edge id=":123_0" sampledSeconds="301.08" CO_abs="39684.761978" CO2_abs="2473266.967250" HC_abs="240.171635" PMx_abs="51.074206" NOx_abs="1062.199442" fuel_abs="1063.141464" electricity_abs="0"
            CO_normed="151.335558" CO2_normed="9431.661354" HC_normed="0.915881" PMx_normed="0.194769" NOx_normed="4.050636" fuel_normed="4.054229" electricity_normed="0"
            traveltime="4.10" CO_perVeh="540.429520" CO2_perVeh="33681.101098" HC_perVeh="3.270672" PMx_perVeh="0.695532" NOx_perVeh="14.465097" fuel_perVeh="14.477926" electricity_perVeh="0"/>
        <edge id=":123_1" sampledSeconds="0.00" CO_abs="0" CO2_abs="0" HC_abs="0" PMx_abs="0" NOx_abs="0" fuel_abs="0" electricity_abs="0"
            CO_normed="0" CO2_normed="0" HC_normed="0" PMx_normed="0" NOx_normed="0" fuel_normed="0" electricity_normed="0"/>
        <edge id=":123_2" sampledSeconds="264.60" CO_abs="35149.345918" CO2_abs="2161865.689010" HC_abs="212.018432" PMx_abs="44.608471" NOx_abs="928.822764" fuel_abs="929.285051" electricity_abs="0"
            CO_normed="135.325437" CO2_normed="8323.210898" HC_normed="0.816274" PMx_normed="0.171743" NOx_normed="3.575980" fuel_normed="3.577759" electricity_normed="0"
            traveltime="4.16" CO_perVeh="552.477628" CO2_perVeh="33980.217768" HC_perVeh="3.332507" PMx_perVeh="0.701156" NOx_perVeh="14.599242" fuel_perVeh="14.606508" electricity_perVeh="0"/>
        <edge id=":123_3" sampledSeconds="468.45" CO_abs="22764.432941" CO2_abs="2184335.140938" HC_abs="155.317489" PMx_abs="40.461824" NOx_abs="873.229824" fuel_abs="938.943280" electricity_abs="0"
            CO_normed="89.674346" CO2_normed="8604.599322" HC_normed="0.611831" PMx_normed="0.159388" NOx_normed="3.439853" fuel_normed="3.698714" electricity_normed="0"
            traveltime="2.80" CO_perVeh="136.254353" CO2_perVeh="13074.130711" HC_perVeh="0.929638" PMx_perVeh="0.242180" NOx_perVeh="5.226634" fuel_perVeh="5.619956" electricity_perVeh="0"/>
        <edge id=":123_5" sampledSeconds="0.00" CO_abs="0" CO2_abs="0" HC_abs="0" PMx_abs="0" NOx_abs="0" fuel_abs="0" electricity_abs="0"
            CO_normed="0" CO2_normed="0" HC_normed="0" PMx_normed="0" NOx_normed="0" fuel_normed="0" electricity_normed="0"/>
        <edge id=":123_6" sampledSeconds="194.66" CO_abs="9109.309824" CO2_abs="862443.028130" HC_abs="61.986238" PMx_abs="16.086918" NOx_abs="345.811697" fuel_abs="370.723747" electricity_abs="0"
            CO_normed="34.660774" CO2_normed="3281.581542" HC_normed="0.235857" PMx_normed="0.061210" NOx_normed="1.315808" fuel_normed="1.410598" electricity_normed="0"
            traveltime="2.91" CO_perVeh="136.279369" CO2_perVeh="12902.535271" HC_perVeh="0.927342" PMx_perVeh="0.240668" NOx_perVeh="5.173498" fuel_perVeh="5.546194" electricity_perVeh="0"/>
        <edge id=":124_0" sampledSeconds="118.77" CO_abs="4367.496877" CO2_abs="385389.193868" HC_abs="29.035318" PMx_abs="7.416961" NOx_abs="156.424198" fuel_abs="165.660565" electricity_abs="0"
            CO_normed="102.245559" CO2_normed="9022.177853" HC_normed="0.679733" PMx_normed="0.173635" NOx_normed="3.661978" fuel_normed="3.878207" electricity_normed="0"
            traveltime="0.46" CO_perVeh="16.984880" CO2_perVeh="1498.750726" HC_perVeh="0.112916" PMx_perVeh="0.028844" NOx_perVeh="0.608322" fuel_perVeh="0.644242" electricity_perVeh="0"/>
        <edge id=":125_0" sampledSeconds="140.95" CO_abs="5085.755610" CO2_abs="525585.353066" HC_abs="35.591477" PMx_abs="9.698137" NOx_abs="206.555887" fuel_abs="225.924563" electricity_abs="0"
            CO_normed="319.875608" CO2_normed="33057.415152" HC_normed="2.238575" PMx_normed="0.609978" NOx_normed="12.991617" fuel_normed="14.209837" electricity_normed="0"
            traveltime="0.16" CO_perVeh="5.824496" CO2_perVeh="601.930162" HC_perVeh="0.040761" PMx_perVeh="0.011107" NOx_perVeh="0.236560" fuel_perVeh="0.258742" electricity_perVeh="0"/>
        <edge id=":125_3" sampledSeconds="0.00" CO_abs="0" CO2_abs="0" HC_abs="0" PMx_abs="0" NOx_abs="0" fuel_abs="0" electricity_abs="0"
            CO_normed="0" CO2_normed="0" HC_normed="0" PMx_normed="0" NOx_normed="0" fuel_normed="0" electricity_normed="0"/>
        <edge id=":126_0" sampledSeconds="26.67" CO_abs="68.725505" CO2_abs="4668.339857" HC_abs="0.422717" PMx_abs="0.082684" NOx_abs="1.919299" fuel_abs="2.006716" electricity_abs="0"
            CO_normed="2.263134" CO2_normed="153.728623" HC_normed="0.013920" PMx_normed="0.002723" NOx_normed="0.063203" fuel_normed="0.066081" electricity_normed="0"
            traveltime="0.57" CO_perVeh="1.465929" CO2_perVeh="99.576668" HC_perVeh="0.009017" PMx_perVeh="0.001764" NOx_perVeh="0.040939" fuel_perVeh="0.042804" electricity_perVeh="0"/>
        <edge id=":126_1" sampledSeconds="80.70" CO_abs="1459.002609" CO2_abs="214192.334891" HC_abs="11.671214" PMx_abs="3.507363" NOx_abs="79.956608" fuel_abs="92.071564" electricity_abs="0"
            CO_normed="42.748127" CO2_normed="6275.740112" HC_normed="0.341961" PMx_normed="0.102764" NOx_normed="2.342693" fuel_normed="2.697656" electricity_normed="0"
            traveltime="0.35" CO_perVeh="6.313355" CO2_perVeh="926.847035" HC_perVeh="0.050503" PMx_perVeh="0.015177" NOx_perVeh="0.345986" fuel_perVeh="0.398409" electricity_perVeh="0"/>
        <edge id=":127_0" sampledSeconds="234.52" CO_abs="4577.298386" CO2_abs="608652.514785" HC_abs="35.127588" PMx_abs="10.349020" NOx_abs="229.568639" fuel_abs="261.631877" electricity_abs="0"
            CO_normed="105.843930" CO2_normed="14074.278961" HC_normed="0.812279" PMx_normed="0.239307" NOx_normed="5.308469" fuel_normed="6.049889" electricity_normed="0"
            traveltime="0.44" CO_perVeh="8.559659" CO2_perVeh="1138.194904" HC_perVeh="0.065689" PMx_perVeh="0.019353" NOx_perVeh="0.429299" fuel_perVeh="0.489258" electricity_perVeh="0"/>
        <edge id=":128_0" sampledSeconds="230.19" CO_abs="179.539803" CO2_abs="28104.812272" HC_abs="1.448558" PMx_abs="0.410659" NOx_abs="10.394158" fuel_abs="12.081023" electricity_abs="0"
            CO_normed="2.774546" CO2_normed="434.322089" HC_normed="0.022386" PMx_normed="0.006346" NOx_normed="0.160628" fuel_normed="0.186696" electricity_normed="0"
            traveltime="0.76" CO_perVeh="0.590213" CO2_perVeh="92.390748" HC_perVeh="0.004762" PMx_perVeh="0.001350" NOx_perVeh="0.034169" fuel_perVeh="0.039715" electricity_perVeh="0"/>
        <edge id=":128_1" sampledSeconds="142.46" CO_abs="84.156620" CO2_abs="12647.749613" HC_abs="0.674243" PMx_abs="0.161493" NOx_abs="4.626131" fuel_abs="5.436742" electricity_abs="0"
            CO_normed="1.343438" CO2_normed="201.902955" HC_normed="0.010763" PMx_normed="0.002578" NOx_normed="0.073849" fuel_normed="0.086790" electricity_normed="0"
            traveltime="0.85" CO_perVeh="0.504471" CO2_perVeh="75.816070" HC_perVeh="0.004042" PMx_perVeh="0.000968" NOx_perVeh="0.027731" fuel_perVeh="0.032590" electricity_perVeh="0"/>
        <edge id=":129_0" sampledSeconds="104.97" CO_abs="5842.368857" CO2_abs="526658.904261" HC_abs="39.018312" PMx_abs="9.863911" NOx_abs="213.098009" fuel_abs="226.385914" electricity_abs="0"
            CO_normed="136.097719" CO2_normed="12268.495420" HC_normed="0.908930" PMx_normed="0.229779" NOx_normed="4.964109" fuel_normed="5.273650" electricity_normed="0"
            traveltime="0.50" CO_perVeh="27.689762" CO2_perVeh="2496.086788" HC_perVeh="0.184926" PMx_perVeh="0.046750" NOx_perVeh="1.009973" fuel_perVeh="1.072950" electricity_perVeh="0"/>
        <edge id=":13_0" sampledSeconds="60.16" CO_abs="5004.858934" CO2_abs="354941.031436" HC_abs="31.276639" PMx_abs="6.910914" NOx_abs="149.075722" fuel_abs="152.572619" electricity_abs="0"
            CO_normed="35.382634" CO2_normed="2509.311205" HC_normed="0.221115" PMx_normed="0.048858" NOx_normed="1.053914" fuel_normed="1.078636" electricity_normed="0"
            traveltime="2.13" CO_perVeh="177.029905" CO2_perVeh="12554.834777" HC_perVeh="1.106305" PMx_perVeh="0.244450" NOx_perVeh="5.273048" fuel_perVeh="5.396739" electricity_perVeh="0"/>
        <edge id=":13_1" sampledSeconds="531.94" CO_abs="14006.718465" CO2_abs="1062358.829675" HC_abs="88.191817" PMx_abs="15.445700" NOx_abs="412.926146" fuel_abs="456.665697" electricity_abs="0"
            CO_normed="139.541478" CO2_normed="10583.715325" HC_normed="0.878608" PMx_normed="0.153877" NOx_normed="4.113763" fuel_normed="4.549517" electricity_normed="0"
            traveltime="1.86" CO_perVeh="48.900785" CO2_perVeh="3708.947308" HC_perVeh="0.307899" PMx_perVeh="0.053925" NOx_perVeh="1.441623" fuel_perVeh="1.594329" electricity_perVeh="0"/>
        <edge id=":132_0" sampledSeconds="41.05" CO_abs="497.135241" CO2_abs="87748.168892" HC_abs="4.144335" PMx_abs="1.210235" NOx_abs="31.881019" fuel_abs="37.719130" electricity_abs="0"
            CO_normed="938.040185" CO2_normed="165571.260555" HC_normed="7.819909" PMx_normed="2.283582" NOx_normed="60.156019" fuel_normed="71.171899" electricity_normed="0"
            traveltime="6.363997e-03" CO_perVeh="0.077069" CO2_perVeh="13.603313" HC_perVeh="0.000642" PMx_perVeh="0.000188" NOx_perVeh="0.004942" fuel_perVeh="0.005847" electricity_perVeh="0"/>