<?xml version="1.0" encoding="UTF-8"?>

<!-- generated on Tue Nov 10 02:17:44 2020 by Eclipse SUMO sumo Version 1.7.0
<configuration xmlns:xsi="http://www.w3.org/2001/XMLSchema-instance" xsi:noNamespaceSchemaLocation="http://sumo.dlr.de/xsd/sumoConfiguration.xsd">

    <input>
        <net-file value="../dataSets/Porto/6AM7AM_Routing_SaoBento/Porto.net.xml"/>
        <route-files value="../results/Porto/6AM7AM_Routing_SaoBento/cost_PMx-cost_hc/solution6/Porto.rou.xml"/>
        <additional-files value="moreOutputInfo.xml"/>
    </input>

    <output>
        <emission-output.precision value="6"/>
        <tripinfo-output value="../results/Porto/6AM7AM_Routing_SaoBento/cost_PMx-cost_hc/solution6/Porto-tripinfo"/>
    </output>

    <processing>
        <collision.action value="warn"/>
        <time-to-teleport value="-1"/>
    </processing>

    <emissions>
        <device.emissions.probability value="1"/>
    </emissions>

    <gui_only>
        <quit-on-end value="true"/>
        <start value="true"/>
    </gui_only>

</configuration>
-->

<meandata xmlns:xsi="http://www.w3.org/2001/XMLSchema-instance" xsi:noNamespaceSchemaLocation="http://sumo.dlr.de/xsd/meandata_file.xsd">
    <interval begin="0.00" end="4699.00" id="emissions-detector">
        <edge id=":1092997347_0" sampledSeconds="303.64" CO_abs="38341.483894" CO2_abs="1513391.090043" HC_abs="210.332220" PMx_abs="30.826335" NOx_abs="656.636344" fuel_abs="650.547546" electricity_abs="0"
            CO_normed="66759.533953" CO2_normed="2635090.601558" HC_normed="366.226852" PMx_normed="53.674285" NOx_normed="1143.323937" fuel_normed="1132.722226" electricity_normed="0"
            traveltime="0.08" CO_perVeh="9.523685" CO2_perVeh="375.912929" HC_perVeh="0.052245" PMx_perVeh="0.007657" NOx_perVeh="0.163103" fuel_perVeh="0.161590" electricity_perVeh="0"/>
        <edge id=":1103427051_0" sampledSeconds="11.00" CO_abs="833.833227" CO2_abs="46962.041982" HC_abs="4.912414" PMx_abs="0.924967" NOx_abs="20.067152" fuel_abs="20.186897" electricity_abs="0"
            CO_normed="2202.816165" CO2_normed="124064.071693" HC_normed="12.977589" PMx_normed="2.443573" NOx_normed="53.013294" fuel_normed="53.329636" electricity_normed="0"
            traveltime="0.03" CO_perVeh="2.284690" CO2_perVeh="128.675285" HC_perVeh="0.013460" PMx_perVeh="0.002534" NOx_perVeh="0.054984" fuel_perVeh="0.055312" electricity_perVeh="0"/>
        <edge id=":1105984386_0" sampledSeconds="22.94" CO_abs="438.739108" CO2_abs="34065.471717" HC_abs="2.772993" PMx_abs="0.454161" NOx_abs="12.974468" fuel_abs="14.643442" electricity_abs="0"
            CO_normed="34.616581" CO2_normed="2687.770810" HC_normed="0.218790" PMx_normed="0.035833" NOx_normed="1.023687" fuel_normed="1.155370" electricity_normed="0"
            traveltime="0.96" CO_perVeh="18.413541" CO2_perVeh="1429.701463" HC_perVeh="0.116380" PMx_perVeh="0.019061" NOx_perVeh="0.544528" fuel_perVeh="0.614574" electricity_perVeh="0"/>
        <edge id=":1105984390_0" sampledSeconds="23.31" CO_abs="31.296054" CO2_abs="1889.644180" HC_abs="0.185547" PMx_abs="0.027064" NOx_abs="0.738974" fuel_abs="0.812288" electricity_abs="0"
            CO_normed="1.908961" CO2_normed="115.262345" HC_normed="0.011318" PMx_normed="0.001651" NOx_normed="0.045075" fuel_normed="0.049547" electricity_normed="0"
            traveltime="1.06" CO_perVeh="1.419261" CO2_perVeh="85.694436" HC_perVeh="0.008414" PMx_perVeh="0.001227" NOx_perVeh="0.033512" fuel_perVeh="0.036837" electricity_perVeh="0"/>
        <edge id=":1105984390_1" sampledSeconds="679.95" CO_abs="15165.181646" CO2_abs="1971080.142367" HC_abs="116.217051" PMx_abs="34.865669" NOx_abs="737.381058" fuel_abs="847.277049" electricity_abs="0"
            CO_normed="884.870968" CO2_normed="115010.267170" HC_normed="6.781132" PMx_normed="2.034372" NOx_normed="43.025340" fuel_normed="49.437645" electricity_normed="0"
            traveltime="0.64" CO_perVeh="14.208470" CO2_perVeh="1846.732414" HC_perVeh="0.108885" PMx_perVeh="0.032666" NOx_perVeh="0.690863" fuel_perVeh="0.793826" electricity_perVeh="0"/>
        <edge id=":1105984395_0" sampledSeconds="9.12" CO_abs="174.091324" CO2_abs="14040.328847" HC_abs="1.109831" PMx_abs="0.172942" NOx_abs="5.245793" fuel_abs="6.035417" electricity_abs="0"
            CO_normed="144.972743" CO2_normed="11691.938120" HC_normed="0.924200" PMx_normed="0.144016" NOx_normed="4.368380" fuel_normed="5.025931" electricity_normed="0"
            traveltime="0.09" CO_perVeh="1.765476" CO2_perVeh="142.384287" HC_perVeh="0.011255" PMx_perVeh="0.001754" NOx_perVeh="0.053198" fuel_perVeh="0.061206" electricity_perVeh="0"/>
        <edge id=":1105984398_0" sampledSeconds="23.33" CO_abs="1487.397622" CO2_abs="103549.326010" HC_abs="9.215708" PMx_abs="1.862521" NOx_abs="42.673551" fuel_abs="44.511273" electricity_abs="0"
            CO_normed="94.253576" CO2_normed="6561.725092" HC_normed="0.583982" PMx_normed="0.118024" NOx_normed="2.704142" fuel_normed="2.820595" electricity_normed="0"
            traveltime="1.11" CO_perVeh="70.621892" CO2_perVeh="4916.539575" HC_perVeh="0.437563" PMx_perVeh="0.088433" NOx_perVeh="2.026147" fuel_perVeh="2.113403" electricity_perVeh="0"/>
        <edge id=":1105984398_1" sampledSeconds="452.94" CO_abs="7763.662332" CO2_abs="909969.399799" HC_abs="56.117907" PMx_abs="12.953826" NOx_abs="343.572988" fuel_abs="391.157160" electricity_abs="0"
            CO_normed="476.213009" CO2_normed="55816.346446" HC_normed="3.442200" PMx_normed="0.794571" NOx_normed="21.074323" fuel_normed="23.993074" electricity_normed="0"
            traveltime="0.96" CO_perVeh="16.425944" CO2_perVeh="1925.264885" HC_perVeh="0.118731" PMx_perVeh="0.027407" NOx_perVeh="0.726913" fuel_perVeh="0.827590" electricity_perVeh="0"/>
        <edge id=":1106006327_0" sampledSeconds="38.02" CO_abs="5150.438155" CO2_abs="169014.514588" HC_abs="27.432869" PMx_abs="3.529433" NOx_abs="74.007085" fuel_abs="72.653318" electricity_abs="0"
            CO_normed="445.356208" CO2_normed="14614.613563" HC_normed="2.372109" PMx_normed="0.305189" NOx_normed="6.399361" fuel_normed="6.282302" electricity_normed="0"
            traveltime="2.06" CO_perVeh="279.407801" CO2_perVeh="9168.923581" HC_perVeh="1.488215" PMx_perVeh="0.191469" NOx_perVeh="4.014835" fuel_perVeh="3.941394" electricity_perVeh="0"/>
        <edge id=":1106006327_1" sampledSeconds="161.05" CO_abs="21715.793279" CO2_abs="726238.926966" HC_abs="115.991883" PMx_abs="15.127191" NOx_abs="317.715688" fuel_abs="312.183946" electricity_abs="0"
            CO_normed="1637.491471" CO2_normed="54762.450234" HC_normed="8.746432" PMx_normed="1.140674" NOx_normed="23.957528" fuel_normed="23.540404" electricity_normed="0"
            traveltime="2.29" CO_perVeh="308.283674" CO2_perVeh="10309.897577" HC_perVeh="1.646654" PMx_perVeh="0.214750" NOx_perVeh="4.510384" fuel_perVeh="4.431853" electricity_perVeh="0"/>
        <edge id=":1106006327_2" sampledSeconds="0.00" CO_abs="0" CO2_abs="0" HC_abs="0" PMx_abs="0" NOx_abs="0" fuel_abs="0" electricity_abs="0"
            CO_normed="0" CO2_normed="0" HC_normed="0" PMx_normed="0" NOx_normed="0" fuel_normed="0" electricity_normed="0"/>
        <edge id=":1106006327_3" sampledSeconds="0.00" CO_abs="0" CO2_abs="0" HC_abs="0" PMx_abs="0" NOx_abs="0" fuel_abs="0" electricity_abs="0"
            CO_normed="0" CO2_normed="0" HC_normed="0" PMx_normed="0" NOx_normed="0" fuel_normed="0" electricity_normed="0"/>
        <edge id=":1107381198_0" sampledSeconds="0.00" CO_abs="0" CO2_abs="0" HC_abs="0" PMx_abs="0" NOx_abs="0" fuel_abs="0" electricity_abs="0"
            CO_normed="0" CO2_normed="0" HC_normed="0" PMx_normed="0" NOx_normed="0" fuel_normed="0" electricity_normed="0"/>
        <edge id=":1107381198_1" sampledSeconds="36.07" CO_abs="1451.294461" CO2_abs="59120.731300" HC_abs="7.965067" PMx_abs="0.992275" NOx_abs="24.300755" fuel_abs="25.413969" electricity_abs="0"
            CO_normed="121.250422" CO2_normed="4939.324028" HC_normed="0.665453" PMx_normed="0.082901" NOx_normed="2.030241" fuel_normed="2.123245" electricity_normed="0"
            traveltime="1.48" CO_perVeh="59.755757" CO2_perVeh="2434.243479" HC_perVeh="0.327955" PMx_perVeh="0.040856" NOx_perVeh="1.000562" fuel_perVeh="1.046398" electricity_perVeh="0"/>
        <edge id=":1110338277_0" sampledSeconds="97.56" CO_abs="1260.488108" CO2_abs="154379.494240" HC_abs="9.257356" PMx_abs="2.123151" NOx_abs="57.772888" fuel_abs="66.361252" electricity_abs="0"
            CO_normed="3448.877564" CO2_normed="422404.599204" HC_normed="25.329464" PMx_normed="5.809248" NOx_normed="158.074969" fuel_normed="181.573972" electricity_normed="0"
            traveltime="0.02" CO_perVeh="0.284074" CO2_perVeh="34.792265" HC_perVeh="0.002086" PMx_perVeh="0.000478" NOx_perVeh="0.013020" fuel_perVeh="0.014956" electricity_perVeh="0"/>
        <edge id=":1110338293_0" sampledSeconds="124.00" CO_abs="6317.273666" CO2_abs="436305.765302" HC_abs="39.008544" PMx_abs="7.598362" NOx_abs="178.223593" fuel_abs="187.548961" electricity_abs="0"
            CO_normed="16132.641837" CO2_normed="1114209.232522" HC_normed="99.617479" PMx_normed="19.404202" NOx_normed="455.135798" fuel_normed="478.950314" electricity_normed="0"
            traveltime="0.03" CO_perVeh="1.448971" CO2_perVeh="100.073955" HC_perVeh="0.008947" PMx_perVeh="0.001743" NOx_perVeh="0.040879" fuel_perVeh="0.043017" electricity_perVeh="0"/>
        <edge id=":1110338295_0" sampledSeconds="0.00" CO_abs="0" CO2_abs="0" HC_abs="0" PMx_abs="0" NOx_abs="0" fuel_abs="0" electricity_abs="0"
            CO_normed="0" CO2_normed="0" HC_normed="0" PMx_normed="0" NOx_normed="0" fuel_normed="0" electricity_normed="0"/>
        <edge id=":1110673403_0" sampledSeconds="143.73" CO_abs="2162.534782" CO2_abs="271873.529235" HC_abs="16.031702" PMx_abs="3.709137" NOx_abs="101.392870" fuel_abs="116.867007" electricity_abs="0"
            CO_normed="5522.540409" CO2_normed="694292.902919" HC_normed="40.940717" PMx_normed="9.472152" NOx_normed="258.930505" fuel_normed="298.447348" electricity_normed="0"
            traveltime="0.02" CO_perVeh="0.347209" CO2_perVeh="43.651088" HC_perVeh="0.002574" PMx_perVeh="0.000596" NOx_perVeh="0.016279" fuel_perVeh="0.018764" electricity_perVeh="0"/>
        <edge id=":1110673412_0" sampledSeconds="251.84" CO_abs="45045.340233" CO2_abs="3070728.082578" HC_abs="280.261869" PMx_abs="67.526451" NOx_abs="1319.808680" fuel_abs="1319.954738" electricity_abs="0"
            CO_normed="119000.539247" CO2_normed="8112233.048323" HC_normed="740.394309" PMx_normed="178.391018" NOx_normed="3486.663522" fuel_normed="3487.049377" electricity_normed="0"
            traveltime="0.02" CO_perVeh="2.772533" CO2_perVeh="189.002788" HC_perVeh="0.017250" PMx_perVeh="0.004156" NOx_perVeh="0.081234" fuel_perVeh="0.081243" electricity_perVeh="0"/>
        <edge id=":1110673414_0" sampledSeconds="0.00" CO_abs="0" CO2_abs="0" HC_abs="0" PMx_abs="0" NOx_abs="0" fuel_abs="0" electricity_abs="0"
            CO_normed="0" CO2_normed="0" HC_normed="0" PMx_normed="0" NOx_normed="0" fuel_normed="0" electricity_normed="0"/>
        <edge id=":1110673414_1" sampledSeconds="323.85" CO_abs="22311.293498" CO2_abs="848627.495521" HC_abs="121.303813" PMx_abs="15.727130" NOx_abs="358.702283" fuel_abs="364.794734" electricity_abs="0"
            CO_normed="1892.927823" CO2_normed="71998.990004" HC_normed="10.291620" PMx_normed="1.334316" NOx_normed="30.432907" fuel_normed="30.949801" electricity_normed="0"
            traveltime="1.60" CO_perVeh="109.928839" CO2_perVeh="4181.229353" HC_perVeh="0.597670" PMx_perVeh="0.077488" NOx_perVeh="1.767344" fuel_perVeh="1.797362" electricity_perVeh="0"/>
        <edge id=":1110673417_0" sampledSeconds="29.72" CO_abs="558.008193" CO2_abs="63700.677806" HC_abs="4.014073" PMx_abs="0.907232" NOx_abs="24.090213" fuel_abs="27.382225" electricity_abs="0"
            CO_normed="1526.791029" CO2_normed="174294.257215" HC_normed="10.983082" PMx_normed="2.482319" NOx_normed="65.914302" fuel_normed="74.921724" electricity_normed="0"
            traveltime="0.02" CO_perVeh="0.414161" CO2_perVeh="47.279496" HC_perVeh="0.002979" PMx_perVeh="0.000673" NOx_perVeh="0.017880" fuel_perVeh="0.020323" electricity_perVeh="0"/>
        <edge id=":1110673446_0" sampledSeconds="333.69" CO_abs="3555.896544" CO2_abs="282061.144857" HC_abs="22.852746" PMx_abs="5.217902" NOx_abs="115.769784" fuel_abs="121.245094" electricity_abs="0"
            CO_normed="9080.816881" CO2_normed="720309.371842" HC_normed="58.359854" PMx_normed="13.325137" NOx_normed="295.645330" fuel_normed="309.627820" electricity_normed="0"
            traveltime="0.02" CO_perVeh="0.242996" CO2_perVeh="19.274913" HC_perVeh="0.001562" PMx_perVeh="0.000357" NOx_perVeh="0.007911" fuel_perVeh="0.008285" electricity_perVeh="0"/>
        <edge id=":1110673451_0" sampledSeconds="37.72" CO_abs="381.922904" CO2_abs="28219.638493" HC_abs="2.381994" PMx_abs="0.383880" NOx_abs="10.808711" fuel_abs="12.130545" electricity_abs="0"
            CO_normed="1083.699805" CO2_normed="80072.748791" HC_normed="6.758869" PMx_normed="1.089254" NOx_normed="30.669535" fuel_normed="34.420217" electricity_normed="0"
            traveltime="0.03" CO_perVeh="0.273889" CO2_perVeh="20.237200" HC_perVeh="0.001708" PMx_perVeh="0.000275" NOx_perVeh="0.007751" fuel_perVeh="0.008699" electricity_perVeh="0"/>
        <edge id=":1110673464_0" sampledSeconds="321.29" CO_abs="484.277063" CO2_abs="43261.179923" HC_abs="3.186656" PMx_abs="0.538035" NOx_abs="16.075082" fuel_abs="18.596337" electricity_abs="0"
            CO_normed="26.275819" CO2_normed="2347.257414" HC_normed="0.172901" PMx_normed="0.029193" NOx_normed="0.872199" fuel_normed="1.008997" electricity_normed="0"
            traveltime="1.16" CO_perVeh="1.750598" CO2_perVeh="156.383458" HC_perVeh="0.011519" PMx_perVeh="0.001945" NOx_perVeh="0.058109" fuel_perVeh="0.067223" electricity_perVeh="0"/>
        <edge id=":1110673464_1" sampledSeconds="745.44" CO_abs="16854.069765" CO2_abs="2217725.698756" HC_abs="129.759565" PMx_abs="39.035349" NOx_abs="828.558603" fuel_abs="953.298771" electricity_abs="0"
            CO_normed="896.061591" CO2_normed="117907.356897" HC_normed="6.898783" PMx_normed="2.075349" NOx_normed="44.051054" fuel_normed="50.682976" electricity_normed="0"
            traveltime="0.70" CO_perVeh="15.854090" CO2_perVeh="2086.144336" HC_perVeh="0.122061" PMx_perVeh="0.036719" NOx_perVeh="0.779399" fuel_perVeh="0.896738" electricity_perVeh="0"/>
        <edge id=":1110673479_0" sampledSeconds="133.72" CO_abs="6670.056134" CO2_abs="463634.420785" HC_abs="41.251526" PMx_abs="8.038437" NOx_abs="189.114363" fuel_abs="199.296389" electricity_abs="0"
            CO_normed="17033.554716" CO2_normed="1183999.372083" HC_normed="105.345458" PMx_normed="20.528037" NOx_normed="482.947937" fuel_normed="508.950131" electricity_normed="0"
            traveltime="0.03" CO_perVeh="1.405110" CO2_perVeh="97.668932" HC_perVeh="0.008690" PMx_perVeh="0.001693" NOx_perVeh="0.039839" fuel_perVeh="0.041984" electricity_perVeh="0"/>
        <edge id=":1110673511_0" sampledSeconds="11.98" CO_abs="125.860755" CO2_abs="15518.794317" HC_abs="0.932518" PMx_abs="0.216848" NOx_abs="5.831944" fuel_abs="6.670872" electricity_abs="0"
            CO_normed="321.414994" CO2_normed="39630.885678" HC_normed="2.381404" PMx_normed="0.553772" NOx_normed="14.893239" fuel_normed="17.035638" electricity_normed="0"
            traveltime="0.02" CO_perVeh="0.249229" CO2_perVeh="30.730286" HC_perVeh="0.001847" PMx_perVeh="0.000429" NOx_perVeh="0.011548" fuel_perVeh="0.013210" electricity_perVeh="0"/>
        <edge id=":1110673517_0" sampledSeconds="17.13" CO_abs="761.197902" CO2_abs="55356.621502" HC_abs="4.760947" PMx_abs="0.928652" NOx_abs="22.326596" fuel_abs="23.795441" electricity_abs="0"
            CO_normed="1943.897600" CO2_normed="141366.132798" HC_normed="12.158196" PMx_normed="2.371531" NOx_normed="57.016206" fuel_normed="60.767246" electricity_normed="0"
            traveltime="0.03" CO_perVeh="1.222153" CO2_perVeh="88.878707" HC_perVeh="0.007644" PMx_perVeh="0.001491" NOx_perVeh="0.035847" fuel_perVeh="0.038205" electricity_perVeh="0"/>
        <edge id=":1110673534_0" sampledSeconds="475.17" CO_abs="2763.372444" CO2_abs="249870.959094" HC_abs="18.280181" PMx_abs="3.275016" NOx_abs="94.082851" fuel_abs="107.409729" electricity_abs="0"
            CO_normed="136.762025" CO2_normed="12366.359943" HC_normed="0.904704" PMx_normed="0.162084" NOx_normed="4.656253" fuel_normed="5.315813" electricity_normed="0"
            traveltime="1.43" CO_perVeh="8.324934" CO2_perVeh="752.761052" HC_perVeh="0.055071" PMx_perVeh="0.009866" NOx_perVeh="0.283434" fuel_perVeh="0.323582" electricity_perVeh="0"/>
        <edge id=":1110673534_1" sampledSeconds="183.63" CO_abs="2707.116103" CO2_abs="343703.446983" HC_abs="20.137263" PMx_abs="4.698410" NOx_abs="128.160467" fuel_abs="147.743640" electricity_abs="0"
            CO_normed="130.274938" CO2_normed="16540.090444" HC_normed="0.969068" PMx_normed="0.226102" NOx_normed="6.167485" fuel_normed="7.109888" electricity_normed="0"
            traveltime="1.22" CO_perVeh="17.974279" CO2_perVeh="2282.067496" HC_perVeh="0.133704" PMx_perVeh="0.031196" NOx_perVeh="0.850939" fuel_perVeh="0.980965" electricity_perVeh="0"/>
        <edge id=":1110673549_0" sampledSeconds="59.90" CO_abs="34.885466" CO2_abs="3541.147200" HC_abs="0.238628" PMx_abs="0.040149" NOx_abs="1.287922" fuel_abs="1.522207" electricity_abs="0"
            CO_normed="1.672495" CO2_normed="169.771295" HC_normed="0.011440" PMx_normed="0.001925" NOx_normed="0.061746" fuel_normed="0.072978" electricity_normed="0"
            traveltime="1.25" CO_perVeh="0.726809" CO2_perVeh="73.776786" HC_perVeh="0.004972" PMx_perVeh="0.000836" NOx_perVeh="0.026833" fuel_perVeh="0.031714" electricity_perVeh="0"/>
        <edge id=":1110673549_1" sampledSeconds="638.32" CO_abs="13922.045120" CO2_abs="1850383.649412" HC_abs="107.455733" PMx_abs="32.416097" NOx_abs="690.336114" fuel_abs="795.395323" electricity_abs="0"
            CO_normed="645.639436" CO2_normed="85812.152319" HC_normed="4.983295" PMx_normed="1.503307" NOx_normed="32.014565" fuel_normed="36.886721" electricity_normed="0"
            traveltime="0.80" CO_perVeh="17.530200" CO2_perVeh="2329.944650" HC_perVeh="0.135305" PMx_perVeh="0.040817" NOx_perVeh="0.869249" fuel_perVeh="1.001537" electricity_perVeh="0"/>
        <edge id=":1110673556_0" sampledSeconds="419.13" CO_abs="51500.238204" CO2_abs="2579655.334072" HC_abs="295.827049" PMx_abs="52.003604" NOx_abs="1110.920148" fuel_abs="1108.882254" electricity_abs="0"
            CO_normed="1830.876368" CO2_normed="91708.895980" HC_normed="10.516898" PMx_normed="1.848771" NOx_normed="39.494137" fuel_normed="39.421688" electricity_normed="0"
            traveltime="2.60" CO_perVeh="319.688783" CO2_perVeh="16013.263292" HC_perVeh="1.836352" PMx_perVeh="0.322813" NOx_perVeh="6.896060" fuel_perVeh="6.883409" electricity_perVeh="0"/>
        <edge id=":1110673556_2" sampledSeconds="248.83" CO_abs="23962.377756" CO2_abs="1031767.198040" HC_abs="133.324772" PMx_abs="19.819472" NOx_abs="439.446171" fuel_abs="443.516318" electricity_abs="0"
            CO_normed="890.735937" CO2_normed="38353.127184" HC_normed="4.955984" PMx_normed="0.736735" NOx_normed="16.335211" fuel_normed="16.486508" electricity_normed="0"
            traveltime="3.02" CO_perVeh="290.659050" CO2_perVeh="12515.138396" HC_perVeh="1.617204" PMx_perVeh="0.240406" NOx_perVeh="5.330398" fuel_perVeh="5.379768" electricity_perVeh="0"/>
        <edge id=":1110673556_3" sampledSeconds="371.71" CO_abs="32748.827363" CO2_abs="1168764.732156" HC_abs="176.346542" PMx_abs="22.416583" NOx_abs="499.165620" fuel_abs="502.410876" electricity_abs="0"
            CO_normed="2769.265606" CO2_normed="98831.629569" HC_normed="14.911997" PMx_normed="1.895563" NOx_normed="42.209822" fuel_normed="42.484244" electricity_normed="0"
            traveltime="1.74" CO_perVeh="153.462489" CO2_perVeh="5476.884490" HC_perVeh="0.826368" PMx_perVeh="0.105045" NOx_perVeh="2.339113" fuel_perVeh="2.354320" electricity_perVeh="0"/>
        <edge id=":1110673556_4" sampledSeconds="171.68" CO_abs="18545.112369" CO2_abs="745215.968594" HC_abs="101.936061" PMx_abs="14.565223" NOx_abs="319.492991" fuel_abs="320.339792" electricity_abs="0"
            CO_normed="958.043820" CO2_normed="38497.990160" HC_normed="5.266035" PMx_normed="0.752442" NOx_normed="16.505065" fuel_normed="16.548811" electricity_normed="0"
            traveltime="2.41" CO_perVeh="260.114267" CO2_perVeh="10452.420094" HC_perVeh="1.429758" PMx_perVeh="0.204292" NOx_perVeh="4.481218" fuel_perVeh="4.493095" electricity_perVeh="0"/>
        <edge id=":1110673556_5" sampledSeconds="27.11" CO_abs="2608.393608" CO2_abs="97258.216679" HC_abs="14.156118" PMx_abs="1.913406" NOx_abs="41.817414" fuel_abs="41.807719" electricity_abs="0"
            CO_normed="187.814256" CO2_normed="7002.961357" HC_normed="1.019294" PMx_normed="0.137773" NOx_normed="3.011013" fuel_normed="3.010315" electricity_normed="0"
            traveltime="1.87" CO_perVeh="180.333385" CO2_perVeh="6724.024857" HC_perVeh="0.978695" PMx_perVeh="0.132285" NOx_perVeh="2.891080" fuel_perVeh="2.890410" electricity_perVeh="0"/>
        <edge id=":1110673556_6" sampledSeconds="309.79" CO_abs="37384.076946" CO2_abs="1911730.422889" HC_abs="215.701969" PMx_abs="38.524006" NOx_abs="822.590707" fuel_abs="821.769639" electricity_abs="0"
            CO_normed="1362.545476" CO2_normed="69677.249005" HC_normed="7.861736" PMx_normed="1.404093" NOx_normed="29.981140" fuel_normed="29.951214" electricity_normed="0"
            traveltime="2.45" CO_perVeh="296.051817" CO2_perVeh="15139.367101" HC_perVeh="1.708186" PMx_perVeh="0.305079" NOx_perVeh="6.514257" fuel_perVeh="6.507754" electricity_perVeh="0"/>
        <edge id=":1110673561_0" sampledSeconds="100.72" CO_abs="9702.099770" CO2_abs="686476.988999" HC_abs="60.722045" PMx_abs="14.059215" NOx_abs="291.476609" fuel_abs="295.083581" electricity_abs="0"
            CO_normed="444.290320" CO2_normed="31435.986881" HC_normed="2.780658" PMx_normed="0.643817" NOx_normed="13.347650" fuel_normed="13.512825" electricity_normed="0"
            traveltime="1.19" CO_perVeh="114.494194" CO2_perVeh="8101.094765" HC_perVeh="0.716579" PMx_perVeh="0.165912" NOx_perVeh="3.439707" fuel_perVeh="3.482273" electricity_perVeh="0"/>
        <edge id=":1110673561_1" sampledSeconds="1310.61" CO_abs="125138.432969" CO2_abs="8619294.102959" HC_abs="778.346947" PMx_abs="180.817232" NOx_abs="3690.182508" fuel_abs="3705.017767" electricity_abs="0"
            CO_normed="5586.894681" CO2_normed="384814.538860" HC_normed="34.749855" PMx_normed="8.072714" NOx_normed="164.750833" fuel_normed="165.413163" electricity_normed="0"
            traveltime="1.19" CO_perVeh="113.633186" CO2_perVeh="7826.834887" HC_perVeh="0.706786" PMx_perVeh="0.164193" NOx_perVeh="3.350907" fuel_perVeh="3.364378" electricity_perVeh="0"/>
        <edge id=":1110673562_0" sampledSeconds="104.32" CO_abs="2116.837034" CO2_abs="170749.204598" HC_abs="13.539338" PMx_abs="2.351314" NOx_abs="65.335188" fuel_abs="73.398378" electricity_abs="0"
            CO_normed="6006.489421" CO2_normed="484497.991340" HC_normed="38.417643" PMx_normed="6.671814" NOx_normed="185.387496" fuel_normed="208.266661" electricity_normed="0"
            traveltime="0.03" CO_perVeh="0.539591" CO2_perVeh="43.524750" HC_perVeh="0.003451" PMx_perVeh="0.000599" NOx_perVeh="0.016654" fuel_perVeh="0.018710" electricity_perVeh="0"/>
        <edge id=":1110673564_0" sampledSeconds="29.06" CO_abs="461.205817" CO2_abs="55330.698079" HC_abs="3.364564" PMx_abs="0.766479" NOx_abs="20.758851" fuel_abs="23.784338" electricity_abs="0"
            CO_normed="3533.392086" CO2_normed="423899.793755" HC_normed="25.776611" PMx_normed="5.872151" NOx_normed="159.037802" fuel_normed="182.216681" electricity_normed="0"
            traveltime="7.987928e-03" CO_perVeh="0.126792" CO2_perVeh="15.211188" HC_perVeh="0.000925" PMx_perVeh="0.000211" NOx_perVeh="0.005707" fuel_perVeh="0.006539" electricity_perVeh="0"/>
        <edge id=":1110673588_0" sampledSeconds="11.71" CO_abs="186.623045" CO2_abs="24546.574255" HC_abs="1.406910" PMx_abs="0.320815" NOx_abs="9.065284" fuel_abs="10.551555" electricity_abs="0"
            CO_normed="571.902927" CO2_normed="75222.530169" HC_normed="4.311449" PMx_normed="0.983133" NOx_normed="27.780397" fuel_normed="32.335049" electricity_normed="0"
            traveltime="0.02" CO_perVeh="0.311038" CO2_perVeh="40.910957" HC_perVeh="0.002345" PMx_perVeh="0.000535" NOx_perVeh="0.015109" fuel_perVeh="0.017586" electricity_perVeh="0"/>
        <edge id=":1110673601_0" sampledSeconds="29.97" CO_abs="381.566333" CO2_abs="48502.165520" HC_abs="2.839439" PMx_abs="0.626649" NOx_abs="17.891088" fuel_abs="20.849091" electricity_abs="0"
            CO_normed="1044.020611" CO2_normed="132708.931894" HC_normed="7.769115" PMx_normed="1.714602" NOx_normed="48.952601" fuel_normed="57.046125" electricity_normed="0"
            traveltime="0.02" CO_perVeh="0.283204" CO2_perVeh="35.998957" HC_perVeh="0.002107" PMx_perVeh="0.000465" NOx_perVeh="0.013279" fuel_perVeh="0.015474" electricity_perVeh="0"/>
        <edge id=":1110673617_0" sampledSeconds="247.93" CO_abs="6179.505512" CO2_abs="754445.240614" HC_abs="46.214334" PMx_abs="13.556274" NOx_abs="285.424204" fuel_abs="324.301257" electricity_abs="0"
            CO_normed="15780.818502" CO2_normed="1926653.093716" HC_normed="118.019155" PMx_normed="34.619130" NOx_normed="728.897732" fuel_normed="828.179418" electricity_normed="0"
            traveltime="0.01" CO_perVeh="0.364186" CO2_perVeh="44.462827" HC_perVeh="0.002724" PMx_perVeh="0.000799" NOx_perVeh="0.016821" fuel_perVeh="0.019113" electricity_perVeh="0"/>
        <edge id=":1110673621_0" sampledSeconds="25.55" CO_abs="518.368808" CO2_abs="57840.378185" HC_abs="3.682410" PMx_abs="0.827872" NOx_abs="21.937086" fuel_abs="24.863127" electricity_abs="0"
            CO_normed="1588.531781" CO2_normed="177250.786522" HC_normed="11.284679" PMx_normed="2.536999" NOx_normed="67.225800" fuel_normed="76.192602" electricity_normed="0"
            traveltime="0.02" CO_perVeh="0.392704" CO2_perVeh="43.818468" HC_perVeh="0.002790" PMx_perVeh="0.000627" NOx_perVeh="0.016619" fuel_perVeh="0.018836" electricity_perVeh="0"/>
        <edge id=":1110673630_0" sampledSeconds="53.99" CO_abs="197.982774" CO2_abs="22267.514467" HC_abs="1.406240" PMx_abs="0.262001" NOx_abs="8.122220" fuel_abs="9.571943" electricity_abs="0"
            CO_normed="10.818734" CO2_normed="1216.804439" HC_normed="0.076844" PMx_normed="0.014317" NOx_normed="0.443837" fuel_normed="0.523057" electricity_normed="0"
            traveltime="1.26" CO_perVeh="4.621268" CO2_perVeh="519.763174" HC_perVeh="0.032824" PMx_perVeh="0.006116" NOx_perVeh="0.189587" fuel_perVeh="0.223426" electricity_perVeh="0"/>
        <edge id=":1110673630_1" sampledSeconds="7.40" CO_abs="26.420859" CO2_abs="1895.412268" HC_abs="0.163076" PMx_abs="0.023912" NOx_abs="0.715767" fuel_abs="0.814769" electricity_abs="0"
            CO_normed="1.760136" CO2_normed="126.270791" HC_normed="0.010864" PMx_normed="0.001593" NOx_normed="0.047684" fuel_normed="0.054279" electricity_normed="0"
            traveltime="1.05" CO_perVeh="3.739568" CO2_perVeh="268.273736" HC_perVeh="0.023082" PMx_perVeh="0.003385" NOx_perVeh="0.101309" fuel_perVeh="0.115321" electricity_perVeh="0"/>
        <edge id=":1110673650_0" sampledSeconds="143.33" CO_abs="1980.843510" CO2_abs="265247.664049" HC_abs="15.050317" PMx_abs="3.506293" NOx_abs="98.028432" fuel_abs="114.018907" electricity_abs="0"
            CO_normed="5058.549078" CO2_normed="677372.200168" HC_normed="38.434520" PMx_normed="8.954143" NOx_normed="250.338622" fuel_normed="291.174055" electricity_normed="0"
            traveltime="0.02" CO_perVeh="0.318037" CO2_perVeh="42.587262" HC_perVeh="0.002416" PMx_perVeh="0.000563" NOx_perVeh="0.015739" fuel_perVeh="0.018306" electricity_perVeh="0"/>
        <edge id=":1110673655_0" sampledSeconds="44.73" CO_abs="896.305511" CO2_abs="96904.865549" HC_abs="6.303418" PMx_abs="1.385317" NOx_abs="36.802376" fuel_abs="41.655317" electricity_abs="0"
            CO_normed="2288.926607" CO2_normed="247469.331046" HC_normed="16.097257" PMx_normed="3.537733" NOx_normed="93.983509" fuel_normed="106.376634" electricity_normed="0"
            traveltime="0.02" CO_perVeh="0.479693" CO2_perVeh="51.862385" HC_perVeh="0.003374" PMx_perVeh="0.000741" NOx_perVeh="0.019696" fuel_perVeh="0.022293" electricity_perVeh="0"/>
        <edge id=":1110673663_0" sampledSeconds="108.35" CO_abs="1537.788126" CO2_abs="197179.085670" HC_abs="11.478724" PMx_abs="2.581924" NOx_abs="72.879467" fuel_abs="84.759141" electricity_abs="0"
            CO_normed="71.924965" CO2_normed="9222.401103" HC_normed="0.536879" PMx_normed="0.120761" NOx_normed="3.408697" fuel_normed="3.964329" electricity_normed="0"
            traveltime="1.27" CO_perVeh="18.062047" CO2_perVeh="2315.961381" HC_perVeh="0.134823" PMx_perVeh="0.030326" NOx_perVeh="0.856004" fuel_perVeh="0.995536" electricity_perVeh="0"/>
        <edge id=":1110673663_1" sampledSeconds="154.31" CO_abs="2232.432430" CO2_abs="293984.449670" HC_abs="16.843629" PMx_abs="3.920469" NOx_abs="108.806812" fuel_abs="126.371636" electricity_abs="0"
            CO_normed="104.542307" CO2_normed="13766.962055" HC_normed="0.788768" PMx_normed="0.183591" NOx_normed="5.095301" fuel_normed="5.917842" electricity_normed="0"
            traveltime="1.25" CO_perVeh="18.060118" CO2_perVeh="2378.299917" HC_perVeh="0.136263" PMx_perVeh="0.031716" NOx_perVeh="0.880234" fuel_perVeh="1.022332" electricity_perVeh="0"/>
        <edge id=":1110673666_0" sampledSeconds="191.62" CO_abs="4149.500612" CO2_abs="330218.809798" HC_abs="26.404333" PMx_abs="4.339990" NOx_abs="125.100981" fuel_abs="141.948456" electricity_abs="0"