<?xml version="1.0" encoding="UTF-8"?>

<!-- generated on Tue Nov 10 01:06:20 2020 by Eclipse SUMO sumo Version 1.7.0
<configuration xmlns:xsi="http://www.w3.org/2001/XMLSchema-instance" xsi:noNamespaceSchemaLocation="http://sumo.dlr.de/xsd/sumoConfiguration.xsd">

    <input>
        <net-file value="../dataSets/Porto/6AM7AM_Routing_SaoBento/Porto.net.xml"/>
        <route-files value="../results/Porto/6AM7AM_Routing_SaoBento/cost_PMx-cost_co/solution8/Porto.rou.xml"/>
        <additional-files value="moreOutputInfo.xml"/>
    </input>

    <output>
        <emission-output.precision value="6"/>
        <tripinfo-output value="../results/Porto/6AM7AM_Routing_SaoBento/cost_PMx-cost_co/solution8/Porto-tripinfo"/>
    </output>

    <processing>
        <collision.action value="warn"/>
        <time-to-teleport value="-1"/>
    </processing>

    <emissions>
        <device.emissions.probability value="1"/>
    </emissions>

    <gui_only>
        <quit-on-end value="true"/>
        <start value="true"/>
    </gui_only>

</configuration>
-->

<meandata xmlns:xsi="http://www.w3.org/2001/XMLSchema-instance" xsi:noNamespaceSchemaLocation="http://sumo.dlr.de/xsd/meandata_file.xsd">
    <interval begin="0.00" end="4698.00" id="emissions-detector">
        <edge id=":1092997347_0" sampledSeconds="286.07" CO_abs="37000.814102" CO2_abs="1461716.644614" HC_abs="203.039575" PMx_abs="29.935539" NOx_abs="635.234256" fuel_abs="628.334455" electricity_abs="0"
            CO_normed="64438.896033" CO2_normed="2545657.688286" HC_normed="353.604275" PMx_normed="52.134342" NOx_normed="1106.294419" fuel_normed="1094.278048" electricity_normed="0"
            traveltime="0.08" CO_perVeh="9.760985" CO2_perVeh="385.607578" HC_perVeh="0.053563" PMx_perVeh="0.007897" NOx_perVeh="0.167578" fuel_perVeh="0.165758" electricity_perVeh="0"/>
        <edge id=":1103427051_0" sampledSeconds="10.80" CO_abs="863.521796" CO2_abs="49551.620765" HC_abs="5.107507" PMx_abs="0.963711" NOx_abs="21.077339" fuel_abs="21.300048" electricity_abs="0"
            CO_normed="2281.732847" CO2_normed="130933.071119" HC_normed="13.495856" PMx_normed="2.546469" NOx_normed="55.693854" fuel_normed="56.282332" electricity_normed="0"
            traveltime="0.03" CO_perVeh="2.366037" CO2_perVeh="135.770692" HC_perVeh="0.013994" PMx_perVeh="0.002641" NOx_perVeh="0.057752" fuel_perVeh="0.058362" electricity_perVeh="0"/>
        <edge id=":1105984386_0" sampledSeconds="23.05" CO_abs="409.007161" CO2_abs="31734.630188" HC_abs="2.584608" PMx_abs="0.423099" NOx_abs="12.083764" fuel_abs="13.641503" electricity_abs="0"
            CO_normed="32.277595" CO2_normed="2504.400029" HC_normed="0.203969" PMx_normed="0.033390" NOx_normed="0.953614" fuel_normed="1.076546" electricity_normed="0"
            traveltime="0.97" CO_perVeh="17.165714" CO2_perVeh="1331.877849" HC_perVeh="0.108474" PMx_perVeh="0.017757" NOx_perVeh="0.507146" fuel_perVeh="0.572523" electricity_perVeh="0"/>
        <edge id=":1105984390_0" sampledSeconds="23.88" CO_abs="48.665186" CO2_abs="3617.462955" HC_abs="0.303066" PMx_abs="0.044312" NOx_abs="1.354547" fuel_abs="1.555016" electricity_abs="0"
            CO_normed="2.969055" CO2_normed="220.700817" HC_normed="0.018490" PMx_normed="0.002703" NOx_normed="0.082641" fuel_normed="0.094871" electricity_normed="0"
            traveltime="1.08" CO_perVeh="2.206942" CO2_perVeh="164.050169" HC_perVeh="0.013744" PMx_perVeh="0.002010" NOx_perVeh="0.061428" fuel_perVeh="0.070519" electricity_perVeh="0"/>
        <edge id=":1105984390_1" sampledSeconds="679.21" CO_abs="14898.835197" CO2_abs="1988102.195539" HC_abs="115.307712" PMx_abs="34.864185" NOx_abs="741.166027" fuel_abs="854.594225" electricity_abs="0"
            CO_normed="869.515000" CO2_normed="116028.176563" HC_normed="6.729505" PMx_normed="2.034718" NOx_normed="43.255393" fuel_normed="49.875208" electricity_normed="0"
            traveltime="0.64" CO_perVeh="13.969025" CO2_perVeh="1864.028166" HC_perVeh="0.108112" PMx_perVeh="0.032688" NOx_perVeh="0.694911" fuel_perVeh="0.801260" electricity_perVeh="0"/>
        <edge id=":1105984395_0" sampledSeconds="9.01" CO_abs="132.168238" CO2_abs="10560.599180" HC_abs="0.842953" PMx_abs="0.143715" NOx_abs="4.032726" fuel_abs="4.539590" electricity_abs="0"
            CO_normed="110.085156" CO2_normed="8796.101266" HC_normed="0.702109" PMx_normed="0.119703" NOx_normed="3.358925" fuel_normed="3.781101" electricity_normed="0"
            traveltime="0.09" CO_perVeh="1.340330" CO2_perVeh="107.096023" HC_perVeh="0.008548" PMx_perVeh="0.001457" NOx_perVeh="0.040896" fuel_perVeh="0.046036" electricity_perVeh="0"/>
        <edge id=":1105984398_0" sampledSeconds="23.07" CO_abs="1471.522366" CO2_abs="103077.984921" HC_abs="9.132092" PMx_abs="1.849043" NOx_abs="42.415409" fuel_abs="44.308667" electricity_abs="0"
            CO_normed="93.267440" CO2_normed="6533.247446" HC_normed="0.578807" PMx_normed="0.117195" NOx_normed="2.688356" fuel_normed="2.808354" electricity_normed="0"
            traveltime="1.10" CO_perVeh="70.163911" CO2_perVeh="4914.879155" HC_perVeh="0.435429" PMx_perVeh="0.088165" NOx_perVeh="2.022416" fuel_perVeh="2.112689" electricity_perVeh="0"/>
        <edge id=":1105984398_1" sampledSeconds="453.22" CO_abs="7927.527851" CO2_abs="947938.242656" HC_abs="57.662682" PMx_abs="13.330734" NOx_abs="356.682398" fuel_abs="407.478474" electricity_abs="0"
            CO_normed="486.367813" CO2_normed="58157.682784" HC_normed="3.537707" PMx_normed="0.817864" NOx_normed="21.883094" fuel_normed="24.999523" electricity_normed="0"
            traveltime="0.96" CO_perVeh="16.722345" CO2_perVeh="1999.583022" HC_perVeh="0.121634" PMx_perVeh="0.028120" NOx_perVeh="0.752387" fuel_perVeh="0.859536" electricity_perVeh="0"/>
        <edge id=":1106006327_0" sampledSeconds="102.73" CO_abs="13876.551892" CO2_abs="451047.070924" HC_abs="73.803693" PMx_abs="9.411946" NOx_abs="197.464264" fuel_abs="193.889187" electricity_abs="0"
            CO_normed="1200.154977" CO2_normed="39010.151174" HC_normed="6.383133" PMx_normed="0.814020" NOx_normed="17.078286" fuel_normed="16.769085" electricity_normed="0"
            traveltime="2.09" CO_perVeh="282.297598" CO2_perVeh="9175.874927" HC_perVeh="1.501425" PMx_perVeh="0.191472" NOx_perVeh="4.017114" fuel_perVeh="3.944384" electricity_perVeh="0"/>
        <edge id=":1106006327_1" sampledSeconds="161.41" CO_abs="21776.163958" CO2_abs="727158.795814" HC_abs="116.288487" PMx_abs="15.150967" NOx_abs="318.137958" fuel_abs="312.579387" electricity_abs="0"
            CO_normed="1642.393275" CO2_normed="54843.484766" HC_normed="8.770665" PMx_normed="1.142710" NOx_normed="23.994476" fuel_normed="23.575240" electricity_normed="0"
            traveltime="2.29" CO_perVeh="309.140713" CO2_perVeh="10322.956301" HC_perVeh="1.650865" PMx_perVeh="0.215088" NOx_perVeh="4.516378" fuel_perVeh="4.437467" electricity_perVeh="0"/>
        <edge id=":1106006327_2" sampledSeconds="0.00" CO_abs="0" CO2_abs="0" HC_abs="0" PMx_abs="0" NOx_abs="0" fuel_abs="0" electricity_abs="0"
            CO_normed="0" CO2_normed="0" HC_normed="0" PMx_normed="0" NOx_normed="0" fuel_normed="0" electricity_normed="0"/>
        <edge id=":1106006327_3" sampledSeconds="0.00" CO_abs="0" CO2_abs="0" HC_abs="0" PMx_abs="0" NOx_abs="0" fuel_abs="0" electricity_abs="0"
            CO_normed="0" CO2_normed="0" HC_normed="0" PMx_normed="0" NOx_normed="0" fuel_normed="0" electricity_normed="0"/>
        <edge id=":1107381198_0" sampledSeconds="0.00" CO_abs="0" CO2_abs="0" HC_abs="0" PMx_abs="0" NOx_abs="0" fuel_abs="0" electricity_abs="0"
            CO_normed="0" CO2_normed="0" HC_normed="0" PMx_normed="0" NOx_normed="0" fuel_normed="0" electricity_normed="0"/>
        <edge id=":1107381198_1" sampledSeconds="35.82" CO_abs="1326.238510" CO2_abs="55092.658739" HC_abs="7.309289" PMx_abs="0.951929" NOx_abs="22.819001" fuel_abs="23.682375" electricity_abs="0"
            CO_normed="110.826033" CO2_normed="4603.772817" HC_normed="0.610795" PMx_normed="0.079547" NOx_normed="1.906851" fuel_normed="1.978998" electricity_normed="0"
            traveltime="1.47" CO_perVeh="54.604917" CO2_perVeh="2268.317532" HC_perVeh="0.300944" PMx_perVeh="0.039194" NOx_perVeh="0.939522" fuel_perVeh="0.975069" electricity_perVeh="0"/>
        <edge id=":1110338277_0" sampledSeconds="97.08" CO_abs="1370.128606" CO2_abs="177097.114359" HC_abs="10.239444" PMx_abs="2.314581" NOx_abs="65.418516" fuel_abs="76.126726" electricity_abs="0"
            CO_normed="3749.667779" CO2_normed="484666.432291" HC_normed="28.022561" PMx_normed="6.334376" NOx_normed="179.032611" fuel_normed="208.338057" electricity_normed="0"
            traveltime="0.02" CO_perVeh="0.308784" CO2_perVeh="39.912100" HC_perVeh="0.002308" PMx_perVeh="0.000522" NOx_perVeh="0.014743" fuel_perVeh="0.017157" electricity_perVeh="0"/>
        <edge id=":1110338293_0" sampledSeconds="123.51" CO_abs="6045.906499" CO2_abs="423286.406694" HC_abs="37.456456" PMx_abs="7.296437" NOx_abs="172.340129" fuel_abs="181.952554" electricity_abs="0"
            CO_normed="15442.928477" CO2_normed="1081191.332551" HC_normed="95.674217" PMx_normed="18.637131" NOx_normed="440.204671" fuel_normed="464.757482" electricity_normed="0"
            traveltime="0.03" CO_perVeh="1.386729" CO2_perVeh="97.087750" HC_perVeh="0.008591" PMx_perVeh="0.001674" NOx_perVeh="0.039529" fuel_perVeh="0.041734" electricity_perVeh="0"/>
        <edge id=":1110338295_0" sampledSeconds="0.00" CO_abs="0" CO2_abs="0" HC_abs="0" PMx_abs="0" NOx_abs="0" fuel_abs="0" electricity_abs="0"
            CO_normed="0" CO2_normed="0" HC_normed="0" PMx_normed="0" NOx_normed="0" fuel_normed="0" electricity_normed="0"/>
        <edge id=":1110673403_0" sampledSeconds="143.62" CO_abs="2238.463167" CO2_abs="280057.729522" HC_abs="16.592139" PMx_abs="3.842452" NOx_abs="104.625116" fuel_abs="120.385028" electricity_abs="0"
            CO_normed="5717.658153" CO2_normed="715345.413848" HC_normed="42.380943" PMx_normed="9.814693" NOx_normed="267.241675" fuel_normed="307.496878" electricity_normed="0"
            traveltime="0.02" CO_perVeh="0.359402" CO2_perVeh="44.965321" HC_perVeh="0.002664" PMx_perVeh="0.000617" NOx_perVeh="0.016798" fuel_perVeh="0.019329" electricity_perVeh="0"/>
        <edge id=":1110673412_0" sampledSeconds="254.18" CO_abs="44998.240494" CO2_abs="3063876.588783" HC_abs="279.882079" PMx_abs="67.381085" NOx_abs="1317.439090" fuel_abs="1317.009601" electricity_abs="0"
            CO_normed="118901.414967" CO2_normed="8095855.697668" HC_normed="739.548366" PMx_normed="178.044882" NOx_normed="3481.144378" fuel_normed="3480.009516" electricity_normed="0"
            traveltime="0.02" CO_perVeh="2.763808" CO2_perVeh="188.184392" HC_perVeh="0.017190" PMx_perVeh="0.004139" NOx_perVeh="0.080918" fuel_perVeh="0.080891" electricity_perVeh="0"/>
        <edge id=":1110673414_0" sampledSeconds="0.00" CO_abs="0" CO2_abs="0" HC_abs="0" PMx_abs="0" NOx_abs="0" fuel_abs="0" electricity_abs="0"
            CO_normed="0" CO2_normed="0" HC_normed="0" PMx_normed="0" NOx_normed="0" fuel_normed="0" electricity_normed="0"/>
        <edge id=":1110673414_1" sampledSeconds="273.16" CO_abs="18985.273299" CO2_abs="718040.269242" HC_abs="103.086710" PMx_abs="13.121967" NOx_abs="302.322459" fuel_abs="308.660310" electricity_abs="0"
            CO_normed="1611.085509" CO2_normed="60932.716339" HC_normed="8.747912" PMx_normed="1.113527" NOx_normed="25.655008" fuel_normed="26.192836" electricity_normed="0"
            traveltime="1.58" CO_perVeh="110.097369" CO2_perVeh="4163.982449" HC_perVeh="0.597809" PMx_perVeh="0.076096" NOx_perVeh="1.753196" fuel_perVeh="1.789950" electricity_perVeh="0"/>
        <edge id=":1110673417_0" sampledSeconds="29.79" CO_abs="478.102629" CO2_abs="55663.343982" HC_abs="3.458130" PMx_abs="0.762243" NOx_abs="20.886091" fuel_abs="23.927351" electricity_abs="0"
            CO_normed="1308.436314" CO2_normed="152335.369408" HC_normed="9.463958" PMx_normed="2.086052" NOx_normed="57.159527" fuel_normed="65.482624" electricity_normed="0"
            traveltime="0.02" CO_perVeh="0.354854" CO2_perVeh="41.314079" HC_perVeh="0.002567" PMx_perVeh="0.000566" NOx_perVeh="0.015502" fuel_perVeh="0.017759" electricity_perVeh="0"/>
        <edge id=":1110673446_0" sampledSeconds="333.83" CO_abs="3628.589984" CO2_abs="283617.845883" HC_abs="23.273276" PMx_abs="5.340217" NOx_abs="117.095433" fuel_abs="121.914149" electricity_abs="0"
            CO_normed="9268.429078" CO2_normed="724438.942229" HC_normed="59.446426" PMx_normed="13.640401" NOx_normed="299.094336" fuel_normed="311.402680" electricity_normed="0"
            traveltime="0.02" CO_perVeh="0.247607" CO2_perVeh="19.353466" HC_perVeh="0.001588" PMx_perVeh="0.000364" NOx_perVeh="0.007990" fuel_perVeh="0.008319" electricity_perVeh="0"/>
        <edge id=":1110673451_0" sampledSeconds="37.69" CO_abs="352.815264" CO2_abs="25066.390442" HC_abs="2.178724" PMx_abs="0.350276" NOx_abs="9.678704" fuel_abs="10.775080" electricity_abs="0"
            CO_normed="1001.320459" CO2_normed="71140.600091" HC_normed="6.183409" PMx_normed="0.994114" NOx_normed="27.469006" fuel_normed="30.580615" electricity_normed="0"
            traveltime="0.03" CO_perVeh="0.253015" CO2_perVeh="17.975898" HC_perVeh="0.001562" PMx_perVeh="0.000251" NOx_perVeh="0.006941" fuel_perVeh="0.007727" electricity_perVeh="0"/>
        <edge id=":1110673464_0" sampledSeconds="323.65" CO_abs="785.110800" CO2_abs="59553.894594" HC_abs="4.938239" PMx_abs="0.837449" NOx_abs="22.950387" fuel_abs="25.599889" electricity_abs="0"
            CO_normed="42.607470" CO2_normed="3231.952427" HC_normed="0.267995" PMx_normed="0.045448" NOx_normed="1.245503" fuel_normed="1.389290" electricity_normed="0"
            traveltime="1.17" CO_perVeh="2.838072" CO2_perVeh="215.279472" HC_perVeh="0.017851" PMx_perVeh="0.003027" NOx_perVeh="0.082963" fuel_perVeh="0.092540" electricity_perVeh="0"/>
        <edge id=":1110673464_1" sampledSeconds="745.56" CO_abs="16743.382000" CO2_abs="2085130.690179" HC_abs="126.161122" PMx_abs="37.247139" NOx_abs="786.272350" fuel_abs="896.301802" electricity_abs="0"
            CO_normed="890.366258" CO2_normed="110881.422287" HC_normed="6.708896" PMx_normed="1.980699" NOx_normed="41.811766" fuel_normed="47.662825" electricity_normed="0"
            traveltime="0.70" CO_perVeh="15.745730" CO2_perVeh="1960.888487" HC_perVeh="0.118644" PMx_perVeh="0.035028" NOx_perVeh="0.739422" fuel_perVeh="0.842896" electricity_perVeh="0"/>
        <edge id=":1110673479_0" sampledSeconds="134.36" CO_abs="6090.902501" CO2_abs="427935.359117" HC_abs="37.768240" PMx_abs="7.362707" NOx_abs="174.126800" fuel_abs="183.950943" electricity_abs="0"
            CO_normed="15557.860795" CO2_normed="1093066.051383" HC_normed="96.470600" PMx_normed="18.806403" NOx_normed="444.768326" fuel_normed="469.861923" electricity_normed="0"
            traveltime="0.03" CO_perVeh="1.283110" CO2_perVeh="90.148883" HC_perVeh="0.007956" PMx_perVeh="0.001551" NOx_perVeh="0.036682" fuel_perVeh="0.038751" electricity_perVeh="0"/>
        <edge id=":1110673511_0" sampledSeconds="11.82" CO_abs="216.962177" CO2_abs="25751.583500" HC_abs="1.579394" PMx_abs="0.352075" NOx_abs="9.638714" fuel_abs="11.069531" electricity_abs="0"
            CO_normed="554.181805" CO2_normed="65776.713921" HC_normed="4.034213" PMx_normed="0.899298" NOx_normed="24.619960" fuel_normed="28.274664" electricity_normed="0"
            traveltime="0.02" CO_perVeh="0.429628" CO2_perVeh="50.993235" HC_perVeh="0.003128" PMx_perVeh="0.000697" NOx_perVeh="0.019087" fuel_perVeh="0.021920" electricity_perVeh="0"/>
        <edge id=":1110673517_0" sampledSeconds="16.97" CO_abs="877.904985" CO2_abs="62297.174019" HC_abs="5.468511" PMx_abs="1.120662" NOx_abs="25.623255" fuel_abs="26.778789" electricity_abs="0"
            CO_normed="2242.413756" CO2_normed="159124.326996" HC_normed="13.968101" PMx_normed="2.862482" NOx_normed="65.448928" fuel_normed="68.400482" electricity_normed="0"
            traveltime="0.03" CO_perVeh="1.409534" CO2_perVeh="100.022222" HC_perVeh="0.008780" PMx_perVeh="0.001799" NOx_perVeh="0.041140" fuel_perVeh="0.042995" electricity_perVeh="0"/>
        <edge id=":1110673534_0" sampledSeconds="473.41" CO_abs="3172.431808" CO2_abs="285761.825196" HC_abs="20.956807" PMx_abs="3.712888" NOx_abs="107.451140" fuel_abs="122.837859" electricity_abs="0"
            CO_normed="157.040196" CO2_normed="14145.644618" HC_normed="1.037394" PMx_normed="0.183794" NOx_normed="5.318995" fuel_normed="6.080661" electricity_normed="0"
            traveltime="1.43" CO_perVeh="9.557266" CO2_perVeh="860.885847" HC_perVeh="0.063134" PMx_perVeh="0.011185" NOx_perVeh="0.323707" fuel_perVeh="0.370061" electricity_perVeh="0"/>
        <edge id=":1110673534_1" sampledSeconds="185.29" CO_abs="2790.013174" CO2_abs="350321.456315" HC_abs="20.659200" PMx_abs="4.696632" NOx_abs="130.159035" fuel_abs="150.588600" electricity_abs="0"
            CO_normed="134.292785" CO2_normed="16862.158316" HC_normed="0.994397" PMx_normed="0.226065" NOx_normed="6.264995" fuel_normed="7.248339" electricity_normed="0"
            traveltime="1.23" CO_perVeh="18.524686" CO2_perVeh="2326.008702" HC_perVeh="0.137170" PMx_perVeh="0.031184" NOx_perVeh="0.864209" fuel_perVeh="0.999854" electricity_perVeh="0"/>
        <edge id=":1110673549_0" sampledSeconds="59.96" CO_abs="62.260736" CO2_abs="9882.812024" HC_abs="0.508131" PMx_abs="0.110640" NOx_abs="3.507228" fuel_abs="4.248232" electricity_abs="0"
            CO_normed="2.985568" CO2_normed="473.907136" HC_normed="0.024366" PMx_normed="0.005306" NOx_normed="0.168181" fuel_normed="0.203714" electricity_normed="0"
            traveltime="1.25" CO_perVeh="1.297149" CO2_perVeh="205.899970" HC_perVeh="0.010586" PMx_perVeh="0.002305" NOx_perVeh="0.073070" fuel_perVeh="0.088508" electricity_perVeh="0"/>
        <edge id=":1110673549_1" sampledSeconds="638.99" CO_abs="13504.776958" CO2_abs="1806441.466074" HC_abs="104.524289" PMx_abs="31.604951" NOx_abs="672.907445" fuel_abs="776.506659" electricity_abs="0"
            CO_normed="626.421797" CO2_normed="83792.150978" HC_normed="4.848380" PMx_normed="1.466002" NOx_normed="31.212947" fuel_normed="36.018418" electricity_normed="0"
            traveltime="0.80" CO_perVeh="17.001814" CO2_perVeh="2274.216148" HC_perVeh="0.131591" PMx_perVeh="0.039789" NOx_perVeh="0.847156" fuel_perVeh="0.977582" electricity_perVeh="0"/>
        <edge id=":1110673556_0" sampledSeconds="420.18" CO_abs="51494.481402" CO2_abs="2573746.754557" HC_abs="295.655749" PMx_abs="51.873593" NOx_abs="1108.245539" fuel_abs="1106.342530" electricity_abs="0"
            CO_normed="1831.061379" CO2_normed="91518.317183" HC_normed="10.513045" PMx_normed="1.844542" NOx_normed="39.407438" fuel_normed="39.339770" electricity_normed="0"
            traveltime="2.61" CO_perVeh="319.652631" CO2_perVeh="15976.564858" HC_perVeh="1.835287" PMx_perVeh="0.322006" NOx_perVeh="6.879448" fuel_perVeh="6.867635" electricity_perVeh="0"/>
        <edge id=":1110673556_2" sampledSeconds="247.25" CO_abs="23871.712774" CO2_abs="1031065.024453" HC_abs="132.904926" PMx_abs="19.845135" NOx_abs="439.423539" fuel_abs="443.214355" electricity_abs="0"
            CO_normed="887.554595" CO2_normed="38335.183956" HC_normed="4.941429" PMx_normed="0.737846" NOx_normed="16.337847" fuel_normed="16.478790" electricity_normed="0"
            traveltime="3.00" CO_perVeh="289.559301" CO2_perVeh="12506.621165" HC_perVeh="1.612111" PMx_perVeh="0.240718" NOx_perVeh="5.330123" fuel_perVeh="5.376105" electricity_perVeh="0"/>
        <edge id=":1110673556_3" sampledSeconds="361.96" CO_abs="31825.929262" CO2_abs="1127286.143259" HC_abs="171.154582" PMx_abs="21.539663" NOx_abs="480.946969" fuel_abs="484.581015" electricity_abs="0"
            CO_normed="2691.797490" CO2_normed="95344.459098" HC_normed="14.476042" PMx_normed="1.821798" NOx_normed="40.677896" fuel_normed="40.985259" electricity_normed="0"
            traveltime="1.75" CO_perVeh="153.524151" CO2_perVeh="5437.882000" HC_perVeh="0.825627" PMx_perVeh="0.103905" NOx_perVeh="2.320026" fuel_perVeh="2.337556" electricity_perVeh="0"/>
        <edge id=":1110673556_4" sampledSeconds="183.30" CO_abs="19275.656582" CO2_abs="773645.559298" HC_abs="105.914081" PMx_abs="15.042937" NOx_abs="331.180395" fuel_abs="332.560722" electricity_abs="0"
            CO_normed="995.995824" CO2_normed="39975.175064" HC_normed="5.472705" PMx_normed="0.777286" NOx_normed="17.112480" fuel_normed="17.183803" electricity_normed="0"
            traveltime="2.39" CO_perVeh="251.715321" CO2_perVeh="10102.817481" HC_perVeh="1.383102" PMx_perVeh="0.196441" NOx_perVeh="4.324791" fuel_perVeh="4.342816" electricity_perVeh="0"/>
        <edge id=":1110673556_5" sampledSeconds="24.96" CO_abs="2337.889090" CO2_abs="93052.611701" HC_abs="12.830547" PMx_abs="1.827324" NOx_abs="39.952446" fuel_abs="39.999758" electricity_abs="0"
            CO_normed="168.372734" CO2_normed="6701.567979" HC_normed="0.924045" PMx_normed="0.131602" NOx_normed="2.877340" fuel_normed="2.880748" electricity_normed="0"
            traveltime="1.73" CO_perVeh="161.631838" CO2_perVeh="6433.266982" HC_perVeh="0.887050" PMx_perVeh="0.126334" NOx_perVeh="2.762144" fuel_perVeh="2.765415" electricity_perVeh="0"/>
        <edge id=":1110673556_6" sampledSeconds="309.27" CO_abs="36651.262121" CO2_abs="1880268.559045" HC_abs="211.583838" PMx_abs="37.696698" NOx_abs="807.750292" fuel_abs="808.245755" electricity_abs="0"
            CO_normed="1336.120758" CO2_normed="68545.138877" HC_normed="7.713283" PMx_normed="1.374232" NOx_normed="29.446515" fuel_normed="29.464577" electricity_normed="0"
            traveltime="2.45" CO_perVeh="290.248513" CO2_perVeh="14890.214448" HC_perVeh="1.675574" PMx_perVeh="0.298528" NOx_perVeh="6.396733" fuel_perVeh="6.400656" electricity_perVeh="0"/>
        <edge id=":1110673561_0" sampledSeconds="100.91" CO_abs="9900.202530" CO2_abs="702767.706357" HC_abs="61.940990" PMx_abs="14.293030" NOx_abs="297.846313" fuel_abs="302.086285" electricity_abs="0"
            CO_normed="453.458583" CO2_normed="32188.841316" HC_normed="2.837081" PMx_normed="0.654663" NOx_normed="13.642243" fuel_normed="13.836446" electricity_normed="0"
            traveltime="1.19" CO_perVeh="116.831999" CO2_perVeh="8293.341041" HC_perVeh="0.730964" PMx_perVeh="0.168672" NOx_perVeh="3.514876" fuel_perVeh="3.564911" electricity_perVeh="0"/>
        <edge id=":1110673561_1" sampledSeconds="1315.96" CO_abs="122060.969375" CO2_abs="8434095.362979" HC_abs="759.940237" PMx_abs="176.621942" NOx_abs="3608.704557" fuel_abs="3625.409969" electricity_abs="0"
            CO_normed="5450.659083" CO2_normed="376626.359215" HC_normed="33.935296" PMx_normed="7.887091" NOx_normed="161.147485" fuel_normed="161.893469" electricity_normed="0"
            traveltime="1.19" CO_perVeh="110.588308" CO2_perVeh="7641.364328" HC_perVeh="0.688513" PMx_perVeh="0.160021" NOx_perVeh="3.269518" fuel_perVeh="3.284653" electricity_perVeh="0"/>
        <edge id=":1110673562_0" sampledSeconds="104.80" CO_abs="2045.423280" CO2_abs="162430.698001" HC_abs="13.008212" PMx_abs="2.138309" NOx_abs="61.561292" fuel_abs="69.822752" electricity_abs="0"
            CO_normed="5805.089485" CO2_normed="460992.473395" HC_normed="36.918440" PMx_normed="6.068709" NOx_normed="174.716311" fuel_normed="198.163055" electricity_normed="0"
            traveltime="0.03" CO_perVeh="0.521388" CO2_perVeh="41.404324" HC_perVeh="0.003316" PMx_perVeh="0.000545" NOx_perVeh="0.015692" fuel_perVeh="0.017798" electricity_perVeh="0"/>
        <edge id=":1110673564_0" sampledSeconds="28.60" CO_abs="609.970646" CO2_abs="67510.358563" HC_abs="4.324214" PMx_abs="0.961031" NOx_abs="25.569762" fuel_abs="29.019855" electricity_abs="0"
            CO_normed="4674.104564" CO2_normed="517320.755270" HC_normed="33.135743" PMx_normed="7.364224" NOx_normed="195.936874" fuel_normed="222.374371" electricity_normed="0"
            traveltime="7.862895e-03" CO_perVeh="0.167690" CO2_perVeh="18.559549" HC_perVeh="0.001189" PMx_perVeh="0.000264" NOx_perVeh="0.007029" fuel_perVeh="0.007978" electricity_perVeh="0"/>
        <edge id=":1110673588_0" sampledSeconds="11.66" CO_abs="124.860543" CO2_abs="18817.134224" HC_abs="0.994353" PMx_abs="0.231064" NOx_abs="6.823364" fuel_abs="8.088717" electricity_abs="0"
            CO_normed="382.714309" CO2_normed="57677.039766" HC_normed="3.047825" PMx_normed="0.708242" NOx_normed="20.914525" fuel_normed="24.793001" electricity_normed="0"
            traveltime="0.02" CO_perVeh="0.208101" CO2_perVeh="31.361890" HC_perVeh="0.001657" PMx_perVeh="0.000385" NOx_perVeh="0.011372" fuel_perVeh="0.013481" electricity_perVeh="0"/>
        <edge id=":1110673601_0" sampledSeconds="29.87" CO_abs="496.294408" CO2_abs="53067.683261" HC_abs="3.487291" PMx_abs="0.753049" NOx_abs="20.155948" fuel_abs="22.811572" electricity_abs="0"
            CO_normed="1358.222245" CO2_normed="145231.754957" HC_normed="9.543764" PMx_normed="2.060890" NOx_normed="55.161325" fuel_normed="62.429041" electricity_normed="0"
            traveltime="0.02" CO_perVeh="0.368356" CO2_perVeh="39.387545" HC_perVeh="0.002588" PMx_perVeh="0.000559" NOx_perVeh="0.014960" fuel_perVeh="0.016931" electricity_perVeh="0"/>
        <edge id=":1110673617_0" sampledSeconds="247.87" CO_abs="6062.087990" CO2_abs="747957.928885" HC_abs="45.485574" PMx_abs="13.400219" NOx_abs="282.436509" fuel_abs="321.512688" electricity_abs="0"
            CO_normed="15484.260512" CO2_normed="1910492.794087" HC_normed="116.182820" PMx_normed="34.227889" NOx_normed="721.421480" fuel_normed="821.232919" electricity_normed="0"
            traveltime="0.01" CO_perVeh="0.357269" CO2_perVeh="44.080888" HC_perVeh="0.002681" PMx_perVeh="0.000790" NOx_perVeh="0.016645" fuel_perVeh="0.018948" electricity_perVeh="0"/>
        <edge id=":1110673621_0" sampledSeconds="25.98" CO_abs="539.719040" CO2_abs="59229.494628" HC_abs="3.808542" PMx_abs="0.834211" NOx_abs="22.402220" fuel_abs="25.460275" electricity_abs="0"
            CO_normed="1654.311234" CO2_normed="181546.343687" HC_normed="11.673693" PMx_normed="2.556967" NOx_normed="68.665809" fuel_normed="78.039158" electricity_normed="0"
            traveltime="0.02" CO_perVeh="0.408878" CO2_perVeh="44.870829" HC_perVeh="0.002885" PMx_perVeh="0.000632" NOx_perVeh="0.016971" fuel_perVeh="0.019288" electricity_perVeh="0"/>
        <edge id=":1110673630_0" sampledSeconds="54.45" CO_abs="99.503949" CO2_abs="8492.152653" HC_abs="0.643600" PMx_abs="0.096153" NOx_abs="3.107443" fuel_abs="3.650471" electricity_abs="0"
            CO_normed="5.438533" CO2_normed="464.150975" HC_normed="0.035177" PMx_normed="0.005255" NOx_normed="0.169842" fuel_normed="0.199522" electricity_normed="0"
            traveltime="1.27" CO_perVeh="2.322598" CO2_perVeh="198.221864" HC_perVeh="0.015023" PMx_perVeh="0.002244" NOx_perVeh="0.072533" fuel_perVeh="0.085208" electricity_perVeh="0"/>
        <edge id=":1110673630_1" sampledSeconds="7.23" CO_abs="27.787348" CO2_abs="3012.096609" HC_abs="0.194047" PMx_abs="0.031906" NOx_abs="1.078706" fuel_abs="1.294790" electricity_abs="0"
            CO_normed="1.851564" CO2_normed="200.706088" HC_normed="0.012930" PMx_normed="0.002126" NOx_normed="0.071878" fuel_normed="0.086276" electricity_normed="0"
            traveltime="1.02" CO_perVeh="3.932978" CO2_perVeh="426.327520" HC_perVeh="0.027465" PMx_perVeh="0.004516" NOx_perVeh="0.152678" fuel_perVeh="0.183263" electricity_perVeh="0"/>
        <edge id=":1110673650_0" sampledSeconds="143.30" CO_abs="2204.524537" CO2_abs="286409.491882" HC_abs="16.572158" PMx_abs="3.818359" NOx_abs="106.182085" fuel_abs="123.115492" electricity_abs="0"
            CO_normed="5630.969444" CO2_normed="731569.583351" HC_normed="42.329907" PMx_normed="9.753151" NOx_normed="271.218608" fuel_normed="314.471244" electricity_normed="0"
            traveltime="0.02" CO_perVeh="0.353951" CO2_perVeh="45.984933" HC_perVeh="0.002661" PMx_perVeh="0.000613" NOx_perVeh="0.017048" fuel_perVeh="0.019767" electricity_perVeh="0"/>
        <edge id=":1110673655_0" sampledSeconds="45.17" CO_abs="696.172601" CO2_abs="77665.347444" HC_abs="4.950176" PMx_abs="1.090202" NOx_abs="29.336131" fuel_abs="33.385074" electricity_abs="0"
            CO_normed="1778.218649" CO2_normed="198378.920673" HC_normed="12.644127" PMx_normed="2.784679" NOx_normed="74.932647" fuel_normed="85.274775" electricity_normed="0"
            traveltime="0.02" CO_perVeh="0.372584" CO2_perVeh="41.565613" HC_perVeh="0.002649" PMx_perVeh="0.000583" NOx_perVeh="0.015700" fuel_perVeh="0.017867" electricity_perVeh="0"/>
        <edge id=":1110673663_0" sampledSeconds="108.98" CO_abs="1712.182220" CO2_abs="204991.883676" HC_abs="12.423957" PMx_abs="2.818665" NOx_abs="76.726754" fuel_abs="88.117413" electricity_abs="0"
            CO_normed="80.098720" CO2_normed="9589.859780" HC_normed="0.581213" PMx_normed="0.131862" NOx_normed="3.589405" fuel_normed="4.122279" electricity_normed="0"
            traveltime="1.28" CO_perVeh="20.110388" CO2_perVeh="2407.726380" HC_perVeh="0.145925" PMx_perVeh="0.033107" NOx_perVeh="0.901192" fuel_perVeh="1.034981" electricity_perVeh="0"/>
        <edge id=":1110673663_1" sampledSeconds="154.10" CO_abs="2477.942708" CO2_abs="310241.516914" HC_abs="18.321903" PMx_abs="4.227356" NOx_abs="115.627330" fuel_abs="133.359811" electricity_abs="0"
            CO_normed="116.063978" CO2_normed="14531.354716" HC_normed="0.858177" PMx_normed="0.198004" NOx_normed="5.415851" fuel_normed="6.246420" electricity_normed="0"
            traveltime="1.25" CO_perVeh="20.034975" CO2_perVeh="2508.403874" HC_perVeh="0.148139" PMx_perVeh="0.034180" NOx_perVeh="0.934885" fuel_perVeh="1.078258" electricity_perVeh="0"/>
        <edge id=":1110673666_0" sampledSeconds="191.75" CO_abs="3947.987417" CO2_abs="313942.333015" HC_abs="25.130999" PMx_abs="4.270463" NOx_abs="119.892046" fuel_abs="134.951597" electricity_abs="0"