<?xml version="1.0" encoding="UTF-8"?>

<!-- generated on Tue Nov 10 16:41:43 2020 by Eclipse SUMO sumo Version 1.7.0
<configuration xmlns:xsi="http://www.w3.org/2001/XMLSchema-instance" xsi:noNamespaceSchemaLocation="http://sumo.dlr.de/xsd/sumoConfiguration.xsd">

    <input>
        <net-file value="../dataSets/Porto/8AM9AM_Routing_SaoBento/Porto.net.xml"/>
        <route-files value="../results/Porto/8AM9AM_Routing_SaoBento/cost_PMx-cost_co/solution3/Porto.rou.xml"/>
        <additional-files value="moreOutputInfo.xml"/>
    </input>

    <output>
        <emission-output.precision value="6"/>
        <tripinfo-output value="../results/Porto/8AM9AM_Routing_SaoBento/cost_PMx-cost_co/solution3/Porto-tripinfo"/>
    </output>

    <processing>
        <collision.action value="warn"/>
        <time-to-teleport value="-1"/>
    </processing>

    <emissions>
        <device.emissions.probability value="1"/>
    </emissions>

    <gui_only>
        <quit-on-end value="true"/>
        <start value="true"/>
    </gui_only>

</configuration>
-->

<meandata xmlns:xsi="http://www.w3.org/2001/XMLSchema-instance" xsi:noNamespaceSchemaLocation="http://sumo.dlr.de/xsd/meandata_file.xsd">
    <interval begin="0.00" end="9528.00" id="emissions-detector">
        <edge id=":1092997347_0" sampledSeconds="597.31" CO_abs="72831.290658" CO2_abs="3102625.007541" HC_abs="405.019221" PMx_abs="62.744736" NOx_abs="1342.405433" fuel_abs="1333.692793" electricity_abs="0"
            CO_normed="62541.181582" CO2_normed="2664264.661845" HC_normed="347.795301" PMx_normed="53.879725" NOx_normed="1152.741097" fuel_normed="1145.259440" electricity_normed="0"
            traveltime="0.07" CO_perVeh="8.325120" CO2_perVeh="354.651478" HC_perVeh="0.046296" PMx_perVeh="0.007172" NOx_perVeh="0.153446" fuel_perVeh="0.152450" electricity_perVeh="0"/>
        <edge id=":1103427051_0" sampledSeconds="19.20" CO_abs="1605.445961" CO2_abs="91235.414873" HC_abs="9.477276" PMx_abs="1.790774" NOx_abs="38.919542" fuel_abs="39.218054" electricity_abs="0"
            CO_normed="2091.695424" CO2_normed="118868.342143" HC_normed="12.347706" PMx_normed="2.333155" NOx_normed="50.707298" fuel_normed="51.096223" electricity_normed="0"
            traveltime="0.03" CO_perVeh="2.496672" CO2_perVeh="141.882616" HC_perVeh="0.014738" PMx_perVeh="0.002785" NOx_perVeh="0.060525" fuel_perVeh="0.060989" electricity_perVeh="0"/>
        <edge id=":1105984386_0" sampledSeconds="10.77" CO_abs="119.898489" CO2_abs="9890.368063" HC_abs="0.768857" PMx_abs="0.118848" NOx_abs="3.675211" fuel_abs="4.251505" electricity_abs="0"
            CO_normed="4.665468" CO2_normed="384.852202" HC_normed="0.029918" PMx_normed="0.004625" NOx_normed="0.143009" fuel_normed="0.165434" electricity_normed="0"
            traveltime="1.03" CO_perVeh="11.501821" CO2_perVeh="948.779627" HC_perVeh="0.073756" PMx_perVeh="0.011401" NOx_perVeh="0.352562" fuel_perVeh="0.407845" electricity_perVeh="0"/>
        <edge id=":1105984390_0" sampledSeconds="10.37" CO_abs="0" CO2_abs="0" HC_abs="0" PMx_abs="0" NOx_abs="0" fuel_abs="0" electricity_abs="0"
            CO_normed="0" CO2_normed="0" HC_normed="0" PMx_normed="0" NOx_normed="0" fuel_normed="0" electricity_normed="0"
            traveltime="1.07" CO_perVeh="0" CO2_perVeh="0" HC_perVeh="0" PMx_perVeh="0" NOx_perVeh="0" fuel_perVeh="0" electricity_perVeh="0"/>
        <edge id=":1105984390_1" sampledSeconds="2396.40" CO_abs="63449.694456" CO2_abs="7515961.466011" HC_abs="468.322369" PMx_abs="135.785001" NOx_abs="2861.395706" fuel_abs="3230.764642" electricity_abs="0"
            CO_normed="1825.851957" CO2_normed="216282.096666" HC_normed="13.476618" PMx_normed="3.907400" NOx_normed="82.340585" fuel_normed="92.969682" electricity_normed="0"
            traveltime="0.65" CO_perVeh="17.128555" CO2_perVeh="2028.970574" HC_perVeh="0.126426" PMx_perVeh="0.036656" NOx_perVeh="0.772448" fuel_perVeh="0.872161" electricity_perVeh="0"/>
        <edge id=":1105984395_0" sampledSeconds="4.12" CO_abs="102.367492" CO2_abs="7352.049327" HC_abs="0.631842" PMx_abs="0.091531" NOx_abs="2.765230" fuel_abs="3.160380" electricity_abs="0"
            CO_normed="42.041189" CO2_normed="3019.404772" HC_normed="0.259490" PMx_normed="0.037591" NOx_normed="1.135649" fuel_normed="1.297933" electricity_normed="0"
            traveltime="0.10" CO_perVeh="2.372842" CO2_perVeh="170.417873" HC_perVeh="0.014646" PMx_perVeh="0.002122" NOx_perVeh="0.064097" fuel_perVeh="0.073256" electricity_perVeh="0"/>
        <edge id=":1105984398_0" sampledSeconds="11.44" CO_abs="844.614722" CO2_abs="54248.069339" HC_abs="5.130022" PMx_abs="1.013743" NOx_abs="22.669982" fuel_abs="23.318835" electricity_abs="0"
            CO_normed="26.395695" CO2_normed="1695.347530" HC_normed="0.160322" PMx_normed="0.031681" NOx_normed="0.708477" fuel_normed="0.728755" electricity_normed="0"
            traveltime="1.22" CO_perVeh="90.240745" CO2_perVeh="5795.999139" HC_perVeh="0.548104" PMx_perVeh="0.108311" NOx_perVeh="2.422118" fuel_perVeh="2.491443" electricity_perVeh="0"/>
        <edge id=":1105984398_1" sampledSeconds="644.87" CO_abs="11176.074502" CO2_abs="1321261.101375" HC_abs="80.952153" PMx_abs="18.851607" NOx_abs="498.721789" fuel_abs="567.953853" electricity_abs="0"
            CO_normed="338.086323" CO2_normed="39969.338737" HC_normed="2.448876" PMx_normed="0.570278" NOx_normed="15.086783" fuel_normed="17.181116" electricity_normed="0"
            traveltime="0.95" CO_perVeh="16.514840" CO2_perVeh="1952.422142" HC_perVeh="0.119623" PMx_perVeh="0.027857" NOx_perVeh="0.736959" fuel_perVeh="0.839263" electricity_perVeh="0"/>
        <edge id=":1106006327_0" sampledSeconds="69.54" CO_abs="9389.137174" CO2_abs="298656.265962" HC_abs="49.778562" PMx_abs="6.237904" NOx_abs="130.765599" fuel_abs="128.381934" electricity_abs="0"
            CO_normed="400.398751" CO2_normed="12736.164545" HC_normed="2.122801" PMx_normed="0.266015" NOx_normed="5.576485" fuel_normed="5.474834" electricity_normed="0"
            traveltime="2.16" CO_perVeh="291.059639" CO2_perVeh="9258.229301" HC_perVeh="1.543116" PMx_perVeh="0.193373" NOx_perVeh="4.053683" fuel_perVeh="3.979791" electricity_perVeh="0"/>
        <edge id=":1106006327_1" sampledSeconds="684.64" CO_abs="92614.060275" CO2_abs="3088867.266769" HC_abs="494.498857" PMx_abs="64.432709" NOx_abs="1351.808221" fuel_abs="1327.792821" electricity_abs="0"
            CO_normed="3444.165156" CO2_normed="114869.912636" HC_normed="18.389602" PMx_normed="2.396147" NOx_normed="50.271533" fuel_normed="49.378439" electricity_normed="0"
            traveltime="2.30" CO_perVeh="310.882983" CO2_perVeh="10368.579764" HC_perVeh="1.659913" PMx_perVeh="0.216285" NOx_perVeh="4.537693" fuel_perVeh="4.457079" electricity_perVeh="0"/>
        <edge id=":1106006327_2" sampledSeconds="0.00" CO_abs="0" CO2_abs="0" HC_abs="0" PMx_abs="0" NOx_abs="0" fuel_abs="0" electricity_abs="0"
            CO_normed="0" CO2_normed="0" HC_normed="0" PMx_normed="0" NOx_normed="0" fuel_normed="0" electricity_normed="0"/>
        <edge id=":1106006327_3" sampledSeconds="0.00" CO_abs="0" CO2_abs="0" HC_abs="0" PMx_abs="0" NOx_abs="0" fuel_abs="0" electricity_abs="0"
            CO_normed="0" CO2_normed="0" HC_normed="0" PMx_normed="0" NOx_normed="0" fuel_normed="0" electricity_normed="0"/>
        <edge id=":1107381198_0" sampledSeconds="0.00" CO_abs="0" CO2_abs="0" HC_abs="0" PMx_abs="0" NOx_abs="0" fuel_abs="0" electricity_abs="0"
            CO_normed="0" CO2_normed="0" HC_normed="0" PMx_normed="0" NOx_normed="0" fuel_normed="0" electricity_normed="0"/>
        <edge id=":1107381198_1" sampledSeconds="103.51" CO_abs="4924.781858" CO2_abs="194805.313872" HC_abs="26.913959" PMx_abs="3.393299" NOx_abs="80.910054" fuel_abs="83.740032" electricity_abs="0"
            CO_normed="202.916992" CO2_normed="8026.611000" HC_normed="1.108942" PMx_normed="0.139815" NOx_normed="3.333757" fuel_normed="3.450361" electricity_normed="0"
            traveltime="1.55" CO_perVeh="73.733427" CO2_perVeh="2916.609078" HC_perVeh="0.402954" PMx_perVeh="0.050804" NOx_perVeh="1.211379" fuel_perVeh="1.253749" electricity_perVeh="0"/>
        <edge id=":1110338277_0" sampledSeconds="160.94" CO_abs="2794.682000" CO2_abs="329308.477377" HC_abs="20.274277" PMx_abs="4.584115" NOx_abs="123.816013" fuel_abs="141.555855" electricity_abs="0"
            CO_normed="3771.161389" CO2_normed="444370.921254" HC_normed="27.358236" PMx_normed="6.185834" NOx_normed="167.078103" fuel_normed="191.016357" electricity_normed="0"
            traveltime="0.02" CO_perVeh="0.378513" CO2_perVeh="44.601704" HC_perVeh="0.002746" PMx_perVeh="0.000621" NOx_perVeh="0.016770" fuel_perVeh="0.019172" electricity_perVeh="0"/>
        <edge id=":1110338293_0" sampledSeconds="6688.35" CO_abs="642748.296093" CO2_abs="11201206.124253" HC_abs="3188.685601" PMx_abs="267.587165" NOx_abs="5065.237988" fuel_abs="4815.211817" electricity_abs="0"
            CO_normed="809506.670143" CO2_normed="14107312.499059" HC_normed="4015.976827" PMx_normed="337.011543" NOx_normed="6379.392932" fuel_normed="6064.498510" electricity_normed="0"
            traveltime="0.45" CO_perVeh="42.950582" CO2_perVeh="748.501896" HC_perVeh="0.213079" PMx_perVeh="0.017881" NOx_perVeh="0.338476" fuel_perVeh="0.321768" electricity_perVeh="0"/>
        <edge id=":1110338295_0" sampledSeconds="0.00" CO_abs="0" CO2_abs="0" HC_abs="0" PMx_abs="0" NOx_abs="0" fuel_abs="0" electricity_abs="0"
            CO_normed="0" CO2_normed="0" HC_normed="0" PMx_normed="0" NOx_normed="0" fuel_normed="0" electricity_normed="0"/>
        <edge id=":1110673403_0" sampledSeconds="200.23" CO_abs="3100.634872" CO2_abs="390509.958181" HC_abs="23.023569" PMx_abs="5.285577" NOx_abs="145.431682" fuel_abs="167.863882" electricity_abs="0"
            CO_normed="3905.081703" CO2_normed="491826.143805" HC_normed="28.996938" PMx_normed="6.656898" NOx_normed="183.163328" fuel_normed="211.415468" electricity_normed="0"
            traveltime="0.02" CO_perVeh="0.358358" CO2_perVeh="45.133485" HC_perVeh="0.002661" PMx_perVeh="0.000611" NOx_perVeh="0.016808" fuel_perVeh="0.019401" electricity_perVeh="0"/>
        <edge id=":1110673412_0" sampledSeconds="940.06" CO_abs="166267.360146" CO2_abs="11354930.702496" HC_abs="1034.980307" PMx_abs="249.480319" NOx_abs="4878.930653" fuel_abs="4880.925449" electricity_abs="0"
            CO_normed="216625.588656" CO2_normed="14794055.462299" HC_normed="1348.449979" PMx_normed="325.041674" NOx_normed="6356.636827" fuel_normed="6359.235797" electricity_normed="0"
            traveltime="0.02" CO_perVeh="2.745873" CO2_perVeh="187.524471" HC_perVeh="0.017092" PMx_perVeh="0.004120" NOx_perVeh="0.080575" fuel_perVeh="0.080608" electricity_perVeh="0"/>
        <edge id=":1110673414_0" sampledSeconds="0.00" CO_abs="0" CO2_abs="0" HC_abs="0" PMx_abs="0" NOx_abs="0" fuel_abs="0" electricity_abs="0"
            CO_normed="0" CO2_normed="0" HC_normed="0" PMx_normed="0" NOx_normed="0" fuel_normed="0" electricity_normed="0"/>
        <edge id=":1110673414_1" sampledSeconds="242.47" CO_abs="17566.774732" CO2_abs="669715.642147" HC_abs="95.542406" PMx_abs="12.390042" NOx_abs="282.883199" fuel_abs="287.886905" electricity_abs="0"
            CO_normed="735.029948" CO2_normed="28022.278473" HC_normed="3.997691" PMx_normed="0.518425" NOx_normed="11.836414" fuel_normed="12.045780" electricity_normed="0"
            traveltime="1.57" CO_perVeh="113.974892" CO2_perVeh="4345.178296" HC_perVeh="0.619888" PMx_perVeh="0.080388" NOx_perVeh="1.835373" fuel_perVeh="1.867837" electricity_perVeh="0"/>
        <edge id=":1110673417_0" sampledSeconds="28.98" CO_abs="586.607997" CO2_abs="61753.150332" HC_abs="4.097275" PMx_abs="0.883833" NOx_abs="23.489745" fuel_abs="26.545087" electricity_abs="0"
            CO_normed="791.572504" CO2_normed="83330.087710" HC_normed="5.528889" PMx_normed="1.192650" NOx_normed="31.697209" fuel_normed="35.820106" electricity_normed="0"
            traveltime="0.02" CO_perVeh="0.447317" CO2_perVeh="47.089741" HC_perVeh="0.003124" PMx_perVeh="0.000674" NOx_perVeh="0.017912" fuel_perVeh="0.020242" electricity_perVeh="0"/>
        <edge id=":1110673446_0" sampledSeconds="1311.56" CO_abs="13411.399539" CO2_abs="1088164.055269" HC_abs="86.858508" PMx_abs="20.007822" NOx_abs="445.317060" fuel_abs="467.751602" electricity_abs="0"
            CO_normed="16890.931409" CO2_normed="1370483.696812" HC_normed="109.393587" PMx_normed="25.198768" NOx_normed="560.852720" fuel_normed="589.107811" electricity_normed="0"
            traveltime="0.02" CO_perVeh="0.232811" CO2_perVeh="18.889667" HC_perVeh="0.001508" PMx_perVeh="0.000347" NOx_perVeh="0.007730" fuel_perVeh="0.008120" electricity_perVeh="0"/>
        <edge id=":1110673451_0" sampledSeconds="36.71" CO_abs="504.148620" CO2_abs="34329.148460" HC_abs="3.077441" PMx_abs="0.475053" NOx_abs="13.243426" fuel_abs="14.756807" electricity_abs="0"
            CO_normed="705.497649" CO2_normed="48039.670389" HC_normed="4.306523" PMx_normed="0.664782" NOx_normed="18.532642" fuel_normed="20.650444" electricity_normed="0"
            traveltime="0.03" CO_perVeh="0.371446" CO2_perVeh="25.292993" HC_perVeh="0.002267" PMx_perVeh="0.000350" NOx_perVeh="0.009757" fuel_perVeh="0.010873" electricity_perVeh="0"/>
        <edge id=":1110673464_0" sampledSeconds="1040.32" CO_abs="3774.447637" CO2_abs="268002.664890" HC_abs="23.331083" PMx_abs="3.948840" NOx_abs="104.748676" fuel_abs="115.203757" electricity_abs="0"
            CO_normed="100.999555" CO2_normed="7171.420165" HC_normed="0.624311" PMx_normed="0.105666" NOx_normed="2.802945" fuel_normed="3.082710" electricity_normed="0"
            traveltime="1.23" CO_perVeh="4.475971" CO2_perVeh="317.813947" HC_perVeh="0.027667" PMx_perVeh="0.004683" NOx_perVeh="0.124217" fuel_perVeh="0.136616" electricity_perVeh="0"/>
        <edge id=":1110673464_1" sampledSeconds="2600.06" CO_abs="65927.602758" CO2_abs="7889970.457776" HC_abs="488.246630" PMx_abs="141.772505" NOx_abs="3000.269946" fuel_abs="3391.534247" electricity_abs="0"
            CO_normed="1728.638000" CO2_normed="206876.970874" HC_normed="12.801947" PMx_normed="3.717310" NOx_normed="78.667818" fuel_normed="88.926864" electricity_normed="0"
            traveltime="0.72" CO_perVeh="18.178370" CO2_perVeh="2175.519770" HC_perVeh="0.134625" PMx_perVeh="0.039091" NOx_perVeh="0.827271" fuel_perVeh="0.935156" electricity_perVeh="0"/>
        <edge id=":1110673479_0" sampledSeconds="134.14" CO_abs="6822.735091" CO2_abs="466274.870908" HC_abs="42.030806" PMx_abs="8.223640" NOx_abs="191.177916" fuel_abs="200.431280" electricity_abs="0"
            CO_normed="8592.865353" CO2_normed="587247.948246" HC_normed="52.935524" PMx_normed="10.357229" NOx_normed="240.778232" fuel_normed="252.432343" electricity_normed="0"
            traveltime="0.03" CO_perVeh="1.442388" CO2_perVeh="98.574723" HC_perVeh="0.008886" PMx_perVeh="0.001739" NOx_perVeh="0.040417" fuel_perVeh="0.042373" electricity_perVeh="0"/>
        <edge id=":1110673511_0" sampledSeconds="63.50" CO_abs="861.510141" CO2_abs="108610.125998" HC_abs="6.374934" PMx_abs="1.367342" NOx_abs="39.885736" fuel_abs="46.687091" electricity_abs="0"
            CO_normed="1085.025366" CO2_normed="136788.571786" HC_normed="8.028884" PMx_normed="1.722093" NOx_normed="50.233924" fuel_normed="58.799863" electricity_normed="0"
            traveltime="0.02" CO_perVeh="0.330186" CO2_perVeh="41.626366" HC_perVeh="0.002443" PMx_perVeh="0.000524" NOx_perVeh="0.015287" fuel_perVeh="0.017893" electricity_perVeh="0"/>
        <edge id=":1110673517_0" sampledSeconds="181.84" CO_abs="8506.999431" CO2_abs="598585.017198" HC_abs="52.797485" PMx_abs="10.421657" NOx_abs="244.231209" fuel_abs="257.305681" electricity_abs="0"
            CO_normed="10714.105076" CO2_normed="753885.412088" HC_normed="66.495573" PMx_normed="13.125513" NOx_normed="307.595981" fuel_normed="324.062570" electricity_normed="0"
            traveltime="0.03" CO_perVeh="1.302490" CO2_perVeh="91.648211" HC_perVeh="0.008084" PMx_perVeh="0.001596" NOx_perVeh="0.037394" fuel_perVeh="0.039396" electricity_perVeh="0"/>
        <edge id=":1110673534_0" sampledSeconds="658.35" CO_abs="3959.593878" CO2_abs="348577.542796" HC_abs="25.934871" PMx_abs="4.486510" NOx_abs="130.893158" fuel_abs="149.840012" electricity_abs="0"
            CO_normed="96.645234" CO2_normed="8508.033673" HC_normed="0.633015" PMx_normed="0.109506" NOx_normed="3.194823" fuel_normed="3.657275" electricity_normed="0"
            traveltime="1.45" CO_perVeh="8.706558" CO2_perVeh="766.470128" HC_perVeh="0.057027" PMx_perVeh="0.009865" NOx_perVeh="0.287815" fuel_perVeh="0.329476" electricity_perVeh="0"/>
        <edge id=":1110673534_1" sampledSeconds="264.57" CO_abs="4265.192748" CO2_abs="505285.711177" HC_abs="30.987723" PMx_abs="7.171206" NOx_abs="190.585018" fuel_abs="217.200853" electricity_abs="0"
            CO_normed="101.226996" CO2_normed="11992.085218" HC_normed="0.735440" PMx_normed="0.170196" NOx_normed="4.523207" fuel_normed="5.154888" electricity_normed="0"
            traveltime="1.23" CO_perVeh="19.789424" CO2_perVeh="2344.398937" HC_perVeh="0.143775" PMx_perVeh="0.033273" NOx_perVeh="0.884267" fuel_perVeh="1.007757" electricity_perVeh="0"/>
        <edge id=":1110673549_0" sampledSeconds="649.20" CO_abs="1110.635111" CO2_abs="106087.069655" HC_abs="7.511596" PMx_abs="1.523606" NOx_abs="40.363323" fuel_abs="45.602461" electricity_abs="0"
            CO_normed="26.260040" CO2_normed="2508.340156" HC_normed="0.177605" PMx_normed="0.036024" NOx_normed="0.954357" fuel_normed="1.078232" electricity_normed="0"
            traveltime="1.29" CO_perVeh="2.206567" CO2_perVeh="210.769711" HC_perVeh="0.014924" PMx_perVeh="0.003027" NOx_perVeh="0.080192" fuel_perVeh="0.090601" electricity_perVeh="0"/>
        <edge id=":1110673549_1" sampledSeconds="3196.65" CO_abs="70925.321175" CO2_abs="9185386.151093" HC_abs="541.917921" PMx_abs="162.184691" NOx_abs="3439.967655" fuel_abs="3948.376637" electricity_abs="0"
            CO_normed="1622.153771" CO2_normed="210081.653970" HC_normed="12.394363" PMx_normed="3.709374" NOx_normed="78.676507" fuel_normed="90.304477" electricity_normed="0"
            traveltime="0.81" CO_perVeh="17.891690" CO2_perVeh="2317.114344" HC_perVeh="0.136705" PMx_perVeh="0.040913" NOx_perVeh="0.867770" fuel_perVeh="0.996021" electricity_perVeh="0"/>
        <edge id=":1110673556_0" sampledSeconds="475.71" CO_abs="58445.365309" CO2_abs="2772733.365295" HC_abs="331.935601" PMx_abs="55.935890" NOx_abs="1195.577263" fuel_abs="1191.880602" electricity_abs="0"
            CO_normed="1024.716089" CO2_normed="48614.025703" HC_normed="5.819790" PMx_normed="0.980718" NOx_normed="20.961923" fuel_normed="20.897110" electricity_normed="0"
            traveltime="2.80" CO_perVeh="344.529809" CO2_perVeh="16344.996587" HC_perVeh="1.956728" PMx_perVeh="0.329737" NOx_perVeh="7.047813" fuel_perVeh="7.026022" electricity_perVeh="0"/>
        <edge id=":1110673556_2" sampledSeconds="175.03" CO_abs="17201.036357" CO2_abs="740212.721685" HC_abs="95.713896" PMx_abs="14.316287" NOx_abs="315.883777" fuel_abs="318.188326" electricity_abs="0"
            CO_normed="315.338774" CO2_normed="13569.983055" HC_normed="1.754679" PMx_normed="0.262454" NOx_normed="5.790954" fuel_normed="5.833202" electricity_normed="0"
            traveltime="3.03" CO_perVeh="297.430498" CO2_perVeh="12799.335689" HC_perVeh="1.655030" PMx_perVeh="0.247549" NOx_perVeh="5.462082" fuel_perVeh="5.501931" electricity_perVeh="0"/>
        <edge id=":1110673556_3" sampledSeconds="236.33" CO_abs="25784.330779" CO2_abs="880023.175471" HC_abs="137.992772" PMx_abs="17.496792" NOx_abs="379.836739" fuel_abs="378.291050" electricity_abs="0"
            CO_normed="1075.296961" CO2_normed="36700.050689" HC_normed="5.754782" PMx_normed="0.729678" NOx_normed="15.840523" fuel_normed="15.776063" electricity_normed="0"
            traveltime="1.87" CO_perVeh="203.803806" CO2_perVeh="6955.855256" HC_perVeh="1.090719" PMx_perVeh="0.138298" NOx_perVeh="3.002295" fuel_perVeh="2.990078" electricity_perVeh="0"/>
        <edge id=":1110673556_4" sampledSeconds="53.74" CO_abs="6239.334156" CO2_abs="240521.379741" HC_abs="34.073166" PMx_abs="4.831141" NOx_abs="103.974682" fuel_abs="103.390942" electricity_abs="0"
            CO_normed="158.963658" CO2_normed="6127.922833" HC_normed="0.868105" PMx_normed="0.123086" NOx_normed="2.649032" fuel_normed="2.634160" electricity_normed="0"
            traveltime="2.56" CO_perVeh="297.103656" CO2_perVeh="11453.110141" HC_perVeh="1.622491" PMx_perVeh="0.230049" NOx_perVeh="4.951050" fuel_perVeh="4.923254" electricity_perVeh="0"/>
        <edge id=":1110673556_5" sampledSeconds="22.90" CO_abs="1181.350567" CO2_abs="52155.075941" HC_abs="6.579421" PMx_abs="0.874946" NOx_abs="21.406268" fuel_abs="22.419592" electricity_abs="0"
            CO_normed="41.950575" CO2_normed="1852.062790" HC_normed="0.233640" PMx_normed="0.031070" NOx_normed="0.760151" fuel_normed="0.796135" electricity_normed="0"
            traveltime="1.58" CO_perVeh="81.673619" CO2_perVeh="3605.783028" HC_perVeh="0.454874" PMx_perVeh="0.060490" NOx_perVeh="1.479940" fuel_perVeh="1.549996" electricity_perVeh="0"/>
        <edge id=":1110673556_6" sampledSeconds="212.70" CO_abs="25897.968525" CO2_abs="1303564.389989" HC_abs="148.955547" PMx_abs="26.436260" NOx_abs="561.864522" fuel_abs="560.345656" electricity_abs="0"
            CO_normed="465.515064" CO2_normed="23431.523594" HC_normed="2.677471" PMx_normed="0.475191" NOx_normed="10.099495" fuel_normed="10.072193" electricity_normed="0"
            traveltime="2.48" CO_perVeh="301.776871" CO2_perVeh="15189.823980" HC_perVeh="1.735709" PMx_perVeh="0.308049" NOx_perVeh="6.547144" fuel_perVeh="6.529445" electricity_perVeh="0"/>
        <edge id=":1110673561_0" sampledSeconds="102.23" CO_abs="9594.474630" CO2_abs="692229.591394" HC_abs="60.302523" PMx_abs="13.879191" NOx_abs="292.089473" fuel_abs="297.556630" electricity_abs="0"
            CO_normed="216.683584" CO2_normed="15633.455144" HC_normed="1.361885" PMx_normed="0.313451" NOx_normed="6.596609" fuel_normed="6.720080" electricity_normed="0"
            traveltime="1.21" CO_perVeh="113.224113" CO2_perVeh="8168.981056" HC_perVeh="0.711628" PMx_perVeh="0.163788" NOx_perVeh="3.446939" fuel_perVeh="3.511457" electricity_perVeh="0"/>
        <edge id=":1110673561_1" sampledSeconds="5192.31" CO_abs="480390.088574" CO2_abs="33326909.787087" HC_abs="2993.606703" PMx_abs="696.212203" NOx_abs="14244.487388" fuel_abs="14325.629127" electricity_abs="0"
            CO_normed="10577.365393" CO2_normed="733801.363969" HC_normed="65.914083" PMx_normed="15.329398" NOx_normed="313.639169" fuel_normed="315.425770" electricity_normed="0"
            traveltime="1.19" CO_perVeh="110.281419" CO2_perVeh="7650.738394" HC_perVeh="0.687231" PMx_perVeh="0.159827" NOx_perVeh="3.270056" fuel_perVeh="3.288683" electricity_perVeh="0"/>
        <edge id=":1110673562_0" sampledSeconds="301.46" CO_abs="6972.594792" CO2_abs="526875.884082" HC_abs="43.787935" PMx_abs="7.311716" NOx_abs="202.600976" fuel_abs="226.483480" electricity_abs="0"
            CO_normed="9757.339479" CO2_normed="737301.824913" HC_normed="61.276147" PMx_normed="10.231900" NOx_normed="283.516619" fuel_normed="316.937420" electricity_normed="0"
            traveltime="0.03" CO_perVeh="0.625034" CO2_perVeh="47.229919" HC_perVeh="0.003925" PMx_perVeh="0.000655" NOx_perVeh="0.018161" fuel_perVeh="0.020302" electricity_perVeh="0"/>
        <edge id=":1110673564_0" sampledSeconds="27.88" CO_abs="585.533004" CO2_abs="62785.098714" HC_abs="4.106647" PMx_abs="0.903188" NOx_abs="23.887637" fuel_abs="26.988662" electricity_abs="0"
            CO_normed="2212.341325" CO2_normed="237223.294889" HC_normed="15.516297" PMx_normed="3.412550" NOx_normed="90.255555" fuel_normed="101.972275" electricity_normed="0"
            traveltime="7.875426e-03" CO_perVeh="0.165381" CO2_perVeh="17.733399" HC_perVeh="0.001160" PMx_perVeh="0.000255" NOx_perVeh="0.006747" fuel_perVeh="0.007623" electricity_perVeh="0"/>
        <edge id=":1110673588_0" sampledSeconds="63.17" CO_abs="881.498465" CO2_abs="102057.535680" HC_abs="6.357418" PMx_abs="1.378436" NOx_abs="38.183000" fuel_abs="43.870311" electricity_abs="0"
            CO_normed="1332.239494" CO2_normed="154243.126972" HC_normed="9.608188" PMx_normed="2.083278" NOx_normed="57.707305" fuel_normed="66.302737" electricity_normed="0"
            traveltime="0.02" CO_perVeh="0.284354" CO2_perVeh="32.921786" HC_perVeh="0.002051" PMx_perVeh="0.000445" NOx_perVeh="0.012317" fuel_perVeh="0.014152" electricity_perVeh="0"/>
        <edge id=":1110673601_0" sampledSeconds="28.89" CO_abs="528.803013" CO2_abs="61004.031004" HC_abs="3.806663" PMx_abs="0.850250" NOx_abs="22.965402" fuel_abs="26.223071" electricity_abs="0"
            CO_normed="713.570097" CO2_normed="82319.221398" HC_normed="5.136735" PMx_normed="1.147333" NOx_normed="30.989657" fuel_normed="35.385577" electricity_normed="0"
            traveltime="0.02" CO_perVeh="0.403238" CO2_perVeh="46.518502" HC_perVeh="0.002903" PMx_perVeh="0.000648" NOx_perVeh="0.017512" fuel_perVeh="0.019996" electricity_perVeh="0"/>
        <edge id=":1110673617_0" sampledSeconds="853.15" CO_abs="32589.649058" CO2_abs="3283980.619234" HC_abs="226.946674" PMx_abs="61.936930" NOx_abs="1288.788770" fuel_abs="1411.629512" electricity_abs="0"
            CO_normed="41044.898059" CO2_normed="4135995.742108" HC_normed="285.827046" PMx_normed="78.006209" NOx_normed="1623.159660" fuel_normed="1777.870922" electricity_normed="0"
            traveltime="0.02" CO_perVeh="0.577717" CO2_perVeh="58.215187" HC_perVeh="0.004023" PMx_perVeh="0.001098" NOx_perVeh="0.022846" fuel_perVeh="0.025024" electricity_perVeh="0"/>
        <edge id=":1110673621_0" sampledSeconds="26.34" CO_abs="669.032686" CO2_abs="68031.176745" HC_abs="4.597796" PMx_abs="0.997402" NOx_abs="26.067052" fuel_abs="29.243722" electricity_abs="0"
            CO_normed="1011.132522" CO2_normed="102817.899363" HC_normed="6.948811" PMx_normed="1.507408" NOx_normed="39.396049" fuel_normed="44.197061" electricity_normed="0"
            traveltime="0.02" CO_perVeh="0.506843" CO2_perVeh="51.538770" HC_perVeh="0.003483" PMx_perVeh="0.000756" NOx_perVeh="0.019748" fuel_perVeh="0.022154" electricity_perVeh="0"/>
        <edge id=":1110673630_0" sampledSeconds="286.08" CO_abs="1362.540109" CO2_abs="125389.694818" HC_abs="9.054814" PMx_abs="1.587742" NOx_abs="46.844275" fuel_abs="53.900179" electricity_abs="0"
            CO_normed="36.719946" CO2_normed="3379.205349" HC_normed="0.244024" PMx_normed="0.042789" NOx_normed="1.262436" fuel_normed="1.452590" electricity_normed="0"
            traveltime="1.29" CO_perVeh="6.130910" CO2_perVeh="564.205738" HC_perVeh="0.040743" PMx_perVeh="0.007144" NOx_perVeh="0.210781" fuel_perVeh="0.242530" electricity_perVeh="0"/>
        <edge id=":1110673630_1" sampledSeconds="338.67" CO_abs="1211.148777" CO2_abs="95049.850518" HC_abs="7.681221" PMx_abs="1.313154" NOx_abs="36.425916" fuel_abs="40.858216" electricity_abs="0"
            CO_normed="39.792425" CO2_normed="3122.873196" HC_normed="0.252367" PMx_normed="0.043144" NOx_normed="1.196777" fuel_normed="1.342401" electricity_normed="0"
            traveltime="1.08" CO_perVeh="3.860909" CO2_perVeh="303.000624" HC_perVeh="0.024486" PMx_perVeh="0.004186" NOx_perVeh="0.116119" fuel_perVeh="0.130248" electricity_perVeh="0"/>
        <edge id=":1110673650_0" sampledSeconds="199.57" CO_abs="3242.055510" CO2_abs="408245.907904" HC_abs="24.113723" PMx_abs="5.547077" NOx_abs="152.210499" fuel_abs="175.487795" electricity_abs="0"
            CO_normed="4083.193337" CO2_normed="514163.611970" HC_normed="30.369928" PMx_normed="6.986243" NOx_normed="191.700881" fuel_normed="221.017374" electricity_normed="0"
            traveltime="0.02" CO_perVeh="0.374996" CO2_perVeh="47.220211" HC_perVeh="0.002789" PMx_perVeh="0.000642" NOx_perVeh="0.017606" fuel_perVeh="0.020298" electricity_perVeh="0"/>
        <edge id=":1110673655_0" sampledSeconds="20.92" CO_abs="209.448321" CO2_abs="26924.281939" HC_abs="1.542529" PMx_abs="0.338017" NOx_abs="9.853620" fuel_abs="11.573655" electricity_abs="0"
            CO_normed="263.788817" CO2_normed="33909.674986" HC_normed="1.942731" PMx_normed="0.425714" NOx_normed="12.410101" fuel_normed="14.576391" electricity_normed="0"
            traveltime="0.02" CO_perVeh="0.239278" CO2_perVeh="30.758890" HC_perVeh="0.001762" PMx_perVeh="0.000386" NOx_perVeh="0.011257" fuel_perVeh="0.013222" electricity_perVeh="0"/>
        <edge id=":1110673663_0" sampledSeconds="111.74" CO_abs="1814.051066" CO2_abs="205818.294572" HC_abs="12.973600" PMx_abs="2.779592" NOx_abs="77.093117" fuel_abs="88.472787" electricity_abs="0"
            CO_normed="41.844305" CO2_normed="4747.564023" HC_normed="0.299259" PMx_normed="0.064116" NOx_normed="1.778289" fuel_normed="2.040782" electricity_normed="0"
            traveltime="1.31" CO_perVeh="21.306886" CO2_perVeh="2417.432966" HC_perVeh="0.152381" PMx_perVeh="0.032648" NOx_perVeh="0.905495" fuel_perVeh="1.039155" electricity_perVeh="0"/>
        <edge id=":1110673663_1" sampledSeconds="170.24" CO_abs="2507.797589" CO2_abs="332416.824727" HC_abs="18.997721" PMx_abs="4.368575" NOx_abs="122.765531" fuel_abs="142.892186" electricity_abs="0"
            CO_normed="57.917517" CO2_normed="7677.157488" HC_normed="0.438752" PMx_normed="0.100892" NOx_normed="2.835267" fuel_normed="3.300091" electricity_normed="0"
            traveltime="1.27" CO_perVeh="18.741655" CO2_perVeh="2484.268115" HC_perVeh="0.141977" PMx_perVeh="0.032648" NOx_perVeh="0.917470" fuel_perVeh="1.067884" electricity_perVeh="0"/>
        <edge id=":1110673666_0" sampledSeconds="274.99" CO_abs="5540.662844" CO2_abs="454760.664231" HC_abs="35.575734" PMx_abs="5.981815" NOx_abs="172.124662" fuel_abs="195.484106" electricity_abs="0"