<?xml version="1.0" encoding="UTF-8"?>

<!-- generated on Tue Nov 10 00:11:37 2020 by Eclipse SUMO sumo Version 1.7.0
<configuration xmlns:xsi="http://www.w3.org/2001/XMLSchema-instance" xsi:noNamespaceSchemaLocation="http://sumo.dlr.de/xsd/sumoConfiguration.xsd">

    <input>
        <net-file value="../dataSets/Porto/6AM7AM_Routing_SaoBento/Porto.net.xml"/>
        <route-files value="../results/Porto/6AM7AM_Routing_SaoBento/cost_hc-length/solution15/Porto.rou.xml"/>
        <additional-files value="moreOutputInfo.xml"/>
    </input>

    <output>
        <emission-output.precision value="6"/>
        <tripinfo-output value="../results/Porto/6AM7AM_Routing_SaoBento/cost_hc-length/solution15/Porto-tripinfo"/>
    </output>

    <processing>
        <collision.action value="warn"/>
        <time-to-teleport value="-1"/>
    </processing>

    <emissions>
        <device.emissions.probability value="1"/>
    </emissions>

    <gui_only>
        <quit-on-end value="true"/>
        <start value="true"/>
    </gui_only>

</configuration>
-->

<meandata xmlns:xsi="http://www.w3.org/2001/XMLSchema-instance" xsi:noNamespaceSchemaLocation="http://sumo.dlr.de/xsd/meandata_file.xsd">
    <interval begin="0.00" end="4698.00" id="emissions-detector">
        <edge id=":1092997347_0" sampledSeconds="270.36" CO_abs="34355.065847" CO2_abs="1348940.080090" HC_abs="188.291789" PMx_abs="27.486492" NOx_abs="585.384647" fuel_abs="579.856634" electricity_abs="0"
            CO_normed="59831.183989" CO2_normed="2349251.271490" HC_normed="327.920218" PMx_normed="47.869195" NOx_normed="1019.478661" fuel_normed="1009.851330" electricity_normed="0"
            traveltime="0.08" CO_perVeh="9.649911" CO2_perVeh="378.900487" HC_perVeh="0.052889" PMx_perVeh="0.007721" NOx_perVeh="0.164427" fuel_perVeh="0.162875" electricity_perVeh="0"/>
        <edge id=":1103427051_0" sampledSeconds="10.89" CO_abs="892.703443" CO2_abs="51033.917489" HC_abs="5.275550" PMx_abs="0.993256" NOx_abs="21.714754" fuel_abs="21.937224" electricity_abs="0"
            CO_normed="2358.841175" CO2_normed="134849.828218" HC_normed="13.939885" PMx_normed="2.624537" NOx_normed="57.378133" fuel_normed="57.965976" electricity_normed="0"
            traveltime="0.03" CO_perVeh="2.445994" CO2_perVeh="139.832162" HC_perVeh="0.014455" PMx_perVeh="0.002722" NOx_perVeh="0.059498" fuel_perVeh="0.060108" electricity_perVeh="0"/>
        <edge id=":1105984386_0" sampledSeconds="22.86" CO_abs="538.730716" CO2_abs="44679.771747" HC_abs="3.460934" PMx_abs="0.539755" NOx_abs="16.605826" fuel_abs="19.206182" electricity_abs="0"
            CO_normed="42.514982" CO2_normed="3525.991039" HC_normed="0.273126" PMx_normed="0.042596" NOx_normed="1.310481" fuel_normed="1.515693" electricity_normed="0"
            traveltime="0.96" CO_perVeh="22.610111" CO2_perVeh="1875.175413" HC_perVeh="0.145253" PMx_perVeh="0.022653" NOx_perVeh="0.696934" fuel_perVeh="0.806069" electricity_perVeh="0"/>
        <edge id=":1105984390_0" sampledSeconds="23.26" CO_abs="5.126920" CO2_abs="451.349786" HC_abs="0.033446" PMx_abs="0.004975" NOx_abs="0.164532" fuel_abs="0.194019" electricity_abs="0"
            CO_normed="0.312793" CO2_normed="27.536776" HC_normed="0.002041" PMx_normed="0.000304" NOx_normed="0.010038" fuel_normed="0.011837" electricity_normed="0"
            traveltime="1.05" CO_perVeh="0.232503" CO2_perVeh="20.468491" HC_perVeh="0.001517" PMx_perVeh="0.000226" NOx_perVeh="0.007461" fuel_perVeh="0.008799" electricity_perVeh="0"/>
        <edge id=":1105984390_1" sampledSeconds="646.15" CO_abs="14369.579024" CO2_abs="1872819.672248" HC_abs="110.275803" PMx_abs="33.079452" NOx_abs="700.580886" fuel_abs="805.039395" electricity_abs="0"
            CO_normed="838.626936" CO2_normed="109300.141657" HC_normed="6.435836" PMx_normed="1.930559" NOx_normed="40.886793" fuel_normed="46.983125" electricity_normed="0"
            traveltime="0.64" CO_perVeh="14.154155" CO2_perVeh="1844.742939" HC_perVeh="0.108623" PMx_perVeh="0.032584" NOx_perVeh="0.690078" fuel_perVeh="0.792970" electricity_perVeh="0"/>
        <edge id=":1105984395_0" sampledSeconds="9.03" CO_abs="147.159771" CO2_abs="11415.056679" HC_abs="0.927769" PMx_abs="0.141270" NOx_abs="4.275357" fuel_abs="4.906913" electricity_abs="0"
            CO_normed="122.571857" CO2_normed="9507.793336" HC_normed="0.772755" PMx_normed="0.117667" NOx_normed="3.561017" fuel_normed="4.087050" electricity_normed="0"
            traveltime="0.09" CO_perVeh="1.492361" CO2_perVeh="115.761157" HC_perVeh="0.009409" PMx_perVeh="0.001433" NOx_perVeh="0.043357" fuel_perVeh="0.049761" electricity_perVeh="0"/>
        <edge id=":1105984398_0" sampledSeconds="22.75" CO_abs="1513.948280" CO2_abs="104962.534098" HC_abs="9.371256" PMx_abs="1.895741" NOx_abs="43.306573" fuel_abs="45.118742" electricity_abs="0"
            CO_normed="95.956462" CO2_normed="6652.693185" HC_normed="0.593965" PMx_normed="0.120155" NOx_normed="2.744840" fuel_normed="2.859698" electricity_normed="0"
            traveltime="1.11" CO_perVeh="74.165675" CO2_perVeh="5141.930712" HC_perVeh="0.459081" PMx_perVeh="0.092869" NOx_perVeh="2.121513" fuel_perVeh="2.210288" electricity_perVeh="0"/>
        <edge id=":1105984398_1" sampledSeconds="451.56" CO_abs="8132.818309" CO2_abs="951842.602714" HC_abs="58.900194" PMx_abs="13.596569" NOx_abs="359.765332" fuel_abs="409.156627" electricity_abs="0"
            CO_normed="498.962745" CO2_normed="58397.222159" HC_normed="3.613631" PMx_normed="0.834173" NOx_normed="22.072238" fuel_normed="25.102481" electricity_normed="0"
            traveltime="0.96" CO_perVeh="17.212240" CO2_perVeh="2014.473081" HC_perVeh="0.124656" PMx_perVeh="0.028776" NOx_perVeh="0.761405" fuel_perVeh="0.865936" electricity_perVeh="0"/>
        <edge id=":1106006327_0" sampledSeconds="37.90" CO_abs="5096.935189" CO2_abs="167238.328842" HC_abs="27.145309" PMx_abs="3.482210" NOx_abs="73.172501" fuel_abs="71.889814" electricity_abs="0"
            CO_normed="440.823641" CO2_normed="14464.105657" HC_normed="2.347743" PMx_normed="0.301169" NOx_normed="6.328542" fuel_normed="6.217605" electricity_normed="0"
            traveltime="2.06" CO_perVeh="276.505301" CO2_perVeh="9072.566701" HC_perVeh="1.472615" PMx_perVeh="0.188908" NOx_perVeh="3.969559" fuel_perVeh="3.899974" electricity_perVeh="0"/>
        <edge id=":1106006327_1" sampledSeconds="159.84" CO_abs="21756.856367" CO2_abs="733417.627461" HC_abs="116.363950" PMx_abs="15.328759" NOx_abs="321.151662" fuel_abs="315.269587" electricity_abs="0"
            CO_normed="1640.937066" CO2_normed="55315.535905" HC_normed="8.776356" PMx_normed="1.156120" NOx_normed="24.221774" fuel_normed="23.778139" electricity_normed="0"
            traveltime="2.27" CO_perVeh="308.866617" CO2_perVeh="10411.808483" HC_perVeh="1.651936" PMx_perVeh="0.217611" NOx_perVeh="4.559162" fuel_perVeh="4.475658" electricity_perVeh="0"/>
        <edge id=":1106006327_2" sampledSeconds="0.00" CO_abs="0" CO2_abs="0" HC_abs="0" PMx_abs="0" NOx_abs="0" fuel_abs="0" electricity_abs="0"
            CO_normed="0" CO2_normed="0" HC_normed="0" PMx_normed="0" NOx_normed="0" fuel_normed="0" electricity_normed="0"/>
        <edge id=":1106006327_3" sampledSeconds="0.00" CO_abs="0" CO2_abs="0" HC_abs="0" PMx_abs="0" NOx_abs="0" fuel_abs="0" electricity_abs="0"
            CO_normed="0" CO2_normed="0" HC_normed="0" PMx_normed="0" NOx_normed="0" fuel_normed="0" electricity_normed="0"/>
        <edge id=":1107381198_0" sampledSeconds="0.00" CO_abs="0" CO2_abs="0" HC_abs="0" PMx_abs="0" NOx_abs="0" fuel_abs="0" electricity_abs="0"
            CO_normed="0" CO2_normed="0" HC_normed="0" PMx_normed="0" NOx_normed="0" fuel_normed="0" electricity_normed="0"/>
        <edge id=":1107381198_1" sampledSeconds="37.28" CO_abs="1406.003290" CO2_abs="56299.091415" HC_abs="7.699630" PMx_abs="0.978420" NOx_abs="23.369920" fuel_abs="24.201011" electricity_abs="0"
            CO_normed="117.491511" CO2_normed="4704.587374" HC_normed="0.643413" PMx_normed="0.081761" NOx_normed="1.952888" fuel_normed="2.022338" electricity_normed="0"
            traveltime="1.54" CO_perVeh="57.889054" CO2_perVeh="2317.989710" HC_perVeh="0.317015" PMx_perVeh="0.040284" NOx_perVeh="0.962204" fuel_perVeh="0.996423" electricity_perVeh="0"/>
        <edge id=":1110338277_0" sampledSeconds="96.57" CO_abs="1414.445393" CO2_abs="174302.922240" HC_abs="10.350939" PMx_abs="2.343184" NOx_abs="64.894492" fuel_abs="74.925559" electricity_abs="0"
            CO_normed="3870.950721" CO2_normed="477019.491626" HC_normed="28.327694" PMx_normed="6.412656" NOx_normed="177.598501" fuel_normed="205.050792" electricity_normed="0"
            traveltime="0.02" CO_perVeh="0.318771" CO2_perVeh="39.282377" HC_perVeh="0.002333" PMx_perVeh="0.000528" NOx_perVeh="0.014625" fuel_perVeh="0.016886" electricity_perVeh="0"/>
        <edge id=":1110338293_0" sampledSeconds="123.42" CO_abs="6592.894356" CO2_abs="452102.580458" HC_abs="40.652982" PMx_abs="7.980550" NOx_abs="185.413068" fuel_abs="194.339199" electricity_abs="0"
            CO_normed="16840.087755" CO2_normed="1154795.863240" HC_normed="103.839035" PMx_normed="20.384546" NOx_normed="473.596597" fuel_normed="496.396423" electricity_normed="0"
            traveltime="0.03" CO_perVeh="1.512190" CO2_perVeh="103.697216" HC_perVeh="0.009324" PMx_perVeh="0.001830" NOx_perVeh="0.042528" fuel_perVeh="0.044575" electricity_perVeh="0"/>
        <edge id=":1110338295_0" sampledSeconds="0.00" CO_abs="0" CO2_abs="0" HC_abs="0" PMx_abs="0" NOx_abs="0" fuel_abs="0" electricity_abs="0"
            CO_normed="0" CO2_normed="0" HC_normed="0" PMx_normed="0" NOx_normed="0" fuel_normed="0" electricity_normed="0"/>
        <edge id=":1110673403_0" sampledSeconds="143.89" CO_abs="2243.826942" CO2_abs="275767.394082" HC_abs="16.499325" PMx_abs="3.825577" NOx_abs="103.324868" fuel_abs="118.540755" electricity_abs="0"
            CO_normed="5731.358729" CO2_normed="704386.702635" HC_normed="42.143870" PMx_normed="9.771588" NOx_normed="263.920481" fuel_normed="302.786092" electricity_normed="0"
            traveltime="0.02" CO_perVeh="0.360261" CO2_perVeh="44.276274" HC_perVeh="0.002649" PMx_perVeh="0.000614" NOx_perVeh="0.016589" fuel_perVeh="0.019033" electricity_perVeh="0"/>
        <edge id=":1110673412_0" sampledSeconds="253.13" CO_abs="44829.519778" CO2_abs="3058031.110665" HC_abs="278.943045" PMx_abs="67.197922" NOx_abs="1314.275122" fuel_abs="1314.496957" electricity_abs="0"
            CO_normed="118455.594605" CO2_normed="8080409.857748" HC_normed="737.067102" PMx_normed="177.560899" NOx_normed="3472.784044" fuel_normed="3473.370214" electricity_normed="0"
            traveltime="0.02" CO_perVeh="2.760693" CO2_perVeh="188.319757" HC_perVeh="0.017178" PMx_perVeh="0.004138" NOx_perVeh="0.080936" fuel_perVeh="0.080949" electricity_perVeh="0"/>
        <edge id=":1110673414_0" sampledSeconds="0.00" CO_abs="0" CO2_abs="0" HC_abs="0" PMx_abs="0" NOx_abs="0" fuel_abs="0" electricity_abs="0"
            CO_normed="0" CO2_normed="0" HC_normed="0" PMx_normed="0" NOx_normed="0" fuel_normed="0" electricity_normed="0"/>
        <edge id=":1110673414_1" sampledSeconds="14.40" CO_abs="1192.854433" CO2_abs="44350.454700" HC_abs="6.465060" PMx_abs="0.843306" NOx_abs="18.880788" fuel_abs="19.064671" electricity_abs="0"
            CO_normed="101.225327" CO2_normed="3763.568412" HC_normed="0.548623" PMx_normed="0.071563" NOx_normed="1.602219" fuel_normed="1.617823" electricity_normed="0"
            traveltime="1.57" CO_perVeh="130.279095" CO2_perVeh="4843.790590" HC_perVeh="0.706090" PMx_perVeh="0.092103" NOx_perVeh="2.062089" fuel_perVeh="2.082172" electricity_perVeh="0"/>
        <edge id=":1110673417_0" sampledSeconds="29.74" CO_abs="461.546343" CO2_abs="59277.039234" HC_abs="3.437842" PMx_abs="0.760131" NOx_abs="21.826022" fuel_abs="25.480770" electricity_abs="0"
            CO_normed="1263.126281" CO2_normed="162225.066321" HC_normed="9.408435" PMx_normed="2.080271" NOx_normed="59.731860" fuel_normed="69.733909" electricity_normed="0"
            traveltime="0.02" CO_perVeh="0.342566" CO2_perVeh="43.996212" HC_perVeh="0.002552" PMx_perVeh="0.000564" NOx_perVeh="0.016200" fuel_perVeh="0.018912" electricity_perVeh="0"/>
        <edge id=":1110673446_0" sampledSeconds="333.46" CO_abs="3306.785977" CO2_abs="264911.600475" HC_abs="21.340898" PMx_abs="4.886726" NOx_abs="108.615361" fuel_abs="113.873296" electricity_abs="0"
            CO_normed="8446.452048" CO2_normed="676657.983332" HC_normed="54.510596" PMx_normed="12.482059" NOx_normed="277.433871" fuel_normed="290.864102" electricity_normed="0"
            traveltime="0.02" CO_perVeh="0.225625" CO2_perVeh="18.075137" HC_perVeh="0.001456" PMx_perVeh="0.000333" NOx_perVeh="0.007411" fuel_perVeh="0.007770" electricity_perVeh="0"/>
        <edge id=":1110673451_0" sampledSeconds="37.57" CO_abs="291.168341" CO2_abs="22055.540799" HC_abs="1.830755" PMx_abs="0.310702" NOx_abs="8.506066" fuel_abs="9.480813" electricity_abs="0"
            CO_normed="826.361121" CO2_normed="62595.546472" HC_normed="5.195844" PMx_normed="0.881801" NOx_normed="24.140955" fuel_normed="26.907374" electricity_normed="0"
            traveltime="0.03" CO_perVeh="0.208806" CO2_perVeh="15.816722" HC_perVeh="0.001313" PMx_perVeh="0.000223" NOx_perVeh="0.006100" fuel_perVeh="0.006799" electricity_perVeh="0"/>
        <edge id=":1110673464_0" sampledSeconds="323.63" CO_abs="511.547867" CO2_abs="41197.595733" HC_abs="3.226501" PMx_abs="0.548789" NOx_abs="15.617352" fuel_abs="17.709253" electricity_abs="0"
            CO_normed="27.761381" CO2_normed="2235.767626" HC_normed="0.175100" PMx_normed="0.029782" NOx_normed="0.847544" fuel_normed="0.961070" electricity_normed="0"
            traveltime="1.17" CO_perVeh="1.849179" CO2_perVeh="148.923910" HC_perVeh="0.011663" PMx_perVeh="0.001984" NOx_perVeh="0.056455" fuel_perVeh="0.064017" electricity_perVeh="0"/>
        <edge id=":1110673464_1" sampledSeconds="709.63" CO_abs="16235.061604" CO2_abs="2077603.241915" HC_abs="123.748219" PMx_abs="36.894685" NOx_abs="779.648315" fuel_abs="893.066310" electricity_abs="0"
            CO_normed="863.335200" CO2_normed="110481.133627" HC_normed="6.580584" PMx_normed="1.961956" NOx_normed="41.459518" fuel_normed="47.490770" electricity_normed="0"
            traveltime="0.70" CO_perVeh="16.020296" CO2_perVeh="2050.119660" HC_perVeh="0.122111" PMx_perVeh="0.036407" NOx_perVeh="0.769335" fuel_perVeh="0.881252" electricity_perVeh="0"/>
        <edge id=":1110673479_0" sampledSeconds="133.65" CO_abs="6673.722198" CO2_abs="460550.347097" HC_abs="41.209986" PMx_abs="8.070730" NOx_abs="188.472815" fuel_abs="197.970582" electricity_abs="0"
            CO_normed="17046.544568" CO2_normed="1176373.811231" HC_normed="105.261779" PMx_normed="20.614891" NOx_normed="481.412043" fuel_normed="505.671986" electricity_normed="0"
            traveltime="0.03" CO_perVeh="1.405882" CO2_perVeh="97.019265" HC_perVeh="0.008681" PMx_perVeh="0.001700" NOx_perVeh="0.039704" fuel_perVeh="0.041704" electricity_perVeh="0"/>
        <edge id=":1110673511_0" sampledSeconds="11.65" CO_abs="134.599426" CO2_abs="17551.401670" HC_abs="0.995807" PMx_abs="0.232115" NOx_abs="6.476059" fuel_abs="7.544616" electricity_abs="0"
            CO_normed="343.804408" CO2_normed="44831.166463" HC_normed="2.543570" PMx_normed="0.592886" NOx_normed="16.541659" fuel_normed="19.271051" electricity_normed="0"
            traveltime="0.02" CO_perVeh="0.266534" CO2_perVeh="34.755251" HC_perVeh="0.001972" PMx_perVeh="0.000460" NOx_perVeh="0.012824" fuel_perVeh="0.014940" electricity_perVeh="0"/>
        <edge id=":1110673517_0" sampledSeconds="17.11" CO_abs="705.904165" CO2_abs="49882.936180" HC_abs="4.388673" PMx_abs="0.880441" NOx_abs="20.418206" fuel_abs="21.442486" electricity_abs="0"
            CO_normed="1803.075772" CO2_normed="127414.907227" HC_normed="11.209894" PMx_normed="2.248892" NOx_normed="52.153783" fuel_normed="54.770080" electricity_normed="0"
            traveltime="0.03" CO_perVeh="1.133376" CO2_perVeh="80.090344" HC_perVeh="0.007046" PMx_perVeh="0.001414" NOx_perVeh="0.032783" fuel_perVeh="0.034427" electricity_perVeh="0"/>
        <edge id=":1110673534_0" sampledSeconds="474.82" CO_abs="2650.118647" CO2_abs="224728.736174" HC_abs="17.198665" PMx_abs="3.016457" NOx_abs="85.325576" fuel_abs="96.602080" electricity_abs="0"
            CO_normed="131.184900" CO2_normed="11124.413960" HC_normed="0.851360" PMx_normed="0.149319" NOx_normed="4.223746" fuel_normed="4.781950" electricity_normed="0"
            traveltime="1.43" CO_perVeh="7.983745" CO2_perVeh="677.017612" HC_perVeh="0.051813" PMx_perVeh="0.009087" NOx_perVeh="0.257052" fuel_perVeh="0.291023" electricity_perVeh="0"/>
        <edge id=":1110673534_1" sampledSeconds="184.43" CO_abs="2848.515722" CO2_abs="363683.808741" HC_abs="21.282245" PMx_abs="4.935887" NOx_abs="135.364991" fuel_abs="156.332409" electricity_abs="0"
            CO_normed="137.108710" CO2_normed="17505.333600" HC_normed="1.024387" PMx_normed="0.237581" NOx_normed="6.515576" fuel_normed="7.524808" electricity_normed="0"
            traveltime="1.22" CO_perVeh="18.913122" CO2_perVeh="2414.729925" HC_perVeh="0.141306" PMx_perVeh="0.032773" NOx_perVeh="0.898775" fuel_perVeh="1.037991" electricity_perVeh="0"/>
        <edge id=":1110673549_0" sampledSeconds="60.58" CO_abs="48.193690" CO2_abs="3404.557407" HC_abs="0.296904" PMx_abs="0.046100" NOx_abs="1.302883" fuel_abs="1.463491" electricity_abs="0"
            CO_normed="2.311016" CO2_normed="163.257588" HC_normed="0.014237" PMx_normed="0.002211" NOx_normed="0.062477" fuel_normed="0.070178" electricity_normed="0"
            traveltime="1.26" CO_perVeh="1.004074" CO2_perVeh="70.931054" HC_perVeh="0.006186" PMx_perVeh="0.000960" NOx_perVeh="0.027144" fuel_perVeh="0.030491" electricity_perVeh="0"/>
        <edge id=":1110673549_1" sampledSeconds="638.91" CO_abs="13438.617198" CO2_abs="1811215.344773" HC_abs="104.497372" PMx_abs="31.669385" NOx_abs="674.161263" fuel_abs="778.558744" electricity_abs="0"
            CO_normed="623.352963" CO2_normed="84013.588302" HC_normed="4.847132" PMx_normed="1.468991" NOx_normed="31.271106" fuel_normed="36.113604" electricity_normed="0"
            traveltime="0.80" CO_perVeh="16.916557" CO2_perVeh="2279.961314" HC_perVeh="0.131541" PMx_perVeh="0.039865" NOx_perVeh="0.848635" fuel_perVeh="0.980051" electricity_perVeh="0"/>
        <edge id=":1110673556_0" sampledSeconds="414.67" CO_abs="51440.776825" CO2_abs="2593652.071618" HC_abs="295.940938" PMx_abs="52.485913" NOx_abs="1118.045921" fuel_abs="1114.898271" electricity_abs="0"
            CO_normed="1829.151730" CO2_normed="92226.118414" HC_normed="10.523186" PMx_normed="1.866315" NOx_normed="39.755924" fuel_normed="39.643999" electricity_normed="0"
            traveltime="2.57" CO_perVeh="319.319259" CO2_perVeh="16100.127360" HC_perVeh="1.837057" PMx_perVeh="0.325807" NOx_perVeh="6.940284" fuel_perVeh="6.920745" electricity_perVeh="0"/>
        <edge id=":1110673556_2" sampledSeconds="247.38" CO_abs="23388.932921" CO2_abs="1006415.788962" HC_abs="130.104533" PMx_abs="19.261009" NOx_abs="428.179146" fuel_abs="432.618863" electricity_abs="0"
            CO_normed="869.604753" CO2_normed="37418.720926" HC_normed="4.837310" PMx_normed="0.716128" NOx_normed="15.919778" fuel_normed="16.084848" electricity_normed="0"
            traveltime="3.00" CO_perVeh="283.703274" CO2_perVeh="12207.630662" HC_perVeh="1.578143" PMx_perVeh="0.233632" NOx_perVeh="5.193731" fuel_perVeh="5.247584" electricity_perVeh="0"/>
        <edge id=":1110673556_3" sampledSeconds="417.08" CO_abs="33825.621794" CO2_abs="1196108.552389" HC_abs="181.842836" PMx_abs="22.766751" NOx_abs="509.763900" fuel_abs="514.165550" electricity_abs="0"
            CO_normed="2860.928996" CO2_normed="101165.372814" HC_normed="15.380041" PMx_normed="1.925583" NOx_normed="43.115196" fuel_normed="43.487482" electricity_normed="0"
            traveltime="1.75" CO_perVeh="142.251280" CO2_perVeh="5030.150641" HC_perVeh="0.764727" PMx_perVeh="0.095744" NOx_perVeh="2.143776" fuel_perVeh="2.162287" electricity_perVeh="0"/>
        <edge id=":1110673556_4" sampledSeconds="198.07" CO_abs="20508.467492" CO2_abs="828141.765952" HC_abs="112.792416" PMx_abs="16.013891" NOx_abs="353.932397" fuel_abs="355.986592" electricity_abs="0"
            CO_normed="1059.696612" CO2_normed="42791.058094" HC_normed="5.828117" PMx_normed="0.827457" NOx_normed="18.288103" fuel_normed="18.394245" electricity_normed="0"
            traveltime="2.38" CO_perVeh="246.560547" CO2_perVeh="9956.233304" HC_perVeh="1.356033" PMx_perVeh="0.192525" NOx_perVeh="4.255109" fuel_perVeh="4.279805" electricity_perVeh="0"/>
        <edge id=":1110673556_5" sampledSeconds="25.72" CO_abs="2163.349523" CO2_abs="84025.852100" HC_abs="11.817495" PMx_abs="1.625670" NOx_abs="35.920791" fuel_abs="36.119581" electricity_abs="0"
            CO_normed="155.802547" CO2_normed="6051.468621" HC_normed="0.851086" PMx_normed="0.117079" NOx_normed="2.586984" fuel_normed="2.601301" electricity_normed="0"
            traveltime="1.78" CO_perVeh="149.564905" CO2_perVeh="5809.194713" HC_perVeh="0.817012" PMx_perVeh="0.112392" NOx_perVeh="2.483413" fuel_perVeh="2.497156" electricity_perVeh="0"/>
        <edge id=":1110673556_6" sampledSeconds="488.01" CO_abs="57235.250840" CO2_abs="2809295.313988" HC_abs="327.352868" PMx_abs="56.587936" NOx_abs="1209.749855" fuel_abs="1207.595579" electricity_abs="0"
            CO_normed="2086.509503" CO2_normed="102412.783811" HC_normed="11.933640" PMx_normed="2.062912" NOx_normed="44.101398" fuel_normed="44.022864" electricity_normed="0"
            traveltime="2.62" CO_perVeh="307.141680" CO2_perVeh="15075.528957" HC_perVeh="1.756675" PMx_perVeh="0.303668" NOx_perVeh="6.491884" fuel_perVeh="6.480323" electricity_perVeh="0"/>
        <edge id=":1110673561_0" sampledSeconds="99.67" CO_abs="10014.158037" CO2_abs="718764.363708" HC_abs="62.894496" PMx_abs="14.566185" NOx_abs="304.056431" fuel_abs="308.962503" electricity_abs="0"
            CO_normed="458.678082" CO2_normed="32921.535577" HC_normed="2.880754" PMx_normed="0.667174" NOx_normed="13.926685" fuel_normed="14.151397" electricity_normed="0"
            traveltime="1.18" CO_perVeh="118.176785" CO2_perVeh="8482.117124" HC_perVeh="0.742216" PMx_perVeh="0.171895" NOx_perVeh="3.588161" fuel_perVeh="3.646057" electricity_perVeh="0"/>
        <edge id=":1110673561_1" sampledSeconds="1313.22" CO_abs="121375.799273" CO2_abs="8391529.792727" HC_abs="755.760445" PMx_abs="175.687690" NOx_abs="3589.972392" fuel_abs="3607.113114" electricity_abs="0"
            CO_normed="5420.062663" CO2_normed="374725.584435" HC_normed="33.748647" PMx_normed="7.845372" NOx_normed="160.310996" fuel_normed="161.076419" electricity_normed="0"
            traveltime="1.19" CO_perVeh="110.150045" CO2_perVeh="7615.417478" HC_perVeh="0.685862" PMx_perVeh="0.159439" NOx_perVeh="3.257945" fuel_perVeh="3.273500" electricity_perVeh="0"/>
        <edge id=":1110673562_0" sampledSeconds="104.34" CO_abs="2325.530555" CO2_abs="181833.967673" HC_abs="14.743160" PMx_abs="2.496957" NOx_abs="69.625368" fuel_abs="78.163345" electricity_abs="0"
            CO_normed="6600.058336" CO2_normed="516060.643317" HC_normed="41.842374" PMx_normed="7.086581" NOx_normed="197.602860" fuel_normed="221.834384" electricity_normed="0"
            traveltime="0.03" CO_perVeh="0.592788" CO2_perVeh="46.350306" HC_perVeh="0.003758" PMx_perVeh="0.000636" NOx_perVeh="0.017748" fuel_perVeh="0.019924" electricity_perVeh="0"/>
        <edge id=":1110673564_0" sampledSeconds="28.57" CO_abs="444.365392" CO2_abs="51746.905351" HC_abs="3.206168" PMx_abs="0.715247" NOx_abs="19.435169" fuel_abs="22.243827" electricity_abs="0"
            CO_normed="3405.098785" CO2_normed="396528.010355" HC_normed="24.568340" PMx_normed="5.480818" NOx_normed="148.928495" fuel_normed="170.450785" electricity_normed="0"
            traveltime="7.855337e-03" CO_perVeh="0.122162" CO2_perVeh="14.225953" HC_perVeh="0.000881" PMx_perVeh="0.000197" NOx_perVeh="0.005343" fuel_perVeh="0.006115" electricity_perVeh="0"/>
        <edge id=":1110673588_0" sampledSeconds="11.53" CO_abs="120.249567" CO2_abs="18602.757229" HC_abs="0.972190" PMx_abs="0.235262" NOx_abs="6.782259" fuel_abs="7.996553" electricity_abs="0"
            CO_normed="368.581047" CO2_normed="57019.945530" HC_normed="2.979892" PMx_normed="0.721110" NOx_normed="20.788534" fuel_normed="24.510506" electricity_normed="0"
            traveltime="0.02" CO_perVeh="0.200416" CO2_perVeh="31.004595" HC_perVeh="0.001620" PMx_perVeh="0.000392" NOx_perVeh="0.011304" fuel_perVeh="0.013328" electricity_perVeh="0"/>
        <edge id=":1110673601_0" sampledSeconds="29.47" CO_abs="572.157051" CO2_abs="67724.280292" HC_abs="4.160882" PMx_abs="0.943370" NOx_abs="25.454065" fuel_abs="29.111817" electricity_abs="0"
            CO_normed="1565.837578" CO2_normed="185342.857942" HC_normed="11.387198" PMx_normed="2.581745" NOx_normed="69.660824" fuel_normed="79.671091" electricity_normed="0"
            traveltime="0.02" CO_perVeh="0.424663" CO2_perVeh="50.265867" HC_perVeh="0.003088" PMx_perVeh="0.000700" NOx_perVeh="0.018892" fuel_perVeh="0.021607" electricity_perVeh="0"/>
        <edge id=":1110673617_0" sampledSeconds="238.66" CO_abs="5698.579034" CO2_abs="707243.851839" HC_abs="42.916212" PMx_abs="12.658318" NOx_abs="266.851928" fuel_abs="304.011595" electricity_abs="0"
            CO_normed="14555.757431" CO2_normed="1806497.705847" HC_normed="109.619955" PMx_normed="32.332867" NOx_normed="681.614121" fuel_normed="776.530256" electricity_normed="0"
            traveltime="0.01" CO_perVeh="0.349154" CO2_perVeh="43.333102" HC_perVeh="0.002629" PMx_perVeh="0.000776" NOx_perVeh="0.016350" fuel_perVeh="0.018627" electricity_perVeh="0"/>
        <edge id=":1110673621_0" sampledSeconds="25.77" CO_abs="303.382188" CO2_abs="42570.977514" HC_abs="2.342338" PMx_abs="0.542610" NOx_abs="15.595454" fuel_abs="18.299506" electricity_abs="0"
            CO_normed="929.907088" CO2_normed="130485.754833" HC_normed="7.179579" PMx_normed="1.663172" NOx_normed="47.802158" fuel_normed="56.090440" electricity_normed="0"
            traveltime="0.02" CO_perVeh="0.229835" CO2_perVeh="32.250741" HC_perVeh="0.001774" PMx_perVeh="0.000411" NOx_perVeh="0.011815" fuel_perVeh="0.013863" electricity_perVeh="0"/>
        <edge id=":1110673630_0" sampledSeconds="54.42" CO_abs="152.060236" CO2_abs="13085.486744" HC_abs="0.992911" PMx_abs="0.183970" NOx_abs="5.019392" fuel_abs="5.624924" electricity_abs="0"
            CO_normed="8.311074" CO2_normed="715.206341" HC_normed="0.054269" PMx_normed="0.010055" NOx_normed="0.274342" fuel_normed="0.307438" electricity_normed="0"
            traveltime="1.27" CO_perVeh="3.549355" CO2_perVeh="305.438406" HC_perVeh="0.023176" PMx_perVeh="0.004294" NOx_perVeh="0.117161" fuel_perVeh="0.131296" electricity_perVeh="0"/>
        <edge id=":1110673630_1" sampledSeconds="7.30" CO_abs="14.131669" CO2_abs="1159.851459" HC_abs="0.090609" PMx_abs="0.014578" NOx_abs="0.435191" fuel_abs="0.498576" electricity_abs="0"
            CO_normed="0.941640" CO2_normed="77.284788" HC_normed="0.006038" PMx_normed="0.000971" NOx_normed="0.028998" fuel_normed="0.033222" electricity_normed="0"
            traveltime="1.03" CO_perVeh="2.000175" CO2_perVeh="164.163591" HC_perVeh="0.012825" PMx_perVeh="0.002063" NOx_perVeh="0.061596" fuel_perVeh="0.070568" electricity_perVeh="0"/>
        <edge id=":1110673650_0" sampledSeconds="142.94" CO_abs="2471.537593" CO2_abs="305335.507130" HC_abs="18.183427" PMx_abs="4.185162" NOx_abs="114.069067" fuel_abs="131.250902" electricity_abs="0"
            CO_normed="6312.995128" CO2_normed="779911.895608" HC_normed="46.445535" PMx_normed="10.690070" NOx_normed="291.364155" fuel_normed="335.251345" electricity_normed="0"
            traveltime="0.02" CO_perVeh="0.396822" CO2_perVeh="49.023630" HC_perVeh="0.002919" PMx_perVeh="0.000672" NOx_perVeh="0.018315" fuel_perVeh="0.021073" electricity_perVeh="0"/>
        <edge id=":1110673655_0" sampledSeconds="44.87" CO_abs="770.194897" CO2_abs="88458.539223" HC_abs="5.534993" PMx_abs="1.190333" NOx_abs="33.075974" fuel_abs="38.024676" electricity_abs="0"
            CO_normed="1967.292203" CO2_normed="225947.737479" HC_normed="14.137914" PMx_normed="3.040441" NOx_normed="84.485247" fuel_normed="97.125609" electricity_normed="0"
            traveltime="0.02" CO_perVeh="0.412200" CO2_perVeh="47.342007" HC_perVeh="0.002962" PMx_perVeh="0.000637" NOx_perVeh="0.017702" fuel_perVeh="0.020350" electricity_perVeh="0"/>
        <edge id=":1110673663_0" sampledSeconds="108.30" CO_abs="1988.879572" CO2_abs="215234.391402" HC_abs="14.010681" PMx_abs="3.196384" NOx_abs="82.381659" fuel_abs="92.520021" electricity_abs="0"
            CO_normed="93.043080" CO2_normed="10069.021253" HC_normed="0.655443" PMx_normed="0.149532" NOx_normed="3.853950" fuel_normed="4.328240" electricity_normed="0"
            traveltime="1.27" CO_perVeh="23.360329" CO2_perVeh="2528.029465" HC_perVeh="0.164562" PMx_perVeh="0.037543" NOx_perVeh="0.967611" fuel_perVeh="1.086691" electricity_perVeh="0"/>
        <edge id=":1110673663_1" sampledSeconds="153.64" CO_abs="2112.554418" CO2_abs="288250.202715" HC_abs="16.266289" PMx_abs="3.844100" NOx_abs="106.524684" fuel_abs="123.906692" electricity_abs="0"
            CO_normed="98.949612" CO2_normed="13501.306931" HC_normed="0.761894" PMx_normed="0.180053" NOx_normed="4.989493" fuel_normed="5.803647" electricity_normed="0"
            traveltime="1.24" CO_perVeh="17.060192" CO2_perVeh="2327.799802" HC_perVeh="0.131360" PMx_perVeh="0.031044" NOx_perVeh="0.860253" fuel_perVeh="1.000624" electricity_perVeh="0"/>
        <edge id=":1110673666_0" sampledSeconds="192.41" CO_abs="4518.184814" CO2_abs="348829.199876" HC_abs="28.561332" PMx_abs="4.902594" NOx_abs="134.355778" fuel_abs="149.947966" electricity_abs="0"