<?xml version="1.0" encoding="UTF-8"?>

<!-- generated on Tue Nov 10 07:08:34 2020 by Eclipse SUMO sumo Version 1.7.0
<configuration xmlns:xsi="http://www.w3.org/2001/XMLSchema-instance" xsi:noNamespaceSchemaLocation="http://sumo.dlr.de/xsd/sumoConfiguration.xsd">

    <input>
        <net-file value="../dataSets/Porto/8AM9AM_Routing_SaoBento/Porto.net.xml"/>
        <route-files value="../results/Porto/8AM9AM_Routing_SaoBento/cost_co-length/solution21/Porto.rou.xml"/>
        <additional-files value="moreOutputInfo.xml"/>
    </input>

    <output>
        <emission-output.precision value="6"/>
        <tripinfo-output value="../results/Porto/8AM9AM_Routing_SaoBento/cost_co-length/solution21/Porto-tripinfo"/>
    </output>

    <processing>
        <collision.action value="warn"/>
        <time-to-teleport value="-1"/>
    </processing>

    <emissions>
        <device.emissions.probability value="1"/>
    </emissions>

    <gui_only>
        <quit-on-end value="true"/>
        <start value="true"/>
    </gui_only>

</configuration>
-->

<meandata xmlns:xsi="http://www.w3.org/2001/XMLSchema-instance" xsi:noNamespaceSchemaLocation="http://sumo.dlr.de/xsd/meandata_file.xsd">
    <interval begin="0.00" end="8561.00" id="emissions-detector">
        <edge id=":1092997347_0" sampledSeconds="591.69" CO_abs="71509.764700" CO2_abs="3060120.654214" HC_abs="398.000941" PMx_abs="61.849456" NOx_abs="1323.680761" fuel_abs="1315.421682" electricity_abs="0"
            CO_normed="68342.470856" CO2_normed="2924582.502886" HC_normed="380.372776" PMx_normed="59.110034" NOx_normed="1265.052601" fuel_normed="1257.159331" electricity_normed="0"
            traveltime="0.07" CO_perVeh="8.205690" CO2_perVeh="351.146477" HC_perVeh="0.045670" PMx_perVeh="0.007097" NOx_perVeh="0.151891" fuel_perVeh="0.150944" electricity_perVeh="0"/>
        <edge id=":1103427051_0" sampledSeconds="19.45" CO_abs="1639.551199" CO2_abs="91945.068619" HC_abs="9.648760" PMx_abs="1.805822" NOx_abs="39.244272" fuel_abs="39.523118" electricity_abs="0"
            CO_normed="2377.414947" CO2_normed="133324.034425" HC_normed="13.991088" PMx_normed="2.618514" NOx_normed="56.905767" fuel_normed="57.310105" electricity_normed="0"
            traveltime="0.03" CO_perVeh="2.549710" CO2_perVeh="142.986218" HC_perVeh="0.015005" PMx_perVeh="0.002808" NOx_perVeh="0.061030" fuel_perVeh="0.061463" electricity_perVeh="0"/>
        <edge id=":1105984386_0" sampledSeconds="10.75" CO_abs="175.093325" CO2_abs="12556.920807" HC_abs="1.084720" PMx_abs="0.179117" NOx_abs="4.868952" fuel_abs="5.397732" electricity_abs="0"
            CO_normed="7.582778" CO2_normed="543.803413" HC_normed="0.046976" PMx_normed="0.007757" NOx_normed="0.210860" fuel_normed="0.233760" electricity_normed="0"
            traveltime="1.03" CO_perVeh="16.796643" CO2_perVeh="1204.581121" HC_perVeh="0.104057" PMx_perVeh="0.017183" NOx_perVeh="0.467077" fuel_perVeh="0.517803" electricity_perVeh="0"/>
        <edge id=":1105984390_0" sampledSeconds="10.73" CO_abs="9.249624" CO2_abs="544.507032" HC_abs="0.054456" PMx_abs="0.007513" NOx_abs="0.211247" fuel_abs="0.234064" electricity_abs="0"
            CO_normed="0.309679" CO2_normed="18.230218" HC_normed="0.001823" PMx_normed="0.000252" NOx_normed="0.007073" fuel_normed="0.007837" electricity_normed="0"
            traveltime="1.11" CO_perVeh="0.958779" CO2_perVeh="56.441432" HC_perVeh="0.005645" PMx_perVeh="0.000779" NOx_perVeh="0.021897" fuel_perVeh="0.024262" electricity_perVeh="0"/>
        <edge id=":1105984390_1" sampledSeconds="2392.02" CO_abs="58719.630806" CO2_abs="7162704.421781" HC_abs="437.972822" PMx_abs="128.419665" NOx_abs="2711.684247" fuel_abs="3078.916617" electricity_abs="0"
            CO_normed="1880.600702" CO2_normed="229398.359307" HC_normed="14.026859" PMx_normed="4.112868" NOx_normed="86.846515" fuel_normed="98.607785" electricity_normed="0"
            traveltime="0.65" CO_perVeh="15.867162" CO2_perVeh="1935.499046" HC_perVeh="0.118349" PMx_perVeh="0.034701" NOx_perVeh="0.732749" fuel_perVeh="0.831982" electricity_perVeh="0"/>
        <edge id=":1105984395_0" sampledSeconds="4.14" CO_abs="22.060190" CO2_abs="1983.012914" HC_abs="0.144774" PMx_abs="0.021450" NOx_abs="0.719529" fuel_abs="0.852426" electricity_abs="0"
            CO_normed="10.083224" CO2_normed="906.391280" HC_normed="0.066173" PMx_normed="0.009804" NOx_normed="0.328881" fuel_normed="0.389625" electricity_normed="0"
            traveltime="0.10" CO_perVeh="0.511347" CO2_perVeh="45.965530" HC_perVeh="0.003356" PMx_perVeh="0.000497" NOx_perVeh="0.016678" fuel_perVeh="0.019759" electricity_perVeh="0"/>
        <edge id=":1105984398_0" sampledSeconds="10.97" CO_abs="766.721202" CO2_abs="50321.708200" HC_abs="4.682163" PMx_abs="0.936147" NOx_abs="20.997246" fuel_abs="21.631059" electricity_abs="0"
            CO_normed="26.667922" CO2_normed="1750.278177" HC_normed="0.162854" PMx_normed="0.032561" NOx_normed="0.730321" fuel_normed="0.752367" electricity_normed="0"
            traveltime="1.15" CO_perVeh="80.558560" CO2_perVeh="5287.246988" HC_perVeh="0.491950" PMx_perVeh="0.098360" NOx_perVeh="2.206158" fuel_perVeh="2.272752" electricity_perVeh="0"/>
        <edge id=":1105984398_1" sampledSeconds="646.54" CO_abs="12126.747821" CO2_abs="1427596.069981" HC_abs="87.939653" PMx_abs="20.485851" NOx_abs="539.808486" fuel_abs="613.662612" electricity_abs="0"
            CO_normed="408.281697" CO2_normed="48064.110458" HC_normed="2.960740" PMx_normed="0.689715" NOx_normed="18.174199" fuel_normed="20.660709" electricity_normed="0"
            traveltime="0.95" CO_perVeh="17.835534" CO2_perVeh="2099.650967" HC_perVeh="0.129338" PMx_perVeh="0.030130" NOx_perVeh="0.793929" fuel_perVeh="0.902550" electricity_perVeh="0"/>
        <edge id=":1106006327_0" sampledSeconds="387.86" CO_abs="52282.241590" CO2_abs="1699218.144953" HC_abs="278.058112" PMx_abs="35.428936" NOx_abs="743.709822" fuel_abs="730.433848" electricity_abs="0"
            CO_normed="2481.409733" CO2_normed="80647.966035" HC_normed="13.197141" PMx_normed="1.681521" NOx_normed="35.297813" fuel_normed="34.667711" electricity_normed="0"
            traveltime="2.09" CO_perVeh="281.284367" CO2_perVeh="9141.985615" HC_perVeh="1.495984" PMx_perVeh="0.190612" NOx_perVeh="4.001243" fuel_perVeh="3.929817" electricity_perVeh="0"/>
        <edge id=":1106006327_1" sampledSeconds="684.62" CO_abs="92271.667428" CO2_abs="3073594.573134" HC_abs="492.558163" PMx_abs="64.023958" NOx_abs="1344.595792" fuel_abs="1321.227871" electricity_abs="0"
            CO_normed="3819.026435" CO2_normed="127212.818974" HC_normed="20.386460" PMx_normed="2.649884" NOx_normed="55.651393" fuel_normed="54.684220" electricity_normed="0"
            traveltime="2.30" CO_perVeh="309.733654" CO2_perVeh="10317.313029" HC_perVeh="1.653399" PMx_perVeh="0.214913" NOx_perVeh="4.513483" fuel_perVeh="4.435042" electricity_perVeh="0"/>
        <edge id=":1106006327_2" sampledSeconds="0.00" CO_abs="0" CO2_abs="0" HC_abs="0" PMx_abs="0" NOx_abs="0" fuel_abs="0" electricity_abs="0"
            CO_normed="0" CO2_normed="0" HC_normed="0" PMx_normed="0" NOx_normed="0" fuel_normed="0" electricity_normed="0"/>
        <edge id=":1106006327_3" sampledSeconds="0.00" CO_abs="0" CO2_abs="0" HC_abs="0" PMx_abs="0" NOx_abs="0" fuel_abs="0" electricity_abs="0"
            CO_normed="0" CO2_normed="0" HC_normed="0" PMx_normed="0" NOx_normed="0" fuel_normed="0" electricity_normed="0"/>
        <edge id=":1107381198_0" sampledSeconds="0.00" CO_abs="0" CO2_abs="0" HC_abs="0" PMx_abs="0" NOx_abs="0" fuel_abs="0" electricity_abs="0"
            CO_normed="0" CO2_normed="0" HC_normed="0" PMx_normed="0" NOx_normed="0" fuel_normed="0" electricity_normed="0"/>
        <edge id=":1107381198_1" sampledSeconds="103.48" CO_abs="4379.621626" CO2_abs="175855.203777" HC_abs="24.011606" PMx_abs="3.138835" NOx_abs="73.521711" fuel_abs="75.593867" electricity_abs="0"
            CO_normed="200.837709" CO2_normed="8064.248316" HC_normed="1.101108" PMx_normed="0.143939" NOx_normed="3.371509" fuel_normed="3.466532" electricity_normed="0"
            traveltime="1.55" CO_perVeh="65.571996" CO2_perVeh="2632.916213" HC_perVeh="0.359503" PMx_perVeh="0.046995" NOx_perVeh="1.100772" fuel_perVeh="1.131797" electricity_perVeh="0"/>
        <edge id=":1110338277_0" sampledSeconds="159.46" CO_abs="2708.151180" CO2_abs="328448.653122" HC_abs="19.833659" PMx_abs="4.498841" NOx_abs="122.899767" fuel_abs="141.186306" electricity_abs="0"
            CO_normed="4067.175167" CO2_normed="493273.128657" HC_normed="29.786729" PMx_normed="6.756482" NOx_normed="184.574216" fuel_normed="212.037439" electricity_normed="0"
            traveltime="0.02" CO_perVeh="0.367253" CO2_perVeh="44.541026" HC_perVeh="0.002690" PMx_perVeh="0.000610" NOx_perVeh="0.016666" fuel_perVeh="0.019146" electricity_perVeh="0"/>
        <edge id=":1110338293_0" sampledSeconds="6297.57" CO_abs="575246.220922" CO2_abs="10161977.483287" HC_abs="2856.985371" PMx_abs="241.423170" NOx_abs="4587.355335" fuel_abs="4368.459982" electricity_abs="0"
            CO_normed="806325.738940" CO2_normed="14244098.796804" HC_normed="4004.651845" PMx_normed="338.404163" NOx_normed="6430.120782" fuel_normed="6123.293983" electricity_normed="0"
            traveltime="0.42" CO_perVeh="38.446606" CO2_perVeh="679.176195" HC_perVeh="0.190947" PMx_perVeh="0.016136" NOx_perVeh="0.306596" fuel_perVeh="0.291966" electricity_perVeh="0"/>
        <edge id=":1110338295_0" sampledSeconds="0.00" CO_abs="0" CO2_abs="0" HC_abs="0" PMx_abs="0" NOx_abs="0" fuel_abs="0" electricity_abs="0"
            CO_normed="0" CO2_normed="0" HC_normed="0" PMx_normed="0" NOx_normed="0" fuel_normed="0" electricity_normed="0"/>
        <edge id=":1110673403_0" sampledSeconds="200.45" CO_abs="3127.440086" CO2_abs="384004.628235" HC_abs="23.032185" PMx_abs="5.295427" NOx_abs="143.759630" fuel_abs="165.067422" electricity_abs="0"
            CO_normed="4383.749682" CO2_normed="538261.364188" HC_normed="32.284338" PMx_normed="7.422628" NOx_normed="201.508651" fuel_normed="231.375898" electricity_normed="0"
            traveltime="0.02" CO_perVeh="0.361458" CO2_perVeh="44.381858" HC_perVeh="0.002662" PMx_perVeh="0.000612" NOx_perVeh="0.016615" fuel_perVeh="0.019078" electricity_perVeh="0"/>
        <edge id=":1110673412_0" sampledSeconds="940.59" CO_abs="166516.548323" CO2_abs="11385027.398972" HC_abs="1036.780464" PMx_abs="249.946619" NOx_abs="4890.683326" fuel_abs="4893.862655" electricity_abs="0"
            CO_normed="241455.668634" CO2_normed="16508746.011906" HC_normed="1503.373225" PMx_normed="362.432615" NOx_normed="7091.686828" fuel_normed="7096.296983" electricity_normed="0"
            traveltime="0.02" CO_perVeh="2.749744" CO2_perVeh="188.004780" HC_perVeh="0.017121" PMx_perVeh="0.004127" NOx_perVeh="0.080761" fuel_perVeh="0.080814" electricity_perVeh="0"/>
        <edge id=":1110673414_0" sampledSeconds="0.00" CO_abs="0" CO2_abs="0" HC_abs="0" PMx_abs="0" NOx_abs="0" fuel_abs="0" electricity_abs="0"
            CO_normed="0" CO2_normed="0" HC_normed="0" PMx_normed="0" NOx_normed="0" fuel_normed="0" electricity_normed="0"/>
        <edge id=":1110673414_1" sampledSeconds="7.04" CO_abs="424.824721" CO2_abs="16468.242734" HC_abs="2.312677" PMx_abs="0.281972" NOx_abs="6.811139" fuel_abs="7.079139" electricity_abs="0"
            CO_normed="19.783359" CO2_normed="766.897837" HC_normed="0.107697" PMx_normed="0.013131" NOx_normed="0.317183" fuel_normed="0.329663" electricity_normed="0"
            traveltime="1.54" CO_perVeh="92.795531" CO2_perVeh="3597.199610" HC_perVeh="0.505164" PMx_perVeh="0.061592" NOx_perVeh="1.487774" fuel_perVeh="1.546314" electricity_perVeh="0"/>
        <edge id=":1110673417_0" sampledSeconds="28.97" CO_abs="463.379715" CO2_abs="52961.119620" HC_abs="3.333509" PMx_abs="0.736208" NOx_abs="19.942724" fuel_abs="22.765768" electricity_abs="0"
            CO_normed="695.916271" CO2_normed="79538.451212" HC_normed="5.006355" PMx_normed="1.105658" NOx_normed="29.950526" fuel_normed="34.190250" electricity_normed="0"
            traveltime="0.02" CO_perVeh="0.353349" CO2_perVeh="40.385396" HC_perVeh="0.002542" PMx_perVeh="0.000561" NOx_perVeh="0.015207" fuel_perVeh="0.017360" electricity_perVeh="0"/>
        <edge id=":1110673446_0" sampledSeconds="1314.11" CO_abs="13966.914691" CO2_abs="1127899.674683" HC_abs="90.346762" PMx_abs="20.597233" NOx_abs="461.077601" fuel_abs="484.832354" electricity_abs="0"
            CO_normed="19577.499858" CO2_normed="1580983.073963" HC_normed="126.639545" PMx_normed="28.871252" NOx_normed="646.294967" fuel_normed="679.592132" electricity_normed="0"
            traveltime="0.02" CO_perVeh="0.242522" CO2_perVeh="19.584866" HC_perVeh="0.001569" PMx_perVeh="0.000358" NOx_perVeh="0.008006" fuel_perVeh="0.008419" electricity_perVeh="0"/>
        <edge id=":1110673451_0" sampledSeconds="36.93" CO_abs="393.548208" CO2_abs="27884.348175" HC_abs="2.427603" PMx_abs="0.384718" NOx_abs="10.730736" fuel_abs="11.986420" electricity_abs="0"
            CO_normed="612.931836" CO2_normed="43428.490714" HC_normed="3.780872" PMx_normed="0.599179" NOx_normed="16.712590" fuel_normed="18.668256" electricity_normed="0"
            traveltime="0.03" CO_perVeh="0.289958" CO2_perVeh="20.544600" HC_perVeh="0.001789" PMx_perVeh="0.000283" NOx_perVeh="0.007906" fuel_perVeh="0.008831" electricity_perVeh="0"/>
        <edge id=":1110673464_0" sampledSeconds="1020.68" CO_abs="2692.831030" CO2_abs="201423.358253" HC_abs="16.852897" PMx_abs="2.744776" NOx_abs="77.138207" fuel_abs="86.584178" electricity_abs="0"
            CO_normed="80.195945" CO2_normed="5998.644701" HC_normed="0.501901" PMx_normed="0.081743" NOx_normed="2.297274" fuel_normed="2.578587" electricity_normed="0"
            traveltime="1.21" CO_perVeh="3.193323" CO2_perVeh="238.860070" HC_perVeh="0.019985" PMx_perVeh="0.003255" NOx_perVeh="0.091475" fuel_perVeh="0.102677" electricity_perVeh="0"/>
        <edge id=":1110673464_1" sampledSeconds="2600.68" CO_abs="61592.663895" CO2_abs="7623220.491011" HC_abs="462.092888" PMx_abs="135.633949" NOx_abs="2883.624581" fuel_abs="3276.871684" electricity_abs="0"
            CO_normed="1797.392854" CO2_normed="222460.292655" HC_normed="13.484763" PMx_normed="3.958061" NOx_normed="84.149733" fuel_normed="95.625443" electricity_normed="0"
            traveltime="0.72" CO_perVeh="16.976345" CO2_perVeh="2101.133701" HC_perVeh="0.127363" PMx_perVeh="0.037384" NOx_perVeh="0.794793" fuel_perVeh="0.903181" electricity_perVeh="0"/>
        <edge id=":1110673479_0" sampledSeconds="134.73" CO_abs="6603.167928" CO2_abs="451857.816311" HC_abs="40.682984" PMx_abs="7.920085" NOx_abs="184.934446" fuel_abs="194.234085" electricity_abs="0"
            CO_normed="9255.696196" CO2_normed="633371.544882" HC_normed="57.025559" PMx_normed="11.101626" NOx_normed="259.223613" fuel_normed="272.258968" electricity_normed="0"
            traveltime="0.03" CO_perVeh="1.395979" CO2_perVeh="95.527513" HC_perVeh="0.008601" PMx_perVeh="0.001674" NOx_perVeh="0.039097" fuel_perVeh="0.041063" electricity_perVeh="0"/>
        <edge id=":1110673511_0" sampledSeconds="63.72" CO_abs="896.139667" CO2_abs="104846.080492" HC_abs="6.460080" PMx_abs="1.418002" NOx_abs="39.188975" fuel_abs="45.068980" electricity_abs="0"
            CO_normed="1256.123818" CO2_normed="146963.318058" HC_normed="9.055129" PMx_normed="1.987621" NOx_normed="54.931398" fuel_normed="63.173433" electricity_normed="0"
            traveltime="0.02" CO_perVeh="0.343458" CO2_perVeh="40.183742" HC_perVeh="0.002476" PMx_perVeh="0.000543" NOx_perVeh="0.015020" fuel_perVeh="0.017273" electricity_perVeh="0"/>
        <edge id=":1110673517_0" sampledSeconds="182.60" CO_abs="8303.609987" CO2_abs="581677.986785" HC_abs="51.515242" PMx_abs="10.365361" NOx_abs="238.846028" fuel_abs="250.037753" electricity_abs="0"
            CO_normed="11639.215026" CO2_normed="815341.179935" HC_normed="72.209194" PMx_normed="14.529183" NOx_normed="334.791770" fuel_normed="350.479270" electricity_normed="0"
            traveltime="0.03" CO_perVeh="1.271357" CO2_perVeh="89.060113" HC_perVeh="0.007887" PMx_perVeh="0.001587" NOx_perVeh="0.036569" fuel_perVeh="0.038283" electricity_perVeh="0"/>
        <edge id=":1110673534_0" sampledSeconds="660.45" CO_abs="4116.694558" CO2_abs="339058.581071" HC_abs="26.496163" PMx_abs="4.622931" NOx_abs="129.288596" fuel_abs="145.747983" electricity_abs="0"
            CO_normed="111.829322" CO2_normed="9210.469899" HC_normed="0.719764" PMx_normed="0.125581" NOx_normed="3.512103" fuel_normed="3.959220" electricity_normed="0"
            traveltime="1.45" CO_perVeh="9.052007" CO2_perVeh="745.540027" HC_perVeh="0.058261" PMx_perVeh="0.010165" NOx_perVeh="0.284287" fuel_perVeh="0.320478" electricity_perVeh="0"/>
        <edge id=":1110673534_1" sampledSeconds="265.16" CO_abs="4370.755851" CO2_abs="528861.350238" HC_abs="31.910305" PMx_abs="7.323085" NOx_abs="198.169152" fuel_abs="227.335218" electricity_abs="0"
            CO_normed="115.449349" CO2_normed="13969.368370" HC_normed="0.842880" PMx_normed="0.193432" NOx_normed="5.234449" fuel_normed="6.004843" electricity_normed="0"
            traveltime="1.23" CO_perVeh="20.279211" CO2_perVeh="2453.783988" HC_perVeh="0.148056" PMx_perVeh="0.033977" NOx_perVeh="0.919455" fuel_perVeh="1.054778" electricity_perVeh="0"/>
        <edge id=":1110673549_0" sampledSeconds="648.57" CO_abs="1460.482715" CO2_abs="138673.920950" HC_abs="9.802954" PMx_abs="2.006033" NOx_abs="52.817084" fuel_abs="59.610184" electricity_abs="0"
            CO_normed="38.432413" CO2_normed="3649.186201" HC_normed="0.257963" PMx_normed="0.052789" NOx_normed="1.389875" fuel_normed="1.568634" electricity_normed="0"
            traveltime="1.29" CO_perVeh="2.901631" CO2_perVeh="275.512015" HC_perVeh="0.019476" PMx_perVeh="0.003986" NOx_perVeh="0.104935" fuel_perVeh="0.118431" electricity_perVeh="0"/>
        <edge id=":1110673549_1" sampledSeconds="3195.78" CO_abs="70656.949748" CO2_abs="9285639.906878" HC_abs="542.924446" PMx_abs="163.239505" NOx_abs="3470.010083" fuel_abs="3991.471615" electricity_abs="0"
            CO_normed="1798.551367" CO2_normed="236363.166038" HC_normed="13.819978" PMx_normed="4.155212" NOx_normed="88.328061" fuel_normed="101.601707" electricity_normed="0"
            traveltime="0.81" CO_perVeh="17.822985" CO2_perVeh="2342.272353" HC_perVeh="0.136951" PMx_perVeh="0.041177" NOx_perVeh="0.875299" fuel_perVeh="1.006836" electricity_perVeh="0"/>
        <edge id=":1110673556_0" sampledSeconds="468.11" CO_abs="58085.284560" CO2_abs="2781490.567151" HC_abs="330.563184" PMx_abs="56.302263" NOx_abs="1200.174505" fuel_abs="1195.644238" electricity_abs="0"
            CO_normed="1133.435603" CO2_normed="54276.060849" HC_normed="6.450379" PMx_normed="1.098643" NOx_normed="23.419366" fuel_normed="23.330965" electricity_normed="0"
            traveltime="2.76" CO_perVeh="342.407168" CO2_perVeh="16396.619450" HC_perVeh="1.948638" PMx_perVeh="0.331896" NOx_perVeh="7.074913" fuel_perVeh="7.048208" electricity_perVeh="0"/>
        <edge id=":1110673556_2" sampledSeconds="175.79" CO_abs="18102.559894" CO2_abs="776302.094352" HC_abs="100.667011" PMx_abs="15.026153" NOx_abs="331.371144" fuel_abs="333.701762" electricity_abs="0"
            CO_normed="369.351617" CO2_normed="15839.109812" HC_normed="2.053937" PMx_normed="0.306583" NOx_normed="6.761059" fuel_normed="6.808611" electricity_normed="0"
            traveltime="3.04" CO_perVeh="313.019128" CO2_perVeh="13423.372512" HC_perVeh="1.740676" PMx_perVeh="0.259824" NOx_perVeh="5.729881" fuel_perVeh="5.770180" electricity_perVeh="0"/>
        <edge id=":1110673556_3" sampledSeconds="353.07" CO_abs="36109.954640" CO2_abs="1248474.185762" HC_abs="193.602772" PMx_abs="24.613674" NOx_abs="537.514836" fuel_abs="536.675113" electricity_abs="0"
            CO_normed="1676.010553" CO2_normed="57946.788683" HC_normed="8.985896" PMx_normed="1.142421" NOx_normed="24.948260" fuel_normed="24.909285" electricity_normed="0"
            traveltime="1.82" CO_perVeh="186.533887" CO2_perVeh="6449.267120" HC_perVeh="1.000098" PMx_perVeh="0.127147" NOx_perVeh="2.776651" fuel_perVeh="2.772313" electricity_perVeh="0"/>
        <edge id=":1110673556_4" sampledSeconds="73.94" CO_abs="8547.682682" CO2_abs="332883.255662" HC_abs="46.755244" PMx_abs="6.656031" NOx_abs="143.719512" fuel_abs="143.093750" electricity_abs="0"
            CO_normed="242.373561" CO2_normed="9439.061223" HC_normed="1.325767" PMx_normed="0.188735" NOx_normed="4.075234" fuel_normed="4.057491" electricity_normed="0"
            traveltime="2.55" CO_perVeh="294.275546" CO2_perVeh="11460.346089" HC_perVeh="1.609667" PMx_perVeh="0.229151" NOx_perVeh="4.947907" fuel_perVeh="4.926363" electricity_perVeh="0"/>
        <edge id=":1110673556_5" sampledSeconds="22.08" CO_abs="1557.909139" CO2_abs="72186.027536" HC_abs="8.779285" PMx_abs="1.323443" NOx_abs="30.340243" fuel_abs="31.029941" electricity_abs="0"
            CO_normed="61.571325" CO2_normed="2852.919507" HC_normed="0.346973" PMx_normed="0.052305" NOx_normed="1.199100" fuel_normed="1.226358" electricity_normed="0"
            traveltime="1.53" CO_perVeh="107.707299" CO2_perVeh="4990.638941" HC_perVeh="0.606963" PMx_perVeh="0.091497" NOx_perVeh="2.097597" fuel_perVeh="2.145280" electricity_perVeh="0"/>
        <edge id=":1110673556_6" sampledSeconds="548.41" CO_abs="64937.760724" CO2_abs="3139148.496848" HC_abs="370.241245" PMx_abs="63.329639" NOx_abs="1353.024476" fuel_abs="1349.385945" electricity_abs="0"
            CO_normed="1299.100053" CO2_normed="62799.639752" HC_normed="7.406791" PMx_normed="1.266929" NOx_normed="27.067674" fuel_normed="26.994885" electricity_normed="0"
            traveltime="2.66" CO_perVeh="315.287186" CO2_perVeh="15241.260002" HC_perVeh="1.797603" PMx_perVeh="0.307479" NOx_perVeh="6.569233" fuel_perVeh="6.551567" electricity_perVeh="0"/>
        <edge id=":1110673561_0" sampledSeconds="102.86" CO_abs="10107.468473" CO2_abs="708328.305207" HC_abs="63.074550" PMx_abs="14.457170" NOx_abs="300.918980" fuel_abs="304.476523" electricity_abs="0"
            CO_normed="254.053076" CO2_normed="17803.962036" HC_normed="1.585390" PMx_normed="0.363384" NOx_normed="7.563654" fuel_normed="7.653073" electricity_normed="0"
            traveltime="1.21" CO_perVeh="119.277938" CO2_perVeh="8358.961505" HC_perVeh="0.744341" PMx_perVeh="0.170609" NOx_perVeh="3.551136" fuel_perVeh="3.593118" electricity_perVeh="0"/>
        <edge id=":1110673561_1" sampledSeconds="5199.22" CO_abs="480926.243205" CO2_abs="33332817.566442" HC_abs="2996.262043" PMx_abs="696.138412" NOx_abs="14247.898212" fuel_abs="14328.169088" electricity_abs="0"
            CO_normed="11785.260770" CO2_normed="816832.004458" HC_normed="73.424418" PMx_normed="17.059108" NOx_normed="349.149580" fuel_normed="351.116645" electricity_normed="0"
            traveltime="1.19" CO_perVeh="110.514044" CO2_perVeh="7659.686957" HC_perVeh="0.688524" PMx_perVeh="0.159969" NOx_perVeh="3.274084" fuel_perVeh="3.292530" electricity_perVeh="0"/>
        <edge id=":1110673562_0" sampledSeconds="302.55" CO_abs="6450.665023" CO2_abs="501921.221623" HC_abs="40.800744" PMx_abs="6.708099" NOx_abs="191.119559" fuel_abs="215.756692" electricity_abs="0"
            CO_normed="10046.591167" CO2_normed="781717.434291" HC_normed="63.545137" PMx_normed="10.447533" NOx_normed="297.659245" fuel_normed="336.030359" electricity_normed="0"
            traveltime="0.03" CO_perVeh="0.578247" CO2_perVeh="44.992938" HC_perVeh="0.003657" PMx_perVeh="0.000601" NOx_perVeh="0.017132" fuel_perVeh="0.019341" electricity_perVeh="0"/>
        <edge id=":1110673564_0" sampledSeconds="27.88" CO_abs="437.531614" CO2_abs="56441.438039" HC_abs="3.278052" PMx_abs="0.715761" NOx_abs="20.741954" fuel_abs="24.261874" electricity_abs="0"
            CO_normed="1839.871290" CO2_normed="237342.806847" HC_normed="13.784590" PMx_normed="3.009857" NOx_normed="87.222327" fuel_normed="102.023999" electricity_normed="0"
            traveltime="7.875622e-03" CO_perVeh="0.123579" CO2_perVeh="15.941657" HC_perVeh="0.000926" PMx_perVeh="0.000202" NOx_perVeh="0.005858" fuel_perVeh="0.006853" electricity_perVeh="0"/>
        <edge id=":1110673588_0" sampledSeconds="63.04" CO_abs="890.928143" CO2_abs="103322.542923" HC_abs="6.409707" PMx_abs="1.344208" NOx_abs="38.365886" fuel_abs="44.414156" electricity_abs="0"
            CO_normed="1498.582556" CO2_normed="173793.320651" HC_normed="10.781425" PMx_normed="2.261020" NOx_normed="64.533204" fuel_normed="74.706676" electricity_normed="0"
            traveltime="0.02" CO_perVeh="0.287396" CO2_perVeh="33.329853" HC_perVeh="0.002068" PMx_perVeh="0.000434" NOx_perVeh="0.012376" fuel_perVeh="0.014327" electricity_perVeh="0"/>
        <edge id=":1110673601_0" sampledSeconds="28.92" CO_abs="588.369364" CO2_abs="61477.434657" HC_abs="4.076868" PMx_abs="0.908715" NOx_abs="23.532612" fuel_abs="26.426527" electricity_abs="0"
            CO_normed="883.629128" CO2_normed="92328.484975" HC_normed="6.122752" PMx_normed="1.364734" NOx_normed="35.341917" fuel_normed="39.688077" electricity_normed="0"
            traveltime="0.02" CO_perVeh="0.448660" CO2_perVeh="46.879495" HC_perVeh="0.003109" PMx_perVeh="0.000693" NOx_perVeh="0.017945" fuel_perVeh="0.020151" electricity_perVeh="0"/>
        <edge id=":1110673617_0" sampledSeconds="852.23" CO_abs="31977.439829" CO2_abs="3256008.064271" HC_abs="223.626298" PMx_abs="61.295201" NOx_abs="1275.153356" fuel_abs="1399.605531" electricity_abs="0"
            CO_normed="44822.950351" CO2_normed="4563964.112984" HC_normed="313.458192" PMx_normed="85.917815" NOx_normed="1787.389356" fuel_normed="1961.834642" electricity_normed="0"
            traveltime="0.02" CO_perVeh="0.567022" CO2_perVeh="57.735349" HC_perVeh="0.003965" PMx_perVeh="0.001087" NOx_perVeh="0.022611" fuel_perVeh="0.024818" electricity_perVeh="0"/>
        <edge id=":1110673621_0" sampledSeconds="26.34" CO_abs="626.325976" CO2_abs="59635.693681" HC_abs="4.226860" PMx_abs="0.880759" NOx_abs="22.985121" fuel_abs="25.634877" electricity_abs="0"
            CO_normed="1053.509410" CO2_normed="100310.009228" HC_normed="7.109776" PMx_normed="1.481478" NOx_normed="38.662043" fuel_normed="43.119055" electricity_normed="0"
            traveltime="0.02" CO_perVeh="0.474489" CO2_perVeh="45.178556" HC_perVeh="0.003202" PMx_perVeh="0.000667" NOx_perVeh="0.017413" fuel_perVeh="0.019420" electricity_perVeh="0"/>
        <edge id=":1110673630_0" sampledSeconds="286.90" CO_abs="1364.887515" CO2_abs="120064.147680" HC_abs="8.953876" PMx_abs="1.583813" NOx_abs="45.329387" fuel_abs="51.610880" electricity_abs="0"
            CO_normed="40.938022" CO2_normed="3601.167585" HC_normed="0.268560" PMx_normed="0.047504" NOx_normed="1.359596" fuel_normed="1.548001" electricity_normed="0"
            traveltime="1.29" CO_perVeh="6.141473" CO2_perVeh="540.242809" HC_perVeh="0.040289" PMx_perVeh="0.007127" NOx_perVeh="0.203965" fuel_perVeh="0.232229" electricity_perVeh="0"/>
        <edge id=":1110673630_1" sampledSeconds="334.24" CO_abs="1251.237516" CO2_abs="100500.111425" HC_abs="7.995462" PMx_abs="1.384289" NOx_abs="38.492933" fuel_abs="43.201052" electricity_abs="0"
            CO_normed="45.753036" CO2_normed="3674.909993" HC_normed="0.292364" PMx_normed="0.050618" NOx_normed="1.407541" fuel_normed="1.579700" electricity_normed="0"
            traveltime="1.07" CO_perVeh="3.988707" CO2_perVeh="320.375200" HC_perVeh="0.025488" PMx_perVeh="0.004413" NOx_perVeh="0.122708" fuel_perVeh="0.137717" electricity_perVeh="0"/>
        <edge id=":1110673650_0" sampledSeconds="200.31" CO_abs="2945.467384" CO2_abs="359590.720356" HC_abs="21.622740" PMx_abs="4.899970" NOx_abs="134.344254" fuel_abs="154.573003" electricity_abs="0"
            CO_normed="4128.677562" CO2_normed="504040.257478" HC_normed="30.308712" PMx_normed="6.868315" NOx_normed="188.311067" fuel_normed="216.665814" electricity_normed="0"
            traveltime="0.02" CO_perVeh="0.340427" CO2_perVeh="41.560203" HC_perVeh="0.002499" PMx_perVeh="0.000566" NOx_perVeh="0.015527" fuel_perVeh="0.017865" electricity_perVeh="0"/>
        <edge id=":1110673655_0" sampledSeconds="20.75" CO_abs="215.672764" CO2_abs="31477.451242" HC_abs="1.681228" PMx_abs="0.359991" NOx_abs="11.269367" fuel_abs="13.530911" electricity_abs="0"
            CO_normed="302.309680" CO2_normed="44122.113644" HC_normed="2.356586" PMx_normed="0.504601" NOx_normed="15.796333" fuel_normed="18.966352" electricity_normed="0"
            traveltime="0.02" CO_perVeh="0.246389" CO2_perVeh="35.960531" HC_perVeh="0.001921" PMx_perVeh="0.000411" NOx_perVeh="0.012874" fuel_perVeh="0.015458" electricity_perVeh="0"/>
        <edge id=":1110673663_0" sampledSeconds="110.85" CO_abs="1942.757385" CO2_abs="213678.661017" HC_abs="13.774332" PMx_abs="3.028517" NOx_abs="80.937369" fuel_abs="91.851471" electricity_abs="0"
            CO_normed="49.874973" CO2_normed="5485.614190" HC_normed="0.353618" PMx_normed="0.077749" NOx_normed="2.077845" fuel_normed="2.358035" electricity_normed="0"
            traveltime="1.30" CO_perVeh="22.818602" CO2_perVeh="2509.756678" HC_perVeh="0.161786" PMx_perVeh="0.035571" NOx_perVeh="0.950648" fuel_perVeh="1.078839" electricity_perVeh="0"/>
        <edge id=":1110673663_1" sampledSeconds="170.48" CO_abs="2643.494231" CO2_abs="335006.970348" HC_abs="19.615577" PMx_abs="4.463463" NOx_abs="124.317730" fuel_abs="144.005555" electricity_abs="0"
            CO_normed="67.947436" CO2_normed="8610.900039" HC_normed="0.504192" PMx_normed="0.114727" NOx_normed="3.195419" fuel_normed="3.701468" electricity_normed="0"
            traveltime="1.27" CO_perVeh="19.764246" CO2_perVeh="2504.700066" HC_perVeh="0.146657" PMx_perVeh="0.033371" NOx_perVeh="0.929469" fuel_perVeh="1.076666" electricity_perVeh="0"/>