<?xml version="1.0" encoding="UTF-8"?>

<!-- generated on Tue Nov 10 05:29:09 2020 by Eclipse SUMO sumo Version 1.7.0
<configuration xmlns:xsi="http://www.w3.org/2001/XMLSchema-instance" xsi:noNamespaceSchemaLocation="http://sumo.dlr.de/xsd/sumoConfiguration.xsd">

    <input>
        <net-file value="../dataSets/Porto/8AM9AM_Routing_SaoBento/Porto.net.xml"/>
        <route-files value="../results/Porto/8AM9AM_Routing_SaoBento/cost_hc-ttime/solution3/Porto.rou.xml"/>
        <additional-files value="moreOutputInfo.xml"/>
    </input>

    <output>
        <emission-output.precision value="6"/>
        <tripinfo-output value="../results/Porto/8AM9AM_Routing_SaoBento/cost_hc-ttime/solution3/Porto-tripinfo"/>
    </output>

    <processing>
        <collision.action value="warn"/>
        <time-to-teleport value="-1"/>
    </processing>

    <emissions>
        <device.emissions.probability value="1"/>
    </emissions>

    <gui_only>
        <quit-on-end value="true"/>
        <start value="true"/>
    </gui_only>

</configuration>
-->

<meandata xmlns:xsi="http://www.w3.org/2001/XMLSchema-instance" xsi:noNamespaceSchemaLocation="http://sumo.dlr.de/xsd/meandata_file.xsd">
    <interval begin="0.00" end="8561.00" id="emissions-detector">
        <edge id=":1092997347_0" sampledSeconds="582.87" CO_abs="71012.232275" CO2_abs="3068330.211107" HC_abs="395.941014" PMx_abs="61.945590" NOx_abs="1326.530637" fuel_abs="1318.950180" electricity_abs="0"
            CO_normed="67866.975022" CO2_normed="2932428.443997" HC_normed="378.404087" PMx_normed="59.201911" NOx_normed="1267.776251" fuel_normed="1260.531546" electricity_normed="0"
            traveltime="0.07" CO_perVeh="8.135945" CO2_perVeh="351.541760" HC_perVeh="0.045363" PMx_perVeh="0.007097" NOx_perVeh="0.151982" fuel_perVeh="0.151113" electricity_perVeh="0"/>
        <edge id=":1103427051_0" sampledSeconds="19.47" CO_abs="1491.773098" CO2_abs="82909.885272" HC_abs="8.758737" PMx_abs="1.618727" NOx_abs="35.346973" fuel_abs="35.639316" electricity_abs="0"
            CO_normed="2163.130778" CO2_normed="120222.656465" HC_normed="12.700519" PMx_normed="2.347219" NOx_normed="51.254528" fuel_normed="51.678437" electricity_normed="0"
            traveltime="0.03" CO_perVeh="2.319896" CO2_perVeh="128.935364" HC_perVeh="0.013621" PMx_perVeh="0.002517" NOx_perVeh="0.054969" fuel_perVeh="0.055424" electricity_perVeh="0"/>
        <edge id=":1105984386_0" sampledSeconds="10.85" CO_abs="225.681325" CO2_abs="15661.268803" HC_abs="1.381132" PMx_abs="0.199504" NOx_abs="5.929335" fuel_abs="6.732212" electricity_abs="0"
            CO_normed="9.773596" CO2_normed="678.243620" HC_normed="0.059813" PMx_normed="0.008640" NOx_normed="0.256782" fuel_normed="0.291552" electricity_normed="0"
            traveltime="1.04" CO_perVeh="21.649532" CO2_perVeh="1502.380163" HC_perVeh="0.132491" PMx_perVeh="0.019138" NOx_perVeh="0.568799" fuel_perVeh="0.645819" electricity_perVeh="0"/>
        <edge id=":1105984390_0" sampledSeconds="10.61" CO_abs="0" CO2_abs="0" HC_abs="0" PMx_abs="0" NOx_abs="0" fuel_abs="0" electricity_abs="0"
            CO_normed="0" CO2_normed="0" HC_normed="0" PMx_normed="0" NOx_normed="0" fuel_normed="0" electricity_normed="0"
            traveltime="1.10" CO_perVeh="0" CO2_perVeh="0" HC_perVeh="0" PMx_perVeh="0" NOx_perVeh="0" fuel_perVeh="0" electricity_perVeh="0"/>
        <edge id=":1105984390_1" sampledSeconds="2398.00" CO_abs="64464.088127" CO2_abs="7648385.367886" HC_abs="476.214095" PMx_abs="138.137248" NOx_abs="2911.236814" fuel_abs="3287.687587" electricity_abs="0"
            CO_normed="2064.577174" CO2_normed="244953.156158" HC_normed="15.251604" PMx_normed="4.424091" NOx_normed="93.237541" fuel_normed="105.294047" electricity_normed="0"
            traveltime="0.65" CO_perVeh="17.399038" CO2_perVeh="2064.320615" HC_perVeh="0.128532" PMx_perVeh="0.037284" NOx_perVeh="0.785751" fuel_perVeh="0.887356" electricity_perVeh="0"/>
        <edge id=":1105984395_0" sampledSeconds="4.02" CO_abs="137.639550" CO2_abs="10360.558089" HC_abs="0.863516" PMx_abs="0.144359" NOx_abs="3.990530" fuel_abs="4.453601" electricity_abs="0"
            CO_normed="62.911990" CO2_normed="4735.581621" HC_normed="0.394694" PMx_normed="0.065983" NOx_normed="1.823983" fuel_normed="2.035642" electricity_normed="0"
            traveltime="0.09" CO_perVeh="3.190436" CO2_perVeh="240.154030" HC_perVeh="0.020016" PMx_perVeh="0.003346" NOx_perVeh="0.092499" fuel_perVeh="0.103233" electricity_perVeh="0"/>
        <edge id=":1105984398_0" sampledSeconds="11.37" CO_abs="549.469232" CO2_abs="36484.102899" HC_abs="3.355522" PMx_abs="0.626035" NOx_abs="14.878892" fuel_abs="15.682965" electricity_abs="0"
            CO_normed="19.111514" CO2_normed="1268.981746" HC_normed="0.116711" PMx_normed="0.021775" NOx_normed="0.517514" fuel_normed="0.545481" electricity_normed="0"
            traveltime="1.25" CO_perVeh="60.474270" CO2_perVeh="4015.419527" HC_perVeh="0.369307" PMx_perVeh="0.068901" NOx_perVeh="1.637562" fuel_perVeh="1.726058" electricity_perVeh="0"/>
        <edge id=":1105984398_1" sampledSeconds="643.12" CO_abs="12425.049893" CO2_abs="1433220.365285" HC_abs="89.557688" PMx_abs="20.739333" NOx_abs="543.415296" fuel_abs="616.080190" electricity_abs="0"
            CO_normed="418.324891" CO2_normed="48253.468468" HC_normed="3.015216" PMx_normed="0.698249" NOx_normed="18.295632" fuel_normed="20.742104" electricity_normed="0"
            traveltime="0.95" CO_perVeh="18.396150" CO2_perVeh="2121.982378" HC_perVeh="0.132596" PMx_perVeh="0.030706" NOx_perVeh="0.804564" fuel_perVeh="0.912150" electricity_perVeh="0"/>
        <edge id=":1106006327_0" sampledSeconds="381.02" CO_abs="51304.332345" CO2_abs="1667968.958844" HC_abs="272.867022" PMx_abs="34.761362" NOx_abs="729.938771" fuel_abs="717.000936" electricity_abs="0"
            CO_normed="2434.996392" CO2_normed="79164.823151" HC_normed="12.950762" PMx_normed="1.649837" NOx_normed="34.644214" fuel_normed="34.030161" electricity_normed="0"
            traveltime="2.08" CO_perVeh="280.661392" CO2_perVeh="9124.658077" HC_perVeh="1.492725" PMx_perVeh="0.190163" NOx_perVeh="3.993145" fuel_perVeh="3.922368" electricity_perVeh="0"/>
        <edge id=":1106006327_1" sampledSeconds="678.82" CO_abs="91783.378121" CO2_abs="3078824.103647" HC_abs="490.489426" PMx_abs="64.193627" NOx_abs="1347.272934" fuel_abs="1323.475214" electricity_abs="0"
            CO_normed="3798.816658" CO2_normed="127429.263695" HC_normed="20.300837" PMx_normed="2.656906" NOx_normed="55.762198" fuel_normed="54.777235" electricity_normed="0"
            traveltime="2.28" CO_perVeh="308.094584" CO2_perVeh="10334.867297" HC_perVeh="1.646454" PMx_perVeh="0.215482" NOx_perVeh="4.522469" fuel_perVeh="4.442586" electricity_perVeh="0"/>
        <edge id=":1106006327_2" sampledSeconds="0.00" CO_abs="0" CO2_abs="0" HC_abs="0" PMx_abs="0" NOx_abs="0" fuel_abs="0" electricity_abs="0"
            CO_normed="0" CO2_normed="0" HC_normed="0" PMx_normed="0" NOx_normed="0" fuel_normed="0" electricity_normed="0"/>
        <edge id=":1106006327_3" sampledSeconds="0.00" CO_abs="0" CO2_abs="0" HC_abs="0" PMx_abs="0" NOx_abs="0" fuel_abs="0" electricity_abs="0"
            CO_normed="0" CO2_normed="0" HC_normed="0" PMx_normed="0" NOx_normed="0" fuel_normed="0" electricity_normed="0"/>
        <edge id=":1107381198_0" sampledSeconds="0.00" CO_abs="0" CO2_abs="0" HC_abs="0" PMx_abs="0" NOx_abs="0" fuel_abs="0" electricity_abs="0"
            CO_normed="0" CO2_normed="0" HC_normed="0" PMx_normed="0" NOx_normed="0" fuel_normed="0" electricity_normed="0"/>
        <edge id=":1107381198_1" sampledSeconds="102.48" CO_abs="4961.027874" CO2_abs="198970.726943" HC_abs="27.172066" PMx_abs="3.439057" NOx_abs="82.458070" fuel_abs="85.530581" electricity_abs="0"
            CO_normed="227.499442" CO2_normed="9124.264254" HC_normed="1.246038" PMx_normed="0.157706" NOx_normed="3.781306" fuel_normed="3.922203" electricity_normed="0"
            traveltime="1.53" CO_perVeh="74.276100" CO2_perVeh="2978.973299" HC_perVeh="0.406818" PMx_perVeh="0.051489" NOx_perVeh="1.234555" fuel_perVeh="1.280557" electricity_perVeh="0"/>
        <edge id=":1110338277_0" sampledSeconds="160.60" CO_abs="2443.276495" CO2_abs="302199.617092" HC_abs="18.033763" PMx_abs="4.178768" NOx_abs="113.118023" fuel_abs="129.902866" electricity_abs="0"
            CO_normed="3669.379154" CO2_normed="453851.611766" HC_normed="27.083596" PMx_normed="6.275787" NOx_normed="169.883726" fuel_normed="195.091660" electricity_normed="0"
            traveltime="0.02" CO_perVeh="0.330921" CO2_perVeh="40.930315" HC_perVeh="0.002443" PMx_perVeh="0.000566" NOx_perVeh="0.015321" fuel_perVeh="0.017594" electricity_perVeh="0"/>
        <edge id=":1110338293_0" sampledSeconds="6352.93" CO_abs="591433.953234" CO2_abs="10411194.037830" HC_abs="2936.522694" PMx_abs="247.651883" NOx_abs="4701.604639" fuel_abs="4475.595243" electricity_abs="0"
            CO_normed="829016.170869" CO2_normed="14593426.989132" HC_normed="4116.139742" PMx_normed="347.134984" NOx_normed="6590.264650" fuel_normed="6273.466058" electricity_normed="0"
            traveltime="0.43" CO_perVeh="39.570656" CO2_perVeh="696.574445" HC_perVeh="0.196472" PMx_perVeh="0.016569" NOx_perVeh="0.314567" fuel_perVeh="0.299446" electricity_perVeh="0"/>
        <edge id=":1110338295_0" sampledSeconds="0.00" CO_abs="0" CO2_abs="0" HC_abs="0" PMx_abs="0" NOx_abs="0" fuel_abs="0" electricity_abs="0"
            CO_normed="0" CO2_normed="0" HC_normed="0" PMx_normed="0" NOx_normed="0" fuel_normed="0" electricity_normed="0"/>
        <edge id=":1110673403_0" sampledSeconds="201.00" CO_abs="2749.019922" CO2_abs="345539.370829" HC_abs="20.379651" PMx_abs="4.677213" NOx_abs="128.705921" fuel_abs="148.532908" electricity_abs="0"
            CO_normed="3853.316092" CO2_normed="484344.404853" HC_normed="28.566268" PMx_normed="6.556075" NOx_normed="180.407786" fuel_normed="208.199380" electricity_normed="0"
            traveltime="0.02" CO_perVeh="0.317721" CO2_perVeh="39.936081" HC_perVeh="0.002355" PMx_perVeh="0.000541" NOx_perVeh="0.014875" fuel_perVeh="0.017167" electricity_perVeh="0"/>
        <edge id=":1110673412_0" sampledSeconds="963.49" CO_abs="171652.826928" CO2_abs="11688316.884476" HC_abs="1067.668932" PMx_abs="257.021157" NOx_abs="5024.939631" fuel_abs="5024.231708" electricity_abs="0"
            CO_normed="248903.478462" CO2_normed="16948527.920970" HC_normed="1548.162740" PMx_normed="372.690979" NOx_normed="7286.363853" fuel_normed="7285.337335" electricity_normed="0"
            traveltime="0.02" CO_perVeh="2.771683" CO2_perVeh="188.731578" HC_perVeh="0.017240" PMx_perVeh="0.004150" NOx_perVeh="0.081138" fuel_perVeh="0.081126" electricity_perVeh="0"/>
        <edge id=":1110673414_0" sampledSeconds="0.00" CO_abs="0" CO2_abs="0" HC_abs="0" PMx_abs="0" NOx_abs="0" fuel_abs="0" electricity_abs="0"
            CO_normed="0" CO2_normed="0" HC_normed="0" PMx_normed="0" NOx_normed="0" fuel_normed="0" electricity_normed="0"/>
        <edge id=":1110673414_1" sampledSeconds="241.79" CO_abs="17254.866476" CO2_abs="665186.002311" HC_abs="94.051345" PMx_abs="12.452334" NOx_abs="281.893628" fuel_abs="285.939387" electricity_abs="0"
            CO_normed="803.529557" CO2_normed="30976.571991" HC_normed="4.379810" PMx_normed="0.579884" NOx_normed="13.127303" fuel_normed="13.315707" electricity_normed="0"
            traveltime="1.57" CO_perVeh="111.951527" CO2_perVeh="4315.802100" HC_perVeh="0.610216" PMx_perVeh="0.080792" NOx_perVeh="1.828958" fuel_perVeh="1.855207" electricity_perVeh="0"/>
        <edge id=":1110673417_0" sampledSeconds="29.03" CO_abs="396.939146" CO2_abs="50833.157204" HC_abs="2.972274" PMx_abs="0.685886" NOx_abs="18.894608" fuel_abs="21.851047" electricity_abs="0"
            CO_normed="596.134016" CO2_normed="76342.619326" HC_normed="4.463842" PMx_normed="1.030083" NOx_normed="28.376436" fuel_normed="32.816497" electricity_normed="0"
            traveltime="0.02" CO_perVeh="0.302685" CO2_perVeh="38.762722" HC_perVeh="0.002267" PMx_perVeh="0.000523" NOx_perVeh="0.014408" fuel_perVeh="0.016662" electricity_perVeh="0"/>
        <edge id=":1110673446_0" sampledSeconds="1326.65" CO_abs="13475.924640" CO2_abs="1092194.189517" HC_abs="87.263843" PMx_abs="20.098264" NOx_abs="447.088613" fuel_abs="469.483960" electricity_abs="0"
            CO_normed="18889.276448" CO2_normed="1530934.502302" HC_normed="122.318201" PMx_normed="28.171845" NOx_normed="626.686526" fuel_normed="658.078205" electricity_normed="0"
            traveltime="0.02" CO_perVeh="0.231195" CO2_perVeh="18.737856" HC_perVeh="0.001497" PMx_perVeh="0.000345" NOx_perVeh="0.007670" fuel_perVeh="0.008055" electricity_perVeh="0"/>
        <edge id=":1110673451_0" sampledSeconds="36.60" CO_abs="452.853465" CO2_abs="30472.912551" HC_abs="2.757977" PMx_abs="0.432550" NOx_abs="11.826143" fuel_abs="13.099145" electricity_abs="0"
            CO_normed="705.296835" CO2_normed="47460.051475" HC_normed="4.295413" PMx_normed="0.673676" NOx_normed="18.418633" fuel_normed="20.401269" electricity_normed="0"
            traveltime="0.03" CO_perVeh="0.333653" CO2_perVeh="22.451799" HC_perVeh="0.002032" PMx_perVeh="0.000319" NOx_perVeh="0.008713" fuel_perVeh="0.009651" electricity_perVeh="0"/>
        <edge id=":1110673464_0" sampledSeconds="1035.59" CO_abs="4423.386408" CO2_abs="312975.661125" HC_abs="27.304046" PMx_abs="4.615108" NOx_abs="122.275987" fuel_abs="134.535884" electricity_abs="0"
            CO_normed="131.734093" CO2_normed="9320.814664" HC_normed="0.813149" PMx_normed="0.137444" NOx_normed="3.641535" fuel_normed="4.006650" electricity_normed="0"
            traveltime="1.23" CO_perVeh="5.245517" CO2_perVeh="371.145332" HC_perVeh="0.032379" PMx_perVeh="0.005473" NOx_perVeh="0.145002" fuel_perVeh="0.159541" electricity_perVeh="0"/>
        <edge id=":1110673464_1" sampledSeconds="2602.46" CO_abs="63547.557670" CO2_abs="7642132.010212" HC_abs="471.625242" PMx_abs="137.215744" NOx_abs="2903.665036" fuel_abs="3285.000024" electricity_abs="0"
            CO_normed="1854.440429" CO2_normed="223012.167299" HC_normed="13.762935" PMx_normed="4.004220" NOx_normed="84.734552" fuel_normed="95.862643" electricity_normed="0"
            traveltime="0.72" CO_perVeh="17.514235" CO2_perVeh="2106.235040" HC_perVeh="0.129984" PMx_perVeh="0.037818" NOx_perVeh="0.800274" fuel_perVeh="0.905373" electricity_perVeh="0"/>
        <edge id=":1110673479_0" sampledSeconds="135.90" CO_abs="6054.180698" CO2_abs="414023.304542" HC_abs="37.273002" PMx_abs="7.147285" NOx_abs="168.744676" fuel_abs="177.970839" electricity_abs="0"
            CO_normed="8486.177827" CO2_normed="580338.705117" HC_normed="52.245769" PMx_normed="10.018388" NOx_normed="236.530325" fuel_normed="249.462688" electricity_normed="0"
            traveltime="0.03" CO_perVeh="1.279909" CO2_perVeh="87.528270" HC_perVeh="0.007880" PMx_perVeh="0.001511" NOx_perVeh="0.035674" fuel_perVeh="0.037625" electricity_perVeh="0"/>
        <edge id=":1110673511_0" sampledSeconds="63.44" CO_abs="898.069231" CO2_abs="103169.191030" HC_abs="6.428379" PMx_abs="1.383206" NOx_abs="38.525418" fuel_abs="44.348183" electricity_abs="0"
            CO_normed="1258.828499" CO2_normed="144612.813031" HC_normed="9.010693" PMx_normed="1.938847" NOx_normed="54.001287" fuel_normed="62.163088" electricity_normed="0"
            traveltime="0.02" CO_perVeh="0.344203" CO2_perVeh="39.541704" HC_perVeh="0.002464" PMx_perVeh="0.000530" NOx_perVeh="0.014766" fuel_perVeh="0.016997" electricity_perVeh="0"/>
        <edge id=":1110673517_0" sampledSeconds="181.99" CO_abs="8369.696698" CO2_abs="599056.259285" HC_abs="52.174453" PMx_abs="10.346716" NOx_abs="243.704726" fuel_abs="257.508270" electricity_abs="0"
            CO_normed="11731.849127" CO2_normed="839700.398484" HC_normed="73.133213" PMx_normed="14.503048" NOx_normed="341.602232" fuel_normed="360.950735" electricity_normed="0"
            traveltime="0.03" CO_perVeh="1.281470" CO2_perVeh="91.720493" HC_perVeh="0.007988" PMx_perVeh="0.001584" NOx_perVeh="0.037313" fuel_perVeh="0.039427" electricity_perVeh="0"/>
        <edge id=":1110673534_0" sampledSeconds="734.84" CO_abs="5554.932396" CO2_abs="453252.412039" HC_abs="35.681499" PMx_abs="6.328420" NOx_abs="173.870846" fuel_abs="194.835241" electricity_abs="0"
            CO_normed="150.898814" CO2_normed="12312.526303" HC_normed="0.969282" PMx_normed="0.171910" NOx_normed="4.723173" fuel_normed="5.292667" electricity_normed="0"
            traveltime="1.45" CO_perVeh="10.955259" CO2_perVeh="893.889826" HC_perVeh="0.070370" PMx_perVeh="0.012481" NOx_perVeh="0.342902" fuel_perVeh="0.384248" electricity_perVeh="0"/>
        <edge id=":1110673534_1" sampledSeconds="200.17" CO_abs="3101.785661" CO2_abs="381715.896035" HC_abs="22.858733" PMx_abs="5.279170" NOx_abs="142.907525" fuel_abs="164.083571" electricity_abs="0"
            CO_normed="81.930711" CO2_normed="10082.661480" HC_normed="0.603792" PMx_normed="0.139444" NOx_normed="3.774766" fuel_normed="4.334111" electricity_normed="0"
            traveltime="1.22" CO_perVeh="18.960240" CO2_perVeh="2333.309169" HC_perVeh="0.139728" PMx_perVeh="0.032270" NOx_perVeh="0.873549" fuel_perVeh="1.002991" electricity_perVeh="0"/>
        <edge id=":1110673549_0" sampledSeconds="650.30" CO_abs="1361.998697" CO2_abs="119376.061642" HC_abs="8.885354" PMx_abs="1.694654" NOx_abs="45.494307" fuel_abs="51.314944" electricity_abs="0"
            CO_normed="35.840819" CO2_normed="3141.365542" HC_normed="0.233817" PMx_normed="0.044595" NOx_normed="1.197177" fuel_normed="1.350346" electricity_normed="0"
            traveltime="1.29" CO_perVeh="2.705969" CO2_perVeh="237.171941" HC_perVeh="0.017653" PMx_perVeh="0.003367" NOx_perVeh="0.090386" fuel_perVeh="0.101951" electricity_perVeh="0"/>
        <edge id=":1110673549_1" sampledSeconds="3198.54" CO_abs="70440.925493" CO2_abs="9145778.255042" HC_abs="538.818673" PMx_abs="161.252288" NOx_abs="3425.049375" fuel_abs="3931.351093" electricity_abs="0"
            CO_normed="1793.052534" CO2_normed="232803.029831" HC_normed="13.715467" PMx_normed="4.104628" NOx_normed="87.183600" fuel_normed="100.071358" electricity_normed="0"
            traveltime="0.81" CO_perVeh="17.768331" CO2_perVeh="2306.971661" HC_perVeh="0.135914" PMx_perVeh="0.040675" NOx_perVeh="0.863950" fuel_perVeh="0.991661" electricity_perVeh="0"/>
        <edge id=":1110673556_0" sampledSeconds="465.71" CO_abs="57858.421426" CO2_abs="2788920.598009" HC_abs="329.707836" PMx_abs="56.404313" NOx_abs="1203.146176" fuel_abs="1198.837830" electricity_abs="0"
            CO_normed="1129.008755" CO2_normed="54421.045272" HC_normed="6.433688" PMx_normed="1.100634" NOx_normed="23.477353" fuel_normed="23.393283" electricity_normed="0"
            traveltime="2.75" CO_perVeh="341.069831" CO2_perVeh="16440.418767" HC_perVeh="1.943596" PMx_perVeh="0.332498" NOx_perVeh="7.092431" fuel_perVeh="7.067034" electricity_perVeh="0"/>
        <edge id=":1110673556_2" sampledSeconds="173.32" CO_abs="17172.760906" CO2_abs="736085.599018" HC_abs="95.496474" PMx_abs="14.290136" NOx_abs="314.469421" fuel_abs="316.414214" electricity_abs="0"
            CO_normed="350.380667" CO2_normed="15018.561355" HC_normed="1.948441" PMx_normed="0.291566" NOx_normed="6.416208" fuel_normed="6.455888" electricity_normed="0"
            traveltime="3.00" CO_perVeh="296.941575" CO2_perVeh="12727.971840" HC_perVeh="1.651271" PMx_perVeh="0.247097" NOx_perVeh="5.437626" fuel_perVeh="5.471254" electricity_perVeh="0"/>
        <edge id=":1110673556_3" sampledSeconds="339.25" CO_abs="34760.271434" CO2_abs="1219072.838954" HC_abs="186.784517" PMx_abs="24.029739" NOx_abs="524.817511" fuel_abs="524.036089" electricity_abs="0"
            CO_normed="1613.366240" CO2_normed="56582.152033" HC_normed="8.669433" PMx_normed="1.115318" NOx_normed="24.358925" fuel_normed="24.322656" electricity_normed="0"
            traveltime="1.81" CO_perVeh="185.401211" CO2_perVeh="6502.181123" HC_perVeh="0.996254" PMx_perVeh="0.128168" NOx_perVeh="2.799224" fuel_perVeh="2.795057" electricity_perVeh="0"/>
        <edge id=":1110673556_4" sampledSeconds="88.62" CO_abs="10204.315864" CO2_abs="390296.823417" HC_abs="55.636111" PMx_abs="7.764413" NOx_abs="168.280498" fuel_abs="167.773855" electricity_abs="0"
            CO_normed="289.348174" CO2_normed="11067.049930" HC_normed="1.577588" PMx_normed="0.220164" NOx_normed="4.771673" fuel_normed="4.757307" electricity_normed="0"
            traveltime="2.58" CO_perVeh="297.261735" CO2_perVeh="11369.729495" HC_perVeh="1.620735" PMx_perVeh="0.226185" NOx_perVeh="4.902176" fuel_perVeh="4.887417" electricity_perVeh="0"/>
        <edge id=":1110673556_5" sampledSeconds="22.19" CO_abs="975.507760" CO2_abs="45726.699147" HC_abs="5.505810" PMx_abs="0.816466" NOx_abs="19.070172" fuel_abs="19.656139" electricity_abs="0"
            CO_normed="38.553792" CO2_normed="1807.200042" HC_normed="0.217599" PMx_normed="0.032268" NOx_normed="0.753687" fuel_normed="0.776845" electricity_normed="0"
            traveltime="1.53" CO_perVeh="67.442512" CO2_perVeh="3161.352040" HC_perVeh="0.380649" PMx_perVeh="0.056447" NOx_perVeh="1.318432" fuel_perVeh="1.358943" electricity_perVeh="0"/>
        <edge id=":1110673556_6" sampledSeconds="213.77" CO_abs="25457.958848" CO2_abs="1283708.352281" HC_abs="146.438285" PMx_abs="25.826024" NOx_abs="552.122974" fuel_abs="551.810671" electricity_abs="0"
            CO_normed="509.294366" CO2_normed="25680.983920" HC_normed="2.929543" PMx_normed="0.516658" NOx_normed="11.045391" fuel_normed="11.039144" electricity_normed="0"
            traveltime="2.49" CO_perVeh="296.649645" CO2_perVeh="14958.450892" HC_perVeh="1.706377" PMx_perVeh="0.300939" NOx_perVeh="6.433630" fuel_perVeh="6.429991" electricity_perVeh="0"/>
        <edge id=":1110673561_0" sampledSeconds="170.99" CO_abs="15546.170247" CO2_abs="1092209.986455" HC_abs="97.076125" PMx_abs="22.089636" NOx_abs="462.496184" fuel_abs="469.489234" electricity_abs="0"
            CO_normed="390.755844" CO2_normed="27452.898595" HC_normed="2.440026" PMx_normed="0.555227" NOx_normed="11.624927" fuel_normed="11.800698" electricity_normed="0"
            traveltime="1.26" CO_perVeh="114.770131" CO2_perVeh="8063.277433" HC_perVeh="0.716668" PMx_perVeh="0.163077" NOx_perVeh="3.414394" fuel_perVeh="3.466020" electricity_perVeh="0"/>
        <edge id=":1110673561_1" sampledSeconds="5252.45" CO_abs="483012.145429" CO2_abs="33498689.783639" HC_abs="3009.792310" PMx_abs="699.877008" NOx_abs="14318.769964" fuel_abs="14399.469038" electricity_abs="0"
            CO_normed="11836.376512" CO2_normed="820896.759421" HC_normed="73.755982" PMx_normed="17.150724" NOx_normed="350.886316" fuel_normed="352.863875" electricity_normed="0"
            traveltime="1.19" CO_perVeh="109.688249" CO2_perVeh="7607.288259" HC_perVeh="0.683500" PMx_perVeh="0.158937" NOx_perVeh="3.251680" fuel_perVeh="3.270006" electricity_perVeh="0"/>
        <edge id=":1110673562_0" sampledSeconds="301.26" CO_abs="6663.888604" CO2_abs="516280.770976" HC_abs="42.112260" PMx_abs="6.977497" NOx_abs="197.114816" fuel_abs="221.929216" electricity_abs="0"
            CO_normed="10378.676329" CO2_normed="804081.720945" HC_normed="65.587758" PMx_normed="10.867106" NOx_normed="306.996560" fuel_normed="345.643758" electricity_normed="0"
            traveltime="0.03" CO_perVeh="0.597361" CO2_perVeh="46.280149" HC_perVeh="0.003775" PMx_perVeh="0.000625" NOx_perVeh="0.017670" fuel_perVeh="0.019894" electricity_perVeh="0"/>
        <edge id=":1110673564_0" sampledSeconds="27.74" CO_abs="345.937399" CO2_abs="46546.511011" HC_abs="2.639900" PMx_abs="0.582155" NOx_abs="17.024296" fuel_abs="20.008452" electricity_abs="0"
            CO_normed="1454.706970" CO2_normed="195733.488656" HC_normed="11.101086" PMx_normed="2.448030" NOx_normed="71.589144" fuel_normed="84.137864" electricity_normed="0"
            traveltime="7.836211e-03" CO_perVeh="0.097709" CO2_perVeh="13.146875" HC_perVeh="0.000746" PMx_perVeh="0.000164" NOx_perVeh="0.004808" fuel_perVeh="0.005651" electricity_perVeh="0"/>
        <edge id=":1110673588_0" sampledSeconds="62.87" CO_abs="1252.921291" CO2_abs="130639.965992" HC_abs="8.693340" PMx_abs="1.863317" NOx_abs="49.685876" fuel_abs="56.156648" electricity_abs="0"
            CO_normed="2107.471860" CO2_normed="219742.496236" HC_normed="14.622601" PMx_normed="3.134185" NOx_normed="83.573953" fuel_normed="94.458093" electricity_normed="0"
            traveltime="0.02" CO_perVeh="0.404168" CO2_perVeh="42.141925" HC_perVeh="0.002804" PMx_perVeh="0.000601" NOx_perVeh="0.016028" fuel_perVeh="0.018115" electricity_perVeh="0"/>
        <edge id=":1110673601_0" sampledSeconds="28.70" CO_abs="508.685247" CO2_abs="57818.881780" HC_abs="3.634445" PMx_abs="0.818297" NOx_abs="21.833977" fuel_abs="24.853896" electricity_abs="0"
            CO_normed="763.957351" CO2_normed="86833.970668" HC_normed="5.458309" PMx_normed="1.228940" NOx_normed="32.790862" fuel_normed="37.326258" electricity_normed="0"
            traveltime="0.02" CO_perVeh="0.387897" CO2_perVeh="44.089673" HC_perVeh="0.002771" PMx_perVeh="0.000624" NOx_perVeh="0.016649" fuel_perVeh="0.018952" electricity_perVeh="0"/>
        <edge id=":1110673617_0" sampledSeconds="852.65" CO_abs="31620.697256" CO2_abs="3244586.653346" HC_abs="221.822679" PMx_abs="60.952232" NOx_abs="1269.496287" fuel_abs="1394.696044" electricity_abs="0"
            CO_normed="44322.902357" CO2_normed="4547954.659520" HC_normed="310.930049" PMx_normed="85.437073" NOx_normed="1779.459812" fuel_normed="1954.952988" electricity_normed="0"
            traveltime="0.02" CO_perVeh="0.560326" CO2_perVeh="57.494861" HC_perVeh="0.003931" PMx_perVeh="0.001080" NOx_perVeh="0.022496" fuel_perVeh="0.024714" electricity_perVeh="0"/>
        <edge id=":1110673621_0" sampledSeconds="42.65" CO_abs="973.350608" CO2_abs="94772.807845" HC_abs="6.609461" PMx_abs="1.432176" NOx_abs="36.650642" fuel_abs="40.738782" electricity_abs="0"
            CO_normed="1637.220973" CO2_normed="159412.268774" HC_normed="11.117420" PMx_normed="2.408986" NOx_normed="61.648084" fuel_normed="68.524526" electricity_normed="0"
            traveltime="0.02" CO_perVeh="0.459128" CO2_perVeh="44.704155" HC_perVeh="0.003118" PMx_perVeh="0.000676" NOx_perVeh="0.017288" fuel_perVeh="0.019216" electricity_perVeh="0"/>
        <edge id=":1110673630_0" sampledSeconds="287.05" CO_abs="1320.069527" CO2_abs="114407.387297" HC_abs="8.619522" PMx_abs="1.509892" NOx_abs="43.249417" fuel_abs="49.179271" electricity_abs="0"
            CO_normed="39.593765" CO2_normed="3431.500432" HC_normed="0.258531" PMx_normed="0.045287" NOx_normed="1.297210" fuel_normed="1.475068" electricity_normed="0"
            traveltime="1.29" CO_perVeh="5.939809" CO2_perVeh="514.789548" HC_perVeh="0.038785" PMx_perVeh="0.006794" NOx_perVeh="0.194606" fuel_perVeh="0.221288" electricity_perVeh="0"/>
        <edge id=":1110673630_1" sampledSeconds="337.62" CO_abs="1684.315954" CO2_abs="136162.374634" HC_abs="10.787921" PMx_abs="1.896746" NOx_abs="52.250957" fuel_abs="58.530821" electricity_abs="0"
            CO_normed="61.589081" CO2_normed="4978.944442" HC_normed="0.394474" PMx_normed="0.069357" NOx_normed="1.910620" fuel_normed="2.140251" electricity_normed="0"
            traveltime="1.08" CO_perVeh="5.369268" CO2_perVeh="434.058852" HC_perVeh="0.034390" PMx_perVeh="0.006046" NOx_perVeh="0.166566" fuel_perVeh="0.186585" electricity_perVeh="0"/>
        <edge id=":1110673650_0" sampledSeconds="200.34" CO_abs="2843.640214" CO2_abs="361887.710973" HC_abs="21.207350" PMx_abs="4.919412" NOx_abs="134.807352" fuel_abs="155.560329" electricity_abs="0"
            CO_normed="3985.945867" CO2_normed="507259.961649" HC_normed="29.726457" PMx_normed="6.895567" NOx_normed="188.960194" fuel_normed="218.049754" electricity_normed="0"
            traveltime="0.02" CO_perVeh="0.328657" CO2_perVeh="41.825542" HC_perVeh="0.002451" PMx_perVeh="0.000569" NOx_perVeh="0.015580" fuel_perVeh="0.017979" electricity_perVeh="0"/>
        <edge id=":1110673655_0" sampledSeconds="20.79" CO_abs="245.394945" CO2_abs="29761.082988" HC_abs="1.802324" PMx_abs="0.395532" NOx_abs="11.076379" fuel_abs="12.793060" electricity_abs="0"
            CO_normed="343.971421" CO2_normed="41716.270980" HC_normed="2.526328" PMx_normed="0.554420" NOx_normed="15.525820" fuel_normed="17.932101" electricity_normed="0"
            traveltime="0.02" CO_perVeh="0.280345" CO2_perVeh="33.999714" HC_perVeh="0.002059" PMx_perVeh="0.000452" NOx_perVeh="0.012654" fuel_perVeh="0.014615" electricity_perVeh="0"/>
        <edge id=":1110673663_0" sampledSeconds="178.70" CO_abs="3659.524375" CO2_abs="393012.211116" HC_abs="25.724434" PMx_abs="5.652564" NOx_abs="149.507499" fuel_abs="168.939357" electricity_abs="0"
            CO_normed="93.948262" CO2_normed="10089.511755" HC_normed="0.660404" PMx_normed="0.145114" NOx_normed="3.838195" fuel_normed="4.337055" electricity_normed="0"
            traveltime="1.31" CO_perVeh="26.762900" CO2_perVeh="2874.184080" HC_perVeh="0.188128" PMx_perVeh="0.041338" NOx_perVeh="1.093381" fuel_perVeh="1.235490" electricity_perVeh="0"/>
        <edge id=":1110673663_1" sampledSeconds="169.64" CO_abs="2793.590058" CO2_abs="345684.485173" HC_abs="20.630047" PMx_abs="4.752449" NOx_abs="129.218227" fuel_abs="148.595219" electricity_abs="0"
            CO_normed="71.805445" CO2_normed="8885.351083" HC_normed="0.530267" PMx_normed="0.122155" NOx_normed="3.321379" fuel_normed="3.819439" electricity_normed="0"
            traveltime="1.27" CO_perVeh="20.902048" CO2_perVeh="2586.461751" HC_perVeh="0.154357" PMx_perVeh="0.035559" NOx_perVeh="0.966830" fuel_perVeh="1.111811" electricity_perVeh="0"/>
        <edge id=":1110673666_0" sampledSeconds="208.30" CO_abs="4021.776000" CO2_abs="326595.311790" HC_abs="25.735733" PMx_abs="4.250106" NOx_abs="123.386619" fuel_abs="140.390854" electricity_abs="0"