<?xml version="1.0" encoding="UTF-8"?>

<!-- generated on Mon Nov  9 23:57:50 2020 by Eclipse SUMO sumo Version 1.7.0
<configuration xmlns:xsi="http://www.w3.org/2001/XMLSchema-instance" xsi:noNamespaceSchemaLocation="http://sumo.dlr.de/xsd/sumoConfiguration.xsd">

    <input>
        <net-file value="../dataSets/Porto/6AM7AM_Routing_SaoBento/Porto.net.xml"/>
        <route-files value="../results/Porto/6AM7AM_Routing_SaoBento/cost_hc-length/solution3/Porto.rou.xml"/>
        <additional-files value="moreOutputInfo.xml"/>
    </input>

    <output>
        <emission-output.precision value="6"/>
        <tripinfo-output value="../results/Porto/6AM7AM_Routing_SaoBento/cost_hc-length/solution3/Porto-tripinfo"/>
    </output>

    <processing>
        <collision.action value="warn"/>
        <time-to-teleport value="-1"/>
    </processing>

    <emissions>
        <device.emissions.probability value="1"/>
    </emissions>

    <gui_only>
        <quit-on-end value="true"/>
        <start value="true"/>
    </gui_only>

</configuration>
-->

<meandata xmlns:xsi="http://www.w3.org/2001/XMLSchema-instance" xsi:noNamespaceSchemaLocation="http://sumo.dlr.de/xsd/meandata_file.xsd">
    <interval begin="0.00" end="4700.00" id="emissions-detector">
        <edge id=":1092997347_0" sampledSeconds="269.92" CO_abs="34076.095187" CO2_abs="1345063.273851" HC_abs="186.944815" PMx_abs="27.458484" NOx_abs="584.063478" fuel_abs="578.189911" electricity_abs="0"
            CO_normed="59320.088333" CO2_normed="2341502.797806" HC_normed="325.435848" PMx_normed="47.800069" NOx_normed="1016.744932" fuel_normed="1006.520154" electricity_normed="0"
            traveltime="0.08" CO_perVeh="9.600433" CO2_perVeh="378.951572" HC_perVeh="0.052669" PMx_perVeh="0.007736" NOx_perVeh="0.164551" fuel_perVeh="0.162896" electricity_perVeh="0"/>
        <edge id=":1103427051_0" sampledSeconds="10.86" CO_abs="907.212874" CO2_abs="51840.808143" HC_abs="5.362413" PMx_abs="1.017059" NOx_abs="22.103562" fuel_abs="22.284059" electricity_abs="0"
            CO_normed="2396.160195" CO2_normed="136923.631192" HC_normed="14.163381" PMx_normed="2.686289" NOx_normed="58.380649" fuel_normed="58.857382" electricity_normed="0"
            traveltime="0.03" CO_perVeh="2.485750" CO2_perVeh="142.043031" HC_perVeh="0.014693" PMx_perVeh="0.002787" NOx_perVeh="0.060563" fuel_perVeh="0.061058" electricity_perVeh="0"/>
        <edge id=":1105984386_0" sampledSeconds="22.89" CO_abs="373.471326" CO2_abs="32145.175869" HC_abs="2.427030" PMx_abs="0.392105" NOx_abs="11.959511" fuel_abs="13.818006" electricity_abs="0"
            CO_normed="29.460674" CO2_normed="2535.719551" HC_normed="0.191452" PMx_normed="0.030931" NOx_normed="0.943406" fuel_normed="1.090011" electricity_normed="0"
            traveltime="0.96" CO_perVeh="15.674302" CO2_perVeh="1349.108133" HC_perVeh="0.101861" PMx_perVeh="0.016456" NOx_perVeh="0.501931" fuel_perVeh="0.579931" electricity_perVeh="0"/>
        <edge id=":1105984390_0" sampledSeconds="23.80" CO_abs="23.773920" CO2_abs="1793.327578" HC_abs="0.148109" PMx_abs="0.019121" NOx_abs="0.652766" fuel_abs="0.770891" electricity_abs="0"
            CO_normed="1.449826" CO2_normed="109.364062" HC_normed="0.009032" PMx_normed="0.001166" NOx_normed="0.039808" fuel_normed="0.047012" electricity_normed="0"
            traveltime="1.08" CO_perVeh="1.078136" CO2_perVeh="81.326525" HC_perVeh="0.006717" PMx_perVeh="0.000867" NOx_perVeh="0.029603" fuel_perVeh="0.034960" electricity_perVeh="0"/>
        <edge id=":1105984390_1" sampledSeconds="645.82" CO_abs="14077.448271" CO2_abs="1829890.503469" HC_abs="107.887667" PMx_abs="32.366193" NOx_abs="684.617868" fuel_abs="786.586087" electricity_abs="0"
            CO_normed="821.228205" CO2_normed="106749.296114" HC_normed="6.293782" PMx_normed="1.888128" NOx_normed="39.938169" fuel_normed="45.886631" electricity_normed="0"
            traveltime="0.64" CO_perVeh="13.866570" CO2_perVeh="1802.478986" HC_perVeh="0.106272" PMx_perVeh="0.031881" NOx_perVeh="0.674362" fuel_perVeh="0.774803" electricity_perVeh="0"/>
        <edge id=":1105984395_0" sampledSeconds="9.13" CO_abs="192.533454" CO2_abs="15930.194850" HC_abs="1.236134" PMx_abs="0.193024" NOx_abs="5.924137" fuel_abs="6.847801" electricity_abs="0"
            CO_normed="160.296122" CO2_normed="13262.881929" HC_normed="1.029159" PMx_normed="0.160704" NOx_normed="4.932214" fuel_normed="5.701222" electricity_normed="0"
            traveltime="0.09" CO_perVeh="1.952500" CO2_perVeh="161.549595" HC_perVeh="0.012536" PMx_perVeh="0.001957" NOx_perVeh="0.060077" fuel_perVeh="0.069444" electricity_perVeh="0"/>
        <edge id=":1105984398_0" sampledSeconds="23.98" CO_abs="1518.943404" CO2_abs="106544.970098" HC_abs="9.430371" PMx_abs="1.914809" NOx_abs="43.877637" fuel_abs="45.798962" electricity_abs="0"
            CO_normed="96.232094" CO2_normed="6750.116896" HC_normed="0.597458" PMx_normed="0.121312" NOx_normed="2.779851" fuel_normed="2.901576" electricity_normed="0"
            traveltime="1.09" CO_perVeh="69.152900" CO2_perVeh="4850.670326" HC_perVeh="0.429336" PMx_perVeh="0.087175" NOx_perVeh="1.997616" fuel_perVeh="2.085088" electricity_perVeh="0"/>
        <edge id=":1105984398_1" sampledSeconds="452.32" CO_abs="8766.536800" CO2_abs="982002.881942" HC_abs="62.567794" PMx_abs="14.469051" NOx_abs="374.544912" fuel_abs="422.120844" electricity_abs="0"
            CO_normed="537.613622" CO2_normed="60221.971194" HC_normed="3.837011" PMx_normed="0.887324" NOx_normed="22.969213" fuel_normed="25.886838" electricity_normed="0"
            traveltime="0.96" CO_perVeh="18.544959" CO2_perVeh="2077.354373" HC_perVeh="0.132358" PMx_perVeh="0.030608" NOx_perVeh="0.792322" fuel_perVeh="0.892965" electricity_perVeh="0"/>
        <edge id=":1106006327_0" sampledSeconds="133.23" CO_abs="17852.758646" CO2_abs="585045.949265" HC_abs="95.066322" PMx_abs="12.200956" NOx_abs="256.095860" fuel_abs="251.490452" electricity_abs="0"
            CO_normed="1543.392035" CO2_normed="50577.912140" HC_normed="8.218596" PMx_normed="1.054787" NOx_normed="22.139789" fuel_normed="21.741646" electricity_normed="0"
            traveltime="2.07" CO_perVeh="276.714324" CO2_perVeh="9068.099630" HC_perVeh="1.473510" PMx_perVeh="0.189112" NOx_perVeh="3.969437" fuel_perVeh="3.898054" electricity_perVeh="0"/>
        <edge id=":1106006327_1" sampledSeconds="162.41" CO_abs="21867.295869" CO2_abs="726486.620517" HC_abs="116.682678" PMx_abs="15.128619" NOx_abs="317.785277" fuel_abs="312.290551" electricity_abs="0"
            CO_normed="1648.564775" CO2_normed="54769.472145" HC_normed="8.796650" PMx_normed="1.140539" NOx_normed="23.957677" fuel_normed="23.543432" electricity_normed="0"
            traveltime="2.31" CO_perVeh="310.434448" CO2_perVeh="10313.413906" HC_perVeh="1.656461" PMx_perVeh="0.214770" NOx_perVeh="4.511372" fuel_perVeh="4.433367" electricity_perVeh="0"/>
        <edge id=":1106006327_2" sampledSeconds="0.00" CO_abs="0" CO2_abs="0" HC_abs="0" PMx_abs="0" NOx_abs="0" fuel_abs="0" electricity_abs="0"
            CO_normed="0" CO2_normed="0" HC_normed="0" PMx_normed="0" NOx_normed="0" fuel_normed="0" electricity_normed="0"/>
        <edge id=":1106006327_3" sampledSeconds="0.00" CO_abs="0" CO2_abs="0" HC_abs="0" PMx_abs="0" NOx_abs="0" fuel_abs="0" electricity_abs="0"
            CO_normed="0" CO2_normed="0" HC_normed="0" PMx_normed="0" NOx_normed="0" fuel_normed="0" electricity_normed="0"/>
        <edge id=":1107381198_0" sampledSeconds="0.00" CO_abs="0" CO2_abs="0" HC_abs="0" PMx_abs="0" NOx_abs="0" fuel_abs="0" electricity_abs="0"
            CO_normed="0" CO2_normed="0" HC_normed="0" PMx_normed="0" NOx_normed="0" fuel_normed="0" electricity_normed="0"/>
        <edge id=":1107381198_1" sampledSeconds="36.20" CO_abs="1423.208989" CO2_abs="57533.649422" HC_abs="7.801896" PMx_abs="0.973505" NOx_abs="23.702629" fuel_abs="24.731734" electricity_abs="0"
            CO_normed="118.878683" CO2_normed="4805.706349" HC_normed="0.651682" PMx_normed="0.081316" NOx_normed="1.979848" fuel_normed="2.065808" electricity_normed="0"
            traveltime="1.49" CO_perVeh="58.597461" CO2_perVeh="2368.819887" HC_perVeh="0.321226" PMx_perVeh="0.040082" NOx_perVeh="0.975903" fuel_perVeh="1.018274" electricity_perVeh="0"/>
        <edge id=":1110338277_0" sampledSeconds="96.67" CO_abs="1689.644104" CO2_abs="196556.366415" HC_abs="12.186281" PMx_abs="2.694187" NOx_abs="73.707381" fuel_abs="84.491384" electricity_abs="0"
            CO_normed="4622.126729" CO2_normed="537692.187761" HC_normed="33.336332" PMx_normed="7.370116" NOx_normed="201.631133" fuel_normed="231.131445" electricity_normed="0"
            traveltime="0.02" CO_perVeh="0.381974" CO2_perVeh="44.435089" HC_perVeh="0.002755" PMx_perVeh="0.000609" NOx_perVeh="0.016663" fuel_perVeh="0.019101" electricity_perVeh="0"/>
        <edge id=":1110338293_0" sampledSeconds="124.10" CO_abs="6471.174368" CO2_abs="441839.655451" HC_abs="39.848824" PMx_abs="7.761929" NOx_abs="180.993053" fuel_abs="189.927693" electricity_abs="0"
            CO_normed="16522.147322" CO2_normed="1128101.247960" HC_normed="101.741677" PMx_normed="19.817692" NOx_normed="462.109923" fuel_normed="484.921770" electricity_normed="0"
            traveltime="0.03" CO_perVeh="1.484271" CO2_perVeh="101.343244" HC_perVeh="0.009140" PMx_perVeh="0.001780" NOx_perVeh="0.041514" fuel_perVeh="0.043563" electricity_perVeh="0"/>
        <edge id=":1110338295_0" sampledSeconds="0.00" CO_abs="0" CO2_abs="0" HC_abs="0" PMx_abs="0" NOx_abs="0" fuel_abs="0" electricity_abs="0"
            CO_normed="0" CO2_normed="0" HC_normed="0" PMx_normed="0" NOx_normed="0" fuel_normed="0" electricity_normed="0"/>
        <edge id=":1110673403_0" sampledSeconds="143.66" CO_abs="2234.665627" CO2_abs="278313.679936" HC_abs="16.543006" PMx_abs="3.803009" NOx_abs="103.936697" fuel_abs="119.635362" electricity_abs="0"
            CO_normed="5705.529261" CO2_normed="710588.118985" HC_normed="42.237461" PMx_normed="9.709810" NOx_normed="265.370291" fuel_normed="305.451989" electricity_normed="0"
            traveltime="0.02" CO_perVeh="0.358791" CO2_perVeh="44.685190" HC_perVeh="0.002656" PMx_perVeh="0.000611" NOx_perVeh="0.016688" fuel_perVeh="0.019208" electricity_perVeh="0"/>
        <edge id=":1110673412_0" sampledSeconds="253.00" CO_abs="44870.250155" CO2_abs="3059412.865776" HC_abs="279.183256" PMx_abs="67.241665" NOx_abs="1315.169524" fuel_abs="1315.090885" electricity_abs="0"
            CO_normed="118512.766367" CO2_normed="8080620.922078" HC_normed="737.387909" PMx_normed="177.600875" NOx_normed="3473.668590" fuel_normed="3473.460884" electricity_normed="0"
            traveltime="0.02" CO_perVeh="2.764712" CO2_perVeh="188.507894" HC_perVeh="0.017202" PMx_perVeh="0.004143" NOx_perVeh="0.081035" fuel_perVeh="0.081030" electricity_perVeh="0"/>
        <edge id=":1110673414_0" sampledSeconds="0.00" CO_abs="0" CO2_abs="0" HC_abs="0" PMx_abs="0" NOx_abs="0" fuel_abs="0" electricity_abs="0"
            CO_normed="0" CO2_normed="0" HC_normed="0" PMx_normed="0" NOx_normed="0" fuel_normed="0" electricity_normed="0"/>
        <edge id=":1110673414_1" sampledSeconds="14.00" CO_abs="1003.679420" CO2_abs="37936.288687" HC_abs="5.445460" PMx_abs="0.673160" NOx_abs="15.835552" fuel_abs="16.307511" electricity_abs="0"
            CO_normed="85.135739" CO2_normed="3217.894000" HC_normed="0.461904" PMx_normed="0.057100" NOx_normed="1.343229" fuel_normed="1.383262" electricity_normed="0"
            traveltime="1.53" CO_perVeh="109.618108" CO2_perVeh="4143.259396" HC_perVeh="0.594733" PMx_perVeh="0.073520" NOx_perVeh="1.729500" fuel_perVeh="1.781045" electricity_perVeh="0"/>
        <edge id=":1110673417_0" sampledSeconds="29.65" CO_abs="541.091329" CO2_abs="65692.188234" HC_abs="3.975835" PMx_abs="0.876825" NOx_abs="24.462762" fuel_abs="28.238352" electricity_abs="0"
            CO_normed="1480.189045" CO2_normed="179705.074198" HC_normed="10.876146" PMx_normed="2.398610" NOx_normed="66.919409" fuel_normed="77.247772" electricity_normed="0"
            traveltime="0.02" CO_perVeh="0.401605" CO2_perVeh="48.757621" HC_perVeh="0.002951" PMx_perVeh="0.000651" NOx_perVeh="0.018157" fuel_perVeh="0.020959" electricity_perVeh="0"/>
        <edge id=":1110673446_0" sampledSeconds="334.51" CO_abs="3122.869114" CO2_abs="253673.014573" HC_abs="20.227416" PMx_abs="4.663517" NOx_abs="103.785188" fuel_abs="109.042343" electricity_abs="0"
            CO_normed="7973.282843" CO2_normed="647675.781887" HC_normed="51.644466" PMx_normed="11.906851" NOx_normed="264.983458" fuel_normed="278.405983" electricity_normed="0"
            traveltime="0.02" CO_perVeh="0.213205" CO2_perVeh="17.318785" HC_perVeh="0.001381" PMx_perVeh="0.000318" NOx_perVeh="0.007086" fuel_perVeh="0.007445" electricity_perVeh="0"/>
        <edge id=":1110673451_0" sampledSeconds="37.36" CO_abs="403.663430" CO2_abs="29441.491481" HC_abs="2.511523" PMx_abs="0.416434" NOx_abs="11.394122" fuel_abs="12.655751" electricity_abs="0"
            CO_normed="1145.144481" CO2_normed="83521.961649" HC_normed="7.124887" PMx_normed="1.181373" NOx_normed="32.323750" fuel_normed="35.902841" electricity_normed="0"
            traveltime="0.03" CO_perVeh="0.289480" CO2_perVeh="21.113420" HC_perVeh="0.001801" PMx_perVeh="0.000299" NOx_perVeh="0.008171" fuel_perVeh="0.009076" electricity_perVeh="0"/>
        <edge id=":1110673464_0" sampledSeconds="321.53" CO_abs="691.634467" CO2_abs="50854.017742" HC_abs="4.330509" PMx_abs="0.809952" NOx_abs="20.249385" fuel_abs="21.860022" electricity_abs="0"
            CO_normed="37.518596" CO2_normed="2758.641189" HC_normed="0.234914" PMx_normed="0.043937" NOx_normed="1.098454" fuel_normed="1.185825" electricity_normed="0"
            traveltime="1.16" CO_perVeh="2.500167" CO2_perVeh="183.830565" HC_perVeh="0.015654" PMx_perVeh="0.002928" NOx_perVeh="0.073199" fuel_perVeh="0.079021" electricity_perVeh="0"/>
        <edge id=":1110673464_1" sampledSeconds="709.16" CO_abs="16813.466125" CO2_abs="2094522.616680" HC_abs="126.669872" PMx_abs="37.454663" NOx_abs="788.958883" fuel_abs="900.338998" electricity_abs="0"
            CO_normed="893.712671" CO2_normed="111333.462578" HC_normed="6.733083" PMx_normed="1.990887" NOx_normed="41.936775" fuel_normed="47.857138" electricity_normed="0"
            traveltime="0.70" CO_perVeh="16.584337" CO2_perVeh="2065.979042" HC_perVeh="0.124944" PMx_perVeh="0.036944" NOx_perVeh="0.778207" fuel_perVeh="0.888069" electricity_perVeh="0"/>
        <edge id=":1110673479_0" sampledSeconds="133.64" CO_abs="7105.583700" CO2_abs="485777.500376" HC_abs="43.798372" PMx_abs="8.679592" NOx_abs="199.939662" fuel_abs="208.814435" electricity_abs="0"
            CO_normed="18141.915830" CO2_normed="1240282.979684" HC_normed="111.825631" PMx_normed="22.160661" NOx_normed="510.484243" fuel_normed="533.143237" electricity_normed="0"
            traveltime="0.03" CO_perVeh="1.496858" CO2_perVeh="102.333579" HC_perVeh="0.009227" PMx_perVeh="0.001828" NOx_perVeh="0.042119" fuel_perVeh="0.043989" electricity_perVeh="0"/>
        <edge id=":1110673511_0" sampledSeconds="11.87" CO_abs="159.810324" CO2_abs="21426.766473" HC_abs="1.213728" PMx_abs="0.284641" NOx_abs="7.922432" fuel_abs="9.210471" electricity_abs="0"
            CO_normed="408.026360" CO2_normed="54706.637804" HC_normed="3.098881" PMx_normed="0.726743" NOx_normed="20.227486" fuel_normed="23.516097" electricity_normed="0"
            traveltime="0.02" CO_perVeh="0.316456" CO2_perVeh="42.429241" HC_perVeh="0.002403" PMx_perVeh="0.000564" NOx_perVeh="0.015688" fuel_perVeh="0.018239" electricity_perVeh="0"/>
        <edge id=":1110673517_0" sampledSeconds="17.18" CO_abs="626.353782" CO2_abs="45023.374995" HC_abs="3.912788" PMx_abs="0.795407" NOx_abs="18.415431" fuel_abs="19.353566" electricity_abs="0"
            CO_normed="1599.201144" CO2_normed="114953.297858" HC_normed="9.990097" PMx_normed="2.030826" NOx_normed="47.018121" fuel_normed="49.413359" electricity_normed="0"
            traveltime="0.03" CO_perVeh="1.005652" CO2_perVeh="72.287998" HC_perVeh="0.006282" PMx_perVeh="0.001277" NOx_perVeh="0.029567" fuel_perVeh="0.031073" electricity_perVeh="0"/>
        <edge id=":1110673534_0" sampledSeconds="474.56" CO_abs="2963.957661" CO2_abs="258720.714076" HC_abs="19.416272" PMx_abs="3.514411" NOx_abs="98.390042" fuel_abs="111.213773" electricity_abs="0"
            CO_normed="146.657974" CO2_normed="12801.618707" HC_normed="0.960726" PMx_normed="0.173895" NOx_normed="4.868384" fuel_normed="5.502908" electricity_normed="0"
            traveltime="1.43" CO_perVeh="8.929216" CO2_perVeh="779.421817" HC_perVeh="0.058493" PMx_perVeh="0.010588" NOx_perVeh="0.296410" fuel_perVeh="0.335043" electricity_perVeh="0"/>
        <edge id=":1110673534_1" sampledSeconds="184.10" CO_abs="2845.250697" CO2_abs="367696.788101" HC_abs="21.344773" PMx_abs="4.887358" NOx_abs="136.305329" fuel_abs="158.057537" electricity_abs="0"
            CO_normed="136.893276" CO2_normed="17690.960616" HC_normed="1.026959" PMx_normed="0.235145" NOx_normed="6.558045" fuel_normed="7.604607" electricity_normed="0"
            traveltime="1.22" CO_perVeh="18.891443" CO2_perVeh="2441.374667" HC_perVeh="0.141722" PMx_perVeh="0.032450" NOx_perVeh="0.905018" fuel_perVeh="1.049445" electricity_perVeh="0"/>
        <edge id=":1110673549_0" sampledSeconds="60.84" CO_abs="49.107020" CO2_abs="7164.871062" HC_abs="0.360306" PMx_abs="0.070798" NOx_abs="2.465913" fuel_abs="3.079911" electricity_abs="0"
            CO_normed="2.353810" CO2_normed="343.428432" HC_normed="0.017270" PMx_normed="0.003394" NOx_normed="0.118197" fuel_normed="0.147627" electricity_normed="0"
            traveltime="1.27" CO_perVeh="1.023103" CO2_perVeh="149.273985" HC_perVeh="0.007507" PMx_perVeh="0.001475" NOx_perVeh="0.051375" fuel_perVeh="0.064167" electricity_perVeh="0"/>
        <edge id=":1110673549_1" sampledSeconds="638.58" CO_abs="13591.906946" CO2_abs="1766339.792338" HC_abs="103.942773" PMx_abs="31.202973" NOx_abs="660.529486" fuel_abs="759.268578" electricity_abs="0"
            CO_normed="630.195057" CO2_normed="81897.162078" HC_normed="4.819355" PMx_normed="1.446740" NOx_normed="30.625755" fuel_normed="35.203839" electricity_normed="0"
            traveltime="0.80" CO_perVeh="17.109518" CO2_perVeh="2223.471883" HC_perVeh="0.130843" PMx_perVeh="0.039278" NOx_perVeh="0.831476" fuel_perVeh="0.955769" electricity_perVeh="0"/>
        <edge id=":1110673556_0" sampledSeconds="416.53" CO_abs="51477.059434" CO2_abs="2589508.513760" HC_abs="295.979613" PMx_abs="52.274576" NOx_abs="1115.418660" fuel_abs="1113.117433" electricity_abs="0"
            CO_normed="1829.662970" CO2_normed="92039.597665" HC_normed="10.520083" PMx_normed="1.858009" NOx_normed="39.645625" fuel_normed="39.563832" electricity_normed="0"
            traveltime="2.59" CO_perVeh="319.545090" CO2_perVeh="16074.436664" HC_perVeh="1.837301" PMx_perVeh="0.324496" NOx_perVeh="6.923988" fuel_perVeh="6.909703" electricity_perVeh="0"/>
        <edge id=":1110673556_2" sampledSeconds="243.58" CO_abs="22991.510199" CO2_abs="1006221.784957" HC_abs="128.337513" PMx_abs="19.431874" NOx_abs="429.125977" fuel_abs="432.534875" electricity_abs="0"
            CO_normed="854.464748" CO2_normed="37395.588031" HC_normed="4.769581" PMx_normed="0.722173" NOx_normed="15.948192" fuel_normed="16.074882" electricity_normed="0"
            traveltime="2.95" CO_perVeh="278.882613" CO2_perVeh="12205.277431" HC_perVeh="1.556709" PMx_perVeh="0.235705" NOx_perVeh="5.205216" fuel_perVeh="5.246565" electricity_perVeh="0"/>
        <edge id=":1110673556_3" sampledSeconds="422.15" CO_abs="35242.869086" CO2_abs="1253583.933040" HC_abs="189.670359" PMx_abs="24.020767" NOx_abs="535.283759" fuel_abs="538.871800" electricity_abs="0"
            CO_normed="2979.529583" CO2_normed="105981.451293" HC_normed="16.035257" PMx_normed="2.030782" NOx_normed="45.254369" fuel_normed="45.557712" electricity_normed="0"
            traveltime="1.74" CO_perVeh="145.414814" CO2_perVeh="5172.384624" HC_perVeh="0.782595" PMx_perVeh="0.099112" NOx_perVeh="2.208622" fuel_perVeh="2.223427" electricity_perVeh="0"/>
        <edge id=":1110673556_4" sampledSeconds="191.82" CO_abs="19714.345344" CO2_abs="786599.984346" HC_abs="108.232528" PMx_abs="15.406401" NOx_abs="337.505771" fuel_abs="338.129258" electricity_abs="0"
            CO_normed="1018.229914" CO2_normed="40627.249877" HC_normed="5.590122" PMx_normed="0.795728" NOx_normed="17.431899" fuel_normed="17.464101" electricity_normed="0"
            traveltime="2.42" CO_perVeh="248.862565" CO2_perVeh="9929.586115" HC_perVeh="1.366265" PMx_perVeh="0.194482" NOx_perVeh="4.260479" fuel_perVeh="4.268349" electricity_perVeh="0"/>
        <edge id=":1110673556_5" sampledSeconds="22.42" CO_abs="1466.803244" CO2_abs="65325.300035" HC_abs="8.189028" PMx_abs="1.128298" NOx_abs="27.015174" fuel_abs="28.080938" electricity_abs="0"
            CO_normed="105.592939" CO2_normed="4702.669175" HC_normed="0.589516" PMx_normed="0.081224" NOx_normed="1.944781" fuel_normed="2.021504" electricity_normed="0"
            traveltime="1.55" CO_perVeh="101.408619" CO2_perVeh="4516.317039" HC_perVeh="0.566155" PMx_perVeh="0.078006" NOx_perVeh="1.867716" fuel_perVeh="1.941398" electricity_perVeh="0"/>
        <edge id=":1110673556_6" sampledSeconds="498.69" CO_abs="58784.872595" CO2_abs="2838198.921580" HC_abs="335.037859" PMx_abs="57.046906" NOx_abs="1221.705853" fuel_abs="1220.020978" electricity_abs="0"
            CO_normed="2142.089007" CO2_normed="103422.435752" HC_normed="12.208599" PMx_normed="2.078758" NOx_normed="44.518301" fuel_normed="44.456906" electricity_normed="0"
            traveltime="2.68" CO_perVeh="315.457085" CO2_perVeh="15230.618358" HC_perVeh="1.797913" PMx_perVeh="0.306131" NOx_perVeh="6.556036" fuel_perVeh="6.546995" electricity_perVeh="0"/>
        <edge id=":1110673561_0" sampledSeconds="100.38" CO_abs="9650.044511" CO2_abs="702327.739624" HC_abs="60.829642" PMx_abs="14.062917" NOx_abs="295.879325" fuel_abs="301.897343" electricity_abs="0"
            CO_normed="441.812520" CO2_normed="32155.000733" HC_normed="2.784992" PMx_normed="0.643849" NOx_normed="13.546382" fuel_normed="13.821908" electricity_normed="0"
            traveltime="1.18" CO_perVeh="113.879892" CO2_perVeh="8288.149007" HC_perVeh="0.717849" PMx_perVeh="0.165956" NOx_perVeh="3.491663" fuel_perVeh="3.562682" electricity_perVeh="0"/>
        <edge id=":1110673561_1" sampledSeconds="1319.04" CO_abs="120416.766192" CO2_abs="8329752.914150" HC_abs="749.830871" PMx_abs="174.244745" NOx_abs="3562.829245" fuel_abs="3580.558359" electricity_abs="0"
            CO_normed="5374.948647" CO2_normed="371808.640715" HC_normed="33.469612" PMx_normed="7.777626" NOx_normed="159.031212" fuel_normed="159.822572" electricity_normed="0"
            traveltime="1.20" CO_perVeh="109.222006" CO2_perVeh="7555.362536" HC_perVeh="0.680122" PMx_perVeh="0.158046" NOx_perVeh="3.231604" fuel_perVeh="3.247685" electricity_perVeh="0"/>
        <edge id=":1110673562_0" sampledSeconds="103.93" CO_abs="2275.922931" CO2_abs="177076.808347" HC_abs="14.393451" PMx_abs="2.355869" NOx_abs="67.326616" fuel_abs="76.118552" electricity_abs="0"
            CO_normed="6456.518953" CO2_normed="502345.555595" HC_normed="40.832485" PMx_normed="6.683315" NOx_normed="190.997493" fuel_normed="215.939153" electricity_normed="0"
            traveltime="0.03" CO_perVeh="0.580143" CO2_perVeh="45.137685" HC_perVeh="0.003669" PMx_perVeh="0.000601" NOx_perVeh="0.017162" fuel_perVeh="0.019403" electricity_perVeh="0"/>
        <edge id=":1110673564_0" sampledSeconds="28.63" CO_abs="472.045335" CO2_abs="55231.537317" HC_abs="3.428638" PMx_abs="0.776485" NOx_abs="20.814466" fuel_abs="23.741707" electricity_abs="0"
            CO_normed="3615.666393" CO2_normed="423050.073065" HC_normed="26.261908" PMx_normed="5.947543" NOx_normed="159.429953" fuel_normed="181.851373" electricity_normed="0"
            traveltime="7.869866e-03" CO_perVeh="0.129772" CO2_perVeh="15.183928" HC_perVeh="0.000943" PMx_perVeh="0.000213" NOx_perVeh="0.005722" fuel_perVeh="0.006527" electricity_perVeh="0"/>
        <edge id=":1110673588_0" sampledSeconds="11.51" CO_abs="222.204019" CO2_abs="26812.653222" HC_abs="1.627541" PMx_abs="0.363187" NOx_abs="10.007562" fuel_abs="11.525643" electricity_abs="0"
            CO_normed="680.795293" CO2_normed="82149.405618" HC_normed="4.986509" PMx_normed="1.112744" NOx_normed="30.661466" fuel_normed="35.312610" electricity_normed="0"
            traveltime="0.02" CO_perVeh="0.370340" CO2_perVeh="44.687755" HC_perVeh="0.002713" PMx_perVeh="0.000605" NOx_perVeh="0.016679" fuel_perVeh="0.019209" electricity_perVeh="0"/>
        <edge id=":1110673601_0" sampledSeconds="29.46" CO_abs="713.261046" CO2_abs="74865.724652" HC_abs="4.983985" PMx_abs="1.116960" NOx_abs="28.753092" fuel_abs="32.181566" electricity_abs="0"
            CO_normed="1951.170035" CO2_normed="204799.854671" HC_normed="13.634002" PMx_normed="3.055513" NOx_normed="78.655875" fuel_normed="88.034679" electricity_normed="0"
            traveltime="0.02" CO_perVeh="0.529392" CO2_perVeh="55.566343" HC_perVeh="0.003699" PMx_perVeh="0.000829" NOx_perVeh="0.021341" fuel_perVeh="0.023886" electricity_perVeh="0"/>
        <edge id=":1110673617_0" sampledSeconds="238.20" CO_abs="6454.847407" CO2_abs="778004.295604" HC_abs="48.124494" PMx_abs="14.067682" NOx_abs="294.893827" fuel_abs="334.428161" electricity_abs="0"
            CO_normed="16480.461465" CO2_normed="1986393.946222" HC_normed="122.871049" PMx_normed="35.917485" NOx_normed="752.920408" fuel_normed="853.859136" electricity_normed="0"
            traveltime="0.01" CO_perVeh="0.395317" CO2_perVeh="47.647610" HC_perVeh="0.002947" PMx_perVeh="0.000862" NOx_perVeh="0.018060" fuel_perVeh="0.020482" electricity_perVeh="0"/>
        <edge id=":1110673621_0" sampledSeconds="25.71" CO_abs="554.271115" CO2_abs="61995.735013" HC_abs="3.939056" PMx_abs="0.884695" NOx_abs="23.482874" fuel_abs="26.649343" electricity_abs="0"
            CO_normed="1698.192353" CO2_normed="189944.379615" HC_normed="12.068596" PMx_normed="2.710555" NOx_normed="71.947529" fuel_normed="81.649051" electricity_normed="0"
            traveltime="0.02" CO_perVeh="0.419902" CO2_perVeh="46.966466" HC_perVeh="0.002984" PMx_perVeh="0.000670" NOx_perVeh="0.017790" fuel_perVeh="0.020189" electricity_perVeh="0"/>
        <edge id=":1110673630_0" sampledSeconds="54.24" CO_abs="151.157271" CO2_abs="16894.804433" HC_abs="1.063792" PMx_abs="0.161962" NOx_abs="5.945360" fuel_abs="7.262478" electricity_abs="0"
            CO_normed="8.258205" CO2_normed="923.017209" HC_normed="0.058118" PMx_normed="0.008849" NOx_normed="0.324814" fuel_normed="0.396772" electricity_normed="0"
            traveltime="1.27" CO_perVeh="3.528278" CO2_perVeh="394.354619" HC_perVeh="0.024831" PMx_perVeh="0.003780" NOx_perVeh="0.138775" fuel_perVeh="0.169519" electricity_perVeh="0"/>
        <edge id=":1110673630_1" sampledSeconds="7.47" CO_abs="39.665623" CO2_abs="2836.975662" HC_abs="0.245286" PMx_abs="0.039120" NOx_abs="1.091807" fuel_abs="1.219508" electricity_abs="0"
            CO_normed="2.641929" CO2_normed="188.956751" HC_normed="0.016337" PMx_normed="0.002606" NOx_normed="0.072720" fuel_normed="0.081225" electricity_normed="0"
            traveltime="1.06" CO_perVeh="5.614211" CO2_perVeh="401.541171" HC_perVeh="0.034717" PMx_perVeh="0.005537" NOx_perVeh="0.154533" fuel_perVeh="0.172607" electricity_perVeh="0"/>
        <edge id=":1110673650_0" sampledSeconds="143.02" CO_abs="2246.442461" CO2_abs="290489.146558" HC_abs="16.818496" PMx_abs="3.878476" NOx_abs="107.718228" fuel_abs="124.869160" electricity_abs="0"
            CO_normed="5735.597773" CO2_normed="741674.416744" HC_normed="42.940841" PMx_normed="9.902492" NOx_normed="275.025263" fuel_normed="318.814876" electricity_normed="0"
            traveltime="0.02" CO_perVeh="0.361574" CO2_perVeh="46.755391" HC_perVeh="0.002707" PMx_perVeh="0.000624" NOx_perVeh="0.017338" fuel_perVeh="0.020098" electricity_perVeh="0"/>
        <edge id=":1110673655_0" sampledSeconds="44.82" CO_abs="756.510828" CO2_abs="88811.738789" HC_abs="5.482385" PMx_abs="1.193685" NOx_abs="33.158172" fuel_abs="38.176494" electricity_abs="0"
            CO_normed="1931.517009" CO2_normed="226753.375632" HC_normed="13.997580" PMx_normed="3.047706" NOx_normed="84.659162" fuel_normed="97.471900" electricity_normed="0"
            traveltime="0.02" CO_perVeh="0.404876" CO2_perVeh="47.531035" HC_perVeh="0.002934" PMx_perVeh="0.000639" NOx_perVeh="0.017746" fuel_perVeh="0.020432" electricity_perVeh="0"/>
        <edge id=":1110673663_0" sampledSeconds="108.82" CO_abs="1876.825134" CO2_abs="215161.636221" HC_abs="13.467273" PMx_abs="3.007533" NOx_abs="81.021438" fuel_abs="92.488950" electricity_abs="0"
            CO_normed="87.763626" CO2_normed="10061.334404" HC_normed="0.629753" PMx_normed="0.140637" NOx_normed="3.788704" fuel_normed="4.324945" electricity_normed="0"
            traveltime="1.28" CO_perVeh="22.044344" CO2_perVeh="2527.191867" HC_perVeh="0.158181" PMx_perVeh="0.035325" NOx_perVeh="0.951641" fuel_perVeh="1.086334" electricity_perVeh="0"/>
        <edge id=":1110673663_1" sampledSeconds="153.39" CO_abs="2304.614749" CO2_abs="310460.479037" HC_abs="17.542609" PMx_abs="4.170763" NOx_abs="114.993246" fuel_abs="133.453910" electricity_abs="0"
            CO_normed="107.899562" CO2_normed="14535.422730" HC_normed="0.821326" PMx_normed="0.195271" NOx_normed="5.383859" fuel_normed="6.248167" electricity_normed="0"
            traveltime="1.25" CO_perVeh="18.706879" CO2_perVeh="2520.050995" HC_perVeh="0.142396" PMx_perVeh="0.033855" NOx_perVeh="0.933416" fuel_perVeh="1.083264" electricity_perVeh="0"/>
        <edge id=":1110673666_0" sampledSeconds="191.59" CO_abs="4008.096425" CO2_abs="330339.262000" HC_abs="25.763157" PMx_abs="4.305481" NOx_abs="124.744003" fuel_abs="142.000184" electricity_abs="0"