<?xml version="1.0" encoding="UTF-8"?>

<!-- generated on Tue Nov 10 12:23:35 2020 by Eclipse SUMO sumo Version 1.7.0
<configuration xmlns:xsi="http://www.w3.org/2001/XMLSchema-instance" xsi:noNamespaceSchemaLocation="http://sumo.dlr.de/xsd/sumoConfiguration.xsd">

    <input>
        <net-file value="../dataSets/Porto/8AM9AM_Routing_SaoBento/Porto.net.xml"/>
        <route-files value="../results/Porto/8AM9AM_Routing_SaoBento/inputdata/cost_PMx-length/solution17/Porto.rou.xml"/>
        <additional-files value="moreOutputInfo.xml"/>
    </input>

    <output>
        <emission-output.precision value="6"/>
        <tripinfo-output value="../results/Porto/8AM9AM_Routing_SaoBento/inputdata/cost_PMx-length/solution17/Porto-tripinfo"/>
    </output>

    <processing>
        <collision.action value="warn"/>
        <time-to-teleport value="-1"/>
    </processing>

    <emissions>
        <device.emissions.probability value="1"/>
    </emissions>

    <gui_only>
        <quit-on-end value="true"/>
        <start value="true"/>
    </gui_only>

</configuration>
-->

<meandata xmlns:xsi="http://www.w3.org/2001/XMLSchema-instance" xsi:noNamespaceSchemaLocation="http://sumo.dlr.de/xsd/meandata_file.xsd">
    <interval begin="0.00" end="8471.00" id="emissions-detector">
        <edge id=":1092997347_0" sampledSeconds="628.25" CO_abs="76354.378541" CO2_abs="3261275.909352" HC_abs="424.814354" PMx_abs="65.926924" NOx_abs="1410.924250" fuel_abs="1401.890252" electricity_abs="0"
            CO_normed="73747.803401" CO2_normed="3149942.926580" HC_normed="410.312101" PMx_normed="63.676320" NOx_normed="1362.758314" fuel_normed="1354.032717" electricity_normed="0"
            traveltime="0.07" CO_perVeh="8.296950" CO2_perVeh="354.382355" HC_perVeh="0.046162" PMx_perVeh="0.007164" NOx_perVeh="0.153316" fuel_perVeh="0.152335" electricity_perVeh="0"/>
        <edge id=":1103427051_0" sampledSeconds="19.39" CO_abs="1464.935407" CO2_abs="82017.993836" HC_abs="8.613728" PMx_abs="1.589897" NOx_abs="34.878505" fuel_abs="35.255941" electricity_abs="0"
            CO_normed="2146.783739" CO2_normed="120192.941358" HC_normed="12.622954" PMx_normed="2.329908" NOx_normed="51.112565" fuel_normed="51.665678" electricity_normed="0"
            traveltime="0.03" CO_perVeh="2.278160" CO2_perVeh="127.548360" HC_perVeh="0.013395" PMx_perVeh="0.002472" NOx_perVeh="0.054240" fuel_perVeh="0.054827" electricity_perVeh="0"/>
        <edge id=":1105984386_0" sampledSeconds="10.65" CO_abs="185.207009" CO2_abs="13230.241214" HC_abs="1.144821" PMx_abs="0.181639" NOx_abs="5.082662" fuel_abs="5.687178" electricity_abs="0"
            CO_normed="8.105989" CO2_normed="579.050381" HC_normed="0.050106" PMx_normed="0.007950" NOx_normed="0.222454" fuel_normed="0.248912" electricity_normed="0"
            traveltime="1.02" CO_perVeh="17.766845" CO2_perVeh="1269.172517" HC_perVeh="0.109822" PMx_perVeh="0.017425" NOx_perVeh="0.487578" fuel_perVeh="0.545569" electricity_perVeh="0"/>
        <edge id=":1105984390_0" sampledSeconds="10.68" CO_abs="39.036173" CO2_abs="2720.183817" HC_abs="0.237858" PMx_abs="0.027923" NOx_abs="0.986200" fuel_abs="1.169319" electricity_abs="0"
            CO_normed="1.320825" CO2_normed="92.039962" HC_normed="0.008048" PMx_normed="0.000945" NOx_normed="0.033369" fuel_normed="0.039565" electricity_normed="0"
            traveltime="1.11" CO_perVeh="4.046334" CO2_perVeh="281.963429" HC_perVeh="0.024655" PMx_perVeh="0.002894" NOx_perVeh="0.102226" fuel_perVeh="0.121207" electricity_perVeh="0"/>
        <edge id=":1105984390_1" sampledSeconds="2398.40" CO_abs="63967.183084" CO2_abs="7491778.193288" HC_abs="470.357568" PMx_abs="135.941450" NOx_abs="2857.196565" fuel_abs="3220.368993" electricity_abs="0"
            CO_normed="2070.428890" CO2_normed="242486.744982" HC_normed="15.224086" PMx_normed="4.400023" NOx_normed="92.479019" fuel_normed="104.233838" electricity_normed="0"
            traveltime="0.65" CO_perVeh="17.267983" CO2_perVeh="2022.410429" HC_perVeh="0.126973" PMx_perVeh="0.036697" NOx_perVeh="0.771302" fuel_perVeh="0.869341" electricity_perVeh="0"/>
        <edge id=":1105984395_0" sampledSeconds="4.15" CO_abs="81.627138" CO2_abs="5593.595799" HC_abs="0.497754" PMx_abs="0.070496" NOx_abs="2.113556" fuel_abs="2.404486" electricity_abs="0"
            CO_normed="37.706356" CO2_normed="2583.872454" HC_normed="0.229930" PMx_normed="0.032565" NOx_normed="0.976323" fuel_normed="1.110714" electricity_normed="0"
            traveltime="0.10" CO_perVeh="1.892088" CO2_perVeh="129.657549" HC_perVeh="0.011538" PMx_perVeh="0.001634" NOx_perVeh="0.048991" fuel_perVeh="0.055735" electricity_perVeh="0"/>
        <edge id=":1105984398_0" sampledSeconds="10.65" CO_abs="804.047264" CO2_abs="52796.992238" HC_abs="4.907391" PMx_abs="0.964482" NOx_abs="21.909701" fuel_abs="22.695101" electricity_abs="0"
            CO_normed="28.263315" CO2_normed="1855.883456" HC_normed="0.172501" PMx_normed="0.033903" NOx_normed="0.770155" fuel_normed="0.797763" electricity_normed="0"
            traveltime="1.15" CO_perVeh="86.785098" CO2_perVeh="5698.660203" HC_perVeh="0.529681" PMx_perVeh="0.104102" NOx_perVeh="2.364831" fuel_perVeh="2.449603" electricity_perVeh="0"/>
        <edge id=":1105984398_1" sampledSeconds="648.13" CO_abs="11896.153694" CO2_abs="1375552.385459" HC_abs="85.845232" PMx_abs="19.830668" NOx_abs="521.299690" fuel_abs="591.291262" electricity_abs="0"
            CO_normed="404.773384" CO2_normed="46803.950894" HC_normed="2.920933" PMx_normed="0.674750" NOx_normed="17.737518" fuel_normed="20.119021" electricity_normed="0"
            traveltime="0.95" CO_perVeh="17.508874" CO2_perVeh="2024.551268" HC_perVeh="0.126348" PMx_perVeh="0.029187" NOx_perVeh="0.767254" fuel_perVeh="0.870268" electricity_perVeh="0"/>
        <edge id=":1106006327_0" sampledSeconds="67.75" CO_abs="8965.022721" CO2_abs="289704.270078" HC_abs="47.637255" PMx_abs="6.032781" NOx_abs="126.754778" fuel_abs="124.533685" electricity_abs="0"
            CO_normed="430.016868" CO2_normed="13895.974025" HC_normed="2.284972" PMx_normed="0.289369" NOx_normed="6.079928" fuel_normed="5.973391" electricity_normed="0"
            traveltime="2.10" CO_perVeh="277.912254" CO2_perVeh="8980.720874" HC_perVeh="1.476737" PMx_perVeh="0.187014" NOx_perVeh="3.929349" fuel_perVeh="3.860496" electricity_perVeh="0"/>
        <edge id=":1106006327_1" sampledSeconds="683.31" CO_abs="92270.617240" CO2_abs="3079719.553625" HC_abs="492.711816" PMx_abs="64.194323" NOx_abs="1347.535224" fuel_abs="1323.860559" electricity_abs="0"
            CO_normed="3859.557690" CO2_normed="128820.589295" HC_normed="20.609483" PMx_normed="2.685164" NOx_normed="56.365613" fuel_normed="55.375333" electricity_normed="0"
            traveltime="2.29" CO_perVeh="309.730128" CO2_perVeh="10337.873106" HC_perVeh="1.653914" PMx_perVeh="0.215485" NOx_perVeh="4.523350" fuel_perVeh="4.443879" electricity_perVeh="0"/>
        <edge id=":1106006327_2" sampledSeconds="0.00" CO_abs="0" CO2_abs="0" HC_abs="0" PMx_abs="0" NOx_abs="0" fuel_abs="0" electricity_abs="0"
            CO_normed="0" CO2_normed="0" HC_normed="0" PMx_normed="0" NOx_normed="0" fuel_normed="0" electricity_normed="0"/>
        <edge id=":1106006327_3" sampledSeconds="0.00" CO_abs="0" CO2_abs="0" HC_abs="0" PMx_abs="0" NOx_abs="0" fuel_abs="0" electricity_abs="0"
            CO_normed="0" CO2_normed="0" HC_normed="0" PMx_normed="0" NOx_normed="0" fuel_normed="0" electricity_normed="0"/>
        <edge id=":1107381198_0" sampledSeconds="0.00" CO_abs="0" CO2_abs="0" HC_abs="0" PMx_abs="0" NOx_abs="0" fuel_abs="0" electricity_abs="0"
            CO_normed="0" CO2_normed="0" HC_normed="0" PMx_normed="0" NOx_normed="0" fuel_normed="0" electricity_normed="0"/>
        <edge id=":1107381198_1" sampledSeconds="104.79" CO_abs="4900.651723" CO2_abs="185037.113621" HC_abs="26.555023" PMx_abs="3.136849" NOx_abs="76.328423" fuel_abs="79.541341" electricity_abs="0"
            CO_normed="227.118401" CO2_normed="8575.458087" HC_normed="1.230680" PMx_normed="0.145376" NOx_normed="3.537405" fuel_normed="3.686306" electricity_normed="0"
            traveltime="1.57" CO_perVeh="73.372153" CO2_perVeh="2770.360390" HC_perVeh="0.397580" PMx_perVeh="0.046965" NOx_perVeh="1.142783" fuel_perVeh="1.190886" electricity_perVeh="0"/>
        <edge id=":1110338277_0" sampledSeconds="160.29" CO_abs="2695.134316" CO2_abs="318233.727771" HC_abs="19.515361" PMx_abs="4.438282" NOx_abs="119.660472" fuel_abs="136.795264" electricity_abs="0"
            CO_normed="4090.630022" CO2_normed="483009.857149" HC_normed="29.620090" PMx_normed="6.736350" NOx_normed="181.618673" fuel_normed="207.625575" electricity_normed="0"
            traveltime="0.02" CO_perVeh="0.365030" CO2_perVeh="43.101703" HC_perVeh="0.002643" PMx_perVeh="0.000601" NOx_perVeh="0.016207" fuel_perVeh="0.018528" electricity_perVeh="0"/>
        <edge id=":1110338293_0" sampledSeconds="6675.93" CO_abs="626026.819928" CO2_abs="10949630.233780" HC_abs="3106.683946" PMx_abs="261.295062" NOx_abs="4949.187239" fuel_abs="4707.062058" electricity_abs="0"
            CO_normed="886828.218527" CO2_normed="15511222.146778" HC_normed="4400.921657" PMx_normed="370.150011" NOx_normed="7011.007775" fuel_normed="6668.013776" electricity_normed="0"
            traveltime="0.45" CO_perVeh="41.833203" CO2_perVeh="731.690865" HC_perVeh="0.207599" PMx_perVeh="0.017461" NOx_perVeh="0.330721" fuel_perVeh="0.314542" electricity_perVeh="0"/>
        <edge id=":1110338295_0" sampledSeconds="0.00" CO_abs="0" CO2_abs="0" HC_abs="0" PMx_abs="0" NOx_abs="0" fuel_abs="0" electricity_abs="0"
            CO_normed="0" CO2_normed="0" HC_normed="0" PMx_normed="0" NOx_normed="0" fuel_normed="0" electricity_normed="0"/>
        <edge id=":1110673403_0" sampledSeconds="200.36" CO_abs="3321.372921" CO2_abs="395977.705735" HC_abs="24.213422" PMx_abs="5.532663" NOx_abs="148.854432" fuel_abs="170.214104" electricity_abs="0"
            CO_normed="4705.049588" CO2_normed="560941.148485" HC_normed="34.300681" PMx_normed="7.837558" NOx_normed="210.866862" fuel_normed="241.124926" electricity_normed="0"
            traveltime="0.02" CO_perVeh="0.383870" CO2_perVeh="45.765424" HC_perVeh="0.002798" PMx_perVeh="0.000639" NOx_perVeh="0.017204" fuel_perVeh="0.019673" electricity_perVeh="0"/>
        <edge id=":1110673412_0" sampledSeconds="939.02" CO_abs="168304.721154" CO2_abs="11467365.594074" HC_abs="1047.001577" PMx_abs="252.217678" NOx_abs="4929.801577" fuel_abs="4929.255504" electricity_abs="0"
            CO_normed="246641.481140" CO2_normed="16804805.091067" HC_normed="1534.324278" PMx_normed="369.611389" NOx_normed="7224.358023" fuel_normed="7223.557784" electricity_normed="0"
            traveltime="0.02" CO_perVeh="2.780448" CO2_perVeh="189.444575" HC_perVeh="0.017297" PMx_perVeh="0.004167" NOx_perVeh="0.081442" fuel_perVeh="0.081433" electricity_perVeh="0"/>
        <edge id=":1110673414_0" sampledSeconds="0.00" CO_abs="0" CO2_abs="0" HC_abs="0" PMx_abs="0" NOx_abs="0" fuel_abs="0" electricity_abs="0"
            CO_normed="0" CO2_normed="0" HC_normed="0" PMx_normed="0" NOx_normed="0" fuel_normed="0" electricity_normed="0"/>
        <edge id=":1110673414_1" sampledSeconds="334.21" CO_abs="22834.859910" CO2_abs="889109.564625" HC_abs="124.655598" PMx_abs="16.526872" NOx_abs="376.038380" fuel_abs="382.196005" electricity_abs="0"
            CO_normed="1074.678153" CO2_normed="41844.207874" HC_normed="5.866673" PMx_normed="0.777805" NOx_normed="17.697513" fuel_normed="17.987310" electricity_normed="0"
            traveltime="1.55" CO_perVeh="106.125017" CO2_perVeh="4132.136908" HC_perVeh="0.579337" PMx_perVeh="0.076809" NOx_perVeh="1.747638" fuel_perVeh="1.776256" electricity_perVeh="0"/>
        <edge id=":1110673417_0" sampledSeconds="29.04" CO_abs="508.323926" CO2_abs="54868.371390" HC_abs="3.586693" PMx_abs="0.808612" NOx_abs="20.944536" fuel_abs="23.585571" electricity_abs="0"
            CO_normed="771.525598" CO2_normed="83278.301181" HC_normed="5.443824" PMx_normed="1.227297" NOx_normed="31.789269" fuel_normed="35.797786" electricity_normed="0"
            traveltime="0.02" CO_perVeh="0.387621" CO2_perVeh="41.839767" HC_perVeh="0.002735" PMx_perVeh="0.000617" NOx_perVeh="0.015971" fuel_perVeh="0.017985" electricity_perVeh="0"/>
        <edge id=":1110673446_0" sampledSeconds="1312.85" CO_abs="13020.455305" CO2_abs="1058121.336895" HC_abs="84.355481" PMx_abs="19.355427" NOx_abs="432.471768" fuel_abs="454.837748" electricity_abs="0"
            CO_normed="18444.748395" CO2_normed="1498932.362501" HC_normed="119.497789" PMx_normed="27.418856" NOx_normed="612.638557" fuel_normed="644.322156" electricity_normed="0"
            traveltime="0.02" CO_perVeh="0.225908" CO2_perVeh="18.358695" HC_perVeh="0.001464" PMx_perVeh="0.000336" NOx_perVeh="0.007504" fuel_perVeh="0.007892" electricity_perVeh="0"/>
        <edge id=":1110673451_0" sampledSeconds="36.58" CO_abs="355.536382" CO2_abs="27261.617808" HC_abs="2.241653" PMx_abs="0.375658" NOx_abs="10.453195" fuel_abs="11.718712" electricity_abs="0"
            CO_normed="559.613398" CO2_normed="42909.719919" HC_normed="3.528356" PMx_normed="0.591285" NOx_normed="16.453303" fuel_normed="18.445224" electricity_normed="0"
            traveltime="0.03" CO_perVeh="0.261952" CO2_perVeh="20.085785" HC_perVeh="0.001652" PMx_perVeh="0.000277" NOx_perVeh="0.007702" fuel_perVeh="0.008634" electricity_perVeh="0"/>
        <edge id=":1110673464_0" sampledSeconds="1023.14" CO_abs="3330.486939" CO2_abs="251144.104987" HC_abs="20.883485" PMx_abs="3.476250" NOx_abs="96.454322" fuel_abs="107.957119" electricity_abs="0"
            CO_normed="100.239954" CO2_normed="7558.856679" HC_normed="0.628545" PMx_normed="0.104627" NOx_normed="2.903052" fuel_normed="3.249260" electricity_normed="0"
            traveltime="1.21" CO_perVeh="3.949491" CO2_perVeh="297.821760" HC_perVeh="0.024765" PMx_perVeh="0.004122" NOx_perVeh="0.114381" fuel_perVeh="0.128022" electricity_perVeh="0"/>
        <edge id=":1110673464_1" sampledSeconds="2613.31" CO_abs="63263.652320" CO2_abs="7760852.856843" HC_abs="472.721693" PMx_abs="138.154513" NOx_abs="2940.670949" fuel_abs="3336.033367" electricity_abs="0"
            CO_normed="1865.769972" CO2_normed="228882.868486" HC_normed="13.941496" PMx_normed="4.074449" NOx_normed="86.726190" fuel_normed="98.386208" electricity_normed="0"
            traveltime="0.72" CO_perVeh="17.436086" CO2_perVeh="2138.967534" HC_perVeh="0.130287" PMx_perVeh="0.038077" NOx_perVeh="0.810478" fuel_perVeh="0.919444" electricity_perVeh="0"/>
        <edge id=":1110673479_0" sampledSeconds="134.33" CO_abs="6568.001392" CO2_abs="452079.795945" HC_abs="40.515982" PMx_abs="7.856020" NOx_abs="184.583175" fuel_abs="194.329576" electricity_abs="0"
            CO_normed="9304.216350" CO2_normed="640415.246292" HC_normed="57.394852" PMx_normed="11.128821" NOx_normed="261.480120" fuel_normed="275.286850" electricity_normed="0"
            traveltime="0.03" CO_perVeh="1.388541" CO2_perVeh="95.574175" HC_perVeh="0.008565" PMx_perVeh="0.001661" NOx_perVeh="0.039023" fuel_perVeh="0.041083" electricity_perVeh="0"/>
        <edge id=":1110673511_0" sampledSeconds="63.51" CO_abs="1135.245970" CO2_abs="130497.853650" HC_abs="8.140863" PMx_abs="1.761882" NOx_abs="48.808541" fuel_abs="56.095631" electricity_abs="0"
            CO_normed="1608.186948" CO2_normed="184862.972942" HC_normed="11.532329" PMx_normed="2.495879" NOx_normed="69.142072" fuel_normed="79.464948" electricity_normed="0"
            traveltime="0.02" CO_perVeh="0.435105" CO2_perVeh="50.015802" HC_perVeh="0.003120" PMx_perVeh="0.000675" NOx_perVeh="0.018707" fuel_perVeh="0.021500" electricity_perVeh="0"/>
        <edge id=":1110673517_0" sampledSeconds="182.50" CO_abs="8213.458804" CO2_abs="581501.013857" HC_abs="51.066717" PMx_abs="10.146060" NOx_abs="237.308600" fuel_abs="249.961943" electricity_abs="0"
            CO_normed="11635.167707" CO2_normed="823753.059412" HC_normed="72.341000" PMx_normed="14.372886" NOx_normed="336.170841" fuel_normed="354.095540" electricity_normed="0"
            traveltime="0.03" CO_perVeh="1.257547" CO2_perVeh="89.032512" HC_perVeh="0.007819" PMx_perVeh="0.001553" NOx_perVeh="0.036334" fuel_perVeh="0.038271" electricity_perVeh="0"/>
        <edge id=":1110673534_0" sampledSeconds="659.34" CO_abs="4125.174497" CO2_abs="348556.407460" HC_abs="26.732466" PMx_abs="4.626148" NOx_abs="131.983905" fuel_abs="149.830839" electricity_abs="0"
            CO_normed="113.250255" CO2_normed="9569.074447" HC_normed="0.733898" PMx_normed="0.127004" NOx_normed="3.623413" fuel_normed="4.113373" electricity_normed="0"
            traveltime="1.45" CO_perVeh="9.070645" CO2_perVeh="766.423655" HC_perVeh="0.058781" PMx_perVeh="0.010172" NOx_perVeh="0.290213" fuel_perVeh="0.329456" electricity_perVeh="0"/>
        <edge id=":1110673534_1" sampledSeconds="264.34" CO_abs="3741.462229" CO2_abs="472940.542925" HC_abs="27.754710" PMx_abs="6.444770" NOx_abs="176.214613" fuel_abs="203.297267" electricity_abs="0"
            CO_normed="99.877145" CO2_normed="12624.997512" HC_normed="0.740903" PMx_normed="0.172041" NOx_normed="4.703993" fuel_normed="5.426956" electricity_normed="0"
            traveltime="1.23" CO_perVeh="17.359466" CO2_perVeh="2194.328019" HC_perVeh="0.128775" PMx_perVeh="0.029902" NOx_perVeh="0.817593" fuel_perVeh="0.943249" electricity_perVeh="0"/>
        <edge id=":1110673549_0" sampledSeconds="651.31" CO_abs="1446.565186" CO2_abs="137436.565475" HC_abs="9.755365" PMx_abs="1.954557" NOx_abs="52.271580" fuel_abs="59.078342" electricity_abs="0"
            CO_normed="38.470608" CO2_normed="3655.050129" HC_normed="0.259439" PMx_normed="0.051980" NOx_normed="1.390134" fuel_normed="1.571156" electricity_normed="0"
            traveltime="1.29" CO_perVeh="2.873980" CO2_perVeh="273.053710" HC_perVeh="0.019382" PMx_perVeh="0.003883" NOx_perVeh="0.103851" fuel_perVeh="0.117375" electricity_perVeh="0"/>
        <edge id=":1110673549_1" sampledSeconds="3197.53" CO_abs="71778.700339" CO2_abs="9292856.246055" HC_abs="548.762334" PMx_abs="164.057256" NOx_abs="3482.509155" fuel_abs="3994.572992" electricity_abs="0"
            CO_normed="1846.517239" CO2_normed="239060.043951" HC_normed="14.116989" PMx_normed="4.220396" NOx_normed="89.588042" fuel_normed="102.760956" electricity_normed="0"
            traveltime="0.81" CO_perVeh="18.106924" CO2_perVeh="2344.219645" HC_perVeh="0.138431" PMx_perVeh="0.041385" NOx_perVeh="0.878499" fuel_perVeh="1.007673" electricity_perVeh="0"/>
        <edge id=":1110673556_0" sampledSeconds="465.92" CO_abs="58033.010447" CO2_abs="2791477.178557" HC_abs="330.589212" PMx_abs="56.608103" NOx_abs="1205.229765" fuel_abs="1199.936667" electricity_abs="0"
            CO_normed="1144.446893" CO2_normed="55049.658123" HC_normed="6.519424" PMx_normed="1.116347" NOx_normed="23.767877" fuel_normed="23.663494" electricity_normed="0"
            traveltime="2.75" CO_perVeh="342.099017" CO2_perVeh="16455.489564" HC_perVeh="1.948792" PMx_perVeh="0.333699" NOx_perVeh="7.104714" fuel_perVeh="7.073511" electricity_perVeh="0"/>
        <edge id=":1110673556_2" sampledSeconds="181.18" CO_abs="18726.582633" CO2_abs="782753.662181" HC_abs="103.666640" PMx_abs="15.270797" NOx_abs="335.033813" fuel_abs="336.475246" electricity_abs="0"
            CO_normed="386.143171" CO2_normed="16140.423859" HC_normed="2.137612" PMx_normed="0.314885" NOx_normed="6.908416" fuel_normed="6.938138" electricity_normed="0"
            traveltime="3.13" CO_perVeh="323.809373" CO2_perVeh="13534.929339" HC_perVeh="1.792544" PMx_perVeh="0.264054" NOx_perVeh="5.793213" fuel_perVeh="5.818138" electricity_perVeh="0"/>
        <edge id=":1110673556_3" sampledSeconds="192.73" CO_abs="20899.273030" CO2_abs="719192.142173" HC_abs="112.019693" PMx_abs="14.440589" NOx_abs="311.312685" fuel_abs="309.155076" electricity_abs="0"
            CO_normed="980.326632" CO2_normed="33735.298326" HC_normed="5.254531" PMx_normed="0.677368" NOx_normed="14.602810" fuel_normed="14.501603" electricity_normed="0"
            traveltime="1.89" CO_perVeh="204.640174" CO2_perVeh="7042.139925" HC_perVeh="1.096867" PMx_perVeh="0.141398" NOx_perVeh="3.048292" fuel_perVeh="3.027165" electricity_perVeh="0"/>
        <edge id=":1110673556_4" sampledSeconds="24.70" CO_abs="2457.633131" CO2_abs="98629.205980" HC_abs="13.505516" PMx_abs="1.925375" NOx_abs="42.248976" fuel_abs="42.396925" electricity_abs="0"
            CO_normed="70.427735" CO2_normed="2826.390761" HC_normed="0.387024" PMx_normed="0.055175" NOx_normed="1.210718" fuel_normed="1.214957" electricity_normed="0"
            traveltime="2.34" CO_perVeh="232.678111" CO2_perVeh="9337.788079" HC_perVeh="1.278644" PMx_perVeh="0.182286" NOx_perVeh="3.999951" fuel_perVeh="4.013958" electricity_perVeh="0"/>
        <edge id=":1110673556_5" sampledSeconds="22.08" CO_abs="1056.992989" CO2_abs="48746.476286" HC_abs="5.936821" PMx_abs="0.819289" NOx_abs="19.993232" fuel_abs="20.954317" electricity_abs="0"
            CO_normed="42.218062" CO2_normed="1947.015543" HC_normed="0.237127" PMx_normed="0.032724" NOx_normed="0.798563" fuel_normed="0.836950" electricity_normed="0"
            traveltime="1.53" CO_perVeh="73.076059" CO2_perVeh="3370.126756" HC_perVeh="0.410447" PMx_perVeh="0.056642" NOx_perVeh="1.382248" fuel_perVeh="1.448694" electricity_perVeh="0"/>
        <edge id=":1110673556_6" sampledSeconds="215.94" CO_abs="26199.510734" CO2_abs="1314227.859264" HC_abs="150.547033" PMx_abs="26.505763" NOx_abs="565.800689" fuel_abs="564.929689" electricity_abs="0"
            CO_normed="529.697945" CO2_normed="26570.870120" HC_normed="3.043738" PMx_normed="0.535890" NOx_normed="11.439277" fuel_normed="11.421667" electricity_normed="0"
            traveltime="2.52" CO_perVeh="305.290601" CO2_perVeh="15314.080382" HC_perVeh="1.754254" PMx_perVeh="0.308859" NOx_perVeh="6.593010" fuel_perVeh="6.582861" electricity_perVeh="0"/>
        <edge id=":1110673561_0" sampledSeconds="102.83" CO_abs="10005.811085" CO2_abs="701629.505035" HC_abs="62.473727" PMx_abs="14.316302" NOx_abs="298.084463" fuel_abs="301.597031" electricity_abs="0"
            CO_normed="254.169934" CO2_normed="17822.955462" HC_normed="1.586972" PMx_normed="0.363666" NOx_normed="7.572011" fuel_normed="7.661238" electricity_normed="0"
            traveltime="1.21" CO_perVeh="118.078282" CO2_perVeh="8279.909161" HC_perVeh="0.737251" PMx_perVeh="0.168946" NOx_perVeh="3.517686" fuel_perVeh="3.559138" electricity_perVeh="0"/>
        <edge id=":1110673561_1" sampledSeconds="5188.49" CO_abs="481729.463854" CO2_abs="33394497.238664" HC_abs="3001.471048" PMx_abs="697.867663" NOx_abs="14275.597606" fuel_abs="14354.681601" electricity_abs="0"
            CO_normed="11930.365398" CO2_normed="827037.962642" HC_normed="74.333519" PMx_normed="17.283178" NOx_normed="353.545109" fuel_normed="355.503679" electricity_normed="0"
            traveltime="1.19" CO_perVeh="110.684625" CO2_perVeh="7672.890440" HC_perVeh="0.689633" PMx_perVeh="0.160346" NOx_perVeh="3.280034" fuel_perVeh="3.298205" electricity_perVeh="0"/>
        <edge id=":1110673562_0" sampledSeconds="300.44" CO_abs="6553.192509" CO2_abs="503423.870095" HC_abs="41.331323" PMx_abs="6.902344" NOx_abs="192.892240" fuel_abs="216.402421" electricity_abs="0"
            CO_normed="10314.709022" CO2_normed="792387.943328" HC_normed="65.055402" PMx_normed="10.864273" NOx_normed="303.611915" fuel_normed="340.616882" electricity_normed="0"
            traveltime="0.03" CO_perVeh="0.587438" CO2_perVeh="45.127638" HC_perVeh="0.003705" PMx_perVeh="0.000619" NOx_perVeh="0.017291" fuel_perVeh="0.019399" electricity_perVeh="0"/>
        <edge id=":1110673564_0" sampledSeconds="27.76" CO_abs="498.444376" CO2_abs="58509.937578" HC_abs="3.602532" PMx_abs="0.808481" NOx_abs="21.937912" fuel_abs="25.150971" electricity_abs="0"
            CO_normed="2118.285625" CO2_normed="248655.147303" HC_normed="15.310016" PMx_normed="3.435877" NOx_normed="93.231593" fuel_normed="106.886433" electricity_normed="0"
            traveltime="7.841228e-03" CO_perVeh="0.140784" CO2_perVeh="16.525897" HC_perVeh="0.001018" PMx_perVeh="0.000228" NOx_perVeh="0.006196" fuel_perVeh="0.007104" electricity_perVeh="0"/>
        <edge id=":1110673588_0" sampledSeconds="62.84" CO_abs="1071.340244" CO2_abs="118048.751284" HC_abs="7.574092" PMx_abs="1.579590" NOx_abs="44.172758" fuel_abs="50.744327" electricity_abs="0"
            CO_normed="1821.189885" CO2_normed="200673.122239" HC_normed="12.875331" PMx_normed="2.685172" NOx_normed="75.090038" fuel_normed="86.261163" electricity_normed="0"
            traveltime="0.02" CO_perVeh="0.345594" CO2_perVeh="38.080242" HC_perVeh="0.002443" PMx_perVeh="0.000510" NOx_perVeh="0.014249" fuel_perVeh="0.016369" electricity_perVeh="0"/>
        <edge id=":1110673601_0" sampledSeconds="29.00" CO_abs="518.471974" CO2_abs="56010.981188" HC_abs="3.645726" PMx_abs="0.820238" NOx_abs="21.363118" fuel_abs="24.076733" electricity_abs="0"
            CO_normed="786.928136" CO2_normed="85012.535321" HC_normed="5.533422" PMx_normed="1.244943" NOx_normed="32.424585" fuel_normed="36.543265" electricity_normed="0"
            traveltime="0.02" CO_perVeh="0.395360" CO2_perVeh="42.711062" HC_perVeh="0.002780" PMx_perVeh="0.000625" NOx_perVeh="0.016290" fuel_perVeh="0.018360" electricity_perVeh="0"/>
        <edge id=":1110673617_0" sampledSeconds="856.88" CO_abs="34968.029144" CO2_abs="3427556.813961" HC_abs="241.448774" PMx_abs="65.267133" NOx_abs="1352.488418" fuel_abs="1473.345751" electricity_abs="0"
            CO_normed="49535.633305" CO2_normed="4855469.456680" HC_normed="342.035803" PMx_normed="92.457278" NOx_normed="1915.932123" fuel_normed="2087.138356" electricity_normed="0"
            traveltime="0.02" CO_perVeh="0.619805" CO2_perVeh="60.753162" HC_perVeh="0.004280" PMx_perVeh="0.001157" NOx_perVeh="0.023973" fuel_perVeh="0.026115" electricity_perVeh="0"/>
        <edge id=":1110673621_0" sampledSeconds="26.19" CO_abs="699.714050" CO2_abs="67247.959778" HC_abs="4.751148" PMx_abs="1.047490" NOx_abs="26.209694" fuel_abs="28.906988" electricity_abs="0"
            CO_normed="1189.456065" CO2_normed="114315.974595" HC_normed="8.076558" PMx_normed="1.780646" NOx_normed="44.554314" fuel_normed="49.139491" electricity_normed="0"
            traveltime="0.02" CO_perVeh="0.530086" CO2_perVeh="50.945424" HC_perVeh="0.003599" PMx_perVeh="0.000794" NOx_perVeh="0.019856" fuel_perVeh="0.021899" electricity_perVeh="0"/>
        <edge id=":1110673630_0" sampledSeconds="286.81" CO_abs="1031.752688" CO2_abs="102430.376231" HC_abs="6.986864" PMx_abs="1.204664" NOx_abs="37.543483" fuel_abs="44.030936" electricity_abs="0"
            CO_normed="31.274863" CO2_normed="3104.906834" HC_normed="0.211788" PMx_normed="0.036516" NOx_normed="1.138032" fuel_normed="1.334682" electricity_normed="0"
            traveltime="1.29" CO_perVeh="4.642493" CO2_perVeh="460.897573" HC_perVeh="0.031438" PMx_perVeh="0.005421" NOx_perVeh="0.168931" fuel_perVeh="0.198122" electricity_perVeh="0"/>
        <edge id=":1110673630_1" sampledSeconds="336.73" CO_abs="1059.153934" CO2_abs="86330.805519" HC_abs="6.789986" PMx_abs="1.148569" NOx_abs="32.770471" fuel_abs="37.110276" electricity_abs="0"
            CO_normed="39.140743" CO2_normed="3190.331205" HC_normed="0.250922" PMx_normed="0.042445" NOx_normed="1.211024" fuel_normed="1.371400" electricity_normed="0"
            traveltime="1.07" CO_perVeh="3.376374" CO2_perVeh="275.205617" HC_perVeh="0.021645" PMx_perVeh="0.003661" NOx_perVeh="0.104466" fuel_perVeh="0.118300" electricity_perVeh="0"/>
        <edge id=":1110673650_0" sampledSeconds="200.36" CO_abs="2692.118661" CO2_abs="350828.115081" HC_abs="20.229402" PMx_abs="4.701792" NOx_abs="130.134670" fuel_abs="150.806328" electricity_abs="0"
            CO_normed="3813.649384" CO2_normed="496982.337502" HC_normed="28.656927" PMx_normed="6.660548" NOx_normed="184.348487" fuel_normed="213.631913" electricity_normed="0"
            traveltime="0.02" CO_perVeh="0.311144" CO2_perVeh="40.547226" HC_perVeh="0.002338" PMx_perVeh="0.000543" NOx_perVeh="0.015040" fuel_perVeh="0.017430" electricity_perVeh="0"/>
        <edge id=":1110673655_0" sampledSeconds="20.65" CO_abs="382.412985" CO2_abs="45330.504470" HC_abs="2.780243" PMx_abs="0.615554" NOx_abs="16.938075" fuel_abs="19.485699" electricity_abs="0"
            CO_normed="541.725394" CO2_normed="64215.093099" HC_normed="3.938487" PMx_normed="0.871992" NOx_normed="23.994439" fuel_normed="27.603398" electricity_normed="0"
            traveltime="0.02" CO_perVeh="0.436877" CO2_perVeh="51.786563" HC_perVeh="0.003176" PMx_perVeh="0.000703" NOx_perVeh="0.019350" fuel_perVeh="0.022261" electricity_perVeh="0"/>
        <edge id=":1110673663_0" sampledSeconds="113.13" CO_abs="1997.033750" CO2_abs="211938.917802" HC_abs="13.990858" PMx_abs="2.984565" NOx_abs="80.332430" fuel_abs="91.103703" electricity_abs="0"
            CO_normed="51.813070" CO2_normed="5498.758344" HC_normed="0.362993" PMx_normed="0.077435" NOx_normed="2.084226" fuel_normed="2.363687" electricity_normed="0"
            traveltime="1.33" CO_perVeh="23.456104" CO2_perVeh="2489.322573" HC_perVeh="0.164329" PMx_perVeh="0.035055" NOx_perVeh="0.943542" fuel_perVeh="1.070056" electricity_perVeh="0"/>
        <edge id=":1110673663_1" sampledSeconds="170.62" CO_abs="2449.496783" CO2_abs="307732.203779" HC_abs="18.128292" PMx_abs="4.096079" NOx_abs="114.251603" fuel_abs="132.281287" electricity_abs="0"
            CO_normed="63.629922" CO2_normed="7993.877094" HC_normed="0.470914" PMx_normed="0.106403" NOx_normed="2.967883" fuel_normed="3.436236" electricity_normed="0"
            traveltime="1.27" CO_perVeh="18.296648" CO2_perVeh="2298.622216" HC_perVeh="0.135410" PMx_perVeh="0.030596" NOx_perVeh="0.853408" fuel_perVeh="0.988082" electricity_perVeh="0"/>