<?xml version="1.0" encoding="UTF-8"?>

<!-- generated on Fri Oct  2 16:00:12 2020 by Eclipse SUMO Version 1.1.0
<configuration xmlns:xsi="http://www.w3.org/2001/XMLSchema-instance" xsi:noNamespaceSchemaLocation="http://sumo.dlr.de/xsd/sumoConfiguration.xsd">

    <input>
        <net-file value="../dataSets/Angeja_Estarreja/angeja_estarreja.net.xml"/>
        <route-files value="../results/angeja_estarreja/cost_co2-cost_nox/solution3/angeja_estarreja.rou.xml"/>
        <additional-files value="moreOutputInfo.xml"/>
    </input>

    <output>
        <emission-output.precision value="6"/>
        <tripinfo-output value="../results/angeja_estarreja/cost_co2-cost_nox/solution3/angeja_estarreja-tripinfo"/>
    </output>

    <processing>
        <collision.action value="warn"/>
        <time-to-teleport value="-1"/>
    </processing>

    <emissions>
        <device.emissions.probability value="1"/>
    </emissions>

    <gui_only>
        <quit-on-end value="true"/>
        <start value="true"/>
    </gui_only>

</configuration>
-->

<meandata xmlns:xsi="http://www.w3.org/2001/XMLSchema-instance" xsi:noNamespaceSchemaLocation="http://sumo.dlr.de/xsd/meandata_file.xsd">
    <interval begin="0.00" end="6187.00" id="emissions-detector">
        <edge id=":10_0" sampledSeconds="127.55" CO_abs="13189.518523" CO2_abs="738960.269568" HC_abs="77.611022" PMx_abs="14.540706" NOx_abs="315.421300" fuel_abs="317.646318" electricity_abs="0"
            CO_normed="438.794846" CO2_normed="24584.063233" HC_normed="2.581998" PMx_normed="0.483747" NOx_normed="10.493578" fuel_normed="10.567601" electricity_normed="0"
            traveltime="1.86" CO_perVeh="192.083566" CO2_perVeh="10761.736540" HC_perVeh="1.130276" PMx_perVeh="0.211761" NOx_perVeh="4.593591" fuel_perVeh="4.625994" electricity_perVeh="0"/>
        <edge id=":10_1" sampledSeconds="0.00" CO_abs="0" CO2_abs="0" HC_abs="0" PMx_abs="0" NOx_abs="0" fuel_abs="0" electricity_abs="0"
            CO_normed="0" CO2_normed="0" HC_normed="0" PMx_normed="0" NOx_normed="0" fuel_normed="0" electricity_normed="0"/>
        <edge id=":100_0" sampledSeconds="0.00" CO_abs="0" CO2_abs="0" HC_abs="0" PMx_abs="0" NOx_abs="0" fuel_abs="0" electricity_abs="0"
            CO_normed="0" CO2_normed="0" HC_normed="0" PMx_normed="0" NOx_normed="0" fuel_normed="0" electricity_normed="0"/>
        <edge id=":100_1" sampledSeconds="265.59" CO_abs="5911.911355" CO2_abs="807034.742995" HC_abs="46.520453" PMx_abs="14.290438" NOx_abs="297.625843" fuel_abs="346.907482" electricity_abs="0"
            CO_normed="116.371295" CO2_normed="15885.840092" HC_normed="0.915718" PMx_normed="0.281296" NOx_normed="5.858529" fuel_normed="6.828599" electricity_normed="0"
            traveltime="1.37" CO_perVeh="30.499671" CO2_perVeh="4163.508658" HC_perVeh="0.240000" PMx_perVeh="0.073725" NOx_perVeh="1.535458" fuel_perVeh="1.789703" electricity_perVeh="0"/>
        <edge id=":101_0" sampledSeconds="141.35" CO_abs="3482.793190" CO2_abs="431328.750388" HC_abs="26.360047" PMx_abs="7.844246" NOx_abs="161.591526" fuel_abs="185.408426" electricity_abs="0"
            CO_normed="248.043594" CO2_normed="30719.117520" HC_normed="1.877355" PMx_normed="0.558665" NOx_normed="11.508505" fuel_normed="13.204738" electricity_normed="0"
            traveltime="0.38" CO_perVeh="9.332011" CO2_perVeh="1155.728830" HC_perVeh="0.070631" PMx_perVeh="0.021018" NOx_perVeh="0.432978" fuel_perVeh="0.496795" electricity_perVeh="0"/>
        <edge id=":102_0" sampledSeconds="99.36" CO_abs="2629.521440" CO2_abs="305228.454809" HC_abs="19.408184" PMx_abs="5.657672" NOx_abs="115.547509" fuel_abs="131.203623" electricity_abs="0"
            CO_normed="188.892225" CO2_normed="21926.150158" HC_normed="1.394191" PMx_normed="0.406420" NOx_normed="8.300380" fuel_normed="9.425040" electricity_normed="0"
            traveltime="0.38" CO_perVeh="9.925266" CO2_perVeh="1152.100694" HC_perVeh="0.073257" PMx_perVeh="0.021355" NOx_perVeh="0.436140" fuel_perVeh="0.495235" electricity_perVeh="0"/>
        <edge id=":103_0" sampledSeconds="140.04" CO_abs="3294.629831" CO2_abs="428979.022671" HC_abs="25.427055" PMx_abs="7.691869" NOx_abs="159.404591" fuel_abs="184.398468" electricity_abs="0"
            CO_normed="238.140429" CO2_normed="31007.200664" HC_normed="1.837903" PMx_normed="0.555979" NOx_normed="11.521986" fuel_normed="13.328578" electricity_normed="0"
            traveltime="0.37" CO_perVeh="8.779717" CO2_perVeh="1143.167748" HC_perVeh="0.067759" PMx_perVeh="0.020498" NOx_perVeh="0.424790" fuel_perVeh="0.491396" electricity_perVeh="0"/>
        <edge id=":104_0" sampledSeconds="99.25" CO_abs="2883.201915" CO2_abs="333463.541889" HC_abs="21.232577" PMx_abs="6.183375" NOx_abs="126.339422" fuel_abs="143.340576" electricity_abs="0"
            CO_normed="207.371429" CO2_normed="23984.033486" HC_normed="1.527132" PMx_normed="0.444733" NOx_normed="9.086837" fuel_normed="10.309628" electricity_normed="0"
            traveltime="0.37" CO_perVeh="10.877825" CO2_perVeh="1258.100646" HC_perVeh="0.080107" PMx_perVeh="0.023329" NOx_perVeh="0.476657" fuel_perVeh="0.540799" electricity_perVeh="0"/>
        <edge id=":105_0" sampledSeconds="54.16" CO_abs="1280.800116" CO2_abs="160688.113265" HC_abs="9.744701" PMx_abs="2.911512" NOx_abs="60.084110" fuel_abs="69.072449" electricity_abs="0"
            CO_normed="3387.513715" CO2_normed="424994.642546" HC_normed="25.773193" PMx_normed="7.700488" NOx_normed="158.912967" fuel_normed="182.685703" electricity_normed="0"
            traveltime="0.01" CO_perVeh="0.241257" CO2_perVeh="30.267892" HC_perVeh="0.001836" PMx_perVeh="0.000548" NOx_perVeh="0.011318" fuel_perVeh="0.013011" electricity_perVeh="0"/>
        <edge id=":106_0" sampledSeconds="39.63" CO_abs="971.292701" CO2_abs="118063.113875" HC_abs="7.291768" PMx_abs="2.158265" NOx_abs="44.343850" fuel_abs="50.749905" electricity_abs="0"
            CO_normed="1823.101365" CO2_normed="221602.637137" HC_normed="13.686535" PMx_normed="4.051031" NOx_normed="83.232720" fuel_normed="95.256786" electricity_normed="0"
            traveltime="0.01" CO_perVeh="0.352107" CO2_perVeh="42.799515" HC_perVeh="0.002643" PMx_perVeh="0.000782" NOx_perVeh="0.016075" fuel_perVeh="0.018398" electricity_perVeh="0"/>
        <edge id=":107_0" sampledSeconds="134.62" CO_abs="3486.331874" CO2_abs="437403.776554" HC_abs="26.477208" PMx_abs="7.919332" NOx_abs="163.444311" fuel_abs="188.019828" electricity_abs="0"
            CO_normed="248.295618" CO2_normed="31151.779249" HC_normed="1.885700" PMx_normed="0.564013" NOx_normed="11.640460" fuel_normed="13.390722" electricity_normed="0"
            traveltime="0.38" CO_perVeh="9.798203" CO2_perVeh="1229.306599" HC_perVeh="0.074413" PMx_perVeh="0.022257" NOx_perVeh="0.459354" fuel_perVeh="0.528423" electricity_perVeh="0"/>
        <edge id=":108_0" sampledSeconds="25.28" CO_abs="2017.247654" CO2_abs="152871.248216" HC_abs="12.856554" PMx_abs="3.000160" NOx_abs="63.901866" fuel_abs="65.712123" electricity_abs="0"
            CO_normed="97.569926" CO2_normed="7394.053168" HC_normed="0.621844" PMx_normed="0.145111" NOx_normed="3.090796" fuel_normed="3.178354" electricity_normed="0"
            traveltime="0.85" CO_perVeh="67.447928" CO2_perVeh="5111.345082" HC_perVeh="0.429867" PMx_perVeh="0.100312" NOx_perVeh="2.136599" fuel_perVeh="2.197126" electricity_perVeh="0"/>
        <edge id=":108_1" sampledSeconds="131.11" CO_abs="3084.086555" CO2_abs="355810.527949" HC_abs="22.697668" PMx_abs="6.600948" NOx_abs="134.936395" fuel_abs="152.946505" electricity_abs="0"
            CO_normed="139.110282" CO2_normed="16049.129027" HC_normed="1.023797" PMx_normed="0.297741" NOx_normed="6.086418" fuel_normed="6.898779" electricity_normed="0"
            traveltime="0.60" CO_perVeh="14.088072" CO2_perVeh="1625.338460" HC_perVeh="0.103683" PMx_perVeh="0.030153" NOx_perVeh="0.616388" fuel_perVeh="0.698658" electricity_perVeh="0"/>
        <edge id=":109_0" sampledSeconds="87.97" CO_abs="18.198628" CO2_abs="3543.900289" HC_abs="0.164431" PMx_abs="0.043439" NOx_abs="1.271320" fuel_abs="1.523375" electricity_abs="0"
            CO_normed="0.843757" CO2_normed="164.308546" HC_normed="0.007624" PMx_normed="0.002014" NOx_normed="0.058943" fuel_normed="0.070629" electricity_normed="0"
            traveltime="0.85" CO_perVeh="0.176025" CO2_perVeh="34.278188" HC_perVeh="0.001590" PMx_perVeh="0.000420" NOx_perVeh="0.012297" fuel_perVeh="0.014735" electricity_perVeh="0"/>
        <edge id=":109_1" sampledSeconds="167.06" CO_abs="3876.704796" CO2_abs="492882.419591" HC_abs="29.647491" PMx_abs="8.900087" NOx_abs="183.795938" fuel_abs="211.867577" electricity_abs="0"
            CO_normed="117.241144" CO2_normed="14905.983797" HC_normed="0.896613" PMx_normed="0.269161" NOx_normed="5.558444" fuel_normed="6.407400" electricity_normed="0"
            traveltime="0.89" CO_perVeh="20.727470" CO2_perVeh="2635.280743" HC_perVeh="0.158515" PMx_perVeh="0.047586" NOx_perVeh="0.982697" fuel_perVeh="1.132786" electricity_perVeh="0"/>
        <edge id=":11_0" sampledSeconds="92.56" CO_abs="5722.058197" CO2_abs="419027.678069" HC_abs="35.952530" PMx_abs="7.503600" NOx_abs="171.862569" fuel_abs="180.121315" electricity_abs="0"
            CO_normed="182.436523" CO2_normed="13359.869820" HC_normed="1.146275" PMx_normed="0.239237" NOx_normed="5.479499" fuel_normed="5.742812" electricity_normed="0"
            traveltime="1.56" CO_perVeh="96.602740" CO2_perVeh="7074.241559" HC_perVeh="0.606969" PMx_perVeh="0.126680" NOx_perVeh="2.901473" fuel_perVeh="3.040901" electricity_perVeh="0"/>
        <edge id=":11_1" sampledSeconds="13.84" CO_abs="326.092873" CO2_abs="33630.722512" HC_abs="2.254315" PMx_abs="0.440846" NOx_abs="12.606371" fuel_abs="14.456496" electricity_abs="0"
            CO_normed="10.659668" CO2_normed="1099.356580" HC_normed="0.073691" PMx_normed="0.014411" NOx_normed="0.412090" fuel_normed="0.472569" electricity_normed="0"
            traveltime="1.56" CO_perVeh="36.771955" CO2_perVeh="3792.377958" HC_perVeh="0.254208" PMx_perVeh="0.049712" NOx_perVeh="1.421561" fuel_perVeh="1.630191" electricity_perVeh="0"/>
        <edge id=":110_0" sampledSeconds="39.21" CO_abs="0" CO2_abs="0" HC_abs="0" PMx_abs="0" NOx_abs="0" fuel_abs="0" electricity_abs="0"
            CO_normed="0" CO2_normed="0" HC_normed="0" PMx_normed="0" NOx_normed="0" fuel_normed="0" electricity_normed="0"
            traveltime="0.92" CO_perVeh="0" CO2_perVeh="0" HC_perVeh="0" PMx_perVeh="0" NOx_perVeh="0" fuel_perVeh="0" electricity_perVeh="0"/>
        <edge id=":110_1" sampledSeconds="145.90" CO_abs="3699.858953" CO2_abs="453035.130877" HC_abs="27.888003" PMx_abs="8.269922" NOx_abs="169.976142" fuel_abs="194.738986" electricity_abs="0"
            CO_normed="146.450284" CO2_normed="17932.338612" HC_normed="1.103882" PMx_normed="0.327346" NOx_normed="6.728109" fuel_normed="7.708288" electricity_normed="0"
            traveltime="0.68" CO_perVeh="17.261077" CO2_perVeh="2113.560070" HC_perVeh="0.130107" PMx_perVeh="0.038582" NOx_perVeh="0.792995" fuel_perVeh="0.908522" electricity_perVeh="0"/>
        <edge id=":111_0" sampledSeconds="116.87" CO_abs="2485.496580" CO2_abs="317872.519741" HC_abs="19.047426" PMx_abs="5.728814" NOx_abs="118.445423" fuel_abs="136.638842" electricity_abs="0"
            CO_normed="177.016397" CO2_normed="22638.795308" HC_normed="1.356553" PMx_normed="0.408005" NOx_normed="8.435651" fuel_normed="9.731382" electricity_normed="0"
            traveltime="0.38" CO_perVeh="8.060057" CO2_perVeh="1030.808322" HC_perVeh="0.061768" PMx_perVeh="0.018578" NOx_perVeh="0.384099" fuel_perVeh="0.443097" electricity_perVeh="0"/>
        <edge id=":114_0" sampledSeconds="38.87" CO_abs="4168.077168" CO2_abs="299081.855968" HC_abs="26.180404" PMx_abs="6.119653" NOx_abs="126.830253" fuel_abs="128.560936" electricity_abs="0"
            CO_normed="170.792892" CO2_normed="12255.304529" HC_normed="1.072779" PMx_normed="0.250761" NOx_normed="5.197050" fuel_normed="5.267967" electricity_normed="0"
            traveltime="0.97" CO_perVeh="104.110283" CO2_perVeh="7470.470281" HC_perVeh="0.653934" PMx_perVeh="0.152857" NOx_perVeh="3.167968" fuel_perVeh="3.211197" electricity_perVeh="0"/>
        <edge id=":114_1" sampledSeconds="131.81" CO_abs="3595.474374" CO2_abs="429926.935613" HC_abs="26.810514" PMx_abs="7.888972" NOx_abs="162.061200" fuel_abs="184.805787" electricity_abs="0"
            CO_normed="146.401779" CO2_normed="17505.914829" HC_normed="1.091680" PMx_normed="0.321226" NOx_normed="6.598864" fuel_normed="7.524986" electricity_normed="0"
            traveltime="0.66" CO_perVeh="18.110735" CO2_perVeh="2165.581492" HC_perVeh="0.135047" PMx_perVeh="0.039737" NOx_perVeh="0.816317" fuel_perVeh="0.930884" electricity_perVeh="0"/>
        <edge id=":115_0" sampledSeconds="29.05" CO_abs="25.850030" CO2_abs="3043.488295" HC_abs="0.188555" PMx_abs="0.044507" NOx_abs="1.156594" fuel_abs="1.308265" electricity_abs="0"
            CO_normed="1.801345" CO2_normed="212.083824" HC_normed="0.013139" PMx_normed="0.003101" NOx_normed="0.080597" fuel_normed="0.091166" electricity_normed="0"
            traveltime="0.62" CO_perVeh="0.549231" CO2_perVeh="64.664446" HC_perVeh="0.004006" PMx_perVeh="0.000946" NOx_perVeh="0.024574" fuel_perVeh="0.027796" electricity_perVeh="0"/>
        <edge id=":115_1" sampledSeconds="19.31" CO_abs="325.978669" CO2_abs="47493.915618" HC_abs="2.556544" PMx_abs="0.724630" NOx_abs="17.763007" fuel_abs="20.415518" electricity_abs="0"
            CO_normed="20.286165" CO2_normed="2955.621045" HC_normed="0.159098" PMx_normed="0.045095" NOx_normed="1.105420" fuel_normed="1.270490" electricity_normed="0"
            traveltime="0.58" CO_perVeh="9.825598" CO2_perVeh="1431.554194" HC_perVeh="0.077059" PMx_perVeh="0.021842" NOx_perVeh="0.535410" fuel_perVeh="0.615361" electricity_perVeh="0"/>
        <edge id=":116_0" sampledSeconds="19.88" CO_abs="10.405143" CO2_abs="1528.173815" HC_abs="0.082345" PMx_abs="0.018682" NOx_abs="0.555678" fuel_abs="0.656900" electricity_abs="0"
            CO_normed="0.809410" CO2_normed="118.875824" HC_normed="0.006406" PMx_normed="0.001453" NOx_normed="0.043226" fuel_normed="0.051100" electricity_normed="0"
            traveltime="0.55" CO_perVeh="0.289268" CO2_perVeh="42.483982" HC_perVeh="0.002289" PMx_perVeh="0.000519" NOx_perVeh="0.015448" fuel_perVeh="0.018262" electricity_perVeh="0"/>
        <edge id=":117_0" sampledSeconds="68.43" CO_abs="3458.352333" CO2_abs="291539.322236" HC_abs="22.653588" PMx_abs="5.288034" NOx_abs="118.580819" fuel_abs="125.319348" electricity_abs="0"
            CO_normed="240.993398" CO2_normed="20315.758850" HC_normed="1.578603" PMx_normed="0.368494" NOx_normed="8.263240" fuel_normed="8.732810" electricity_normed="0"
            traveltime="0.61" CO_perVeh="30.662569" CO2_perVeh="2584.856561" HC_perVeh="0.200852" PMx_perVeh="0.046885" NOx_perVeh="1.051366" fuel_perVeh="1.111111" electricity_perVeh="0"/>
        <edge id=":117_1" sampledSeconds="30.50" CO_abs="1882.559890" CO2_abs="155958.653442" HC_abs="12.289081" PMx_abs="2.868718" NOx_abs="63.728526" fuel_abs="67.039419" electricity_abs="0"
            CO_normed="123.633870" CO2_normed="10242.315267" HC_normed="0.807064" PMx_normed="0.188398" NOx_normed="4.185261" fuel_normed="4.402698" electricity_normed="0"
            traveltime="0.64" CO_perVeh="39.533267" CO2_perVeh="3275.091061" HC_perVeh="0.258067" PMx_perVeh="0.060242" NOx_perVeh="1.338282" fuel_perVeh="1.407810" electricity_perVeh="0"/>
        <edge id=":118_0" sampledSeconds="297.11" CO_abs="4420.720587" CO2_abs="692811.871025" HC_abs="35.849816" PMx_abs="10.342152" NOx_abs="257.138738" fuel_abs="297.809083" electricity_abs="0"
            CO_normed="41.361368" CO2_normed="6482.121221" HC_normed="0.335420" PMx_normed="0.096764" NOx_normed="2.405854" fuel_normed="2.786376" electricity_normed="0"
            traveltime="3.89" CO_perVeh="57.845498" CO2_perVeh="9065.501218" HC_perVeh="0.469098" PMx_perVeh="0.135328" NOx_perVeh="3.364682" fuel_perVeh="3.896857" electricity_perVeh="0"/>
        <edge id=":118_4" sampledSeconds="76.47" CO_abs="923.810818" CO2_abs="150217.564398" HC_abs="7.501146" PMx_abs="2.159928" NOx_abs="55.118650" fuel_abs="64.571954" electricity_abs="0"
            CO_normed="8.660115" CO2_normed="1408.190323" HC_normed="0.070318" PMx_normed="0.020248" NOx_normed="0.516701" fuel_normed="0.605319" electricity_normed="0"
            traveltime="3.95" CO_perVeh="47.674463" CO2_perVeh="7752.173519" HC_perVeh="0.387106" PMx_perVeh="0.111466" NOx_perVeh="2.844470" fuel_perVeh="3.332320" electricity_perVeh="0"/>
        <edge id=":118_5" sampledSeconds="71.66" CO_abs="1047.249114" CO2_abs="162933.790533" HC_abs="8.324151" PMx_abs="2.379673" NOx_abs="60.351981" fuel_abs="70.038047" electricity_abs="0"
            CO_normed="9.914706" CO2_normed="1542.556180" HC_normed="0.078808" PMx_normed="0.022529" NOx_normed="0.571375" fuel_normed="0.663077" electricity_normed="0"
            traveltime="3.91" CO_perVeh="57.183410" CO2_perVeh="8896.746330" HC_perVeh="0.454527" PMx_perVeh="0.129938" NOx_perVeh="3.295426" fuel_perVeh="3.824319" electricity_perVeh="0"/>
        <edge id=":119_0" sampledSeconds="43.91" CO_abs="780.520224" CO2_abs="110508.284995" HC_abs="6.135250" PMx_abs="1.733743" NOx_abs="41.631249" fuel_abs="47.502548" electricity_abs="0"
            CO_normed="51.608813" CO2_normed="7306.923351" HC_normed="0.405669" PMx_normed="0.114637" NOx_normed="2.752702" fuel_normed="3.140918" electricity_normed="0"
            traveltime="0.55" CO_perVeh="9.748195" CO2_perVeh="1380.177275" HC_perVeh="0.076625" PMx_perVeh="0.021653" NOx_perVeh="0.519947" fuel_perVeh="0.593276" electricity_perVeh="0"/>
        <edge id=":12_0" sampledSeconds="193.25" CO_abs="16616.560174" CO2_abs="958035.507764" HC_abs="98.391761" PMx_abs="18.597176" NOx_abs="406.872761" fuel_abs="411.817087" electricity_abs="0"
            CO_normed="480.069421" CO2_normed="27678.625795" HC_normed="2.842639" PMx_normed="0.537291" NOx_normed="11.754970" fuel_normed="11.897817" electricity_normed="0"
            traveltime="2.08" CO_perVeh="179.272812" CO2_perVeh="10336.057387" HC_perVeh="1.061529" PMx_perVeh="0.200641" NOx_perVeh="4.389670" fuel_perVeh="4.443014" electricity_perVeh="0"/>
        <edge id=":12_1" sampledSeconds="15.19" CO_abs="183.289969" CO2_abs="23100.135432" HC_abs="1.355051" PMx_abs="0.250762" NOx_abs="8.275171" fuel_abs="9.929869" electricity_abs="0"
            CO_normed="5.290181" CO2_normed="666.724452" HC_normed="0.039110" PMx_normed="0.007238" NOx_normed="0.238841" fuel_normed="0.286599" electricity_normed="0"
            traveltime="1.76" CO_perVeh="21.191293" CO2_perVeh="2670.750303" HC_perVeh="0.156666" PMx_perVeh="0.028992" NOx_perVeh="0.956744" fuel_perVeh="1.148054" electricity_perVeh="0"/>
        <edge id=":120_0" sampledSeconds="11.11" CO_abs="155.919957" CO2_abs="25358.386843" HC_abs="1.259458" PMx_abs="0.362243" NOx_abs="9.306744" fuel_abs="10.900461" electricity_abs="0"
            CO_normed="378.018321" CO2_normed="61479.845262" HC_normed="3.053478" PMx_normed="0.878235" NOx_normed="22.563628" fuel_normed="26.427495" electricity_normed="0"
            traveltime="0.02" CO_perVeh="0.214262" CO2_perVeh="34.846910" HC_perVeh="0.001731" PMx_perVeh="0.000498" NOx_perVeh="0.012789" fuel_perVeh="0.014979" electricity_perVeh="0"/>
        <edge id=":121_0" sampledSeconds="125.39" CO_abs="17872.951787" CO2_abs="476533.402088" HC_abs="92.572472" PMx_abs="10.296204" NOx_abs="210.796566" fuel_abs="204.847081" electricity_abs="0"
            CO_normed="31514.086934" CO2_normed="840236.981509" HC_normed="163.226364" PMx_normed="18.154553" NOx_normed="371.682383" fuel_normed="361.192085" electricity_normed="0"
            traveltime="0.12" CO_perVeh="16.528189" CO2_perVeh="440.678978" HC_perVeh="0.085607" PMx_perVeh="0.009522" NOx_perVeh="0.194936" fuel_perVeh="0.189434" electricity_perVeh="0"/>
        <edge id=":122_0" sampledSeconds="42.58" CO_abs="315.700486" CO2_abs="28964.318456" HC_abs="2.110896" PMx_abs="0.534734" NOx_abs="11.683272" fuel_abs="12.450404" electricity_abs="0"
            CO_normed="21.434671" CO2_normed="1966.549473" HC_normed="0.143321" PMx_normed="0.036306" NOx_normed="0.793243" fuel_normed="0.845327" electricity_normed="0"
            traveltime="0.53" CO_perVeh="3.935604" CO2_perVeh="361.076668" HC_perVeh="0.026315" PMx_perVeh="0.006666" NOx_perVeh="0.145647" fuel_perVeh="0.155210" electricity_perVeh="0"/>
        <edge id=":123_0" sampledSeconds="87.04" CO_abs="10746.015245" CO2_abs="646625.921768" HC_abs="64.435210" PMx_abs="13.184879" NOx_abs="276.961897" fuel_abs="277.954694" electricity_abs="0"
            CO_normed="126.368883" CO2_normed="7604.064715" HC_normed="0.757733" PMx_normed="0.155049" NOx_normed="3.256962" fuel_normed="3.268637" electricity_normed="0"
            traveltime="4.41" CO_perVeh="544.709605" CO2_perVeh="32777.112514" HC_perVeh="3.266185" PMx_perVeh="0.668334" NOx_perVeh="14.039046" fuel_perVeh="14.089371" electricity_perVeh="0"/>
        <edge id=":123_1" sampledSeconds="0.00" CO_abs="0" CO2_abs="0" HC_abs="0" PMx_abs="0" NOx_abs="0" fuel_abs="0" electricity_abs="0"
            CO_normed="0" CO2_normed="0" HC_normed="0" PMx_normed="0" NOx_normed="0" fuel_normed="0" electricity_normed="0"/>
        <edge id=":123_2" sampledSeconds="74.39" CO_abs="9766.271702" CO2_abs="615540.739007" HC_abs="59.279283" PMx_abs="12.697494" NOx_abs="264.051393" fuel_abs="264.592043" electricity_abs="0"
            CO_normed="115.948860" CO2_normed="7307.931768" HC_normed="0.703786" PMx_normed="0.150749" NOx_normed="3.134918" fuel_normed="3.141337" electricity_normed="0"
            traveltime="3.99" CO_perVeh="523.727434" CO2_perVeh="33009.072587" HC_perVeh="3.178919" PMx_perVeh="0.680918" NOx_perVeh="14.160056" fuel_perVeh="14.189049" electricity_perVeh="0"/>
        <edge id=":123_3" sampledSeconds="156.49" CO_abs="7595.471457" CO2_abs="705950.401868" HC_abs="51.328082" PMx_abs="13.289282" NOx_abs="284.095228" fuel_abs="303.454815" electricity_abs="0"
            CO_normed="92.265982" CO2_normed="8575.531788" HC_normed="0.623508" PMx_normed="0.161432" NOx_normed="3.451046" fuel_normed="3.686217" electricity_normed="0"
            traveltime="2.79" CO_perVeh="135.494510" CO2_perVeh="12593.346461" HC_perVeh="0.915634" PMx_perVeh="0.237066" NOx_perVeh="5.067933" fuel_perVeh="5.413286" electricity_perVeh="0"/>
        <edge id=":123_5" sampledSeconds="0.00" CO_abs="0" CO2_abs="0" HC_abs="0" PMx_abs="0" NOx_abs="0" fuel_abs="0" electricity_abs="0"
            CO_normed="0" CO2_normed="0" HC_normed="0" PMx_normed="0" NOx_normed="0" fuel_normed="0" electricity_normed="0"/>
        <edge id=":123_6" sampledSeconds="59.83" CO_abs="2697.268997" CO2_abs="264633.879886" HC_abs="18.482477" PMx_abs="4.863233" NOx_abs="105.385625" fuel_abs="113.753713" electricity_abs="0"
            CO_normed="31.648457" CO2_normed="3105.086626" HC_normed="0.216864" PMx_normed="0.057063" NOx_normed="1.236544" fuel_normed="1.334731" electricity_normed="0"
            traveltime="2.87" CO_perVeh="129.552302" CO2_perVeh="12710.607775" HC_perVeh="0.887730" PMx_perVeh="0.233586" NOx_perVeh="5.061768" fuel_perVeh="5.463695" electricity_perVeh="0"/>
        <edge id=":124_0" sampledSeconds="37.47" CO_abs="1284.654742" CO2_abs="120037.961791" HC_abs="8.619407" PMx_abs="2.232709" NOx_abs="48.089352" fuel_abs="51.598690" electricity_abs="0"
            CO_normed="92.741426" CO2_normed="8665.746004" HC_normed="0.622250" PMx_normed="0.161183" NOx_normed="3.471653" fuel_normed="3.724998" electricity_normed="0"
            traveltime="0.45" CO_perVeh="15.544222" CO2_perVeh="1452.449967" HC_perVeh="0.104294" PMx_perVeh="0.027016" NOx_perVeh="0.581877" fuel_perVeh="0.624340" electricity_perVeh="0"/>
        <edge id=":125_0" sampledSeconds="43.88" CO_abs="1513.383351" CO2_abs="165032.361260" HC_abs="10.747589" PMx_abs="2.981474" NOx_abs="64.209120" fuel_abs="70.939737" electricity_abs="0"
            CO_normed="293.528369" CO2_normed="32008.862698" HC_normed="2.084549" PMx_normed="0.578272" NOx_normed="12.453684" fuel_normed="13.759121" electricity_normed="0"
            traveltime="0.16" CO_perVeh="5.579293" CO2_perVeh="608.414235" HC_perVeh="0.039622" PMx_perVeh="0.010992" NOx_perVeh="0.236716" fuel_perVeh="0.261529" electricity_perVeh="0"/>
        <edge id=":125_3" sampledSeconds="0.00" CO_abs="0" CO2_abs="0" HC_abs="0" PMx_abs="0" NOx_abs="0" fuel_abs="0" electricity_abs="0"
            CO_normed="0" CO2_normed="0" HC_normed="0" PMx_normed="0" NOx_normed="0" fuel_normed="0" electricity_normed="0"/>
        <edge id=":126_0" sampledSeconds="9.58" CO_abs="66.719521" CO2_abs="4854.834472" HC_abs="0.415828" PMx_abs="0.073727" NOx_abs="1.911534" fuel_abs="2.086897" electricity_abs="0"
            CO_normed="6.775178" CO2_normed="492.994631" HC_normed="0.042226" PMx_normed="0.007487" NOx_normed="0.194111" fuel_normed="0.211918" electricity_normed="0"
            traveltime="0.57" CO_perVeh="3.952847" CO2_perVeh="287.628224" HC_perVeh="0.024636" PMx_perVeh="0.004368" NOx_perVeh="0.113250" fuel_perVeh="0.123640" electricity_perVeh="0"/>
        <edge id=":126_1" sampledSeconds="25.67" CO_abs="411.639320" CO2_abs="64874.057001" HC_abs="3.341453" PMx_abs="1.043518" NOx_abs="23.855100" fuel_abs="27.886430" electricity_abs="0"
            CO_normed="37.192329" CO2_normed="5861.483887" HC_normed="0.301906" PMx_normed="0.094284" NOx_normed="2.155350" fuel_normed="2.519587" electricity_normed="0"
            traveltime="0.34" CO_perVeh="5.509398" CO2_perVeh="868.277172" HC_perVeh="0.044722" PMx_perVeh="0.013966" NOx_perVeh="0.319278" fuel_perVeh="0.373233" electricity_perVeh="0"/>
        <edge id=":127_0" sampledSeconds="72.14" CO_abs="1410.487778" CO2_abs="196075.996435" HC_abs="10.953838" PMx_abs="3.281604" NOx_abs="73.368083" fuel_abs="84.284141" electricity_abs="0"
            CO_normed="100.577666" CO2_normed="13981.593030" HC_normed="0.781085" PMx_normed="0.234001" NOx_normed="5.231659" fuel_normed="6.010050" electricity_normed="0"
            traveltime="0.44" CO_perVeh="8.560774" CO2_perVeh="1190.058056" HC_perVeh="0.066483" PMx_perVeh="0.019917" NOx_perVeh="0.445298" fuel_perVeh="0.511552" electricity_perVeh="0"/>
        <edge id=":128_0" sampledSeconds="72.30" CO_abs="113.548796" CO2_abs="18476.536998" HC_abs="0.941380" PMx_abs="0.262896" NOx_abs="6.773343" fuel_abs="7.942261" electricity_abs="0"
            CO_normed="5.411146" CO2_normed="880.495816" HC_normed="0.044861" PMx_normed="0.012528" NOx_normed="0.322782" fuel_normed="0.378487" electricity_normed="0"
            traveltime="0.75" CO_perVeh="1.184741" CO2_perVeh="192.779701" HC_perVeh="0.009822" PMx_perVeh="0.002743" NOx_perVeh="0.070671" fuel_perVeh="0.082868" electricity_perVeh="0"/>
        <edge id=":128_1" sampledSeconds="42.20" CO_abs="58.437412" CO2_abs="8049.571284" HC_abs="0.451576" PMx_abs="0.105764" NOx_abs="2.974980" fuel_abs="3.460175" electricity_abs="0"
            CO_normed="2.876709" CO2_normed="396.257649" HC_normed="0.022230" PMx_normed="0.005206" NOx_normed="0.146450" fuel_normed="0.170335" electricity_normed="0"
            traveltime="0.86" CO_perVeh="1.191017" CO2_perVeh="164.058854" HC_perVeh="0.009204" PMx_perVeh="0.002156" NOx_perVeh="0.060633" fuel_perVeh="0.070522" electricity_perVeh="0"/>
        <edge id=":129_0" sampledSeconds="33.35" CO_abs="1863.510825" CO2_abs="169640.411447" HC_abs="12.532065" PMx_abs="3.182055" NOx_abs="68.555454" fuel_abs="72.920438" electricity_abs="0"
            CO_normed="133.865691" CO2_normed="12186.154586" HC_normed="0.900244" PMx_normed="0.228584" NOx_normed="4.924695" fuel_normed="5.238255" electricity_normed="0"
            traveltime="0.49" CO_perVeh="27.317777" CO2_perVeh="2486.810846" HC_perVeh="0.183711" PMx_perVeh="0.046647" NOx_perVeh="1.004975" fuel_perVeh="1.068963" electricity_perVeh="0"/>
        <edge id=":13_0" sampledSeconds="16.55" CO_abs="1527.501041" CO2_abs="110450.721254" HC_abs="9.603038" PMx_abs="2.171318" NOx_abs="46.414802" fuel_abs="47.477575" electricity_abs="0"
            CO_normed="33.300851" CO2_normed="2407.921737" HC_normed="0.209355" PMx_normed="0.047337" NOx_normed="1.011883" fuel_normed="1.035052" electricity_normed="0"
            traveltime="2.01" CO_perVeh="185.246287" CO2_perVeh="13394.809843" HC_perVeh="1.164600" PMx_perVeh="0.263325" NOx_perVeh="5.628913" fuel_perVeh="5.757799" electricity_perVeh="0"/>
        <edge id=":13_1" sampledSeconds="177.92" CO_abs="4078.021391" CO2_abs="317522.565894" HC_abs="25.810836" PMx_abs="4.307804" NOx_abs="121.332040" fuel_abs="136.490677" electricity_abs="0"
            CO_normed="125.282932" CO2_normed="9754.769361" HC_normed="0.792948" PMx_normed="0.132342" NOx_normed="3.727502" fuel_normed="4.193198" electricity_normed="0"
            traveltime="1.90" CO_perVeh="43.471352" CO2_perVeh="3384.762852" HC_perVeh="0.275141" PMx_perVeh="0.045921" NOx_perVeh="1.293389" fuel_perVeh="1.454979" electricity_perVeh="0"/>
        <edge id=":132_0" sampledSeconds="13.03" CO_abs="142.420102" CO2_abs="24976.072741" HC_abs="1.205102" PMx_abs="0.354526" NOx_abs="9.137613" fuel_abs="10.736119" electricity_abs="0"
            CO_normed="828.693010" CO2_normed="145327.075911" HC_normed="7.012066" PMx_normed="2.062863" NOx_normed="53.168592" fuel_normed="62.469741" electricity_normed="0"
            traveltime="6.245528e-03" CO_perVeh="0.068291" CO2_perVeh="11.976060" HC_perVeh="0.000578" PMx_perVeh="0.000170" NOx_perVeh="0.004381" fuel_perVeh="0.005148" electricity_perVeh="0"/>
        <edge id=":133_0" sampledSeconds="13.19" CO_abs="273.181286" CO2_abs="35107.553599" HC_abs="2.027482" PMx_abs="0.481878" NOx_abs="13.103061" fuel_abs="15.091250" electricity_abs="0"
            CO_normed="722.521292" CO2_normed="92853.926089" HC_normed="5.362369" PMx_normed="1.274492" NOx_normed="34.655525" fuel_normed="39.913970" electricity_normed="0"