<?xml version="1.0" encoding="UTF-8"?>

<!-- generated on Tue Nov 10 11:50:12 2020 by Eclipse SUMO sumo Version 1.7.0
<configuration xmlns:xsi="http://www.w3.org/2001/XMLSchema-instance" xsi:noNamespaceSchemaLocation="http://sumo.dlr.de/xsd/sumoConfiguration.xsd">

    <input>
        <net-file value="../dataSets/Porto/8AM9AM_Routing_SaoBento/Porto.net.xml"/>
        <route-files value="../results/Porto/8AM9AM_Routing_SaoBento/inputdata/cost_PMx-length/solution6/Porto.rou.xml"/>
        <additional-files value="moreOutputInfo.xml"/>
    </input>

    <output>
        <emission-output.precision value="6"/>
        <tripinfo-output value="../results/Porto/8AM9AM_Routing_SaoBento/inputdata/cost_PMx-length/solution6/Porto-tripinfo"/>
    </output>

    <processing>
        <collision.action value="warn"/>
        <time-to-teleport value="-1"/>
    </processing>

    <emissions>
        <device.emissions.probability value="1"/>
    </emissions>

    <gui_only>
        <quit-on-end value="true"/>
        <start value="true"/>
    </gui_only>

</configuration>
-->

<meandata xmlns:xsi="http://www.w3.org/2001/XMLSchema-instance" xsi:noNamespaceSchemaLocation="http://sumo.dlr.de/xsd/meandata_file.xsd">
    <interval begin="0.00" end="8442.00" id="emissions-detector">
        <edge id=":1092997347_0" sampledSeconds="626.62" CO_abs="76419.240211" CO2_abs="3271180.029329" HC_abs="425.374940" PMx_abs="66.248829" NOx_abs="1415.836464" fuel_abs="1406.147319" electricity_abs="0"
            CO_normed="74064.004856" CO2_normed="3170362.501773" HC_normed="412.264916" PMx_normed="64.207045" NOx_normed="1372.200489" fuel_normed="1362.809962" electricity_normed="0"
            traveltime="0.07" CO_perVeh="8.295692" CO2_perVeh="355.102990" HC_perVeh="0.046177" PMx_perVeh="0.007192" NOx_perVeh="0.153696" fuel_perVeh="0.152644" electricity_perVeh="0"/>
        <edge id=":1103427051_0" sampledSeconds="19.13" CO_abs="1615.362438" CO2_abs="90867.972965" HC_abs="9.514486" PMx_abs="1.791773" NOx_abs="38.835756" fuel_abs="39.060106" electricity_abs="0"
            CO_normed="2375.358339" CO2_normed="133619.547041" HC_normed="13.990862" PMx_normed="2.634767" NOx_normed="57.107207" fuel_normed="57.437110" electricity_normed="0"
            traveltime="0.03" CO_perVeh="2.512093" CO2_perVeh="141.311198" HC_perVeh="0.014796" PMx_perVeh="0.002786" NOx_perVeh="0.060395" fuel_perVeh="0.060743" electricity_perVeh="0"/>
        <edge id=":1105984386_0" sampledSeconds="10.78" CO_abs="165.606654" CO2_abs="14171.849906" HC_abs="1.066977" PMx_abs="0.134796" NOx_abs="5.026553" fuel_abs="6.092006" electricity_abs="0"
            CO_normed="7.273035" CO2_normed="622.392667" HC_normed="0.046859" PMx_normed="0.005920" NOx_normed="0.220754" fuel_normed="0.267546" electricity_normed="0"
            traveltime="1.03" CO_perVeh="15.886590" CO2_perVeh="1359.500717" HC_perVeh="0.102355" PMx_perVeh="0.012931" NOx_perVeh="0.482196" fuel_perVeh="0.584404" electricity_perVeh="0"/>
        <edge id=":1105984390_0" sampledSeconds="10.83" CO_abs="0" CO2_abs="0" HC_abs="0" PMx_abs="0" NOx_abs="0" fuel_abs="0" electricity_abs="0"
            CO_normed="0" CO2_normed="0" HC_normed="0" PMx_normed="0" NOx_normed="0" fuel_normed="0" electricity_normed="0"
            traveltime="1.12" CO_perVeh="0" CO2_perVeh="0" HC_perVeh="0" PMx_perVeh="0" NOx_perVeh="0" fuel_perVeh="0" electricity_perVeh="0"/>
        <edge id=":1105984390_1" sampledSeconds="2399.90" CO_abs="63639.867992" CO2_abs="7439820.117432" HC_abs="468.020759" PMx_abs="135.076155" NOx_abs="2839.846874" fuel_abs="3198.034473" electricity_abs="0"
            CO_normed="2066.910621" CO2_normed="241632.230018" HC_normed="15.200488" PMx_normed="4.387035" NOx_normed="92.233216" fuel_normed="103.866517" electricity_normed="0"
            traveltime="0.65" CO_perVeh="17.192000" CO2_perVeh="2009.831085" HC_perVeh="0.126434" PMx_perVeh="0.036490" NOx_perVeh="0.767171" fuel_perVeh="0.863933" electricity_perVeh="0"/>
        <edge id=":1105984395_0" sampledSeconds="4.12" CO_abs="73.497866" CO2_abs="5724.555912" HC_abs="0.463360" PMx_abs="0.068113" NOx_abs="2.127527" fuel_abs="2.460780" electricity_abs="0"
            CO_normed="34.067797" CO2_normed="2653.451336" HC_normed="0.214777" PMx_normed="0.031572" NOx_normed="0.986153" fuel_normed="1.140623" electricity_normed="0"
            traveltime="0.10" CO_perVeh="1.703654" CO2_perVeh="132.693158" HC_perVeh="0.010741" PMx_perVeh="0.001579" NOx_perVeh="0.049315" fuel_perVeh="0.057040" electricity_perVeh="0"/>
        <edge id=":1105984398_0" sampledSeconds="10.42" CO_abs="729.729561" CO2_abs="47663.199807" HC_abs="4.446546" PMx_abs="0.865368" NOx_abs="19.752756" fuel_abs="20.488320" electricity_abs="0"
            CO_normed="25.739066" CO2_normed="1681.179350" HC_normed="0.156839" PMx_normed="0.030523" NOx_normed="0.696720" fuel_normed="0.722665" electricity_normed="0"
            traveltime="1.15" CO_perVeh="80.833327" CO2_perVeh="5279.729966" HC_perVeh="0.492551" PMx_perVeh="0.095858" NOx_perVeh="2.188045" fuel_perVeh="2.269524" electricity_perVeh="0"/>
        <edge id=":1105984398_1" sampledSeconds="648.26" CO_abs="11868.494592" CO2_abs="1386692.607312" HC_abs="85.793640" PMx_abs="19.874068" NOx_abs="524.355821" fuel_abs="596.080051" electricity_abs="0"
            CO_normed="405.219513" CO2_normed="47345.086553" HC_normed="2.929205" PMx_normed="0.678549" NOx_normed="17.902794" fuel_normed="20.351635" electricity_normed="0"
            traveltime="0.95" CO_perVeh="17.457177" CO2_perVeh="2039.663782" HC_perVeh="0.126192" PMx_perVeh="0.029232" NOx_perVeh="0.771267" fuel_perVeh="0.876765" electricity_perVeh="0"/>
        <edge id=":1106006327_0" sampledSeconds="67.91" CO_abs="8950.662890" CO2_abs="288161.230854" HC_abs="47.532817" PMx_abs="5.991795" NOx_abs="126.023897" fuel_abs="123.870429" electricity_abs="0"
            CO_normed="430.802913" CO2_normed="13869.441772" HC_normed="2.287794" PMx_normed="0.288390" NOx_normed="6.065636" fuel_normed="5.961988" electricity_normed="0"
            traveltime="2.11" CO_perVeh="277.467105" CO2_perVeh="8932.887252" HC_perVeh="1.473499" PMx_perVeh="0.185743" NOx_perVeh="3.906692" fuel_perVeh="3.839936" electricity_perVeh="0"/>
        <edge id=":1106006327_1" sampledSeconds="677.44" CO_abs="91948.147893" CO2_abs="3092799.257088" HC_abs="491.594441" PMx_abs="64.573665" NOx_abs="1353.921801" fuel_abs="1329.482281" electricity_abs="0"
            CO_normed="3859.281261" CO2_normed="129812.100511" HC_normed="20.633382" PMx_normed="2.710309" NOx_normed="56.827301" fuel_normed="55.801516" electricity_normed="0"
            traveltime="2.27" CO_perVeh="308.647677" CO2_perVeh="10381.778504" HC_perVeh="1.650164" PMx_perVeh="0.216758" NOx_perVeh="4.544788" fuel_perVeh="4.462750" electricity_perVeh="0"/>
        <edge id=":1106006327_2" sampledSeconds="0.00" CO_abs="0" CO2_abs="0" HC_abs="0" PMx_abs="0" NOx_abs="0" fuel_abs="0" electricity_abs="0"
            CO_normed="0" CO2_normed="0" HC_normed="0" PMx_normed="0" NOx_normed="0" fuel_normed="0" electricity_normed="0"/>
        <edge id=":1106006327_3" sampledSeconds="0.00" CO_abs="0" CO2_abs="0" HC_abs="0" PMx_abs="0" NOx_abs="0" fuel_abs="0" electricity_abs="0"
            CO_normed="0" CO2_normed="0" HC_normed="0" PMx_normed="0" NOx_normed="0" fuel_normed="0" electricity_normed="0"/>
        <edge id=":1107381198_0" sampledSeconds="0.00" CO_abs="0" CO2_abs="0" HC_abs="0" PMx_abs="0" NOx_abs="0" fuel_abs="0" electricity_abs="0"
            CO_normed="0" CO2_normed="0" HC_normed="0" PMx_normed="0" NOx_normed="0" fuel_normed="0" electricity_normed="0"/>
        <edge id=":1107381198_1" sampledSeconds="104.12" CO_abs="4685.731247" CO2_abs="189901.980130" HC_abs="25.729935" PMx_abs="3.379054" NOx_abs="79.318067" fuel_abs="81.632054" electricity_abs="0"
            CO_normed="217.903995" CO2_normed="8831.150997" HC_normed="1.196538" PMx_normed="0.157139" NOx_normed="3.688586" fuel_normed="3.796195" electricity_normed="0"
            traveltime="1.56" CO_perVeh="70.154381" CO2_perVeh="2843.196770" HC_perVeh="0.385226" PMx_perVeh="0.050591" NOx_perVeh="1.187544" fuel_perVeh="1.222188" electricity_perVeh="0"/>
        <edge id=":1110338277_0" sampledSeconds="160.28" CO_abs="2210.845949" CO2_abs="287213.395483" HC_abs="16.600690" PMx_abs="3.792359" NOx_abs="106.290340" fuel_abs="123.461106" electricity_abs="0"
            CO_normed="3367.112319" CO2_normed="437425.213955" HC_normed="25.282805" PMx_normed="5.775753" NOx_normed="161.879897" fuel_normed="188.030926" electricity_normed="0"
            traveltime="0.02" CO_perVeh="0.299921" CO2_perVeh="38.963081" HC_perVeh="0.002252" PMx_perVeh="0.000514" NOx_perVeh="0.014419" fuel_perVeh="0.016749" electricity_perVeh="0"/>
        <edge id=":1110338293_0" sampledSeconds="6830.28" CO_abs="651570.878471" CO2_abs="11340488.876729" HC_abs="3232.194329" PMx_abs="271.380474" NOx_abs="5130.334076" fuel_abs="4875.087243" electricity_abs="0"
            CO_normed="926184.617585" CO2_normed="16120097.905798" HC_normed="4594.448228" PMx_normed="385.757604" NOx_normed="7292.585752" fuel_normed="6929.761539" electricity_normed="0"
            traveltime="0.46" CO_perVeh="43.540143" CO2_perVeh="757.809352" HC_perVeh="0.215986" PMx_perVeh="0.018135" NOx_perVeh="0.342826" fuel_perVeh="0.325770" electricity_perVeh="0"/>
        <edge id=":1110338295_0" sampledSeconds="0.00" CO_abs="0" CO2_abs="0" HC_abs="0" PMx_abs="0" NOx_abs="0" fuel_abs="0" electricity_abs="0"
            CO_normed="0" CO2_normed="0" HC_normed="0" PMx_normed="0" NOx_normed="0" fuel_normed="0" electricity_normed="0"/>
        <edge id=":1110673403_0" sampledSeconds="200.72" CO_abs="2929.285635" CO2_abs="370565.218725" HC_abs="21.789731" PMx_abs="4.965486" NOx_abs="137.711264" fuel_abs="159.290538" electricity_abs="0"
            CO_normed="4163.874392" CO2_normed="526745.158103" HC_normed="30.973320" PMx_normed="7.058260" NOx_normed="195.751619" fuel_normed="226.425782" electricity_normed="0"
            traveltime="0.02" CO_perVeh="0.338554" CO2_perVeh="42.828357" HC_perVeh="0.002518" PMx_perVeh="0.000574" NOx_perVeh="0.015916" fuel_perVeh="0.018410" electricity_perVeh="0"/>
        <edge id=":1110673412_0" sampledSeconds="939.91" CO_abs="167766.538719" CO2_abs="11434292.331307" HC_abs="1043.785488" PMx_abs="251.471179" NOx_abs="4915.366556" fuel_abs="4915.038940" electricity_abs="0"
            CO_normed="246697.358604" CO2_normed="16813899.465197" HC_normed="1534.865801" PMx_normed="369.783368" NOx_normed="7227.948762" fuel_normed="7227.467010" electricity_normed="0"
            traveltime="0.02" CO_perVeh="2.768804" CO2_perVeh="188.710533" HC_perVeh="0.017227" PMx_perVeh="0.004150" NOx_perVeh="0.081123" fuel_perVeh="0.081117" electricity_perVeh="0"/>
        <edge id=":1110673414_0" sampledSeconds="0.00" CO_abs="0" CO2_abs="0" HC_abs="0" PMx_abs="0" NOx_abs="0" fuel_abs="0" electricity_abs="0"
            CO_normed="0" CO2_normed="0" HC_normed="0" PMx_normed="0" NOx_normed="0" fuel_normed="0" electricity_normed="0"/>
        <edge id=":1110673414_1" sampledSeconds="336.52" CO_abs="22624.425701" CO2_abs="877016.977380" HC_abs="123.401796" PMx_abs="16.244013" NOx_abs="370.555058" fuel_abs="376.998014" electricity_abs="0"
            CO_normed="1068.432196" CO2_normed="41416.882242" HC_normed="5.827615" PMx_normed="0.767119" NOx_normed="17.499359" fuel_normed="17.803626" electricity_normed="0"
            traveltime="1.56" CO_perVeh="105.147024" CO2_perVeh="4075.936605" HC_perVeh="0.573510" PMx_perVeh="0.075494" NOx_perVeh="1.722155" fuel_perVeh="1.752098" electricity_perVeh="0"/>
        <edge id=":1110673417_0" sampledSeconds="28.97" CO_abs="477.609581" CO2_abs="52431.657969" HC_abs="3.374859" PMx_abs="0.735112" NOx_abs="19.818032" fuel_abs="22.538176" electricity_abs="0"
            CO_normed="727.398083" CO2_normed="79853.271351" HC_normed="5.139902" PMx_normed="1.119573" NOx_normed="30.182808" fuel_normed="34.325580" electricity_normed="0"
            traveltime="0.02" CO_perVeh="0.364200" CO2_perVeh="39.981656" HC_perVeh="0.002573" PMx_perVeh="0.000561" NOx_perVeh="0.015112" fuel_perVeh="0.017186" electricity_perVeh="0"/>
        <edge id=":1110673446_0" sampledSeconds="1313.85" CO_abs="14483.837611" CO2_abs="1158361.446484" HC_abs="93.340250" PMx_abs="21.398158" NOx_abs="475.040329" fuel_abs="497.926202" electricity_abs="0"
            CO_normed="20588.255311" CO2_normed="1646569.220304" HC_normed="132.679816" PMx_normed="30.416713" NOx_normed="675.252778" fuel_normed="707.784224" electricity_normed="0"
            traveltime="0.02" CO_perVeh="0.251296" CO2_perVeh="20.097706" HC_perVeh="0.001619" PMx_perVeh="0.000371" NOx_perVeh="0.008242" fuel_perVeh="0.008639" electricity_perVeh="0"/>
        <edge id=":1110673451_0" sampledSeconds="36.85" CO_abs="255.670615" CO2_abs="17285.913607" HC_abs="1.552202" PMx_abs="0.210350" NOx_abs="6.484379" fuel_abs="7.430608" electricity_abs="0"
            CO_normed="403.807337" CO2_normed="27301.450853" HC_normed="2.451555" PMx_normed="0.332228" NOx_normed="10.241457" fuel_normed="11.735936" electricity_normed="0"
            traveltime="0.03" CO_perVeh="0.188373" CO2_perVeh="12.735897" HC_perVeh="0.001144" PMx_perVeh="0.000155" NOx_perVeh="0.004778" fuel_perVeh="0.005475" electricity_perVeh="0"/>
        <edge id=":1110673464_0" sampledSeconds="1029.67" CO_abs="3598.226229" CO2_abs="274386.109988" HC_abs="22.631732" PMx_abs="3.723846" NOx_abs="104.816724" fuel_abs="117.948046" electricity_abs="0"
            CO_normed="108.670314" CO2_normed="8286.756525" HC_normed="0.683503" PMx_normed="0.112464" NOx_normed="3.165578" fuel_normed="3.562158" electricity_normed="0"
            traveltime="1.22" CO_perVeh="4.266993" CO2_perVeh="325.383525" HC_perVeh="0.026838" PMx_perVeh="0.004416" NOx_perVeh="0.124298" fuel_perVeh="0.139870" electricity_perVeh="0"/>
        <edge id=":1110673464_1" sampledSeconds="2605.27" CO_abs="64190.776985" CO2_abs="7845983.333778" HC_abs="479.338233" PMx_abs="140.110335" NOx_abs="2974.875909" fuel_abs="3372.626713" electricity_abs="0"
            CO_normed="1899.615938" CO2_normed="232188.418484" HC_normed="14.185193" PMx_normed="4.146325" NOx_normed="88.036350" fuel_normed="99.807102" electricity_normed="0"
            traveltime="0.72" CO_perVeh="17.695813" CO2_perVeh="2162.943988" HC_perVeh="0.132142" PMx_perVeh="0.038625" NOx_perVeh="0.820100" fuel_perVeh="0.929750" electricity_perVeh="0"/>
        <edge id=":1110673479_0" sampledSeconds="133.17" CO_abs="7122.729252" CO2_abs="484781.719393" HC_abs="43.849086" PMx_abs="8.645621" NOx_abs="199.412679" fuel_abs="208.386445" electricity_abs="0"
            CO_normed="10124.703983" CO2_normed="689099.814347" HC_normed="62.329902" PMx_normed="12.289440" NOx_normed="283.457966" fuel_normed="296.213852" electricity_normed="0"
            traveltime="0.03" CO_perVeh="1.505809" CO2_perVeh="102.487239" HC_perVeh="0.009270" PMx_perVeh="0.001828" NOx_perVeh="0.042158" fuel_perVeh="0.044055" electricity_perVeh="0"/>
        <edge id=":1110673511_0" sampledSeconds="63.49" CO_abs="1104.561172" CO2_abs="118550.424985" HC_abs="7.736937" PMx_abs="1.672511" NOx_abs="44.915265" fuel_abs="50.959866" electricity_abs="0"
            CO_normed="1570.094061" CO2_normed="168515.174107" HC_normed="10.997778" PMx_normed="2.377414" NOx_normed="63.845438" fuel_normed="72.437621" electricity_normed="0"
            traveltime="0.02" CO_perVeh="0.423345" CO2_perVeh="45.436799" HC_perVeh="0.002965" PMx_perVeh="0.000641" NOx_perVeh="0.017215" fuel_perVeh="0.019531" electricity_perVeh="0"/>
        <edge id=":1110673517_0" sampledSeconds="182.81" CO_abs="7814.390001" CO2_abs="566341.075793" HC_abs="48.837516" PMx_abs="9.549812" NOx_abs="228.806217" fuel_abs="243.445713" electricity_abs="0"
            CO_normed="11107.874913" CO2_normed="805033.512144" HC_normed="69.420776" PMx_normed="13.574715" NOx_normed="325.239825" fuel_normed="346.049343" electricity_normed="0"
            traveltime="0.03" CO_perVeh="1.196446" CO2_perVeh="86.711403" HC_perVeh="0.007477" PMx_perVeh="0.001462" NOx_perVeh="0.035032" fuel_perVeh="0.037274" electricity_perVeh="0"/>
        <edge id=":1110673534_0" sampledSeconds="660.92" CO_abs="4242.137905" CO2_abs="356542.120376" HC_abs="27.436803" PMx_abs="4.763627" NOx_abs="135.190196" fuel_abs="153.263557" electricity_abs="0"
            CO_normed="116.861372" CO2_normed="9821.934634" HC_normed="0.755822" PMx_normed="0.131227" NOx_normed="3.724186" fuel_normed="4.222067" electricity_normed="0"
            traveltime="1.45" CO_perVeh="9.327830" CO2_perVeh="783.983049" HC_perVeh="0.060329" PMx_perVeh="0.010475" NOx_perVeh="0.297263" fuel_perVeh="0.337004" electricity_perVeh="0"/>
        <edge id=":1110673534_1" sampledSeconds="264.16" CO_abs="4303.414571" CO2_abs="529520.723156" HC_abs="31.698929" PMx_abs="7.353502" NOx_abs="198.397553" fuel_abs="227.618590" electricity_abs="0"
            CO_normed="115.272915" CO2_normed="14183.945397" HC_normed="0.849100" PMx_normed="0.196974" NOx_normed="5.314353" fuel_normed="6.097079" electricity_normed="0"
            traveltime="1.23" CO_perVeh="19.966764" CO2_perVeh="2456.843313" HC_perVeh="0.147075" PMx_perVeh="0.034118" NOx_perVeh="0.920515" fuel_perVeh="1.056093" electricity_perVeh="0"/>
        <edge id=":1110673549_0" sampledSeconds="648.54" CO_abs="1416.134167" CO2_abs="128816.692258" HC_abs="9.343452" PMx_abs="1.793009" NOx_abs="48.845300" fuel_abs="55.373100" electricity_abs="0"
            CO_normed="37.790686" CO2_normed="3437.577683" HC_normed="0.249338" PMx_normed="0.047848" NOx_normed="1.303476" fuel_normed="1.477676" electricity_normed="0"
            traveltime="1.29" CO_perVeh="2.813521" CO2_perVeh="255.928052" HC_perVeh="0.018563" PMx_perVeh="0.003562" NOx_perVeh="0.097044" fuel_perVeh="0.110013" electricity_perVeh="0"/>
        <edge id=":1110673549_1" sampledSeconds="3199.37" CO_abs="69433.490613" CO2_abs="9098089.334482" HC_abs="533.167799" PMx_abs="160.017343" NOx_abs="3402.788701" fuel_abs="3910.852078" electricity_abs="0"
            CO_normed="1792.322303" CO2_normed="234853.646016" HC_normed="13.762934" PMx_normed="4.130610" NOx_normed="87.837930" fuel_normed="100.952830" electricity_normed="0"
            traveltime="0.81" CO_perVeh="17.514979" CO2_perVeh="2295.043007" HC_perVeh="0.134495" PMx_perVeh="0.040365" NOx_perVeh="0.858372" fuel_perVeh="0.986534" electricity_perVeh="0"/>
        <edge id=":1110673556_0" sampledSeconds="466.27" CO_abs="57283.195297" CO2_abs="2751925.738480" HC_abs="326.197720" PMx_abs="55.630715" NOx_abs="1187.104878" fuel_abs="1182.935515" electricity_abs="0"
            CO_normed="1133.540688" CO2_normed="54456.106708" HC_normed="6.454919" PMx_normed="1.100841" NOx_normed="23.490863" fuel_normed="23.408358" electricity_normed="0"
            traveltime="2.75" CO_perVeh="337.678928" CO2_perVeh="16222.337627" HC_perVeh="1.922904" PMx_perVeh="0.327938" NOx_perVeh="6.997869" fuel_perVeh="6.973291" electricity_perVeh="0"/>
        <edge id=":1110673556_2" sampledSeconds="178.08" CO_abs="18417.899718" CO2_abs="782291.742563" HC_abs="102.266974" PMx_abs="15.298657" NOx_abs="335.037484" fuel_abs="336.276377" electricity_abs="0"
            CO_normed="381.082728" CO2_normed="16186.311995" HC_normed="2.115995" PMx_normed="0.316543" NOx_normed="6.932224" fuel_normed="6.957857" electricity_normed="0"
            traveltime="3.08" CO_perVeh="318.471804" CO2_perVeh="13526.942089" HC_perVeh="1.768342" PMx_perVeh="0.264536" NOx_perVeh="5.793277" fuel_perVeh="5.814699" electricity_perVeh="0"/>
        <edge id=":1110673556_3" sampledSeconds="193.07" CO_abs="20985.972696" CO2_abs="711885.272993" HC_abs="112.212124" PMx_abs="14.180685" NOx_abs="307.426757" fuel_abs="306.014541" electricity_abs="0"
            CO_normed="987.775065" CO2_normed="33507.263728" HC_normed="5.281639" PMx_normed="0.667461" NOx_normed="14.470070" fuel_normed="14.403599" electricity_normed="0"
            traveltime="1.89" CO_perVeh="205.489114" CO2_perVeh="6970.592987" HC_perVeh="1.098752" PMx_perVeh="0.138854" NOx_perVeh="3.010242" fuel_perVeh="2.996414" electricity_perVeh="0"/>
        <edge id=":1110673556_4" sampledSeconds="25.56" CO_abs="2587.398178" CO2_abs="102026.773902" HC_abs="14.185554" PMx_abs="2.049924" NOx_abs="44.109503" fuel_abs="43.857356" electricity_abs="0"
            CO_normed="74.401085" CO2_normed="2933.797650" HC_normed="0.407908" PMx_normed="0.058946" NOx_normed="1.268376" fuel_normed="1.261126" electricity_normed="0"
            traveltime="2.42" CO_perVeh="244.963706" CO2_perVeh="9659.455164" HC_perVeh="1.343027" PMx_perVeh="0.194078" NOx_perVeh="4.176098" fuel_perVeh="4.152225" electricity_perVeh="0"/>
        <edge id=":1110673556_5" sampledSeconds="22.19" CO_abs="1185.863784" CO2_abs="54774.586082" HC_abs="6.677834" PMx_abs="1.000738" NOx_abs="23.002619" fuel_abs="23.545454" electricity_abs="0"
            CO_normed="47.528087" CO2_normed="2195.303801" HC_normed="0.267640" PMx_normed="0.040108" NOx_normed="0.921919" fuel_normed="0.943675" electricity_normed="0"
            traveltime="1.53" CO_perVeh="81.985644" CO2_perVeh="3786.884964" HC_perVeh="0.461677" PMx_perVeh="0.069187" NOx_perVeh="1.590305" fuel_perVeh="1.627834" electricity_perVeh="0"/>
        <edge id=":1110673556_6" sampledSeconds="214.49" CO_abs="26294.380314" CO2_abs="1326353.804071" HC_abs="151.281434" PMx_abs="26.784019" NOx_abs="571.033222" fuel_abs="570.141952" electricity_abs="0"
            CO_normed="533.442215" CO2_normed="26908.149292" HC_normed="3.069093" PMx_normed="0.543376" NOx_normed="11.584727" fuel_normed="11.566646" electricity_normed="0"
            traveltime="2.50" CO_perVeh="306.396072" CO2_perVeh="15455.378326" HC_perVeh="1.762812" PMx_perVeh="0.312102" NOx_perVeh="6.653982" fuel_perVeh="6.643597" electricity_perVeh="0"/>
        <edge id=":1110673561_0" sampledSeconds="102.39" CO_abs="9495.581093" CO2_abs="673397.452910" HC_abs="59.462912" PMx_abs="13.673221" NOx_abs="285.480389" fuel_abs="289.461448" electricity_abs="0"
            CO_normed="242.037556" CO2_normed="17164.560247" HC_normed="1.515680" PMx_normed="0.348523" NOx_normed="7.276751" fuel_normed="7.378226" electricity_normed="0"
            traveltime="1.21" CO_perVeh="112.057073" CO2_perVeh="7946.743544" HC_perVeh="0.701720" PMx_perVeh="0.161357" NOx_perVeh="3.368946" fuel_perVeh="3.415926" electricity_perVeh="0"/>
        <edge id=":1110673561_1" sampledSeconds="5188.87" CO_abs="482059.150668" CO2_abs="33430692.699522" HC_abs="3003.468990" PMx_abs="698.149378" NOx_abs="14288.354477" fuel_abs="14370.240751" electricity_abs="0"
            CO_normed="11979.541619" CO2_normed="830778.492640" HC_normed="74.638520" PMx_normed="17.349550" NOx_normed="355.076627" fuel_normed="357.111564" electricity_normed="0"
            traveltime="1.19" CO_perVeh="110.807117" CO2_perVeh="7684.448421" HC_perVeh="0.690384" PMx_perVeh="0.160478" NOx_perVeh="3.284351" fuel_perVeh="3.303173" electricity_perVeh="0"/>
        <edge id=":1110673562_0" sampledSeconds="301.96" CO_abs="6796.576416" CO2_abs="519315.284049" HC_abs="42.792738" PMx_abs="7.077467" NOx_abs="198.746946" fuel_abs="223.233616" electricity_abs="0"
            CO_normed="10734.543815" CO2_normed="820208.930030" HC_normed="67.587046" PMx_normed="11.178183" NOx_normed="313.901834" fuel_normed="352.576192" electricity_normed="0"
            traveltime="0.03" CO_perVeh="0.609255" CO2_perVeh="46.552167" HC_perVeh="0.003836" PMx_perVeh="0.000634" NOx_perVeh="0.017816" fuel_perVeh="0.020011" electricity_perVeh="0"/>
        <edge id=":1110673564_0" sampledSeconds="27.76" CO_abs="415.094680" CO2_abs="52520.104940" HC_abs="3.101407" PMx_abs="0.701468" NOx_abs="19.489556" fuel_abs="22.576211" electricity_abs="0"
            CO_normed="1770.126566" CO2_normed="223966.332365" HC_normed="13.225617" PMx_normed="2.991336" NOx_normed="83.111112" fuel_normed="96.273820" electricity_normed="0"
            traveltime="7.841350e-03" CO_perVeh="0.117242" CO2_perVeh="14.834093" HC_perVeh="0.000876" PMx_perVeh="0.000198" NOx_perVeh="0.005505" fuel_perVeh="0.006377" electricity_perVeh="0"/>
        <edge id=":1110673588_0" sampledSeconds="62.64" CO_abs="1287.420238" CO2_abs="134902.723480" HC_abs="8.972411" PMx_abs="1.944276" NOx_abs="51.412383" fuel_abs="57.988999" electricity_abs="0"
            CO_normed="2196.025992" CO2_normed="230111.255403" HC_normed="15.304751" PMx_normed="3.316462" NOx_normed="87.697028" fuel_normed="98.915137" electricity_normed="0"
            traveltime="0.02" CO_perVeh="0.415297" CO2_perVeh="43.517008" HC_perVeh="0.002894" PMx_perVeh="0.000627" NOx_perVeh="0.016585" fuel_perVeh="0.018706" electricity_perVeh="0"/>
        <edge id=":1110673601_0" sampledSeconds="29.12" CO_abs="353.901691" CO2_abs="42748.296474" HC_abs="2.600219" PMx_abs="0.591065" NOx_abs="16.030861" fuel_abs="18.375695" electricity_abs="0"
            CO_normed="538.991305" CO2_normed="65105.538339" HC_normed="3.960127" PMx_normed="0.900190" NOx_normed="24.414957" fuel_normed="27.986134" electricity_normed="0"
            traveltime="0.02" CO_perVeh="0.269867" CO2_perVeh="32.597628" HC_perVeh="0.001983" PMx_perVeh="0.000451" NOx_perVeh="0.012224" fuel_perVeh="0.014012" electricity_perVeh="0"/>
        <edge id=":1110673617_0" sampledSeconds="854.25" CO_abs="32829.508915" CO2_abs="3304078.127876" HC_abs="228.678265" PMx_abs="62.459361" NOx_abs="1297.373360" fuel_abs="1420.268354" electricity_abs="0"
            CO_normed="46665.968607" CO2_normed="4696628.468907" HC_normed="325.057946" PMx_normed="88.783739" NOx_normed="1844.169666" fuel_normed="2018.860489" electricity_normed="0"
            traveltime="0.02" CO_perVeh="0.581199" CO2_perVeh="58.493955" HC_perVeh="0.004048" PMx_perVeh="0.001106" NOx_perVeh="0.022968" fuel_perVeh="0.025144" electricity_perVeh="0"/>
        <edge id=":1110673621_0" sampledSeconds="26.18" CO_abs="565.801149" CO2_abs="61037.113350" HC_abs="3.986479" PMx_abs="0.889713" NOx_abs="23.283324" fuel_abs="26.237259" electricity_abs="0"
            CO_normed="965.119231" CO2_normed="104114.479061" HC_normed="6.799965" PMx_normed="1.517634" NOx_normed="39.715691" fuel_normed="44.754387" electricity_normed="0"
            traveltime="0.02" CO_perVeh="0.428637" CO2_perVeh="46.240237" HC_perVeh="0.003020" PMx_perVeh="0.000674" NOx_perVeh="0.017639" fuel_perVeh="0.019877" electricity_perVeh="0"/>
        <edge id=":1110673630_0" sampledSeconds="285.69" CO_abs="1000.709483" CO2_abs="100856.514823" HC_abs="6.827005" PMx_abs="1.136937" NOx_abs="36.665644" fuel_abs="43.354458" electricity_abs="0"
            CO_normed="30.438073" CO2_normed="3067.701481" HC_normed="0.207654" PMx_normed="0.034582" NOx_normed="1.115240" fuel_normed="1.318691" electricity_normed="0"
            traveltime="1.29" CO_perVeh="4.502810" CO2_perVeh="453.815797" HC_perVeh="0.030719" PMx_perVeh="0.005116" NOx_perVeh="0.164981" fuel_perVeh="0.195079" electricity_perVeh="0"/>
        <edge id=":1110673630_1" sampledSeconds="337.91" CO_abs="1364.307151" CO2_abs="116913.481088" HC_abs="8.871797" PMx_abs="1.514890" NOx_abs="44.042948" fuel_abs="50.256596" electricity_abs="0"
            CO_normed="50.590791" CO2_normed="4335.347403" HC_normed="0.328981" PMx_normed="0.056175" NOx_normed="1.633186" fuel_normed="1.863599" electricity_normed="0"
            traveltime="1.08" CO_perVeh="4.349143" CO2_perVeh="372.697168" HC_perVeh="0.028282" PMx_perVeh="0.004829" NOx_perVeh="0.140400" fuel_perVeh="0.160208" electricity_perVeh="0"/>
        <edge id=":1110673650_0" sampledSeconds="199.83" CO_abs="3082.949385" CO2_abs="385402.723573" HC_abs="22.861361" PMx_abs="5.289491" NOx_abs="143.959993" fuel_abs="165.668412" electricity_abs="0"
            CO_normed="4382.301898" CO2_normed="547836.138697" HC_normed="32.496604" PMx_normed="7.518822" NOx_normed="204.633963" fuel_normed="235.491701" electricity_normed="0"
            traveltime="0.02" CO_perVeh="0.356361" CO2_perVeh="44.549092" HC_perVeh="0.002643" PMx_perVeh="0.000611" NOx_perVeh="0.016640" fuel_perVeh="0.019150" electricity_perVeh="0"/>
        <edge id=":1110673655_0" sampledSeconds="20.76" CO_abs="401.229745" CO2_abs="45652.487428" HC_abs="2.884582" PMx_abs="0.652861" NOx_abs="17.283673" fuel_abs="19.624069" electricity_abs="0"
            CO_normed="570.333681" CO2_normed="64893.372321" HC_normed="4.100330" PMx_normed="0.928019" NOx_normed="24.568121" fuel_normed="27.894910" electricity_normed="0"
            traveltime="0.02" CO_perVeh="0.458374" CO2_perVeh="52.154403" HC_perVeh="0.003295" PMx_perVeh="0.000746" NOx_perVeh="0.019745" fuel_perVeh="0.022419" electricity_perVeh="0"/>
        <edge id=":1110673663_0" sampledSeconds="111.65" CO_abs="1492.385298" CO2_abs="197858.167320" HC_abs="11.258324" PMx_abs="2.498022" NOx_abs="72.535318" fuel_abs="85.051146" electricity_abs="0"
            CO_normed="38.852970" CO2_normed="5151.067460" HC_normed="0.293101" PMx_normed="0.065034" NOx_normed="1.888395" fuel_normed="2.214234" electricity_normed="0"
            traveltime="1.31" CO_perVeh="17.528769" CO2_perVeh="2323.937516" HC_perVeh="0.132234" PMx_perVeh="0.029340" NOx_perVeh="0.851962" fuel_perVeh="0.998966" electricity_perVeh="0"/>
        <edge id=":1110673663_1" sampledSeconds="169.69" CO_abs="2531.332532" CO2_abs="323326.660376" HC_abs="18.871196" PMx_abs="4.294940" NOx_abs="119.901366" fuel_abs="138.984684" electricity_abs="0"
            CO_normed="65.981632" CO2_normed="8427.822302" HC_normed="0.491896" PMx_normed="0.111952" NOx_normed="3.125345" fuel_normed="3.622770" electricity_normed="0"
            traveltime="1.27" CO_perVeh="18.925224" CO2_perVeh="2417.315603" HC_perVeh="0.141088" PMx_perVeh="0.032111" NOx_perVeh="0.896429" fuel_perVeh="1.039103" electricity_perVeh="0"/>
        <edge id=":1110673666_0" sampledSeconds="275.30" CO_abs="5789.249618" CO2_abs="463141.661112" HC_abs="36.949467" PMx_abs="6.370484" NOx_abs="177.285066" fuel_abs="199.086455" electricity_abs="0"