<?xml version="1.0" encoding="UTF-8"?>

<!-- generated on Tue Nov 10 05:57:00 2020 by Eclipse SUMO sumo Version 1.7.0
<configuration xmlns:xsi="http://www.w3.org/2001/XMLSchema-instance" xsi:noNamespaceSchemaLocation="http://sumo.dlr.de/xsd/sumoConfiguration.xsd">

    <input>
        <net-file value="../dataSets/Porto/8AM9AM_Routing_SaoBento/Porto.net.xml"/>
        <route-files value="../results/Porto/8AM9AM_Routing_SaoBento/cost_nox-ttime/solution1/Porto.rou.xml"/>
        <additional-files value="moreOutputInfo.xml"/>
    </input>

    <output>
        <emission-output.precision value="6"/>
        <tripinfo-output value="../results/Porto/8AM9AM_Routing_SaoBento/cost_nox-ttime/solution1/Porto-tripinfo"/>
    </output>

    <processing>
        <collision.action value="warn"/>
        <time-to-teleport value="-1"/>
    </processing>

    <emissions>
        <device.emissions.probability value="1"/>
    </emissions>

    <gui_only>
        <quit-on-end value="true"/>
        <start value="true"/>
    </gui_only>

</configuration>
-->

<meandata xmlns:xsi="http://www.w3.org/2001/XMLSchema-instance" xsi:noNamespaceSchemaLocation="http://sumo.dlr.de/xsd/meandata_file.xsd">
    <interval begin="0.00" end="8471.00" id="emissions-detector">
        <edge id=":1092997347_0" sampledSeconds="597.15" CO_abs="72506.388461" CO2_abs="3077529.669182" HC_abs="402.895653" PMx_abs="62.029866" NOx_abs="1330.372478" fuel_abs="1322.905849" electricity_abs="0"
            CO_normed="70031.175470" CO2_normed="2972469.389966" HC_normed="389.141658" PMx_normed="59.912299" NOx_normed="1284.956408" fuel_normed="1277.744674" electricity_normed="0"
            traveltime="0.07" CO_perVeh="8.334769" CO2_perVeh="353.768830" HC_perVeh="0.046314" PMx_perVeh="0.007130" NOx_perVeh="0.152929" fuel_perVeh="0.152071" electricity_perVeh="0"/>
        <edge id=":1103427051_0" sampledSeconds="19.38" CO_abs="1676.730704" CO2_abs="94858.256649" HC_abs="9.884136" PMx_abs="1.843821" NOx_abs="40.352470" fuel_abs="40.775386" electricity_abs="0"
            CO_normed="2457.158311" CO2_normed="139009.653192" HC_normed="14.484667" PMx_normed="2.702020" NOx_normed="59.134366" fuel_normed="59.754127" electricity_normed="0"
            traveltime="0.03" CO_perVeh="2.607528" CO2_perVeh="147.516594" HC_perVeh="0.015371" PMx_perVeh="0.002867" NOx_perVeh="0.062753" fuel_perVeh="0.063411" electricity_perVeh="0"/>
        <edge id=":1105984386_0" sampledSeconds="10.44" CO_abs="242.903710" CO2_abs="18009.071976" HC_abs="1.516108" PMx_abs="0.243856" NOx_abs="6.893892" fuel_abs="7.741413" electricity_abs="0"
            CO_normed="10.631211" CO2_normed="788.206338" HC_normed="0.066356" PMx_normed="0.010673" NOx_normed="0.301726" fuel_normed="0.338820" electricity_normed="0"
            traveltime="1.00" CO_perVeh="23.301670" CO2_perVeh="1727.604119" HC_perVeh="0.145440" PMx_perVeh="0.023393" NOx_perVeh="0.661329" fuel_perVeh="0.742631" electricity_perVeh="0"/>
        <edge id=":1105984390_0" sampledSeconds="11.02" CO_abs="42.668307" CO2_abs="2990.044811" HC_abs="0.262622" PMx_abs="0.042428" NOx_abs="1.160507" fuel_abs="1.285305" electricity_abs="0"
            CO_normed="1.443722" CO2_normed="101.170961" HC_normed="0.008886" PMx_normed="0.001436" NOx_normed="0.039267" fuel_normed="0.043489" electricity_normed="0"
            traveltime="1.14" CO_perVeh="4.422827" CO2_perVeh="309.936146" HC_perVeh="0.027222" PMx_perVeh="0.004398" NOx_perVeh="0.120294" fuel_perVeh="0.133230" electricity_perVeh="0"/>
        <edge id=":1105984390_1" sampledSeconds="2398.04" CO_abs="60824.788592" CO2_abs="7252431.601447" HC_abs="450.339896" PMx_abs="130.851930" NOx_abs="2758.387423" fuel_abs="3117.485459" electricity_abs="0"
            CO_normed="1968.718857" CO2_normed="234739.802336" HC_normed="14.576173" PMx_normed="4.235291" NOx_normed="89.280858" fuel_normed="100.903802" electricity_normed="0"
            traveltime="0.65" CO_perVeh="16.421206" CO2_perVeh="1957.979224" HC_perVeh="0.121581" PMx_perVeh="0.035327" NOx_perVeh="0.744697" fuel_perVeh="0.841645" electricity_perVeh="0"/>
        <edge id=":1105984395_0" sampledSeconds="4.15" CO_abs="111.167522" CO2_abs="7528.844760" HC_abs="0.677724" PMx_abs="0.104661" NOx_abs="2.908184" fuel_abs="3.236366" electricity_abs="0"
            CO_normed="51.352066" CO2_normed="3477.829877" HC_normed="0.313064" PMx_normed="0.048347" NOx_normed="1.343389" fuel_normed="1.494988" electricity_normed="0"
            traveltime="0.10" CO_perVeh="2.576823" CO2_perVeh="174.515928" HC_perVeh="0.015709" PMx_perVeh="0.002426" NOx_perVeh="0.067411" fuel_perVeh="0.075018" electricity_perVeh="0"/>
        <edge id=":1105984398_0" sampledSeconds="10.62" CO_abs="469.007621" CO2_abs="31723.080344" HC_abs="2.877714" PMx_abs="0.541869" NOx_abs="12.910512" fuel_abs="13.636401" electricity_abs="0"
            CO_normed="16.486232" CO2_normed="1115.107840" HC_normed="0.101155" PMx_normed="0.019047" NOx_normed="0.453821" fuel_normed="0.479337" electricity_normed="0"
            traveltime="1.21" CO_perVeh="53.487066" CO2_perVeh="3617.797255" HC_perVeh="0.328183" PMx_perVeh="0.061796" NOx_perVeh="1.472354" fuel_perVeh="1.555137" electricity_perVeh="0"/>
        <edge id=":1105984398_1" sampledSeconds="645.78" CO_abs="11357.833477" CO2_abs="1344059.726090" HC_abs="82.513067" PMx_abs="19.220160" NOx_abs="507.660397" fuel_abs="577.753968" electricity_abs="0"
            CO_normed="386.456733" CO2_normed="45732.395279" HC_normed="2.807554" PMx_normed="0.653977" NOx_normed="17.273433" fuel_normed="19.658407" electricity_normed="0"
            traveltime="0.95" CO_perVeh="16.751345" CO2_perVeh="1982.315381" HC_perVeh="0.121696" PMx_perVeh="0.028347" NOx_perVeh="0.748734" fuel_perVeh="0.852113" electricity_perVeh="0"/>
        <edge id=":1106006327_0" sampledSeconds="706.42" CO_abs="95342.527504" CO2_abs="3086242.240291" HC_abs="506.775135" PMx_abs="64.395364" NOx_abs="1350.998411" fuel_abs="1326.666769" electricity_abs="0"
            CO_normed="4573.205929" CO2_normed="148034.897778" HC_normed="24.308009" PMx_normed="3.088792" NOx_normed="64.802078" fuel_normed="63.634985" electricity_normed="0"
            traveltime="2.10" CO_perVeh="283.412659" CO2_perVeh="9174.081520" HC_perVeh="1.506426" PMx_perVeh="0.191420" NOx_perVeh="4.015942" fuel_perVeh="3.943614" electricity_perVeh="0"/>
        <edge id=":1106006327_1" sampledSeconds="686.54" CO_abs="92984.855471" CO2_abs="3097130.582886" HC_abs="496.385113" PMx_abs="64.640065" NOx_abs="1355.640600" fuel_abs="1331.344976" electricity_abs="0"
            CO_normed="3889.433329" CO2_normed="129548.869585" HC_normed="20.763132" PMx_normed="2.703808" NOx_normed="56.704651" fuel_normed="55.688397" electricity_normed="0"
            traveltime="2.30" CO_perVeh="312.127653" CO2_perVeh="10396.317717" HC_perVeh="1.666245" PMx_perVeh="0.216981" NOx_perVeh="4.550557" fuel_perVeh="4.469003" electricity_perVeh="0"/>
        <edge id=":1106006327_2" sampledSeconds="0.00" CO_abs="0" CO2_abs="0" HC_abs="0" PMx_abs="0" NOx_abs="0" fuel_abs="0" electricity_abs="0"
            CO_normed="0" CO2_normed="0" HC_normed="0" PMx_normed="0" NOx_normed="0" fuel_normed="0" electricity_normed="0"/>
        <edge id=":1106006327_3" sampledSeconds="0.00" CO_abs="0" CO2_abs="0" HC_abs="0" PMx_abs="0" NOx_abs="0" fuel_abs="0" electricity_abs="0"
            CO_normed="0" CO2_normed="0" HC_normed="0" PMx_normed="0" NOx_normed="0" fuel_normed="0" electricity_normed="0"/>
        <edge id=":1107381198_0" sampledSeconds="0.00" CO_abs="0" CO2_abs="0" HC_abs="0" PMx_abs="0" NOx_abs="0" fuel_abs="0" electricity_abs="0"
            CO_normed="0" CO2_normed="0" HC_normed="0" PMx_normed="0" NOx_normed="0" fuel_normed="0" electricity_normed="0"/>
        <edge id=":1107381198_1" sampledSeconds="104.40" CO_abs="5114.107386" CO2_abs="203333.736823" HC_abs="27.982077" PMx_abs="3.587343" NOx_abs="84.751389" fuel_abs="87.406012" electricity_abs="0"
            CO_normed="237.010904" CO2_normed="9423.406492" HC_normed="1.296816" PMx_normed="0.166254" NOx_normed="3.927763" fuel_normed="4.050791" electricity_normed="0"
            traveltime="1.56" CO_perVeh="76.567994" CO2_perVeh="3044.295923" HC_perVeh="0.418945" PMx_perVeh="0.053709" NOx_perVeh="1.268891" fuel_perVeh="1.308636" electricity_perVeh="0"/>
        <edge id=":1110338277_0" sampledSeconds="160.79" CO_abs="2819.026212" CO2_abs="328711.975556" HC_abs="20.336682" PMx_abs="4.546780" NOx_abs="123.524286" fuel_abs="141.299496" electricity_abs="0"
            CO_normed="4278.671081" CO2_normed="498913.567297" HC_normed="30.866678" PMx_normed="6.901027" NOx_normed="187.483106" fuel_normed="214.462024" electricity_normed="0"
            traveltime="0.02" CO_perVeh="0.381812" CO2_perVeh="44.521066" HC_perVeh="0.002754" PMx_perVeh="0.000616" NOx_perVeh="0.016730" fuel_perVeh="0.019138" electricity_perVeh="0"/>
        <edge id=":1110338293_0" sampledSeconds="6950.02" CO_abs="671258.357880" CO2_abs="11691708.701005" HC_abs="3330.107462" PMx_abs="279.977190" NOx_abs="5290.549101" fuel_abs="5026.070071" electricity_abs="0"
            CO_normed="950903.115872" CO2_normed="16562448.874048" HC_normed="4717.422919" PMx_normed="396.615072" NOx_normed="7494.580239" fuel_normed="7119.919826" electricity_normed="0"
            traveltime="0.46" CO_perVeh="44.874667" CO2_perVeh="781.608943" HC_perVeh="0.222623" PMx_perVeh="0.018717" NOx_perVeh="0.353681" fuel_perVeh="0.336001" electricity_perVeh="0"/>
        <edge id=":1110338295_0" sampledSeconds="0.00" CO_abs="0" CO2_abs="0" HC_abs="0" PMx_abs="0" NOx_abs="0" fuel_abs="0" electricity_abs="0"
            CO_normed="0" CO2_normed="0" HC_normed="0" PMx_normed="0" NOx_normed="0" fuel_normed="0" electricity_normed="0"/>
        <edge id=":1110673403_0" sampledSeconds="200.23" CO_abs="3205.861613" CO2_abs="401112.271012" HC_abs="23.753617" PMx_abs="5.455754" NOx_abs="149.573194" fuel_abs="172.421348" electricity_abs="0"
            CO_normed="4541.416521" CO2_normed="568214.762383" HC_normed="33.649322" PMx_normed="7.728609" NOx_normed="211.885058" fuel_normed="244.251703" electricity_normed="0"
            traveltime="0.02" CO_perVeh="0.370520" CO2_perVeh="46.358856" HC_perVeh="0.002745" PMx_perVeh="0.000631" NOx_perVeh="0.017287" fuel_perVeh="0.019928" electricity_perVeh="0"/>
        <edge id=":1110673412_0" sampledSeconds="939.78" CO_abs="168690.417317" CO2_abs="11489523.561909" HC_abs="1049.324856" PMx_abs="252.720940" NOx_abs="4939.695997" fuel_abs="4938.780128" electricity_abs="0"
            CO_normed="247206.698041" CO2_normed="16837276.396497" HC_normed="1537.728917" PMx_normed="370.348891" NOx_normed="7238.857762" fuel_normed="7237.515605" electricity_normed="0"
            traveltime="0.02" CO_perVeh="2.786041" CO2_perVeh="189.757603" HC_perVeh="0.017330" PMx_perVeh="0.004174" NOx_perVeh="0.081583" fuel_perVeh="0.081567" electricity_perVeh="0"/>
        <edge id=":1110673414_0" sampledSeconds="0.00" CO_abs="0" CO2_abs="0" HC_abs="0" PMx_abs="0" NOx_abs="0" fuel_abs="0" electricity_abs="0"
            CO_normed="0" CO2_normed="0" HC_normed="0" PMx_normed="0" NOx_normed="0" fuel_normed="0" electricity_normed="0"/>
        <edge id=":1110673414_1" sampledSeconds="242.96" CO_abs="17802.828579" CO2_abs="681474.770586" HC_abs="96.917781" PMx_abs="12.740117" NOx_abs="288.729688" fuel_abs="292.941468" electricity_abs="0"
            CO_normed="837.855411" CO2_normed="32072.281185" HC_normed="4.561246" PMx_normed="0.599589" NOx_normed="13.588500" fuel_normed="13.786719" electricity_normed="0"
            traveltime="1.58" CO_perVeh="115.506432" CO2_perVeh="4421.472631" HC_perVeh="0.628812" PMx_perVeh="0.082659" NOx_perVeh="1.873305" fuel_perVeh="1.900632" electricity_perVeh="0"/>
        <edge id=":1110673417_0" sampledSeconds="28.94" CO_abs="535.064224" CO2_abs="59571.257159" HC_abs="3.813330" PMx_abs="0.860886" NOx_abs="22.636772" fuel_abs="25.607151" electricity_abs="0"
            CO_normed="812.111576" CO2_normed="90416.262953" HC_normed="5.787809" PMx_normed="1.306639" NOx_normed="34.357715" fuel_normed="38.866108" electricity_normed="0"
            traveltime="0.02" CO_perVeh="0.408012" CO2_perVeh="45.425943" HC_perVeh="0.002908" PMx_perVeh="0.000656" NOx_perVeh="0.017262" fuel_perVeh="0.019527" electricity_perVeh="0"/>
        <edge id=":1110673446_0" sampledSeconds="1311.59" CO_abs="14353.585307" CO2_abs="1175545.528639" HC_abs="93.180213" PMx_abs="21.476364" NOx_abs="479.984164" fuel_abs="505.312985" electricity_abs="0"
            CO_normed="20333.257429" CO2_normed="1665275.214694" HC_normed="131.998885" PMx_normed="30.423370" NOx_normed="679.944512" fuel_normed="715.825265" electricity_normed="0"
            traveltime="0.02" CO_perVeh="0.249252" CO2_perVeh="20.413509" HC_perVeh="0.001618" PMx_perVeh="0.000373" NOx_perVeh="0.008335" fuel_perVeh="0.008775" electricity_perVeh="0"/>
        <edge id=":1110673451_0" sampledSeconds="36.42" CO_abs="340.664121" CO2_abs="25692.772227" HC_abs="2.137897" PMx_abs="0.354736" NOx_abs="9.866917" fuel_abs="11.044328" electricity_abs="0"
            CO_normed="536.204496" CO2_normed="40440.360802" HC_normed="3.365044" PMx_normed="0.558354" NOx_normed="15.530504" fuel_normed="17.383746" electricity_normed="0"
            traveltime="0.03" CO_perVeh="0.250994" CO2_perVeh="18.929893" HC_perVeh="0.001575" PMx_perVeh="0.000261" NOx_perVeh="0.007270" fuel_perVeh="0.008137" electricity_perVeh="0"/>
        <edge id=":1110673464_0" sampledSeconds="1030.23" CO_abs="4073.509329" CO2_abs="297155.023709" HC_abs="25.356877" PMx_abs="4.292359" NOx_abs="115.366026" fuel_abs="127.735264" electricity_abs="0"
            CO_normed="122.603209" CO2_normed="8943.678912" HC_normed="0.763183" PMx_normed="0.129190" NOx_normed="3.472251" fuel_normed="3.844536" electricity_normed="0"
            traveltime="1.22" CO_perVeh="4.830612" CO2_perVeh="352.384270" HC_perVeh="0.030070" PMx_perVeh="0.005090" NOx_perVeh="0.136808" fuel_perVeh="0.151476" electricity_perVeh="0"/>
        <edge id=":1110673464_1" sampledSeconds="2602.45" CO_abs="64660.407385" CO2_abs="7848785.033295" HC_abs="482.261949" PMx_abs="140.461672" NOx_abs="2979.677280" fuel_abs="3373.830902" electricity_abs="0"
            CO_normed="1906.963035" CO2_normed="231476.161923" HC_normed="14.222857" PMx_normed="4.142492" NOx_normed="87.876564" fuel_normed="99.500932" electricity_normed="0"
            traveltime="0.72" CO_perVeh="17.832063" CO2_perVeh="2164.539842" HC_perVeh="0.132998" PMx_perVeh="0.038737" NOx_perVeh="0.821736" fuel_perVeh="0.930436" electricity_perVeh="0"/>
        <edge id=":1110673479_0" sampledSeconds="134.97" CO_abs="6407.539302" CO2_abs="442774.311962" HC_abs="39.560307" PMx_abs="7.648992" NOx_abs="180.415993" fuel_abs="190.329606" electricity_abs="0"
            CO_normed="9076.906107" CO2_normed="627233.118114" HC_normed="56.041043" PMx_normed="10.835546" NOx_normed="255.576900" fuel_normed="269.620502" electricity_normed="0"
            traveltime="0.03" CO_perVeh="1.354612" CO2_perVeh="93.606493" HC_perVeh="0.008363" PMx_perVeh="0.001617" NOx_perVeh="0.038142" fuel_perVeh="0.040237" electricity_perVeh="0"/>
        <edge id=":1110673511_0" sampledSeconds="63.49" CO_abs="1336.180220" CO2_abs="133523.882141" HC_abs="9.178568" PMx_abs="1.976197" NOx_abs="51.337275" fuel_abs="57.396257" electricity_abs="0"
            CO_normed="1892.829966" CO2_normed="189149.638258" HC_normed="13.002339" PMx_normed="2.799477" NOx_normed="72.724271" fuel_normed="81.307412" electricity_normed="0"
            traveltime="0.02" CO_perVeh="0.512110" CO2_perVeh="51.174915" HC_perVeh="0.003518" PMx_perVeh="0.000757" NOx_perVeh="0.019676" fuel_perVeh="0.021998" electricity_perVeh="0"/>
        <edge id=":1110673517_0" sampledSeconds="182.18" CO_abs="8456.170202" CO2_abs="600458.841818" HC_abs="52.607862" PMx_abs="10.425135" NOx_abs="244.736909" fuel_abs="258.111142" electricity_abs="0"
            CO_normed="11978.992141" CO2_normed="850608.676876" HC_normed="74.524182" PMx_normed="14.768223" NOx_normed="346.693768" fuel_normed="365.639677" electricity_normed="0"
            traveltime="0.03" CO_perVeh="1.294708" CO2_perVeh="91.935109" HC_perVeh="0.008055" PMx_perVeh="0.001596" NOx_perVeh="0.037471" fuel_perVeh="0.039519" electricity_perVeh="0"/>
        <edge id=":1110673534_0" sampledSeconds="658.84" CO_abs="4623.835333" CO2_abs="392090.295225" HC_abs="29.992808" PMx_abs="5.234101" NOx_abs="148.610115" fuel_abs="168.544307" electricity_abs="0"
            CO_normed="126.940213" CO2_normed="10764.229676" HC_normed="0.823406" PMx_normed="0.143694" NOx_normed="4.079860" fuel_normed="4.627122" electricity_normed="0"
            traveltime="1.45" CO_perVeh="10.167126" CO2_perVeh="862.148194" HC_perVeh="0.065950" PMx_perVeh="0.011509" NOx_perVeh="0.326772" fuel_perVeh="0.370604" electricity_perVeh="0"/>
        <edge id=":1110673534_1" sampledSeconds="264.13" CO_abs="4423.264064" CO2_abs="545254.399921" HC_abs="32.660315" PMx_abs="7.563739" NOx_abs="204.262563" fuel_abs="234.381847" electricity_abs="0"
            CO_normed="118.077629" CO2_normed="14555.392947" HC_normed="0.871857" PMx_normed="0.201912" NOx_normed="5.452724" fuel_normed="6.256749" electricity_normed="0"
            traveltime="1.23" CO_perVeh="20.522836" CO2_perVeh="2529.843626" HC_perVeh="0.151536" PMx_perVeh="0.035094" NOx_perVeh="0.947727" fuel_perVeh="1.087473" electricity_perVeh="0"/>
        <edge id=":1110673549_0" sampledSeconds="650.59" CO_abs="1311.531162" CO2_abs="129910.433764" HC_abs="8.826806" PMx_abs="1.810863" NOx_abs="48.925548" fuel_abs="55.843174" electricity_abs="0"
            CO_normed="34.879452" CO2_normed="3454.896781" HC_normed="0.234744" PMx_normed="0.048159" NOx_normed="1.301148" fuel_normed="1.485119" electricity_normed="0"
            traveltime="1.29" CO_perVeh="2.605700" CO2_perVeh="258.101055" HC_perVeh="0.017537" PMx_perVeh="0.003598" NOx_perVeh="0.097203" fuel_perVeh="0.110947" electricity_perVeh="0"/>
        <edge id=":1110673549_1" sampledSeconds="3198.03" CO_abs="69413.040326" CO2_abs="9043342.342039" HC_abs="532.433004" PMx_abs="159.440036" NOx_abs="3386.089598" fuel_abs="3887.318587" electricity_abs="0"
            CO_normed="1785.660300" CO2_normed="232641.263408" HC_normed="13.696914" PMx_normed="4.101618" NOx_normed="87.107635" fuel_normed="100.001822" electricity_normed="0"
            traveltime="0.81" CO_perVeh="17.509300" CO2_perVeh="2281.164949" HC_perVeh="0.134305" PMx_perVeh="0.040218" NOx_perVeh="0.854134" fuel_perVeh="0.980568" electricity_perVeh="0"/>
        <edge id=":1110673556_0" sampledSeconds="468.96" CO_abs="57833.947762" CO2_abs="2768899.748958" HC_abs="329.118366" PMx_abs="56.067106" NOx_abs="1195.181390" fuel_abs="1190.231929" electricity_abs="0"
            CO_normed="1140.521254" CO2_normed="54604.417234" HC_normed="6.490418" PMx_normed="1.105678" NOx_normed="23.569717" fuel_normed="23.472110" electricity_normed="0"
            traveltime="2.76" CO_perVeh="340.925859" CO2_perVeh="16322.412053" HC_perVeh="1.940123" PMx_perVeh="0.330510" NOx_perVeh="7.045486" fuel_perVeh="7.016309" electricity_perVeh="0"/>
        <edge id=":1110673556_2" sampledSeconds="172.25" CO_abs="16409.375001" CO2_abs="711585.569262" HC_abs="91.424534" PMx_abs="13.676543" NOx_abs="303.063944" fuel_abs="305.882668" electricity_abs="0"
            CO_normed="338.362221" CO2_normed="14672.933842" HC_normed="1.885179" PMx_normed="0.282011" NOx_normed="6.249195" fuel_normed="6.307318" electricity_normed="0"
            traveltime="2.98" CO_perVeh="283.741542" CO2_perVeh="12304.331316" HC_perVeh="1.580861" PMx_perVeh="0.236487" NOx_perVeh="5.240409" fuel_perVeh="5.289148" electricity_perVeh="0"/>
        <edge id=":1110673556_3" sampledSeconds="347.94" CO_abs="35354.547183" CO2_abs="1224842.912374" HC_abs="189.638496" PMx_abs="24.277283" NOx_abs="528.142060" fuel_abs="526.516605" electricity_abs="0"
            CO_normed="1658.383242" CO2_normed="57453.966233" HC_normed="8.895413" PMx_normed="1.138780" NOx_normed="24.773672" fuel_normed="24.697426" electricity_normed="0"
            traveltime="1.83" CO_perVeh="185.553771" CO2_perVeh="6428.429710" HC_perVeh="0.995293" PMx_perVeh="0.127416" NOx_perVeh="2.771885" fuel_perVeh="2.763354" electricity_perVeh="0"/>
        <edge id=":1110673556_4" sampledSeconds="79.89" CO_abs="9149.855183" CO2_abs="357742.488986" HC_abs="50.079095" PMx_abs="7.132907" NOx_abs="154.344200" fuel_abs="153.779779" electricity_abs="0"
            CO_normed="262.204951" CO2_normed="10251.730770" HC_normed="1.435103" PMx_normed="0.204406" NOx_normed="4.423000" fuel_normed="4.406826" electricity_normed="0"
            traveltime="2.52" CO_perVeh="288.756283" CO2_perVeh="11289.838934" HC_perVeh="1.580424" PMx_perVeh="0.225104" NOx_perVeh="4.870881" fuel_perVeh="4.853069" electricity_perVeh="0"/>
        <edge id=":1110673556_5" sampledSeconds="21.83" CO_abs="1148.196254" CO2_abs="52573.301970" HC_abs="6.446984" PMx_abs="0.920500" NOx_abs="21.815866" fuel_abs="22.599278" electricity_abs="0"
            CO_normed="45.860873" CO2_normed="2099.865342" HC_normed="0.257503" PMx_normed="0.036766" NOx_normed="0.871362" fuel_normed="0.902653" electricity_normed="0"
            traveltime="1.51" CO_perVeh="79.381469" CO2_perVeh="3634.697420" HC_perVeh="0.445717" PMx_perVeh="0.063640" NOx_perVeh="1.508257" fuel_perVeh="1.562419" electricity_perVeh="0"/>
        <edge id=":1110673556_6" sampledSeconds="217.09" CO_abs="26519.421600" CO2_abs="1325871.358307" HC_abs="152.278601" PMx_abs="26.749994" NOx_abs="570.947971" fuel_abs="569.934779" electricity_abs="0"
            CO_normed="536.165857" CO2_normed="26806.276712" HC_normed="3.078747" PMx_normed="0.540828" NOx_normed="11.543344" fuel_normed="11.522860" electricity_normed="0"
            traveltime="2.53" CO_perVeh="309.018372" CO2_perVeh="15449.756612" HC_perVeh="1.774431" PMx_perVeh="0.311705" NOx_perVeh="6.652989" fuel_perVeh="6.641182" electricity_perVeh="0"/>
        <edge id=":1110673561_0" sampledSeconds="102.76" CO_abs="9890.331561" CO2_abs="706696.119750" HC_abs="62.051145" PMx_abs="14.265350" NOx_abs="298.898170" fuel_abs="303.775037" electricity_abs="0"
            CO_normed="251.236497" CO2_normed="17951.658784" HC_normed="1.576238" PMx_normed="0.362372" NOx_normed="7.592681" fuel_normed="7.716564" electricity_normed="0"
            traveltime="1.21" CO_perVeh="116.715512" CO2_perVeh="8339.700132" HC_perVeh="0.732264" PMx_perVeh="0.168345" NOx_perVeh="3.527289" fuel_perVeh="3.584840" electricity_perVeh="0"/>
        <edge id=":1110673561_1" sampledSeconds="5188.30" CO_abs="481342.245049" CO2_abs="33444742.494358" HC_abs="3000.612625" PMx_abs="697.753127" NOx_abs="14288.298044" fuel_abs="14376.280542" electricity_abs="0"
            CO_normed="11920.775655" CO2_normed="828282.321364" HC_normed="74.312260" PMx_normed="17.280342" NOx_normed="353.859644" fuel_normed="356.038592" electricity_normed="0"
            traveltime="1.19" CO_perVeh="110.617352" CO2_perVeh="7685.942540" HC_perVeh="0.689571" PMx_perVeh="0.160351" NOx_perVeh="3.283596" fuel_perVeh="3.303816" electricity_perVeh="0"/>
        <edge id=":1110673562_0" sampledSeconds="300.57" CO_abs="6876.310113" CO2_abs="532354.566553" HC_abs="43.476306" PMx_abs="7.354156" NOx_abs="204.269152" fuel_abs="228.838483" electricity_abs="0"
            CO_normed="10823.295342" CO2_normed="837924.788972" HC_normed="68.431600" PMx_normed="11.575424" NOx_normed="321.519147" fuel_normed="360.191214" electricity_normed="0"
            traveltime="0.03" CO_perVeh="0.616404" CO2_perVeh="47.721142" HC_perVeh="0.003897" PMx_perVeh="0.000659" NOx_perVeh="0.018311" fuel_perVeh="0.020513" electricity_perVeh="0"/>
        <edge id=":1110673564_0" sampledSeconds="27.96" CO_abs="432.458035" CO2_abs="53363.398835" HC_abs="3.185569" PMx_abs="0.709391" NOx_abs="19.827208" fuel_abs="22.938715" electricity_abs="0"
            CO_normed="1837.857309" CO2_normed="226783.420853" HC_normed="13.538009" PMx_normed="3.014764" NOx_normed="84.261540" fuel_normed="97.484799" electricity_normed="0"
            traveltime="7.898063e-03" CO_perVeh="0.122146" CO2_perVeh="15.072278" HC_perVeh="0.000900" PMx_perVeh="0.000200" NOx_perVeh="0.005600" fuel_perVeh="0.006479" electricity_perVeh="0"/>
        <edge id=":1110673588_0" sampledSeconds="62.50" CO_abs="1147.309110" CO2_abs="126813.261077" HC_abs="8.137841" PMx_abs="1.761643" NOx_abs="47.849651" fuel_abs="54.511733" electricity_abs="0"
            CO_normed="1950.330679" CO2_normed="215572.064634" HC_normed="13.833658" PMx_normed="2.994648" NOx_normed="81.340453" fuel_normed="92.665441" electricity_normed="0"
            traveltime="0.02" CO_perVeh="0.370100" CO2_perVeh="40.907504" HC_perVeh="0.002625" PMx_perVeh="0.000568" NOx_perVeh="0.015435" fuel_perVeh="0.017584" electricity_perVeh="0"/>
        <edge id=":1110673601_0" sampledSeconds="28.94" CO_abs="487.934031" CO2_abs="60250.265683" HC_abs="3.602248" PMx_abs="0.817292" NOx_abs="22.466723" fuel_abs="25.899072" electricity_abs="0"
            CO_normed="740.578154" CO2_normed="91446.850793" HC_normed="5.467432" PMx_normed="1.240472" NOx_normed="34.099618" fuel_normed="39.309180" electricity_normed="0"
            traveltime="0.02" CO_perVeh="0.372073" CO2_perVeh="45.943720" HC_perVeh="0.002747" PMx_perVeh="0.000623" NOx_perVeh="0.017132" fuel_perVeh="0.019749" electricity_perVeh="0"/>
        <edge id=":1110673617_0" sampledSeconds="854.73" CO_abs="31484.461199" CO2_abs="3193168.867457" HC_abs="219.907829" PMx_abs="60.115474" NOx_abs="1252.016209" fuel_abs="1372.593861" electricity_abs="0"
            CO_normed="44600.818603" CO2_normed="4523436.006313" HC_normed="311.520948" PMx_normed="85.159448" NOx_normed="1773.603413" fuel_normed="1944.413450" electricity_normed="0"
            traveltime="0.02" CO_perVeh="0.558517" CO2_perVeh="56.645070" HC_perVeh="0.003901" PMx_perVeh="0.001066" NOx_perVeh="0.022210" fuel_perVeh="0.024349" electricity_perVeh="0"/>
        <edge id=":1110673621_0" sampledSeconds="26.35" CO_abs="541.175365" CO2_abs="54176.886294" HC_abs="3.721682" PMx_abs="0.799176" NOx_abs="20.802481" fuel_abs="23.288352" electricity_abs="0"
            CO_normed="919.953401" CO2_normed="92096.229801" HC_normed="6.326553" PMx_normed="1.358534" NOx_normed="35.362498" fuel_normed="39.588273" electricity_normed="0"
            traveltime="0.02" CO_perVeh="0.409981" CO2_perVeh="41.043096" HC_perVeh="0.002819" PMx_perVeh="0.000605" NOx_perVeh="0.015759" fuel_perVeh="0.017643" electricity_perVeh="0"/>
        <edge id=":1110673630_0" sampledSeconds="286.04" CO_abs="1476.668049" CO2_abs="130864.975824" HC_abs="9.713017" PMx_abs="1.743420" NOx_abs="49.509710" fuel_abs="56.253699" electricity_abs="0"
            CO_normed="44.761299" CO2_normed="3966.826763" HC_normed="0.294425" PMx_normed="0.052847" NOx_normed="1.500756" fuel_normed="1.705183" electricity_normed="0"
            traveltime="1.29" CO_perVeh="6.644442" CO2_perVeh="588.842411" HC_perVeh="0.043705" PMx_perVeh="0.007845" NOx_perVeh="0.222775" fuel_perVeh="0.253120" electricity_perVeh="0"/>
        <edge id=":1110673630_1" sampledSeconds="337.94" CO_abs="1314.025194" CO2_abs="109122.770238" HC_abs="8.477704" PMx_abs="1.487958" NOx_abs="41.649676" fuel_abs="46.907585" electricity_abs="0"
            CO_normed="48.559440" CO2_normed="4032.602001" HC_normed="0.313291" PMx_normed="0.054987" NOx_normed="1.539152" fuel_normed="1.733457" electricity_normed="0"
            traveltime="1.08" CO_perVeh="4.188854" CO2_perVeh="347.861915" HC_perVeh="0.027025" PMx_perVeh="0.004743" NOx_perVeh="0.132771" fuel_perVeh="0.149532" electricity_perVeh="0"/>
        <edge id=":1110673650_0" sampledSeconds="200.20" CO_abs="2419.789829" CO2_abs="331406.760040" HC_abs="18.568847" PMx_abs="4.337001" NOx_abs="122.122398" fuel_abs="142.457975" electricity_abs="0"
            CO_normed="3427.868959" CO2_normed="469470.088595" HC_normed="26.304589" PMx_normed="6.143787" NOx_normed="172.998321" fuel_normed="201.805654" electricity_normed="0"
            traveltime="0.02" CO_perVeh="0.279669" CO2_perVeh="38.302588" HC_perVeh="0.002146" PMx_perVeh="0.000501" NOx_perVeh="0.014114" fuel_perVeh="0.016465" electricity_perVeh="0"/>
        <edge id=":1110673655_0" sampledSeconds="20.92" CO_abs="251.424864" CO2_abs="31117.414671" HC_abs="1.857903" PMx_abs="0.395157" NOx_abs="11.448773" fuel_abs="13.376116" electricity_abs="0"
            CO_normed="356.167910" CO2_normed="44080.861297" HC_normed="2.631902" PMx_normed="0.559779" NOx_normed="16.218307" fuel_normed="18.948577" electricity_normed="0"
            traveltime="0.02" CO_perVeh="0.287233" CO2_perVeh="35.549217" HC_perVeh="0.002123" PMx_perVeh="0.000451" NOx_perVeh="0.013079" fuel_perVeh="0.015281" electricity_perVeh="0"/>
        <edge id=":1110673663_0" sampledSeconds="110.62" CO_abs="1740.747993" CO2_abs="207242.113167" HC_abs="12.616477" PMx_abs="2.841796" NOx_abs="77.600041" fuel_abs="89.084707" electricity_abs="0"
            CO_normed="45.163732" CO2_normed="5376.899679" HC_normed="0.327335" PMx_normed="0.073730" NOx_normed="2.013334" fuel_normed="2.311304" electricity_normed="0"
            traveltime="1.30" CO_perVeh="20.445906" CO2_perVeh="2434.156387" HC_perVeh="0.148186" PMx_perVeh="0.033378" NOx_perVeh="0.911449" fuel_perVeh="1.046342" electricity_perVeh="0"/>
        <edge id=":1110673663_1" sampledSeconds="170.17" CO_abs="2588.903481" CO2_abs="330006.568330" HC_abs="19.332803" PMx_abs="4.453518" NOx_abs="122.766105" fuel_abs="141.856010" electricity_abs="0"
            CO_normed="67.251253" CO2_normed="8572.492300" HC_normed="0.502203" PMx_normed="0.115688" NOx_normed="3.189062" fuel_normed="3.684956" electricity_normed="0"
            traveltime="1.27" CO_perVeh="19.327892" CO2_perVeh="2463.719237" HC_perVeh="0.144332" PMx_perVeh="0.033248" NOx_perVeh="0.916531" fuel_perVeh="1.059050" electricity_perVeh="0"/>