<?xml version="1.0" encoding="UTF-8"?>

<!-- generated on Tue Nov 10 06:28:44 2020 by Eclipse SUMO sumo Version 1.7.0
<configuration xmlns:xsi="http://www.w3.org/2001/XMLSchema-instance" xsi:noNamespaceSchemaLocation="http://sumo.dlr.de/xsd/sumoConfiguration.xsd">

    <input>
        <net-file value="../dataSets/Porto/8AM9AM_Routing_SaoBento/Porto.net.xml"/>
        <route-files value="../results/Porto/8AM9AM_Routing_SaoBento/cost_co-length/solution7/Porto.rou.xml"/>
        <additional-files value="moreOutputInfo.xml"/>
    </input>

    <output>
        <emission-output.precision value="6"/>
        <tripinfo-output value="../results/Porto/8AM9AM_Routing_SaoBento/cost_co-length/solution7/Porto-tripinfo"/>
    </output>

    <processing>
        <collision.action value="warn"/>
        <time-to-teleport value="-1"/>
    </processing>

    <emissions>
        <device.emissions.probability value="1"/>
    </emissions>

    <gui_only>
        <quit-on-end value="true"/>
        <start value="true"/>
    </gui_only>

</configuration>
-->

<meandata xmlns:xsi="http://www.w3.org/2001/XMLSchema-instance" xsi:noNamespaceSchemaLocation="http://sumo.dlr.de/xsd/meandata_file.xsd">
    <interval begin="0.00" end="8561.00" id="emissions-detector">
        <edge id=":1092997347_0" sampledSeconds="592.27" CO_abs="71983.973328" CO2_abs="3088018.586079" HC_abs="400.832296" PMx_abs="62.446938" NOx_abs="1335.948961" fuel_abs="1327.413669" electricity_abs="0"
            CO_normed="68795.675946" CO2_normed="2951244.786050" HC_normed="383.078725" PMx_normed="59.681052" NOx_normed="1276.777421" fuel_normed="1268.620172" electricity_normed="0"
            traveltime="0.07" CO_perVeh="8.232582" CO2_perVeh="353.167036" HC_perVeh="0.045842" PMx_perVeh="0.007142" NOx_perVeh="0.152788" fuel_perVeh="0.151812" electricity_perVeh="0"/>
        <edge id=":1103427051_0" sampledSeconds="19.22" CO_abs="1645.012734" CO2_abs="92580.948385" HC_abs="9.691719" PMx_abs="1.832816" NOx_abs="39.608491" fuel_abs="39.796427" electricity_abs="0"
            CO_normed="2385.334393" CO2_normed="134246.085571" HC_normed="14.053380" PMx_normed="2.657656" NOx_normed="57.433899" fuel_normed="57.706415" electricity_normed="0"
            traveltime="0.03" CO_perVeh="2.558239" CO2_perVeh="143.977103" HC_perVeh="0.015072" PMx_perVeh="0.002850" NOx_perVeh="0.061597" fuel_perVeh="0.061889" electricity_perVeh="0"/>
        <edge id=":1105984386_0" sampledSeconds="10.51" CO_abs="179.701393" CO2_abs="13002.935798" HC_abs="1.106950" PMx_abs="0.138665" NOx_abs="4.738078" fuel_abs="5.589527" electricity_abs="0"
            CO_normed="7.782340" CO2_normed="563.119014" HC_normed="0.047939" PMx_normed="0.006005" NOx_normed="0.205192" fuel_normed="0.242066" electricity_normed="0"
            traveltime="1.01" CO_perVeh="17.238693" CO2_perVeh="1247.367186" HC_perVeh="0.106189" PMx_perVeh="0.013302" NOx_perVeh="0.454522" fuel_perVeh="0.536201" electricity_perVeh="0"/>
        <edge id=":1105984390_0" sampledSeconds="10.83" CO_abs="0" CO2_abs="0" HC_abs="0" PMx_abs="0" NOx_abs="0" fuel_abs="0" electricity_abs="0"
            CO_normed="0" CO2_normed="0" HC_normed="0" PMx_normed="0" NOx_normed="0" fuel_normed="0" electricity_normed="0"
            traveltime="1.12" CO_perVeh="0" CO2_perVeh="0" HC_perVeh="0" PMx_perVeh="0" NOx_perVeh="0" fuel_perVeh="0" electricity_perVeh="0"/>
        <edge id=":1105984390_1" sampledSeconds="2395.57" CO_abs="61363.329671" CO2_abs="7404080.708036" HC_abs="456.643133" PMx_abs="133.172237" NOx_abs="2810.371619" fuel_abs="3182.672774" electricity_abs="0"
            CO_normed="1965.269864" CO2_normed="237128.864544" HC_normed="14.624809" PMx_normed="4.265078" NOx_normed="90.007154" fuel_normed="101.930761" electricity_normed="0"
            traveltime="0.65" CO_perVeh="16.566964" CO2_perVeh="1998.964895" HC_perVeh="0.123285" PMx_perVeh="0.035954" NOx_perVeh="0.758748" fuel_perVeh="0.859263" electricity_perVeh="0"/>
        <edge id=":1105984395_0" sampledSeconds="4.07" CO_abs="110.830247" CO2_abs="7740.578973" HC_abs="0.682529" PMx_abs="0.114811" NOx_abs="3.035190" fuel_abs="3.327369" electricity_abs="0"
            CO_normed="50.658051" CO2_normed="3538.047199" HC_normed="0.311969" PMx_normed="0.052478" NOx_normed="1.387318" fuel_normed="1.520867" electricity_normed="0"
            traveltime="0.09" CO_perVeh="2.569005" CO2_perVeh="179.423851" HC_perVeh="0.015821" PMx_perVeh="0.002661" NOx_perVeh="0.070355" fuel_perVeh="0.077127" electricity_perVeh="0"/>
        <edge id=":1105984398_0" sampledSeconds="10.54" CO_abs="652.389836" CO2_abs="45006.556211" HC_abs="4.030246" PMx_abs="0.800070" NOx_abs="18.497141" fuel_abs="19.346345" electricity_abs="0"
            CO_normed="22.691274" CO2_normed="1565.407773" HC_normed="0.140179" PMx_normed="0.027828" NOx_normed="0.643363" fuel_normed="0.672900" electricity_normed="0"
            traveltime="1.14" CO_perVeh="70.571448" CO2_perVeh="4868.527451" HC_perVeh="0.435967" PMx_perVeh="0.086547" NOx_perVeh="2.000905" fuel_perVeh="2.092766" electricity_perVeh="0"/>
        <edge id=":1105984398_1" sampledSeconds="644.36" CO_abs="12188.878792" CO2_abs="1405963.863439" HC_abs="87.850005" PMx_abs="20.477163" NOx_abs="533.952588" fuel_abs="604.363575" electricity_abs="0"
            CO_normed="410.373515" CO2_normed="47335.800269" HC_normed="2.957722" PMx_normed="0.689422" NOx_normed="17.977043" fuel_normed="20.347631" electricity_normed="0"
            traveltime="0.95" CO_perVeh="17.981220" CO2_perVeh="2074.099372" HC_perVeh="0.129598" PMx_perVeh="0.030208" NOx_perVeh="0.787695" fuel_perVeh="0.891566" electricity_perVeh="0"/>
        <edge id=":1106006327_0" sampledSeconds="259.51" CO_abs="35049.410331" CO2_abs="1142169.946092" HC_abs="186.491718" PMx_abs="23.867311" NOx_abs="500.223486" fuel_abs="490.978349" electricity_abs="0"
            CO_normed="1663.508398" CO2_normed="54209.451148" HC_normed="8.851234" PMx_normed="1.132786" NOx_normed="23.741511" fuel_normed="23.302720" electricity_normed="0"
            traveltime="2.09" CO_perVeh="281.689912" CO2_perVeh="9179.548192" HC_perVeh="1.498822" PMx_perVeh="0.191820" NOx_perVeh="4.020265" fuel_perVeh="3.945962" electricity_perVeh="0"/>
        <edge id=":1106006327_1" sampledSeconds="683.88" CO_abs="92253.935471" CO2_abs="3076003.055297" HC_abs="492.541124" PMx_abs="64.094452" NOx_abs="1345.761153" fuel_abs="1322.263085" electricity_abs="0"
            CO_normed="3818.292528" CO2_normed="127312.503496" HC_normed="20.385755" PMx_normed="2.652801" NOx_normed="55.699627" fuel_normed="54.727066" electricity_normed="0"
            traveltime="2.30" CO_perVeh="309.674132" CO2_perVeh="10325.397720" HC_perVeh="1.653341" PMx_perVeh="0.215150" NOx_perVeh="4.517394" fuel_perVeh="4.438517" electricity_perVeh="0"/>
        <edge id=":1106006327_2" sampledSeconds="0.00" CO_abs="0" CO2_abs="0" HC_abs="0" PMx_abs="0" NOx_abs="0" fuel_abs="0" electricity_abs="0"
            CO_normed="0" CO2_normed="0" HC_normed="0" PMx_normed="0" NOx_normed="0" fuel_normed="0" electricity_normed="0"/>
        <edge id=":1106006327_3" sampledSeconds="0.00" CO_abs="0" CO2_abs="0" HC_abs="0" PMx_abs="0" NOx_abs="0" fuel_abs="0" electricity_abs="0"
            CO_normed="0" CO2_normed="0" HC_normed="0" PMx_normed="0" NOx_normed="0" fuel_normed="0" electricity_normed="0"/>
        <edge id=":1107381198_0" sampledSeconds="0.00" CO_abs="0" CO2_abs="0" HC_abs="0" PMx_abs="0" NOx_abs="0" fuel_abs="0" electricity_abs="0"
            CO_normed="0" CO2_normed="0" HC_normed="0" PMx_normed="0" NOx_normed="0" fuel_normed="0" electricity_normed="0"/>
        <edge id=":1107381198_1" sampledSeconds="102.61" CO_abs="4532.236196" CO2_abs="185622.197724" HC_abs="24.931410" PMx_abs="3.291648" NOx_abs="77.448837" fuel_abs="79.792306" electricity_abs="0"
            CO_normed="207.836205" CO2_normed="8512.136481" HC_normed="1.143288" PMx_normed="0.150946" NOx_normed="3.551596" fuel_normed="3.659061" electricity_normed="0"
            traveltime="1.54" CO_perVeh="67.856266" CO2_perVeh="2779.120221" HC_perVeh="0.373271" PMx_perVeh="0.049282" NOx_perVeh="1.159558" fuel_perVeh="1.194644" electricity_perVeh="0"/>
        <edge id=":1110338277_0" sampledSeconds="160.20" CO_abs="2791.255185" CO2_abs="328477.538531" HC_abs="20.231278" PMx_abs="4.582604" NOx_abs="123.555987" fuel_abs="141.198657" electricity_abs="0"
            CO_normed="4191.983024" CO2_normed="493316.509550" HC_normed="30.383884" PMx_normed="6.882280" NOx_normed="185.559744" fuel_normed="212.055987" electricity_normed="0"
            traveltime="0.02" CO_perVeh="0.378049" CO2_perVeh="44.489129" HC_perVeh="0.002740" PMx_perVeh="0.000621" NOx_perVeh="0.016734" fuel_perVeh="0.019124" electricity_perVeh="0"/>
        <edge id=":1110338293_0" sampledSeconds="6637.53" CO_abs="633011.922036" CO2_abs="11056079.955312" HC_abs="3141.002197" PMx_abs="264.099949" NOx_abs="4998.924430" fuel_abs="4752.823378" electricity_abs="0"
            CO_normed="887296.234603" CO2_normed="15497367.067368" HC_normed="4402.759767" PMx_normed="370.190326" NOx_normed="7007.019409" fuel_normed="6662.058234" electricity_normed="0"
            traveltime="0.44" CO_perVeh="42.312354" CO2_perVeh="739.020476" HC_perVeh="0.209954" PMx_perVeh="0.017653" NOx_perVeh="0.334143" fuel_perVeh="0.317693" electricity_perVeh="0"/>
        <edge id=":1110338295_0" sampledSeconds="0.00" CO_abs="0" CO2_abs="0" HC_abs="0" PMx_abs="0" NOx_abs="0" fuel_abs="0" electricity_abs="0"
            CO_normed="0" CO2_normed="0" HC_normed="0" PMx_normed="0" NOx_normed="0" fuel_normed="0" electricity_normed="0"/>
        <edge id=":1110673403_0" sampledSeconds="200.75" CO_abs="3312.366737" CO2_abs="405723.753238" HC_abs="24.360391" PMx_abs="5.533572" NOx_abs="151.567653" fuel_abs="174.403653" electricity_abs="0"
            CO_normed="4642.962370" CO2_normed="568705.179168" HC_normed="34.146092" PMx_normed="7.756437" NOx_normed="212.453198" fuel_normed="244.462543" electricity_normed="0"
            traveltime="0.02" CO_perVeh="0.382829" CO2_perVeh="46.891831" HC_perVeh="0.002815" PMx_perVeh="0.000640" NOx_perVeh="0.017518" fuel_perVeh="0.020157" electricity_perVeh="0"/>
        <edge id=":1110673412_0" sampledSeconds="941.15" CO_abs="166519.318936" CO2_abs="11381338.327115" HC_abs="1036.734142" PMx_abs="249.942402" NOx_abs="4889.300588" fuel_abs="4892.276869" electricity_abs="0"
            CO_normed="241459.686135" CO2_normed="16503396.709865" HC_normed="1503.306056" PMx_normed="362.426499" NOx_normed="7089.681804" fuel_normed="7093.997530" electricity_normed="0"
            traveltime="0.02" CO_perVeh="2.746751" CO2_perVeh="187.736180" HC_perVeh="0.017101" PMx_perVeh="0.004123" NOx_perVeh="0.080649" fuel_perVeh="0.080699" electricity_perVeh="0"/>
        <edge id=":1110673414_0" sampledSeconds="0.00" CO_abs="0" CO2_abs="0" HC_abs="0" PMx_abs="0" NOx_abs="0" fuel_abs="0" electricity_abs="0"
            CO_normed="0" CO2_normed="0" HC_normed="0" PMx_normed="0" NOx_normed="0" fuel_normed="0" electricity_normed="0"/>
        <edge id=":1110673414_1" sampledSeconds="6.50" CO_abs="494.271457" CO2_abs="20092.788031" HC_abs="2.712645" PMx_abs="0.342301" NOx_abs="8.292884" fuel_abs="8.637191" electricity_abs="0"
            CO_normed="23.017375" CO2_normed="935.686699" HC_normed="0.126323" PMx_normed="0.015940" NOx_normed="0.386185" fuel_normed="0.402219" electricity_normed="0"
            traveltime="1.42" CO_perVeh="107.964955" CO2_perVeh="4388.918140" HC_perVeh="0.592530" PMx_perVeh="0.074770" NOx_perVeh="1.811435" fuel_perVeh="1.886643" electricity_perVeh="0"/>
        <edge id=":1110673417_0" sampledSeconds="29.15" CO_abs="430.115310" CO2_abs="48260.793012" HC_abs="3.073345" PMx_abs="0.704063" NOx_abs="18.363333" fuel_abs="20.745252" electricity_abs="0"
            CO_normed="645.958882" CO2_normed="72479.372755" HC_normed="4.615633" PMx_normed="1.057381" NOx_normed="27.578554" fuel_normed="31.155784" electricity_normed="0"
            traveltime="0.02" CO_perVeh="0.327984" CO2_perVeh="36.801171" HC_perVeh="0.002344" PMx_perVeh="0.000537" NOx_perVeh="0.014003" fuel_perVeh="0.015819" electricity_perVeh="0"/>
        <edge id=":1110673446_0" sampledSeconds="1313.55" CO_abs="13692.825547" CO2_abs="1114490.334320" HC_abs="88.773859" PMx_abs="20.425832" NOx_abs="455.689436" fuel_abs="479.068122" electricity_abs="0"
            CO_normed="19193.307623" CO2_normed="1562187.129055" HC_normed="124.434798" PMx_normed="28.631000" NOx_normed="638.742347" fuel_normed="671.512378" electricity_normed="0"
            traveltime="0.02" CO_perVeh="0.237595" CO2_perVeh="19.338377" HC_perVeh="0.001540" PMx_perVeh="0.000354" NOx_perVeh="0.007907" fuel_perVeh="0.008313" electricity_perVeh="0"/>
        <edge id=":1110673451_0" sampledSeconds="36.97" CO_abs="396.985721" CO2_abs="27938.324141" HC_abs="2.444736" PMx_abs="0.387723" NOx_abs="10.773057" fuel_abs="12.009621" electricity_abs="0"
            CO_normed="618.285591" CO2_normed="43512.555606" HC_normed="3.807555" PMx_normed="0.603859" NOx_normed="16.778503" fuel_normed="18.704389" electricity_normed="0"
            traveltime="0.03" CO_perVeh="0.292497" CO2_perVeh="20.584801" HC_perVeh="0.001801" PMx_perVeh="0.000286" NOx_perVeh="0.007938" fuel_perVeh="0.008849" electricity_perVeh="0"/>
        <edge id=":1110673464_0" sampledSeconds="1027.18" CO_abs="3252.492930" CO2_abs="244194.872263" HC_abs="20.397514" PMx_abs="3.426058" NOx_abs="94.055578" fuel_abs="104.969862" electricity_abs="0"
            CO_normed="96.863391" CO2_normed="7272.434981" HC_normed="0.607464" PMx_normed="0.102032" NOx_normed="2.801095" fuel_normed="3.126136" electricity_normed="0"
            traveltime="1.22" CO_perVeh="3.857001" CO2_perVeh="289.580943" HC_perVeh="0.024189" PMx_perVeh="0.004063" NOx_perVeh="0.111537" fuel_perVeh="0.124480" electricity_perVeh="0"/>
        <edge id=":1110673464_1" sampledSeconds="2597.06" CO_abs="62189.653713" CO2_abs="7767244.415022" HC_abs="468.417413" PMx_abs="137.867504" NOx_abs="2933.307802" fuel_abs="3338.781272" electricity_abs="0"
            CO_normed="1814.814170" CO2_normed="226663.188835" HC_normed="13.669325" PMx_normed="4.023240" NOx_normed="85.599585" fuel_normed="97.432084" electricity_normed="0"
            traveltime="0.72" CO_perVeh="17.144771" CO2_perVeh="2141.314849" HC_perVeh="0.129136" PMx_perVeh="0.038008" NOx_perVeh="0.808670" fuel_perVeh="0.920453" electricity_perVeh="0"/>
        <edge id=":1110673479_0" sampledSeconds="135.23" CO_abs="6544.730728" CO2_abs="441264.138769" HC_abs="40.195293" PMx_abs="7.902227" NOx_abs="181.825643" fuel_abs="189.680134" electricity_abs="0"
            CO_normed="9173.784457" CO2_normed="618522.329778" HC_normed="56.341959" PMx_normed="11.076595" NOx_normed="254.865987" fuel_normed="265.875669" electricity_normed="0"
            traveltime="0.03" CO_perVeh="1.383615" CO2_perVeh="93.287229" HC_perVeh="0.008498" PMx_perVeh="0.001671" NOx_perVeh="0.038440" fuel_perVeh="0.040100" electricity_perVeh="0"/>
        <edge id=":1110673511_0" sampledSeconds="63.32" CO_abs="984.423891" CO2_abs="114193.174711" HC_abs="7.098457" PMx_abs="1.533502" NOx_abs="42.676425" fuel_abs="49.086930" electricity_abs="0"
            CO_normed="1379.872292" CO2_normed="160065.190577" HC_normed="9.949946" PMx_normed="2.149518" NOx_normed="59.819776" fuel_normed="68.805415" electricity_normed="0"
            traveltime="0.02" CO_perVeh="0.377294" CO2_perVeh="43.766148" HC_perVeh="0.002721" PMx_perVeh="0.000588" NOx_perVeh="0.016356" fuel_perVeh="0.018813" electricity_perVeh="0"/>
        <edge id=":1110673517_0" sampledSeconds="182.50" CO_abs="8510.132879" CO2_abs="597852.355289" HC_abs="52.803748" PMx_abs="10.461123" NOx_abs="244.299907" fuel_abs="256.990670" electricity_abs="0"
            CO_normed="11928.699281" CO2_normed="838012.879741" HC_normed="74.015299" PMx_normed="14.663413" NOx_normed="342.436501" fuel_normed="360.225212" electricity_normed="0"
            traveltime="0.03" CO_perVeh="1.302977" CO2_perVeh="91.536484" HC_perVeh="0.008085" PMx_perVeh="0.001602" NOx_perVeh="0.037404" fuel_perVeh="0.039348" electricity_perVeh="0"/>
        <edge id=":1110673534_0" sampledSeconds="658.29" CO_abs="4954.297504" CO2_abs="415587.108710" HC_abs="32.071554" PMx_abs="5.704220" NOx_abs="158.593053" fuel_abs="178.644472" electricity_abs="0"
            CO_normed="134.582667" CO2_normed="11289.354610" HC_normed="0.871218" PMx_normed="0.154954" NOx_normed="4.308154" fuel_normed="4.852847" electricity_normed="0"
            traveltime="1.45" CO_perVeh="10.893763" CO2_perVeh="913.814189" HC_perVeh="0.070521" PMx_perVeh="0.012543" NOx_perVeh="0.348723" fuel_perVeh="0.392813" electricity_perVeh="0"/>
        <edge id=":1110673534_1" sampledSeconds="264.70" CO_abs="3846.157938" CO2_abs="489959.739226" HC_abs="28.611754" PMx_abs="6.528171" NOx_abs="181.811611" fuel_abs="210.613288" electricity_abs="0"
            CO_normed="101.592595" CO2_normed="12941.819403" HC_normed="0.755752" PMx_normed="0.172435" NOx_normed="4.802380" fuel_normed="5.563149" electricity_normed="0"
            traveltime="1.23" CO_perVeh="17.845208" CO2_perVeh="2273.290272" HC_perVeh="0.132751" PMx_perVeh="0.030289" NOx_perVeh="0.843560" fuel_perVeh="0.977193" electricity_perVeh="0"/>
        <edge id=":1110673549_0" sampledSeconds="653.78" CO_abs="1553.237812" CO2_abs="146169.425898" HC_abs="10.390026" PMx_abs="2.134456" NOx_abs="55.875396" fuel_abs="62.832164" electricity_abs="0"
            CO_normed="40.873251" CO2_normed="3846.429439" HC_normed="0.273412" PMx_normed="0.056168" NOx_normed="1.470354" fuel_normed="1.653420" electricity_normed="0"
            traveltime="1.30" CO_perVeh="3.085913" CO2_perVeh="290.403796" HC_perVeh="0.020643" PMx_perVeh="0.004241" NOx_perVeh="0.111011" fuel_perVeh="0.124833" electricity_perVeh="0"/>
        <edge id=":1110673549_1" sampledSeconds="3198.22" CO_abs="70904.739024" CO2_abs="9194796.967891" HC_abs="542.301405" PMx_abs="162.271048" NOx_abs="3443.559299" fuel_abs="3952.421949" electricity_abs="0"
            CO_normed="1804.858768" CO2_normed="234050.786398" HC_normed="13.804119" PMx_normed="4.130561" NOx_normed="87.654764" fuel_normed="100.607710" electricity_normed="0"
            traveltime="0.81" CO_perVeh="17.886754" CO2_perVeh="2319.521531" HC_perVeh="0.136803" PMx_perVeh="0.040935" NOx_perVeh="0.868688" fuel_perVeh="0.997056" electricity_perVeh="0"/>
        <edge id=":1110673556_0" sampledSeconds="466.24" CO_abs="57345.978302" CO2_abs="2755592.834644" HC_abs="326.563560" PMx_abs="55.652939" NOx_abs="1188.188264" fuel_abs="1184.511928" electricity_abs="0"
            CO_normed="1119.009298" CO2_normed="53770.710616" HC_normed="6.372333" PMx_normed="1.085973" NOx_normed="23.185474" fuel_normed="23.113737" electricity_normed="0"
            traveltime="2.75" CO_perVeh="338.049028" CO2_perVeh="16243.954807" HC_perVeh="1.925061" PMx_perVeh="0.328069" NOx_perVeh="7.004256" fuel_perVeh="6.982584" electricity_perVeh="0"/>
        <edge id=":1110673556_2" sampledSeconds="177.22" CO_abs="17661.918328" CO2_abs="748325.873816" HC_abs="98.008841" PMx_abs="14.553902" NOx_abs="319.967519" fuel_abs="321.675950" electricity_abs="0"
            CO_normed="360.361084" CO2_normed="15268.303122" HC_normed="1.999702" PMx_normed="0.296947" NOx_normed="6.528387" fuel_normed="6.563245" electricity_normed="0"
            traveltime="3.06" CO_perVeh="305.401464" CO2_perVeh="12939.693922" HC_perVeh="1.694722" PMx_perVeh="0.251659" NOx_perVeh="5.532726" fuel_perVeh="5.562267" electricity_perVeh="0"/>
        <edge id=":1110673556_3" sampledSeconds="335.32" CO_abs="34177.895058" CO2_abs="1176829.281207" HC_abs="183.133978" PMx_abs="23.241085" NOx_abs="506.944734" fuel_abs="505.877547" electricity_abs="0"
            CO_normed="1586.335773" CO2_normed="54621.455896" HC_normed="8.499996" PMx_normed="1.078714" NOx_normed="23.529377" fuel_normed="23.479844" electricity_normed="0"
            traveltime="1.85" CO_perVeh="188.422547" CO2_perVeh="6487.853332" HC_perVeh="1.009617" PMx_perVeh="0.128128" NOx_perVeh="2.794784" fuel_perVeh="2.788900" electricity_perVeh="0"/>
        <edge id=":1110673556_4" sampledSeconds="100.37" CO_abs="11372.594106" CO2_abs="440818.562049" HC_abs="62.158747" PMx_abs="8.825416" NOx_abs="190.404152" fuel_abs="189.491028" electricity_abs="0"
            CO_normed="322.475253" CO2_normed="12499.617582" HC_normed="1.762540" PMx_normed="0.250249" NOx_normed="5.398999" fuel_normed="5.373107" electricity_normed="0"
            traveltime="2.53" CO_perVeh="287.122184" CO2_perVeh="11129.280346" HC_perVeh="1.569313" PMx_perVeh="0.222814" NOx_perVeh="4.807105" fuel_perVeh="4.784052" electricity_perVeh="0"/>
        <edge id=":1110673556_5" sampledSeconds="22.90" CO_abs="1140.168240" CO2_abs="49866.915941" HC_abs="6.343777" PMx_abs="0.862250" NOx_abs="20.639641" fuel_abs="21.435963" electricity_abs="0"
            CO_normed="45.061466" CO2_normed="1970.828734" HC_normed="0.250717" PMx_normed="0.034078" NOx_normed="0.815715" fuel_normed="0.847187" electricity_normed="0"
            traveltime="1.58" CO_perVeh="78.826446" CO2_perVeh="3447.589250" HC_perVeh="0.438582" PMx_perVeh="0.059612" NOx_perVeh="1.426938" fuel_perVeh="1.481993" electricity_perVeh="0"/>
        <edge id=":1110673556_6" sampledSeconds="547.67" CO_abs="65122.690725" CO2_abs="3147593.469885" HC_abs="371.235921" PMx_abs="63.242705" NOx_abs="1354.869022" fuel_abs="1353.016494" electricity_abs="0"
            CO_normed="1302.799635" CO2_normed="62968.584059" HC_normed="7.426690" PMx_normed="1.265190" NOx_normed="27.104575" fuel_normed="27.067515" electricity_normed="0"
            traveltime="2.66" CO_perVeh="316.185062" CO2_perVeh="15282.262214" HC_perVeh="1.802432" PMx_perVeh="0.307057" NOx_perVeh="6.578189" fuel_perVeh="6.569194" electricity_perVeh="0"/>
        <edge id=":1110673561_0" sampledSeconds="104.99" CO_abs="9904.635775" CO2_abs="701199.412511" HC_abs="61.956066" PMx_abs="14.100834" NOx_abs="296.441238" fuel_abs="301.412400" electricity_abs="0"
            CO_normed="248.954839" CO2_normed="17624.776009" HC_normed="1.557277" PMx_normed="0.354427" NOx_normed="7.451105" fuel_normed="7.576056" electricity_normed="0"
            traveltime="1.24" CO_perVeh="116.884316" CO2_perVeh="8274.833652" HC_perVeh="0.731142" PMx_perVeh="0.166404" NOx_perVeh="3.498294" fuel_perVeh="3.556959" electricity_perVeh="0"/>
        <edge id=":1110673561_1" sampledSeconds="5194.48" CO_abs="483980.236255" CO2_abs="33532752.624927" HC_abs="3015.100496" PMx_abs="700.921077" NOx_abs="14336.289175" fuel_abs="14414.110832" electricity_abs="0"
            CO_normed="11860.099906" CO2_normed="821731.480905" HC_normed="73.886061" PMx_normed="17.176309" NOx_normed="351.315631" fuel_normed="353.222677" electricity_normed="0"
            traveltime="1.19" CO_perVeh="111.099594" CO2_perVeh="7697.577116" HC_perVeh="0.692128" PMx_perVeh="0.160899" NOx_perVeh="3.290952" fuel_perVeh="3.308817" electricity_perVeh="0"/>
        <edge id=":1110673562_0" sampledSeconds="301.49" CO_abs="7261.780301" CO2_abs="554371.151875" HC_abs="45.751168" PMx_abs="7.769912" NOx_abs="213.571126" fuel_abs="238.302457" electricity_abs="0"
            CO_normed="11309.863024" CO2_normed="863405.601955" HC_normed="71.255178" PMx_normed="12.101253" NOx_normed="332.626446" fuel_normed="371.144270" electricity_normed="0"
            traveltime="0.03" CO_perVeh="0.650956" CO2_perVeh="49.694625" HC_perVeh="0.004101" PMx_perVeh="0.000697" NOx_perVeh="0.019145" fuel_perVeh="0.021362" electricity_perVeh="0"/>
        <edge id=":1110673564_0" sampledSeconds="27.83" CO_abs="480.728502" CO2_abs="55708.140374" HC_abs="3.446724" PMx_abs="0.754399" NOx_abs="20.817921" fuel_abs="23.946620" electricity_abs="0"
            CO_normed="2021.519225" CO2_normed="234259.204937" HC_normed="14.493877" PMx_normed="3.172337" NOx_normed="87.541779" fuel_normed="100.698322" electricity_normed="0"
            traveltime="7.860063e-03" CO_perVeh="0.135780" CO2_perVeh="15.734540" HC_perVeh="0.000974" PMx_perVeh="0.000213" NOx_perVeh="0.005880" fuel_perVeh="0.006764" electricity_perVeh="0"/>
        <edge id=":1110673588_0" sampledSeconds="63.04" CO_abs="1064.692556" CO2_abs="119099.151018" HC_abs="7.589024" PMx_abs="1.654247" NOx_abs="44.889511" fuel_abs="51.195753" electricity_abs="0"
            CO_normed="1790.862376" CO2_normed="200330.308920" HC_normed="12.765091" PMx_normed="2.782521" NOx_normed="75.506244" fuel_normed="86.113637" electricity_normed="0"
            traveltime="0.02" CO_perVeh="0.343449" CO2_perVeh="38.419081" HC_perVeh="0.002448" PMx_perVeh="0.000534" NOx_perVeh="0.014480" fuel_perVeh="0.016515" electricity_perVeh="0"/>
        <edge id=":1110673601_0" sampledSeconds="29.17" CO_abs="338.534815" CO2_abs="45647.818298" HC_abs="2.576982" PMx_abs="0.575825" NOx_abs="16.700523" fuel_abs="19.622133" electricity_abs="0"
            CO_normed="508.420801" CO2_normed="68555.136196" HC_normed="3.870182" PMx_normed="0.864790" NOx_normed="25.081301" fuel_normed="29.469053" electricity_normed="0"
            traveltime="0.02" CO_perVeh="0.258149" CO2_perVeh="34.808653" HC_perVeh="0.001965" PMx_perVeh="0.000439" NOx_perVeh="0.012735" fuel_perVeh="0.014963" electricity_perVeh="0"/>
        <edge id=":1110673617_0" sampledSeconds="849.07" CO_abs="31672.297633" CO2_abs="3218868.993878" HC_abs="221.394006" PMx_abs="60.754287" NOx_abs="1261.312797" fuel_abs="1383.641027" electricity_abs="0"
            CO_normed="44395.230883" CO2_normed="4511906.077156" HC_normed="310.329175" PMx_normed="85.159612" NOx_normed="1767.988969" fuel_normed="1939.457111" electricity_normed="0"
            traveltime="0.02" CO_perVeh="0.561835" CO2_perVeh="57.099483" HC_perVeh="0.003927" PMx_perVeh="0.001078" NOx_perVeh="0.022374" fuel_perVeh="0.024544" electricity_perVeh="0"/>
        <edge id=":1110673621_0" sampledSeconds="26.71" CO_abs="608.781404" CO2_abs="65125.488564" HC_abs="4.272302" PMx_abs="0.951586" NOx_abs="24.876334" fuel_abs="27.994676" electricity_abs="0"
            CO_normed="1023.998624" CO2_normed="109544.099441" HC_normed="7.186210" PMx_normed="1.600613" NOx_normed="41.843150" fuel_normed="47.088346" electricity_normed="0"
            traveltime="0.02" CO_perVeh="0.461198" CO2_perVeh="49.337491" HC_perVeh="0.003237" PMx_perVeh="0.000721" NOx_perVeh="0.018846" fuel_perVeh="0.021208" electricity_perVeh="0"/>
        <edge id=":1110673630_0" sampledSeconds="286.00" CO_abs="1201.958996" CO2_abs="113933.256782" HC_abs="8.054551" PMx_abs="1.390371" NOx_abs="42.201826" fuel_abs="48.975551" electricity_abs="0"
            CO_normed="36.051193" CO2_normed="3417.279505" HC_normed="0.241586" PMx_normed="0.041702" NOx_normed="1.265789" fuel_normed="1.468958" electricity_normed="0"
            traveltime="1.29" CO_perVeh="5.408356" CO2_perVeh="512.656142" HC_perVeh="0.036242" PMx_perVeh="0.006256" NOx_perVeh="0.189892" fuel_perVeh="0.220371" electricity_perVeh="0"/>
        <edge id=":1110673630_1" sampledSeconds="339.03" CO_abs="1327.558624" CO2_abs="106670.286387" HC_abs="8.486529" PMx_abs="1.480554" NOx_abs="40.911426" fuel_abs="45.853352" electricity_abs="0"
            CO_normed="48.543811" CO2_normed="3900.530017" HC_normed="0.310320" PMx_normed="0.054138" NOx_normed="1.495977" fuel_normed="1.676684" electricity_normed="0"
            traveltime="1.08" CO_perVeh="4.231996" CO2_perVeh="340.043879" HC_perVeh="0.027053" PMx_perVeh="0.004720" NOx_perVeh="0.130418" fuel_perVeh="0.146171" electricity_perVeh="0"/>
        <edge id=":1110673650_0" sampledSeconds="200.13" CO_abs="2896.386486" CO2_abs="369136.294208" HC_abs="21.605588" PMx_abs="5.036762" NOx_abs="137.589754" fuel_abs="158.676160" electricity_abs="0"
            CO_normed="4059.880601" CO2_normed="517420.339971" HC_normed="30.284670" PMx_normed="7.060056" NOx_normed="192.860302" fuel_normed="222.417231" electricity_normed="0"
            traveltime="0.02" CO_perVeh="0.334753" CO2_perVeh="42.663312" HC_perVeh="0.002497" PMx_perVeh="0.000582" NOx_perVeh="0.015902" fuel_perVeh="0.018339" electricity_perVeh="0"/>
        <edge id=":1110673655_0" sampledSeconds="20.70" CO_abs="349.005521" CO2_abs="39716.861665" HC_abs="2.477896" PMx_abs="0.550539" NOx_abs="14.924677" fuel_abs="17.072616" electricity_abs="0"
            CO_normed="489.202926" CO2_normed="55671.339795" HC_normed="3.473280" PMx_normed="0.771694" NOx_normed="20.920000" fuel_normed="23.930779" electricity_normed="0"
            traveltime="0.02" CO_perVeh="0.398712" CO2_perVeh="45.373414" HC_perVeh="0.002831" PMx_perVeh="0.000629" NOx_perVeh="0.017050" fuel_perVeh="0.019504" electricity_perVeh="0"/>
        <edge id=":1110673663_0" sampledSeconds="110.75" CO_abs="2063.052446" CO2_abs="228484.063710" HC_abs="14.621921" PMx_abs="3.247179" NOx_abs="86.544718" fuel_abs="98.215663" electricity_abs="0"
            CO_normed="52.963219" CO2_normed="5865.702341" HC_normed="0.375378" PMx_normed="0.083362" NOx_normed="2.221799" fuel_normed="2.521418" electricity_normed="0"
            traveltime="1.30" CO_perVeh="24.231524" CO2_perVeh="2683.653117" HC_perVeh="0.171741" PMx_perVeh="0.038140" NOx_perVeh="1.016509" fuel_perVeh="1.153589" electricity_perVeh="0"/>
        <edge id=":1110673663_1" sampledSeconds="170.46" CO_abs="2682.752279" CO2_abs="337943.621931" HC_abs="19.965762" PMx_abs="4.539661" NOx_abs="125.671894" fuel_abs="145.267872" electricity_abs="0"
            CO_normed="68.956511" CO2_normed="8686.382687" HC_normed="0.513193" PMx_normed="0.116686" NOx_normed="3.230226" fuel_normed="3.733914" electricity_normed="0"
            traveltime="1.27" CO_perVeh="20.058708" CO2_perVeh="2526.775431" HC_perVeh="0.149282" PMx_perVeh="0.033943" NOx_perVeh="0.939638" fuel_perVeh="1.086155" electricity_perVeh="0"/>
        <edge id=":1110673666_0" sampledSeconds="275.45" CO_abs="6400.097717" CO2_abs="494594.956459" HC_abs="40.467743" PMx_abs="6.947032" NOx_abs="190.479695" fuel_abs="212.606937" electricity_abs="0"