<?xml version="1.0" encoding="UTF-8"?>

<!-- generated on Tue Nov 10 01:34:41 2020 by Eclipse SUMO sumo Version 1.7.0
<configuration xmlns:xsi="http://www.w3.org/2001/XMLSchema-instance" xsi:noNamespaceSchemaLocation="http://sumo.dlr.de/xsd/sumoConfiguration.xsd">

    <input>
        <net-file value="../dataSets/Porto/6AM7AM_Routing_SaoBento/Porto.net.xml"/>
        <route-files value="../results/Porto/6AM7AM_Routing_SaoBento/cost_PMx-cost_co2/solution4/Porto.rou.xml"/>
        <additional-files value="moreOutputInfo.xml"/>
    </input>

    <output>
        <emission-output.precision value="6"/>
        <tripinfo-output value="../results/Porto/6AM7AM_Routing_SaoBento/cost_PMx-cost_co2/solution4/Porto-tripinfo"/>
    </output>

    <processing>
        <collision.action value="warn"/>
        <time-to-teleport value="-1"/>
    </processing>

    <emissions>
        <device.emissions.probability value="1"/>
    </emissions>

    <gui_only>
        <quit-on-end value="true"/>
        <start value="true"/>
    </gui_only>

</configuration>
-->

<meandata xmlns:xsi="http://www.w3.org/2001/XMLSchema-instance" xsi:noNamespaceSchemaLocation="http://sumo.dlr.de/xsd/meandata_file.xsd">
    <interval begin="0.00" end="4700.00" id="emissions-detector">
        <edge id=":1092997347_0" sampledSeconds="299.34" CO_abs="38941.412377" CO2_abs="1556173.354719" HC_abs="214.120046" PMx_abs="31.849780" NOx_abs="676.084664" fuel_abs="668.937329" electricity_abs="0"
            CO_normed="67789.692726" CO2_normed="2709005.839936" HC_normed="372.742826" PMx_normed="55.444491" NOx_normed="1176.936552" fuel_normed="1164.494384" electricity_normed="0"
            traveltime="0.07" CO_perVeh="9.653191" CO2_perVeh="385.759995" HC_perVeh="0.053078" PMx_perVeh="0.007895" NOx_perVeh="0.167595" fuel_perVeh="0.165823" electricity_perVeh="0"/>
        <edge id=":1103427051_0" sampledSeconds="10.86" CO_abs="841.105125" CO2_abs="47098.911511" HC_abs="4.951774" PMx_abs="0.944075" NOx_abs="20.233146" fuel_abs="20.245710" electricity_abs="0"
            CO_normed="2221.554254" CO2_normed="124399.179340" HC_normed="13.078787" PMx_normed="2.493521" NOx_normed="53.440443" fuel_normed="53.473628" electricity_normed="0"
            traveltime="0.03" CO_perVeh="2.304615" CO2_perVeh="129.050306" HC_perVeh="0.013568" PMx_perVeh="0.002587" NOx_perVeh="0.055439" fuel_perVeh="0.055473" electricity_perVeh="0"/>
        <edge id=":1105984386_0" sampledSeconds="22.97" CO_abs="454.584932" CO2_abs="37304.802684" HC_abs="2.919814" PMx_abs="0.495416" NOx_abs="14.160378" fuel_abs="16.035891" electricity_abs="0"
            CO_normed="35.859188" CO2_normed="2942.728261" HC_normed="0.230325" PMx_normed="0.039080" NOx_normed="1.117018" fuel_normed="1.264965" electricity_normed="0"
            traveltime="0.96" CO_perVeh="19.078578" CO2_perVeh="1565.653674" HC_perVeh="0.122542" PMx_perVeh="0.020792" NOx_perVeh="0.594300" fuel_perVeh="0.673014" electricity_perVeh="0"/>
        <edge id=":1105984390_0" sampledSeconds="23.99" CO_abs="7.659148" CO2_abs="1050.501672" HC_abs="0.058765" PMx_abs="0.012310" NOx_abs="0.380464" fuel_abs="0.451569" electricity_abs="0"
            CO_normed="0.467085" CO2_normed="64.063661" HC_normed="0.003584" PMx_normed="0.000751" NOx_normed="0.023202" fuel_normed="0.027538" electricity_normed="0"
            traveltime="1.09" CO_perVeh="0.347339" CO2_perVeh="47.639735" HC_perVeh="0.002665" PMx_perVeh="0.000558" NOx_perVeh="0.017254" fuel_perVeh="0.020478" electricity_perVeh="0"/>
        <edge id=":1105984390_1" sampledSeconds="645.53" CO_abs="16199.903465" CO2_abs="2029995.460480" HC_abs="122.380395" PMx_abs="36.301279" NOx_abs="763.850969" fuel_abs="872.601747" electricity_abs="0"
            CO_normed="945.044684" CO2_normed="118422.706774" HC_normed="7.139236" PMx_normed="2.117687" NOx_normed="44.560346" fuel_normed="50.904479" electricity_normed="0"
            traveltime="0.64" CO_perVeh="15.948878" CO2_perVeh="1998.539645" HC_perVeh="0.120484" PMx_perVeh="0.035739" NOx_perVeh="0.752015" fuel_perVeh="0.859080" electricity_perVeh="0"/>
        <edge id=":1105984395_0" sampledSeconds="8.82" CO_abs="253.413925" CO2_abs="19018.204113" HC_abs="1.590203" PMx_abs="0.273856" NOx_abs="7.384840" fuel_abs="8.175173" electricity_abs="0"
            CO_normed="210.982916" CO2_normed="15833.842462" HC_normed="1.323944" PMx_normed="0.228002" NOx_normed="6.148341" fuel_normed="6.806342" electricity_normed="0"
            traveltime="0.09" CO_perVeh="2.569894" CO2_perVeh="192.865386" HC_perVeh="0.016126" PMx_perVeh="0.002777" NOx_perVeh="0.074890" fuel_perVeh="0.082905" electricity_perVeh="0"/>
        <edge id=":1105984398_0" sampledSeconds="22.37" CO_abs="1765.411286" CO2_abs="120760.701633" HC_abs="10.898283" PMx_abs="2.232399" NOx_abs="50.161960" fuel_abs="51.909615" electricity_abs="0"
            CO_normed="111.846974" CO2_normed="7650.749272" HC_normed="0.690457" PMx_normed="0.141433" NOx_normed="3.177992" fuel_normed="3.288714" electricity_normed="0"
            traveltime="1.07" CO_perVeh="84.742253" CO2_perVeh="5796.685465" HC_perVeh="0.523133" PMx_perVeh="0.107158" NOx_perVeh="2.407845" fuel_perVeh="2.491735" electricity_perVeh="0"/>
        <edge id=":1105984398_1" sampledSeconds="454.15" CO_abs="7612.370071" CO2_abs="895269.630847" HC_abs="55.251040" PMx_abs="12.694289" NOx_abs="337.879031" fuel_abs="384.838422" electricity_abs="0"
            CO_normed="466.833590" CO2_normed="54902.997650" HC_normed="3.388306" PMx_normed="0.778486" NOx_normed="20.720653" fuel_normed="23.600469" electricity_normed="0"
            traveltime="0.96" CO_perVeh="16.035756" CO2_perVeh="1885.920578" HC_perVeh="0.116388" PMx_perVeh="0.026741" NOx_perVeh="0.711755" fuel_perVeh="0.810677" electricity_perVeh="0"/>
        <edge id=":1106006327_0" sampledSeconds="161.30" CO_abs="21738.122091" CO2_abs="703279.279283" HC_abs="115.533626" PMx_abs="14.665384" NOx_abs="307.811959" fuel_abs="302.314999" electricity_abs="0"
            CO_normed="1879.286286" CO2_normed="60799.322929" HC_normed="9.988018" PMx_normed="1.267840" NOx_normed="26.610707" fuel_normed="26.135488" electricity_normed="0"
            traveltime="2.10" CO_perVeh="283.026836" CO2_perVeh="9156.582534" HC_perVeh="1.504229" PMx_perVeh="0.190941" NOx_perVeh="4.007662" fuel_perVeh="3.936092" electricity_perVeh="0"/>
        <edge id=":1106006327_1" sampledSeconds="162.57" CO_abs="21962.755905" CO2_abs="730059.720096" HC_abs="117.206024" PMx_abs="15.223494" NOx_abs="319.467388" fuel_abs="313.826458" electricity_abs="0"
            CO_normed="1655.761460" CO2_normed="55038.846380" HC_normed="8.836105" PMx_normed="1.147692" NOx_normed="24.084491" fuel_normed="23.659224" electricity_normed="0"
            traveltime="2.31" CO_perVeh="311.789627" CO2_perVeh="10364.138660" HC_perVeh="1.663891" PMx_perVeh="0.216117" NOx_perVeh="4.535251" fuel_perVeh="4.455171" electricity_perVeh="0"/>
        <edge id=":1106006327_2" sampledSeconds="0.00" CO_abs="0" CO2_abs="0" HC_abs="0" PMx_abs="0" NOx_abs="0" fuel_abs="0" electricity_abs="0"
            CO_normed="0" CO2_normed="0" HC_normed="0" PMx_normed="0" NOx_normed="0" fuel_normed="0" electricity_normed="0"/>
        <edge id=":1106006327_3" sampledSeconds="0.00" CO_abs="0" CO2_abs="0" HC_abs="0" PMx_abs="0" NOx_abs="0" fuel_abs="0" electricity_abs="0"
            CO_normed="0" CO2_normed="0" HC_normed="0" PMx_normed="0" NOx_normed="0" fuel_normed="0" electricity_normed="0"/>
        <edge id=":1107381198_0" sampledSeconds="0.00" CO_abs="0" CO2_abs="0" HC_abs="0" PMx_abs="0" NOx_abs="0" fuel_abs="0" electricity_abs="0"
            CO_normed="0" CO2_normed="0" HC_normed="0" PMx_normed="0" NOx_normed="0" fuel_normed="0" electricity_normed="0"/>
        <edge id=":1107381198_1" sampledSeconds="36.14" CO_abs="1171.418438" CO2_abs="51571.309493" HC_abs="6.541411" PMx_abs="0.973896" NOx_abs="21.884636" fuel_abs="22.168487" electricity_abs="0"
            CO_normed="97.846966" CO2_normed="4307.680321" HC_normed="0.546395" PMx_normed="0.081348" NOx_normed="1.827993" fuel_normed="1.851703" electricity_normed="0"
            traveltime="1.49" CO_perVeh="48.230545" CO2_perVeh="2123.333818" HC_perVeh="0.269328" PMx_perVeh="0.040098" NOx_perVeh="0.901051" fuel_perVeh="0.912738" electricity_perVeh="0"/>
        <edge id=":1110338277_0" sampledSeconds="96.67" CO_abs="1594.103975" CO2_abs="191991.935060" HC_abs="11.586092" PMx_abs="2.642187" NOx_abs="71.904041" fuel_abs="82.529265" electricity_abs="0"
            CO_normed="4360.770752" CO2_normed="525205.901380" HC_normed="31.694478" PMx_normed="7.227866" NOx_normed="196.697985" fuel_normed="225.763946" electricity_normed="0"
            traveltime="0.02" CO_perVeh="0.359261" CO2_perVeh="43.268922" HC_perVeh="0.002611" PMx_perVeh="0.000595" NOx_perVeh="0.016205" fuel_perVeh="0.018599" electricity_perVeh="0"/>
        <edge id=":1110338293_0" sampledSeconds="124.06" CO_abs="6200.183025" CO2_abs="424531.149146" HC_abs="38.201345" PMx_abs="7.417177" NOx_abs="173.606179" fuel_abs="182.487568" electricity_abs="0"
            CO_normed="15830.254531" CO2_normed="1083909.316968" HC_normed="97.535349" PMx_normed="18.937473" NOx_normed="443.249819" fuel_normed="465.925706" electricity_normed="0"
            traveltime="0.03" CO_perVeh="1.422115" CO2_perVeh="97.373252" HC_perVeh="0.008762" PMx_perVeh="0.001701" NOx_perVeh="0.039819" fuel_perVeh="0.041857" electricity_perVeh="0"/>
        <edge id=":1110338295_0" sampledSeconds="0.00" CO_abs="0" CO2_abs="0" HC_abs="0" PMx_abs="0" NOx_abs="0" fuel_abs="0" electricity_abs="0"
            CO_normed="0" CO2_normed="0" HC_normed="0" PMx_normed="0" NOx_normed="0" fuel_normed="0" electricity_normed="0"/>
        <edge id=":1110673403_0" sampledSeconds="143.54" CO_abs="2280.094497" CO2_abs="285942.200966" HC_abs="16.900604" PMx_abs="3.910219" NOx_abs="106.750868" fuel_abs="122.914526" electricity_abs="0"
            CO_normed="5821.517864" CO2_normed="730065.193955" HC_normed="43.150478" PMx_normed="9.983539" NOx_normed="272.555407" fuel_normed="313.824321" electricity_normed="0"
            traveltime="0.02" CO_perVeh="0.366085" CO2_perVeh="45.910049" HC_perVeh="0.002714" PMx_perVeh="0.000628" NOx_perVeh="0.017140" fuel_perVeh="0.019735" electricity_perVeh="0"/>
        <edge id=":1110673412_0" sampledSeconds="252.36" CO_abs="44590.112737" CO2_abs="3048834.392973" HC_abs="277.644219" PMx_abs="66.912121" NOx_abs="1309.667377" fuel_abs="1310.543797" electricity_abs="0"
            CO_normed="117772.858293" CO2_normed="8052680.715115" HC_normed="733.322956" PMx_normed="176.730475" NOx_normed="3459.136138" fuel_normed="3461.450968" electricity_normed="0"
            traveltime="0.02" CO_perVeh="2.749579" CO2_perVeh="188.001589" HC_perVeh="0.017120" PMx_perVeh="0.004126" NOx_perVeh="0.080759" fuel_perVeh="0.080813" electricity_perVeh="0"/>
        <edge id=":1110673414_0" sampledSeconds="0.00" CO_abs="0" CO2_abs="0" HC_abs="0" PMx_abs="0" NOx_abs="0" fuel_abs="0" electricity_abs="0"
            CO_normed="0" CO2_normed="0" HC_normed="0" PMx_normed="0" NOx_normed="0" fuel_normed="0" electricity_normed="0"/>
        <edge id=":1110673414_1" sampledSeconds="230.78" CO_abs="14987.613072" CO2_abs="574872.134099" HC_abs="81.618059" PMx_abs="10.739064" NOx_abs="243.523734" fuel_abs="247.116818" electricity_abs="0"
            CO_normed="1271.303859" CO2_normed="48762.745523" HC_normed="6.923141" PMx_normed="0.910926" NOx_normed="20.656569" fuel_normed="20.961347" electricity_normed="0"
            traveltime="1.59" CO_perVeh="103.382588" CO2_perVeh="3965.392538" HC_perVeh="0.562991" PMx_perVeh="0.074077" NOx_perVeh="1.679795" fuel_perVeh="1.704579" electricity_perVeh="0"/>
        <edge id=":1110673417_0" sampledSeconds="29.82" CO_abs="463.649328" CO2_abs="51755.246238" HC_abs="3.310696" PMx_abs="0.738988" NOx_abs="19.626988" fuel_abs="22.247392" electricity_abs="0"
            CO_normed="1268.341627" CO2_normed="141579.700956" HC_normed="9.056614" PMx_normed="2.021547" NOx_normed="53.690849" fuel_normed="60.859127" electricity_normed="0"
            traveltime="0.02" CO_perVeh="0.344132" CO2_perVeh="38.414059" HC_perVeh="0.002457" PMx_perVeh="0.000548" NOx_perVeh="0.014568" fuel_perVeh="0.016513" electricity_perVeh="0"/>
        <edge id=":1110673446_0" sampledSeconds="334.84" CO_abs="3176.988831" CO2_abs="251812.724718" HC_abs="20.463199" PMx_abs="4.671300" NOx_abs="103.425331" fuel_abs="108.242684" electricity_abs="0"
            CO_normed="8111.460845" CO2_normed="642926.105663" HC_normed="52.246466" PMx_normed="11.926723" NOx_normed="264.064675" fuel_normed="276.364300" electricity_normed="0"
            traveltime="0.02" CO_perVeh="0.216685" CO2_perVeh="17.174772" HC_perVeh="0.001396" PMx_perVeh="0.000319" NOx_perVeh="0.007054" fuel_perVeh="0.007383" electricity_perVeh="0"/>
        <edge id=":1110673451_0" sampledSeconds="37.60" CO_abs="332.469312" CO2_abs="25470.667757" HC_abs="2.090976" PMx_abs="0.327088" NOx_abs="9.619593" fuel_abs="10.948888" electricity_abs="0"
            CO_normed="943.175352" CO2_normed="72257.213494" HC_normed="5.931847" PMx_normed="0.927911" NOx_normed="27.289625" fuel_normed="31.060674" electricity_normed="0"
            traveltime="0.03" CO_perVeh="0.238424" CO2_perVeh="18.265818" HC_perVeh="0.001500" PMx_perVeh="0.000235" NOx_perVeh="0.006899" fuel_perVeh="0.007852" electricity_perVeh="0"/>
        <edge id=":1110673464_0" sampledSeconds="323.11" CO_abs="443.272314" CO2_abs="36123.845824" HC_abs="2.844782" PMx_abs="0.496083" NOx_abs="13.796385" fuel_abs="15.528223" electricity_abs="0"
            CO_normed="24.045873" CO2_normed="1959.584187" HC_normed="0.154319" PMx_normed="0.026911" NOx_normed="0.748403" fuel_normed="0.842348" electricity_normed="0"
            traveltime="1.17" CO_perVeh="1.602371" CO2_perVeh="130.582937" HC_perVeh="0.010284" PMx_perVeh="0.001793" NOx_perVeh="0.049872" fuel_perVeh="0.056132" electricity_perVeh="0"/>
        <edge id=":1110673464_1" sampledSeconds="709.19" CO_abs="15962.212497" CO2_abs="2061861.048551" HC_abs="121.890988" PMx_abs="36.450509" NOx_abs="772.710340" fuel_abs="886.299543" electricity_abs="0"
            CO_normed="848.464645" CO2_normed="109597.350758" HC_normed="6.479064" PMx_normed="1.937511" NOx_normed="41.073091" fuel_normed="47.110877" electricity_normed="0"
            traveltime="0.70" CO_perVeh="15.764418" CO2_perVeh="2036.311705" HC_perVeh="0.120381" PMx_perVeh="0.035999" NOx_perVeh="0.763135" fuel_perVeh="0.875317" electricity_perVeh="0"/>
        <edge id=":1110673479_0" sampledSeconds="133.55" CO_abs="6574.200516" CO2_abs="454911.906081" HC_abs="40.646835" PMx_abs="8.080989" NOx_abs="186.809592" fuel_abs="195.546686" electricity_abs="0"
            CO_normed="16785.192807" CO2_normed="1161477.207017" HC_normed="103.779154" PMx_normed="20.632313" NOx_normed="476.960660" fuel_normed="499.268135" electricity_normed="0"
            traveltime="0.03" CO_perVeh="1.384933" CO2_perVeh="95.832570" HC_perVeh="0.008563" PMx_perVeh="0.001702" NOx_perVeh="0.039354" fuel_perVeh="0.041194" electricity_perVeh="0"/>
        <edge id=":1110673511_0" sampledSeconds="11.80" CO_abs="160.675859" CO2_abs="21892.528329" HC_abs="1.228937" PMx_abs="0.283581" NOx_abs="8.056867" fuel_abs="9.410691" electricity_abs="0"
            CO_normed="410.236236" CO2_normed="55895.817010" HC_normed="3.137711" PMx_normed="0.724036" NOx_normed="20.570725" fuel_normed="24.027296" electricity_normed="0"
            traveltime="0.02" CO_perVeh="0.318170" CO2_perVeh="43.351541" HC_perVeh="0.002434" PMx_perVeh="0.000562" NOx_perVeh="0.015954" fuel_perVeh="0.018635" electricity_perVeh="0"/>
        <edge id=":1110673517_0" sampledSeconds="17.39" CO_abs="647.278820" CO2_abs="46118.229424" HC_abs="4.025486" PMx_abs="0.774062" NOx_abs="18.623707" fuel_abs="19.824260" electricity_abs="0"
            CO_normed="1652.626774" CO2_normed="117748.670870" HC_normed="10.277836" PMx_normed="1.976327" NOx_normed="47.549891" fuel_normed="50.615132" electricity_normed="0"
            traveltime="0.03" CO_perVeh="1.039249" CO2_perVeh="74.045859" HC_perVeh="0.006463" PMx_perVeh="0.001243" NOx_perVeh="0.029902" fuel_perVeh="0.031829" electricity_perVeh="0"/>
        <edge id=":1110673534_0" sampledSeconds="476.03" CO_abs="3241.047822" CO2_abs="283538.074691" HC_abs="21.261295" PMx_abs="3.925949" NOx_abs="108.237928" fuel_abs="121.881659" electricity_abs="0"
            CO_normed="160.368522" CO2_normed="14029.593008" HC_normed="1.052019" PMx_normed="0.194258" NOx_normed="5.355662" fuel_normed="6.030760" electricity_normed="0"
            traveltime="1.43" CO_perVeh="9.763978" CO2_perVeh="854.186578" HC_perVeh="0.064052" PMx_perVeh="0.011827" NOx_perVeh="0.326077" fuel_perVeh="0.367181" electricity_perVeh="0"/>
        <edge id=":1110673534_1" sampledSeconds="184.19" CO_abs="2932.593839" CO2_abs="382352.557029" HC_abs="22.092333" PMx_abs="5.148914" NOx_abs="141.950593" fuel_abs="164.357340" electricity_abs="0"
            CO_normed="141.095609" CO2_normed="18396.092234" HC_normed="1.062926" PMx_normed="0.247729" NOx_normed="6.829655" fuel_normed="7.907709" electricity_normed="0"
            traveltime="1.22" CO_perVeh="19.471370" CO2_perVeh="2538.683711" HC_perVeh="0.146685" PMx_perVeh="0.034187" NOx_perVeh="0.942501" fuel_perVeh="1.091274" electricity_perVeh="0"/>
        <edge id=":1110673549_0" sampledSeconds="60.41" CO_abs="37.592523" CO2_abs="2383.956507" HC_abs="0.224977" PMx_abs="0.031066" NOx_abs="0.910049" fuel_abs="1.024778" electricity_abs="0"
            CO_normed="1.801894" CO2_normed="114.268413" HC_normed="0.010784" PMx_normed="0.001489" NOx_normed="0.043621" fuel_normed="0.049120" electricity_normed="0"
            traveltime="1.26" CO_perVeh="0.783208" CO2_perVeh="49.667703" HC_perVeh="0.004687" PMx_perVeh="0.000647" NOx_perVeh="0.018960" fuel_perVeh="0.021350" electricity_perVeh="0"/>
        <edge id=":1110673549_1" sampledSeconds="639.06" CO_abs="13302.889749" CO2_abs="1825293.253777" HC_abs="104.059527" PMx_abs="31.709061" NOx_abs="677.848180" fuel_abs="784.610303" electricity_abs="0"
            CO_normed="616.794641" CO2_normed="84630.566607" HC_normed="4.824768" PMx_normed="1.470205" NOx_normed="31.428745" fuel_normed="36.378820" electricity_normed="0"
            traveltime="0.80" CO_perVeh="16.745703" CO2_perVeh="2297.682612" HC_perVeh="0.130990" PMx_perVeh="0.039915" NOx_perVeh="0.853277" fuel_perVeh="0.987669" electricity_perVeh="0"/>
        <edge id=":1110673556_0" sampledSeconds="420.43" CO_abs="51964.901968" CO2_abs="2593743.122825" HC_abs="298.288158" PMx_abs="52.359412" NOx_abs="1117.309370" fuel_abs="1114.938047" electricity_abs="0"
            CO_normed="1847.002489" CO2_normed="92190.109514" HC_normed="10.602136" PMx_normed="1.861025" NOx_normed="39.712827" fuel_normed="39.628543" electricity_normed="0"
            traveltime="2.61" CO_perVeh="322.572773" CO2_perVeh="16100.692562" HC_perVeh="1.851627" PMx_perVeh="0.325022" NOx_perVeh="6.935712" fuel_perVeh="6.920992" electricity_perVeh="0"/>
        <edge id=":1110673556_2" sampledSeconds="251.11" CO_abs="24434.001953" CO2_abs="1043755.224880" HC_abs="135.755101" PMx_abs="20.093672" NOx_abs="444.908185" fuel_abs="448.669592" electricity_abs="0"
            CO_normed="908.074030" CO2_normed="38790.494282" HC_normed="5.045251" PMx_normed="0.746768" NOx_normed="16.534728" fuel_normed="16.674518" electricity_normed="0"
            traveltime="3.05" CO_perVeh="296.380812" CO2_perVeh="12660.595724" HC_perVeh="1.646689" PMx_perVeh="0.243733" NOx_perVeh="5.396670" fuel_perVeh="5.442295" electricity_perVeh="0"/>
        <edge id=":1110673556_3" sampledSeconds="367.25" CO_abs="32296.019499" CO2_abs="1152454.237460" HC_abs="173.933269" PMx_abs="22.250521" NOx_abs="493.126134" fuel_abs="495.399349" electricity_abs="0"
            CO_normed="2730.394772" CO2_normed="97431.667250" HC_normed="14.704799" PMx_normed="1.881121" NOx_normed="41.690247" fuel_normed="41.882431" electricity_normed="0"
            traveltime="1.75" CO_perVeh="153.533953" CO2_perVeh="5478.720205" HC_perVeh="0.826872" PMx_perVeh="0.105778" NOx_perVeh="2.344301" fuel_perVeh="2.355108" electricity_perVeh="0"/>
        <edge id=":1110673556_4" sampledSeconds="177.24" CO_abs="17935.441807" CO2_abs="719527.729401" HC_abs="98.559836" PMx_abs="14.085617" NOx_abs="308.664287" fuel_abs="309.297389" electricity_abs="0"
            CO_normed="926.350992" CO2_normed="37163.022422" HC_normed="5.090535" PMx_normed="0.727511" NOx_normed="15.942260" fuel_normed="15.974959" electricity_normed="0"
            traveltime="2.40" CO_perVeh="242.579843" CO2_perVeh="9731.732591" HC_perVeh="1.333038" PMx_perVeh="0.190510" NOx_perVeh="4.174736" fuel_perVeh="4.183299" electricity_perVeh="0"/>
        <edge id=":1110673556_5" sampledSeconds="23.64" CO_abs="1814.057215" CO2_abs="76539.995411" HC_abs="10.043772" PMx_abs="1.413233" NOx_abs="32.267548" fuel_abs="32.901662" electricity_abs="0"
            CO_normed="130.591225" CO2_normed="5509.998070" HC_normed="0.723036" PMx_normed="0.101736" NOx_normed="2.322892" fuel_normed="2.368541" electricity_normed="0"
            traveltime="1.63" CO_perVeh="125.416301" CO2_perVeh="5291.654004" HC_perVeh="0.694384" PMx_perVeh="0.097705" NOx_perVeh="2.230843" fuel_perVeh="2.274683" electricity_perVeh="0"/>
        <edge id=":1110673556_6" sampledSeconds="312.34" CO_abs="37732.429652" CO2_abs="1916122.179662" HC_abs="217.385618" PMx_abs="38.614041" NOx_abs="824.444370" fuel_abs="823.657691" electricity_abs="0"
            CO_normed="1374.949357" CO2_normed="69822.457303" HC_normed="7.921415" PMx_normed="1.407075" NOx_normed="30.042308" fuel_normed="30.013641" electricity_normed="0"
            traveltime="2.47" CO_perVeh="298.810490" CO2_perVeh="15174.146282" HC_perVeh="1.721519" PMx_perVeh="0.305792" NOx_perVeh="6.528936" fuel_perVeh="6.522706" electricity_perVeh="0"/>
        <edge id=":1110673561_0" sampledSeconds="100.43" CO_abs="10807.536306" CO2_abs="752088.079449" HC_abs="67.352887" PMx_abs="15.570127" NOx_abs="320.699621" fuel_abs="323.286513" electricity_abs="0"
            CO_normed="494.806510" CO2_normed="34433.201740" HC_normed="3.083649" PMx_normed="0.712854" NOx_normed="14.682741" fuel_normed="14.801178" electricity_normed="0"
            traveltime="1.19" CO_perVeh="127.539418" CO2_perVeh="8875.369314" HC_perVeh="0.794829" PMx_perVeh="0.183743" NOx_perVeh="3.784567" fuel_perVeh="3.815095" electricity_perVeh="0"/>
        <edge id=":1110673561_1" sampledSeconds="1316.37" CO_abs="122278.910406" CO2_abs="8446139.820940" HC_abs="761.238166" PMx_abs="176.840284" NOx_abs="3613.661825" fuel_abs="3630.587391" electricity_abs="0"
            CO_normed="5458.067716" CO2_normed="377003.711692" HC_normed="33.978790" PMx_normed="7.893481" NOx_normed="161.300186" fuel_normed="162.055679" electricity_normed="0"
            traveltime="1.19" CO_perVeh="110.957245" CO2_perVeh="7664.121311" HC_perVeh="0.690756" PMx_perVeh="0.160467" NOx_perVeh="3.279077" fuel_perVeh="3.294435" electricity_perVeh="0"/>
        <edge id=":1110673562_0" sampledSeconds="103.82" CO_abs="2323.935452" CO2_abs="185316.004303" HC_abs="14.812182" PMx_abs="2.520368" NOx_abs="70.738127" fuel_abs="79.660141" electricity_abs="0"
            CO_normed="6592.724688" CO2_normed="525719.161143" HC_normed="42.020374" PMx_normed="7.149979" NOx_normed="200.675537" fuel_normed="225.986216" electricity_normed="0"
            traveltime="0.03" CO_perVeh="0.592382" CO2_perVeh="47.237893" HC_perVeh="0.003776" PMx_perVeh="0.000642" NOx_perVeh="0.018031" fuel_perVeh="0.020306" electricity_perVeh="0"/>
        <edge id=":1110673564_0" sampledSeconds="28.54" CO_abs="502.928519" CO2_abs="60247.125357" HC_abs="3.672524" PMx_abs="0.818514" NOx_abs="22.527980" fuel_abs="25.897728" electricity_abs="0"
            CO_normed="3852.218445" CO2_normed="461467.343158" HC_normed="28.129971" PMx_normed="6.269470" NOx_normed="172.554738" fuel_normed="198.365573" electricity_normed="0"
            traveltime="7.846468e-03" CO_perVeh="0.138262" CO2_perVeh="16.562784" HC_perVeh="0.001010" PMx_perVeh="0.000225" NOx_perVeh="0.006193" fuel_perVeh="0.007120" electricity_perVeh="0"/>
        <edge id=":1110673588_0" sampledSeconds="11.70" CO_abs="184.145136" CO2_abs="20633.636115" HC_abs="1.318433" PMx_abs="0.302262" NOx_abs="7.858919" fuel_abs="8.869517" electricity_abs="0"
            CO_normed="564.189354" CO2_normed="63217.948949" HC_normed="4.039455" PMx_normed="0.926079" NOx_normed="24.078391" fuel_normed="27.174690" electricity_normed="0"
            traveltime="0.02" CO_perVeh="0.306909" CO2_perVeh="34.389394" HC_perVeh="0.002197" PMx_perVeh="0.000504" NOx_perVeh="0.013098" fuel_perVeh="0.014783" electricity_perVeh="0"/>
        <edge id=":1110673601_0" sampledSeconds="29.65" CO_abs="599.448395" CO2_abs="63168.846558" HC_abs="4.198861" PMx_abs="0.937589" NOx_abs="24.222828" fuel_abs="27.153586" electricity_abs="0"
            CO_normed="1639.828435" CO2_normed="172802.315812" HC_normed="11.486247" PMx_normed="2.564834" NOx_normed="66.263057" fuel_normed="74.280328" electricity_normed="0"
            traveltime="0.02" CO_perVeh="0.444919" CO2_perVeh="46.884764" HC_perVeh="0.003116" PMx_perVeh="0.000696" NOx_perVeh="0.017979" fuel_perVeh="0.020154" electricity_perVeh="0"/>
        <edge id=":1110673617_0" sampledSeconds="238.11" CO_abs="5868.636765" CO2_abs="716296.514859" HC_abs="43.865320" PMx_abs="12.880325" NOx_abs="270.786222" fuel_abs="307.902887" electricity_abs="0"
            CO_normed="14983.753442" CO2_normed="1828842.165598" HC_normed="111.996562" PMx_normed="32.885937" NOx_normed="691.369077" fuel_normed="786.135030" electricity_normed="0"
            traveltime="0.01" CO_perVeh="0.359757" CO2_perVeh="43.910136" HC_perVeh="0.002689" PMx_perVeh="0.000790" NOx_perVeh="0.016600" fuel_perVeh="0.018875" electricity_perVeh="0"/>
        <edge id=":1110673621_0" sampledSeconds="25.88" CO_abs="548.797874" CO2_abs="59302.626881" HC_abs="3.842909" PMx_abs="0.854057" NOx_abs="22.543220" fuel_abs="25.491689" electricity_abs="0"
            CO_normed="1681.423273" CO2_normed="181693.154699" HC_normed="11.774020" PMx_normed="2.616685" NOx_normed="69.068590" fuel_normed="78.102196" electricity_normed="0"
            traveltime="0.02" CO_perVeh="0.415756" CO2_perVeh="44.926232" HC_perVeh="0.002911" PMx_perVeh="0.000647" NOx_perVeh="0.017078" fuel_perVeh="0.019312" electricity_perVeh="0"/>
        <edge id=":1110673630_0" sampledSeconds="54.32" CO_abs="241.378678" CO2_abs="22313.894553" HC_abs="1.612070" PMx_abs="0.310600" NOx_abs="8.501308" fuel_abs="9.591838" electricity_abs="0"
            CO_normed="13.187289" CO2_normed="1219.079437" HC_normed="0.088073" PMx_normed="0.016969" NOx_normed="0.464454" fuel_normed="0.524033" electricity_normed="0"
            traveltime="1.27" CO_perVeh="5.634205" CO2_perVeh="520.845767" HC_perVeh="0.037629" PMx_perVeh="0.007250" NOx_perVeh="0.198436" fuel_perVeh="0.223890" electricity_perVeh="0"/>
        <edge id=":1110673630_1" sampledSeconds="7.46" CO_abs="0" CO2_abs="0" HC_abs="0" PMx_abs="0" NOx_abs="0" fuel_abs="0" electricity_abs="0"
            CO_normed="0" CO2_normed="0" HC_normed="0" PMx_normed="0" NOx_normed="0" fuel_normed="0" electricity_normed="0"
            traveltime="1.06" CO_perVeh="0" CO2_perVeh="0" HC_perVeh="0" PMx_perVeh="0" NOx_perVeh="0" fuel_perVeh="0" electricity_perVeh="0"/>
        <edge id=":1110673650_0" sampledSeconds="143.04" CO_abs="2146.662877" CO2_abs="280591.160849" HC_abs="16.176432" PMx_abs="3.789928" NOx_abs="104.258731" fuel_abs="120.614355" electricity_abs="0"
            CO_normed="5480.841388" CO2_normed="716402.963870" HC_normed="41.301530" PMx_normed="9.676411" NOx_normed="266.192504" fuel_normed="307.951544" electricity_normed="0"
            traveltime="0.02" CO_perVeh="0.344661" CO2_perVeh="45.050762" HC_perVeh="0.002597" PMx_perVeh="0.000608" NOx_perVeh="0.016739" fuel_perVeh="0.019365" electricity_perVeh="0"/>
        <edge id=":1110673655_0" sampledSeconds="44.88" CO_abs="807.217116" CO2_abs="88975.268729" HC_abs="5.695879" PMx_abs="1.226517" NOx_abs="33.488378" fuel_abs="38.246772" electricity_abs="0"
            CO_normed="2060.979870" CO2_normed="227170.898883" HC_normed="14.542670" PMx_normed="3.131533" NOx_normed="85.502241" fuel_normed="97.651333" electricity_normed="0"
            traveltime="0.02" CO_perVeh="0.432013" CO2_perVeh="47.618554" HC_perVeh="0.003048" PMx_perVeh="0.000656" NOx_perVeh="0.017923" fuel_perVeh="0.020469" electricity_perVeh="0"/>
        <edge id=":1110673663_0" sampledSeconds="108.25" CO_abs="1983.274140" CO2_abs="241378.849963" HC_abs="14.586917" PMx_abs="3.327406" NOx_abs="90.391614" fuel_abs="103.758624" electricity_abs="0"
            CO_normed="92.741367" CO2_normed="11287.297169" HC_normed="0.682110" PMx_normed="0.155595" NOx_normed="4.226870" fuel_normed="4.851935" electricity_normed="0"
            traveltime="1.27" CO_perVeh="23.294627" CO2_perVeh="2835.125118" HC_perVeh="0.171331" PMx_perVeh="0.039082" NOx_perVeh="1.061698" fuel_perVeh="1.218701" electricity_perVeh="0"/>
        <edge id=":1110673663_1" sampledSeconds="154.60" CO_abs="2422.041667" CO2_abs="309466.815074" HC_abs="18.144003" PMx_abs="4.284198" NOx_abs="115.638469" fuel_abs="133.026682" electricity_abs="0"
            CO_normed="113.397363" CO2_normed="14488.900461" HC_normed="0.849483" PMx_normed="0.200581" NOx_normed="5.414068" fuel_normed="6.228165" electricity_normed="0"
            traveltime="1.25" CO_perVeh="19.588289" CO2_perVeh="2502.816355" HC_perVeh="0.146740" PMx_perVeh="0.034648" NOx_perVeh="0.935227" fuel_perVeh="1.075855" electricity_perVeh="0"/>
        <edge id=":1110673666_0" sampledSeconds="191.71" CO_abs="4090.790888" CO2_abs="329423.016546" HC_abs="26.132083" PMx_abs="4.385502" NOx_abs="125.102091" fuel_abs="141.606254" electricity_abs="0"