<?xml version="1.0" encoding="UTF-8"?>

<!-- generated on Tue Nov 10 05:35:00 2020 by Eclipse SUMO sumo Version 1.7.0
<configuration xmlns:xsi="http://www.w3.org/2001/XMLSchema-instance" xsi:noNamespaceSchemaLocation="http://sumo.dlr.de/xsd/sumoConfiguration.xsd">

    <input>
        <net-file value="../dataSets/Porto/8AM9AM_Routing_SaoBento/Porto.net.xml"/>
        <route-files value="../results/Porto/8AM9AM_Routing_SaoBento/cost_hc-ttime/solution5/Porto.rou.xml"/>
        <additional-files value="moreOutputInfo.xml"/>
    </input>

    <output>
        <emission-output.precision value="6"/>
        <tripinfo-output value="../results/Porto/8AM9AM_Routing_SaoBento/cost_hc-ttime/solution5/Porto-tripinfo"/>
    </output>

    <processing>
        <collision.action value="warn"/>
        <time-to-teleport value="-1"/>
    </processing>

    <emissions>
        <device.emissions.probability value="1"/>
    </emissions>

    <gui_only>
        <quit-on-end value="true"/>
        <start value="true"/>
    </gui_only>

</configuration>
-->

<meandata xmlns:xsi="http://www.w3.org/2001/XMLSchema-instance" xsi:noNamespaceSchemaLocation="http://sumo.dlr.de/xsd/meandata_file.xsd">
    <interval begin="0.00" end="8562.00" id="emissions-detector">
        <edge id=":1092997347_0" sampledSeconds="594.96" CO_abs="72044.869054" CO2_abs="3068521.764983" HC_abs="400.606428" PMx_abs="61.916623" NOx_abs="1326.628776" fuel_abs="1319.033428" electricity_abs="0"
            CO_normed="68845.832694" CO2_normed="2932268.998837" HC_normed="382.818145" PMx_normed="59.167315" NOx_normed="1267.721962" fuel_normed="1260.463873" electricity_normed="0"
            traveltime="0.07" CO_perVeh="8.257865" CO2_perVeh="351.717470" HC_perVeh="0.045918" PMx_perVeh="0.007097" NOx_perVeh="0.152060" fuel_perVeh="0.151189" electricity_perVeh="0"/>
        <edge id=":1103427051_0" sampledSeconds="19.19" CO_abs="1631.936170" CO2_abs="93342.701021" HC_abs="9.649016" PMx_abs="1.834672" NOx_abs="39.817959" fuel_abs="40.123872" electricity_abs="0"
            CO_normed="2366.096470" CO2_normed="135334.849123" HC_normed="13.989826" PMx_normed="2.660038" NOx_normed="57.730893" fuel_normed="58.174427" electricity_normed="0"
            traveltime="0.03" CO_perVeh="2.537867" CO2_perVeh="145.159713" HC_perVeh="0.015005" PMx_perVeh="0.002853" NOx_perVeh="0.061922" fuel_perVeh="0.062398" electricity_perVeh="0"/>
        <edge id=":1105984386_0" sampledSeconds="10.68" CO_abs="129.117726" CO2_abs="9847.135609" HC_abs="0.807934" PMx_abs="0.110527" NOx_abs="3.617026" fuel_abs="4.232940" electricity_abs="0"
            CO_normed="5.591057" CO2_normed="426.400756" HC_normed="0.034985" PMx_normed="0.004786" NOx_normed="0.156624" fuel_normed="0.183295" electricity_normed="0"
            traveltime="1.02" CO_perVeh="12.386219" CO2_perVeh="944.632353" HC_perVeh="0.077505" PMx_perVeh="0.010603" NOx_perVeh="0.346980" fuel_perVeh="0.406065" electricity_perVeh="0"/>
        <edge id=":1105984390_0" sampledSeconds="10.91" CO_abs="28.076108" CO2_abs="1905.075223" HC_abs="0.171969" PMx_abs="0.030301" NOx_abs="0.761535" fuel_abs="0.818914" electricity_abs="0"
            CO_normed="0.939885" CO2_normed="63.774897" HC_normed="0.005757" PMx_normed="0.001014" NOx_normed="0.025493" fuel_normed="0.027414" electricity_normed="0"
            traveltime="1.13" CO_perVeh="2.910258" CO2_perVeh="197.472516" HC_perVeh="0.017826" PMx_perVeh="0.003141" NOx_perVeh="0.078938" fuel_perVeh="0.084885" electricity_perVeh="0"/>
        <edge id=":1105984390_1" sampledSeconds="2400.49" CO_abs="62550.101716" CO2_abs="7425765.057155" HC_abs="461.802326" PMx_abs="134.037144" NOx_abs="2825.727261" fuel_abs="3191.993444" electricity_abs="0"
            CO_normed="2003.044379" CO2_normed="237795.567813" HC_normed="14.788314" PMx_normed="4.292277" NOx_normed="90.488376" fuel_normed="102.217332" electricity_normed="0"
            traveltime="0.65" CO_perVeh="16.894396" CO2_perVeh="2005.653300" HC_perVeh="0.124730" PMx_perVeh="0.036203" NOx_perVeh="0.763211" fuel_perVeh="0.862138" electricity_perVeh="0"/>
        <edge id=":1105984395_0" sampledSeconds="4.23" CO_abs="102.924212" CO2_abs="7601.250105" HC_abs="0.638299" PMx_abs="0.085183" NOx_abs="2.795263" fuel_abs="3.267515" electricity_abs="0"
            CO_normed="47.038883" CO2_normed="3473.957270" HC_normed="0.291718" PMx_normed="0.038931" NOx_normed="1.277504" fuel_normed="1.493334" electricity_normed="0"
            traveltime="0.10" CO_perVeh="2.385746" CO2_perVeh="176.194258" HC_perVeh="0.014796" PMx_perVeh="0.001975" NOx_perVeh="0.064793" fuel_perVeh="0.075740" electricity_perVeh="0"/>
        <edge id=":1105984398_0" sampledSeconds="11.70" CO_abs="610.227431" CO2_abs="42199.134929" HC_abs="3.764823" PMx_abs="0.712339" NOx_abs="17.104766" fuel_abs="18.139614" electricity_abs="0"
            CO_normed="21.222312" CO2_normed="1467.589259" HC_normed="0.130932" PMx_normed="0.024774" NOx_normed="0.594865" fuel_normed="0.630854" electricity_normed="0"
            traveltime="1.23" CO_perVeh="64.038452" CO2_perVeh="4428.459202" HC_perVeh="0.395088" PMx_perVeh="0.074754" NOx_perVeh="1.795007" fuel_perVeh="1.903606" electricity_perVeh="0"/>
        <edge id=":1105984398_1" sampledSeconds="642.43" CO_abs="12840.660963" CO2_abs="1458565.045402" HC_abs="92.003308" PMx_abs="21.296334" NOx_abs="554.587581" fuel_abs="626.974616" electricity_abs="0"
            CO_normed="432.267136" CO2_normed="49101.034282" HC_normed="3.097193" PMx_normed="0.716918" NOx_normed="18.669599" fuel_normed="21.106431" electricity_normed="0"
            traveltime="0.95" CO_perVeh="19.020183" CO2_perVeh="2160.494285" HC_perVeh="0.136280" PMx_perVeh="0.031545" NOx_perVeh="0.821481" fuel_perVeh="0.928704" electricity_perVeh="0"/>
        <edge id=":1106006327_0" sampledSeconds="69.03" CO_abs="9274.504165" CO2_abs="295721.445602" HC_abs="49.185655" PMx_abs="6.163481" NOx_abs="129.398715" fuel_abs="127.120357" electricity_abs="0"
            CO_normed="440.133328" CO2_normed="14033.835317" HC_normed="2.334167" PMx_normed="0.292496" NOx_normed="6.140780" fuel_normed="6.032657" electricity_normed="0"
            traveltime="2.14" CO_perVeh="287.506060" CO2_perVeh="9167.250999" HC_perVeh="1.524736" PMx_perVeh="0.191066" NOx_perVeh="4.011310" fuel_perVeh="3.940682" electricity_perVeh="0"/>
        <edge id=":1106006327_1" sampledSeconds="679.64" CO_abs="92176.808290" CO2_abs="3092625.674495" HC_abs="492.622424" PMx_abs="64.558871" NOx_abs="1353.761824" fuel_abs="1329.407882" electricity_abs="0"
            CO_normed="3814.654731" CO2_normed="127985.546236" HC_normed="20.386738" PMx_normed="2.671711" NOx_normed="56.024222" fuel_normed="55.016356" electricity_normed="0"
            traveltime="2.28" CO_perVeh="309.415234" CO2_perVeh="10381.195829" HC_perVeh="1.653614" PMx_perVeh="0.216709" NOx_perVeh="4.544251" fuel_perVeh="4.462500" electricity_perVeh="0"/>
        <edge id=":1106006327_2" sampledSeconds="0.00" CO_abs="0" CO2_abs="0" HC_abs="0" PMx_abs="0" NOx_abs="0" fuel_abs="0" electricity_abs="0"
            CO_normed="0" CO2_normed="0" HC_normed="0" PMx_normed="0" NOx_normed="0" fuel_normed="0" electricity_normed="0"/>
        <edge id=":1106006327_3" sampledSeconds="0.00" CO_abs="0" CO2_abs="0" HC_abs="0" PMx_abs="0" NOx_abs="0" fuel_abs="0" electricity_abs="0"
            CO_normed="0" CO2_normed="0" HC_normed="0" PMx_normed="0" NOx_normed="0" fuel_normed="0" electricity_normed="0"/>
        <edge id=":1107381198_0" sampledSeconds="0.00" CO_abs="0" CO2_abs="0" HC_abs="0" PMx_abs="0" NOx_abs="0" fuel_abs="0" electricity_abs="0"
            CO_normed="0" CO2_normed="0" HC_normed="0" PMx_normed="0" NOx_normed="0" fuel_normed="0" electricity_normed="0"/>
        <edge id=":1107381198_1" sampledSeconds="104.30" CO_abs="4064.057147" CO2_abs="158723.580812" HC_abs="22.149177" PMx_abs="2.700900" NOx_abs="65.519461" fuel_abs="68.229890" electricity_abs="0"
            CO_normed="186.345002" CO2_normed="7277.787894" HC_normed="1.015583" PMx_normed="0.123842" NOx_normed="3.004196" fuel_normed="3.128474" electricity_normed="0"
            traveltime="1.56" CO_perVeh="60.846728" CO2_perVeh="2376.396349" HC_perVeh="0.331616" PMx_perVeh="0.040438" NOx_perVeh="0.980952" fuel_perVeh="1.021532" electricity_perVeh="0"/>
        <edge id=":1110338277_0" sampledSeconds="161.36" CO_abs="2628.657806" CO2_abs="312369.554477" HC_abs="19.158659" PMx_abs="4.352057" NOx_abs="117.428005" fuel_abs="134.274510" electricity_abs="0"
            CO_normed="3947.328771" CO2_normed="469070.309055" HC_normed="28.769636" PMx_normed="6.535275" NOx_normed="176.335977" fuel_normed="201.633562" electricity_normed="0"
            traveltime="0.02" CO_perVeh="0.356028" CO2_perVeh="42.307639" HC_perVeh="0.002595" PMx_perVeh="0.000589" NOx_perVeh="0.015905" fuel_perVeh="0.018186" electricity_perVeh="0"/>
        <edge id=":1110338293_0" sampledSeconds="6476.71" CO_abs="634289.798271" CO2_abs="11091379.636540" HC_abs="3147.627372" PMx_abs="264.715645" NOx_abs="5013.469825" fuel_abs="4767.997826" electricity_abs="0"
            CO_normed="888983.599539" CO2_normed="15545031.025284" HC_normed="4411.531005" PMx_normed="371.010015" NOx_normed="7026.587001" fuel_normed="6682.547759" electricity_normed="0"
            traveltime="0.43" CO_perVeh="42.385371" CO2_perVeh="741.163169" HC_perVeh="0.210335" PMx_perVeh="0.017689" NOx_perVeh="0.335017" fuel_perVeh="0.318614" electricity_perVeh="0"/>
        <edge id=":1110338295_0" sampledSeconds="0.00" CO_abs="0" CO2_abs="0" HC_abs="0" PMx_abs="0" NOx_abs="0" fuel_abs="0" electricity_abs="0"
            CO_normed="0" CO2_normed="0" HC_normed="0" PMx_normed="0" NOx_normed="0" fuel_normed="0" electricity_normed="0"/>
        <edge id=":1110673403_0" sampledSeconds="201.12" CO_abs="2801.517743" CO2_abs="350613.394812" HC_abs="20.791742" PMx_abs="4.739001" NOx_abs="130.630650" fuel_abs="150.714042" electricity_abs="0"
            CO_normed="3926.443929" CO2_normed="491399.291958" HC_normed="29.140494" PMx_normed="6.641907" NOx_normed="183.084303" fuel_normed="211.232015" electricity_normed="0"
            traveltime="0.02" CO_perVeh="0.323788" CO2_perVeh="40.522410" HC_perVeh="0.002403" PMx_perVeh="0.000548" NOx_perVeh="0.015098" fuel_perVeh="0.017419" electricity_perVeh="0"/>
        <edge id=":1110673412_0" sampledSeconds="952.05" CO_abs="167778.388002" CO2_abs="11466505.220757" HC_abs="1044.541181" PMx_abs="251.816046" NOx_abs="4925.849549" fuel_abs="4928.885933" electricity_abs="0"
            CO_normed="243256.972190" CO2_normed="16624950.178707" HC_normed="1514.449675" PMx_normed="365.100712" NOx_normed="7141.845031" fuel_normed="7146.247395" electricity_normed="0"
            traveltime="0.02" CO_perVeh="2.738300" CO2_perVeh="187.144096" HC_perVeh="0.017048" PMx_perVeh="0.004110" NOx_perVeh="0.080394" fuel_perVeh="0.080444" electricity_perVeh="0"/>
        <edge id=":1110673414_0" sampledSeconds="0.00" CO_abs="0" CO2_abs="0" HC_abs="0" PMx_abs="0" NOx_abs="0" fuel_abs="0" electricity_abs="0"
            CO_normed="0" CO2_normed="0" HC_normed="0" PMx_normed="0" NOx_normed="0" fuel_normed="0" electricity_normed="0"/>
        <edge id=":1110673414_1" sampledSeconds="7.23" CO_abs="433.798604" CO2_abs="16623.186886" HC_abs="2.358170" PMx_abs="0.291039" NOx_abs="6.917533" fuel_abs="7.145739" electricity_abs="0"
            CO_normed="20.198898" CO2_normed="774.022908" HC_normed="0.109803" PMx_normed="0.013552" NOx_normed="0.322100" fuel_normed="0.332726" electricity_normed="0"
            traveltime="1.58" CO_perVeh="94.755718" CO2_perVeh="3631.044450" HC_perVeh="0.515101" PMx_perVeh="0.063572" NOx_perVeh="1.511014" fuel_perVeh="1.560862" electricity_perVeh="0"/>
        <edge id=":1110673417_0" sampledSeconds="28.96" CO_abs="488.780592" CO2_abs="59210.631010" HC_abs="3.552745" PMx_abs="0.800059" NOx_abs="22.077077" fuel_abs="25.452182" electricity_abs="0"
            CO_normed="733.978264" CO2_normed="88913.751642" HC_normed="5.334986" PMx_normed="1.201410" NOx_normed="33.152083" fuel_normed="38.220315" electricity_normed="0"
            traveltime="0.02" CO_perVeh="0.372719" CO2_perVeh="45.150948" HC_perVeh="0.002709" PMx_perVeh="0.000610" NOx_perVeh="0.016835" fuel_perVeh="0.019409" electricity_perVeh="0"/>
        <edge id=":1110673446_0" sampledSeconds="1327.38" CO_abs="13807.892437" CO2_abs="1123594.789710" HC_abs="89.488905" PMx_abs="20.551649" NOx_abs="459.097101" fuel_abs="482.981776" electricity_abs="0"
            CO_normed="19352.336982" CO2_normed="1574764.947036" HC_normed="125.422431" PMx_normed="28.803994" NOx_normed="643.443730" fuel_normed="676.919098" electricity_normed="0"
            traveltime="0.02" CO_perVeh="0.236852" CO2_perVeh="19.273433" HC_perVeh="0.001535" PMx_perVeh="0.000353" NOx_perVeh="0.007875" fuel_perVeh="0.008285" electricity_perVeh="0"/>
        <edge id=":1110673451_0" sampledSeconds="36.40" CO_abs="439.343653" CO2_abs="31248.964415" HC_abs="2.719065" PMx_abs="0.462995" NOx_abs="12.228577" fuel_abs="13.432691" electricity_abs="0"
            CO_normed="684.176054" CO2_normed="48663.029533" HC_normed="4.234314" PMx_normed="0.721008" NOx_normed="19.043179" fuel_normed="20.918307" electricity_normed="0"
            traveltime="0.03" CO_perVeh="0.323699" CO2_perVeh="23.023578" HC_perVeh="0.002003" PMx_perVeh="0.000341" NOx_perVeh="0.009010" fuel_perVeh="0.009897" electricity_perVeh="0"/>
        <edge id=":1110673464_0" sampledSeconds="1035.81" CO_abs="4141.280340" CO2_abs="304170.776527" HC_abs="25.782320" PMx_abs="4.159351" NOx_abs="116.589161" fuel_abs="130.751393" electricity_abs="0"
            CO_normed="123.318210" CO2_normed="9057.535962" HC_normed="0.767741" PMx_normed="0.123856" NOx_normed="3.471768" fuel_normed="3.893489" electricity_normed="0"
            traveltime="1.23" CO_perVeh="4.910979" CO2_perVeh="360.704012" HC_perVeh="0.030574" PMx_perVeh="0.004932" NOx_perVeh="0.138258" fuel_perVeh="0.155053" electricity_perVeh="0"/>
        <edge id=":1110673464_1" sampledSeconds="2606.79" CO_abs="62231.460788" CO2_abs="7635191.328395" HC_abs="464.911345" PMx_abs="136.034755" NOx_abs="2892.774787" fuel_abs="3282.017153" electricity_abs="0"
            CO_normed="1815.822077" CO2_normed="222783.601721" HC_normed="13.565426" PMx_normed="3.969293" NOx_normed="84.406894" fuel_normed="95.764411" electricity_normed="0"
            traveltime="0.72" CO_perVeh="17.155680" CO2_perVeh="2104.834130" HC_perVeh="0.128165" PMx_perVeh="0.037501" NOx_perVeh="0.797467" fuel_perVeh="0.904771" electricity_perVeh="0"/>
        <edge id=":1110673479_0" sampledSeconds="134.42" CO_abs="6580.095270" CO2_abs="453540.394277" HC_abs="40.614476" PMx_abs="7.923285" NOx_abs="185.410924" fuel_abs="194.957356" electricity_abs="0"
            CO_normed="9222.277884" CO2_normed="635655.773338" HC_normed="56.922881" PMx_normed="11.104814" NOx_normed="259.861141" fuel_normed="273.240864" electricity_normed="0"
            traveltime="0.03" CO_perVeh="1.391092" CO2_perVeh="95.882540" HC_perVeh="0.008586" PMx_perVeh="0.001675" NOx_perVeh="0.039198" fuel_perVeh="0.041216" electricity_perVeh="0"/>
        <edge id=":1110673511_0" sampledSeconds="63.79" CO_abs="1037.292119" CO2_abs="117329.555866" HC_abs="7.391987" PMx_abs="1.592779" NOx_abs="43.961019" fuel_abs="50.435122" electricity_abs="0"
            CO_normed="1453.808155" CO2_normed="164442.264704" HC_normed="10.360179" PMx_normed="2.232346" NOx_normed="61.613202" fuel_normed="70.686927" electricity_normed="0"
            traveltime="0.02" CO_perVeh="0.397557" CO2_perVeh="44.968210" HC_perVeh="0.002833" PMx_perVeh="0.000610" NOx_perVeh="0.016849" fuel_perVeh="0.019330" electricity_perVeh="0"/>
        <edge id=":1110673517_0" sampledSeconds="183.21" CO_abs="8151.948818" CO2_abs="581409.730769" HC_abs="50.750817" PMx_abs="9.959987" NOx_abs="236.073946" fuel_abs="249.922935" electricity_abs="0"
            CO_normed="11425.296171" CO2_normed="814869.980055" HC_normed="71.129386" PMx_normed="13.959336" NOx_normed="330.867479" fuel_normed="350.277415" electricity_normed="0"
            traveltime="0.03" CO_perVeh="1.248129" CO2_perVeh="89.018536" HC_perVeh="0.007770" PMx_perVeh="0.001525" NOx_perVeh="0.036145" fuel_perVeh="0.038265" electricity_perVeh="0"/>
        <edge id=":1110673534_0" sampledSeconds="737.75" CO_abs="6022.694416" CO2_abs="499963.500257" HC_abs="38.843793" PMx_abs="6.759182" NOx_abs="190.266986" fuel_abs="214.914744" electricity_abs="0"
            CO_normed="163.586383" CO2_normed="13579.838993" HC_normed="1.055062" PMx_normed="0.183591" NOx_normed="5.167967" fuel_normed="5.837441" electricity_normed="0"
            traveltime="1.45" CO_perVeh="11.877750" CO2_perVeh="986.010745" HC_perVeh="0.076606" PMx_perVeh="0.013330" NOx_perVeh="0.375238" fuel_perVeh="0.423847" electricity_perVeh="0"/>
        <edge id=":1110673534_1" sampledSeconds="200.40" CO_abs="3285.223119" CO2_abs="400393.110789" HC_abs="24.106432" PMx_abs="5.504909" NOx_abs="149.776762" fuel_abs="172.112185" electricity_abs="0"
            CO_normed="86.765902" CO2_normed="10574.767076" HC_normed="0.636674" PMx_normed="0.145390" NOx_normed="3.955748" fuel_normed="4.545648" electricity_normed="0"
            traveltime="1.23" CO_perVeh="20.081535" CO2_perVeh="2447.477106" HC_perVeh="0.147355" PMx_perVeh="0.033650" NOx_perVeh="0.915538" fuel_perVeh="1.052068" electricity_perVeh="0"/>
        <edge id=":1110673549_0" sampledSeconds="652.41" CO_abs="1283.810726" CO2_abs="140131.470386" HC_abs="9.018346" PMx_abs="1.844668" NOx_abs="51.954161" fuel_abs="60.236866" electricity_abs="0"
            CO_normed="33.779367" CO2_normed="3687.110738" HC_normed="0.237289" PMx_normed="0.048537" NOx_normed="1.367007" fuel_normed="1.584940" electricity_normed="0"
            traveltime="1.30" CO_perVeh="2.550626" CO2_perVeh="278.407818" HC_perVeh="0.017917" PMx_perVeh="0.003665" NOx_perVeh="0.103221" fuel_perVeh="0.119676" electricity_perVeh="0"/>
        <edge id=":1110673549_1" sampledSeconds="3195.19" CO_abs="70494.888531" CO2_abs="9220717.844895" HC_abs="541.232465" PMx_abs="162.299822" NOx_abs="3449.910711" fuel_abs="3963.564385" electricity_abs="0"
            CO_normed="1794.216567" CO2_normed="234683.181455" HC_normed="13.775300" PMx_normed="4.130811" NOx_normed="87.806181" fuel_normed="100.879554" electricity_normed="0"
            traveltime="0.81" CO_perVeh="17.782398" CO2_perVeh="2325.934204" HC_perVeh="0.136526" PMx_perVeh="0.040940" NOx_perVeh="0.870243" fuel_perVeh="0.999813" electricity_perVeh="0"/>
        <edge id=":1110673556_0" sampledSeconds="466.31" CO_abs="56918.003913" CO2_abs="2736283.550651" HC_abs="324.133756" PMx_abs="55.142187" NOx_abs="1179.079988" fuel_abs="1176.211852" electricity_abs="0"
            CO_normed="1110.528386" CO2_normed="53387.686607" HC_normed="6.324181" PMx_normed="1.075880" NOx_normed="23.005055" fuel_normed="22.949094" electricity_normed="0"
            traveltime="2.75" CO_perVeh="335.526160" CO2_perVeh="16130.128434" HC_perVeh="1.910737" PMx_perVeh="0.325058" NOx_perVeh="6.950563" fuel_perVeh="6.933656" electricity_perVeh="0"/>
        <edge id=":1110673556_2" sampledSeconds="178.78" CO_abs="18058.129172" CO2_abs="761716.372871" HC_abs="100.139653" PMx_abs="14.894616" NOx_abs="326.280755" fuel_abs="327.431939" electricity_abs="0"
            CO_normed="368.402052" CO2_normed="15539.698064" HC_normed="2.042939" PMx_normed="0.303864" NOx_normed="6.656420" fuel_normed="6.679906" electricity_normed="0"
            traveltime="3.09" CO_perVeh="312.250858" CO2_perVeh="13171.164545" HC_perVeh="1.731558" PMx_perVeh="0.257549" NOx_perVeh="5.641860" fuel_perVeh="5.661766" electricity_perVeh="0"/>
        <edge id=":1110673556_3" sampledSeconds="349.81" CO_abs="35092.373899" CO2_abs="1223332.486028" HC_abs="188.416766" PMx_abs="24.253185" NOx_abs="527.555389" fuel_abs="525.867127" electricity_abs="0"
            CO_normed="1628.590239" CO2_normed="56773.228049" HC_normed="8.744171" PMx_normed="1.125558" NOx_normed="24.483142" fuel_normed="24.404792" electricity_normed="0"
            traveltime="1.82" CO_perVeh="182.716060" CO2_perVeh="6369.546064" HC_perVeh="0.981033" PMx_perVeh="0.126279" NOx_perVeh="2.746832" fuel_perVeh="2.738041" electricity_perVeh="0"/>
        <edge id=":1110673556_4" sampledSeconds="77.90" CO_abs="9141.682218" CO2_abs="352186.496469" HC_abs="49.908810" PMx_abs="7.031649" NOx_abs="152.016235" fuel_abs="151.391570" electricity_abs="0"
            CO_normed="259.186422" CO2_normed="9985.247327" HC_normed="1.415022" PMx_normed="0.199362" NOx_normed="4.309988" fuel_normed="4.292278" electricity_normed="0"
            traveltime="2.57" CO_perVeh="301.041762" CO2_perVeh="11597.738914" HC_perVeh="1.643531" PMx_perVeh="0.231557" NOx_perVeh="5.005997" fuel_perVeh="4.985427" electricity_perVeh="0"/>
        <edge id=":1110673556_5" sampledSeconds="21.98" CO_abs="1418.039296" CO2_abs="65326.030313" HC_abs="7.967391" PMx_abs="1.121308" NOx_abs="26.953577" fuel_abs="28.081222" electricity_abs="0"
            CO_normed="56.036876" CO2_normed="2581.498740" HC_normed="0.314849" PMx_normed="0.044311" NOx_normed="1.065129" fuel_normed="1.109690" electricity_normed="0"
            traveltime="1.52" CO_perVeh="98.037285" CO2_perVeh="4516.367528" HC_perVeh="0.550832" PMx_perVeh="0.077523" NOx_perVeh="1.863457" fuel_perVeh="1.941418" electricity_perVeh="0"/>
        <edge id=":1110673556_6" sampledSeconds="535.36" CO_abs="62098.117117" CO2_abs="3051907.415089" HC_abs="355.220418" PMx_abs="61.281364" NOx_abs="1313.214877" fuel_abs="1311.884318" electricity_abs="0"
            CO_normed="1242.147008" CO2_normed="61047.223989" HC_normed="7.105465" PMx_normed="1.225810" NOx_normed="26.268203" fuel_normed="26.241588" electricity_normed="0"
            traveltime="2.60" CO_perVeh="301.500088" CO2_perVeh="14817.685262" HC_perVeh="1.724674" PMx_perVeh="0.297535" NOx_perVeh="6.375949" fuel_perVeh="6.369488" electricity_perVeh="0"/>
        <edge id=":1110673561_0" sampledSeconds="104.29" CO_abs="9751.522585" CO2_abs="705413.649267" HC_abs="61.343211" PMx_abs="14.062794" NOx_abs="297.137999" fuel_abs="303.223936" electricity_abs="0"
            CO_normed="245.077684" CO2_normed="17728.630764" HC_normed="1.541693" PMx_normed="0.353430" NOx_normed="7.467746" fuel_normed="7.620699" electricity_normed="0"
            traveltime="1.23" CO_perVeh="115.077431" CO2_perVeh="8324.565736" HC_perVeh="0.723909" PMx_perVeh="0.165955" NOx_perVeh="3.506517" fuel_perVeh="3.578337" electricity_perVeh="0"/>
        <edge id=":1110673561_1" sampledSeconds="5246.03" CO_abs="488807.220841" CO2_abs="33908999.530257" HC_abs="3046.099866" PMx_abs="708.476849" NOx_abs="14493.652925" fuel_abs="14575.841304" electricity_abs="0"
            CO_normed="11976.987784" CO2_normed="830854.487880" HC_normed="74.636993" PMx_normed="17.359438" NOx_normed="355.130400" fuel_normed="357.144219" electricity_normed="0"
            traveltime="1.19" CO_perVeh="111.008927" CO2_perVeh="7700.789783" HC_perVeh="0.691774" PMx_perVeh="0.160896" NOx_perVeh="3.291533" fuel_perVeh="3.310198" electricity_perVeh="0"/>
        <edge id=":1110673562_0" sampledSeconds="300.94" CO_abs="7186.484464" CO2_abs="543409.580248" HC_abs="45.136400" PMx_abs="7.519143" NOx_abs="208.760243" fuel_abs="233.590709" electricity_abs="0"
            CO_normed="11191.286247" CO2_normed="846234.649611" HC_normed="70.289496" PMx_normed="11.709325" NOx_normed="325.095761" fuel_normed="363.763466" electricity_normed="0"
            traveltime="0.03" CO_perVeh="0.644207" CO2_perVeh="48.712014" HC_perVeh="0.004046" PMx_perVeh="0.000674" NOx_perVeh="0.018714" fuel_perVeh="0.020939" electricity_perVeh="0"/>
        <edge id=":1110673564_0" sampledSeconds="27.63" CO_abs="531.632233" CO2_abs="61172.155079" HC_abs="3.825594" PMx_abs="0.858527" NOx_abs="23.056399" fuel_abs="26.295334" electricity_abs="0"
            CO_normed="2235.314223" CO2_normed="257205.977907" HC_normed="16.085188" PMx_normed="3.609785" NOx_normed="96.943512" fuel_normed="110.562022" electricity_normed="0"
            traveltime="7.804910e-03" CO_perVeh="0.150157" CO2_perVeh="17.277829" HC_perVeh="0.001081" PMx_perVeh="0.000242" NOx_perVeh="0.006512" fuel_perVeh="0.007427" electricity_perVeh="0"/>
        <edge id=":1110673588_0" sampledSeconds="62.94" CO_abs="1208.193733" CO2_abs="129290.111952" HC_abs="8.468371" PMx_abs="1.812199" NOx_abs="48.954511" fuel_abs="55.576428" electricity_abs="0"
            CO_normed="2032.000672" CO2_normed="217446.579317" HC_normed="14.242529" PMx_normed="3.047846" NOx_normed="82.334145" fuel_normed="93.471217" electricity_normed="0"
            traveltime="0.02" CO_perVeh="0.389740" CO2_perVeh="41.706488" HC_perVeh="0.002732" PMx_perVeh="0.000585" NOx_perVeh="0.015792" fuel_perVeh="0.017928" electricity_perVeh="0"/>
        <edge id=":1110673601_0" sampledSeconds="28.90" CO_abs="504.818864" CO2_abs="59464.308724" HC_abs="3.661110" PMx_abs="0.843410" NOx_abs="22.429379" fuel_abs="25.561182" electricity_abs="0"
            CO_normed="758.062164" CO2_normed="89294.687242" HC_normed="5.497712" PMx_normed="1.266508" NOx_normed="33.681118" fuel_normed="38.383996" electricity_normed="0"
            traveltime="0.02" CO_perVeh="0.384949" CO2_perVeh="45.344390" HC_perVeh="0.002792" PMx_perVeh="0.000643" NOx_perVeh="0.017103" fuel_perVeh="0.019492" electricity_perVeh="0"/>
        <edge id=":1110673617_0" sampledSeconds="852.86" CO_abs="32608.649920" CO2_abs="3323644.103917" HC_abs="228.109801" PMx_abs="62.506753" NOx_abs="1302.107294" fuel_abs="1428.679078" electricity_abs="0"
            CO_normed="45702.382508" CO2_normed="4658225.793857" HC_normed="319.705397" PMx_normed="87.605820" NOx_normed="1824.957665" fuel_normed="2002.353298" electricity_normed="0"
            traveltime="0.02" CO_perVeh="0.578176" CO2_perVeh="58.930730" HC_perVeh="0.004045" PMx_perVeh="0.001108" NOx_perVeh="0.023087" fuel_perVeh="0.025332" electricity_perVeh="0"/>
        <edge id=":1110673621_0" sampledSeconds="26.51" CO_abs="558.163155" CO2_abs="60227.711596" HC_abs="3.915201" PMx_abs="0.878463" NOx_abs="22.977638" fuel_abs="25.889328" electricity_abs="0"
            CO_normed="938.746722" CO2_normed="101293.978858" HC_normed="6.584780" PMx_normed="1.477443" NOx_normed="38.644942" fuel_normed="43.541966" electricity_normed="0"
            traveltime="0.02" CO_perVeh="0.422851" CO2_perVeh="45.627054" HC_perVeh="0.002966" PMx_perVeh="0.000666" NOx_perVeh="0.017407" fuel_perVeh="0.019613" electricity_perVeh="0"/>
        <edge id=":1110673630_0" sampledSeconds="287.53" CO_abs="1240.515885" CO2_abs="110570.712329" HC_abs="8.170177" PMx_abs="1.449403" NOx_abs="41.655688" fuel_abs="47.530027" electricity_abs="0"
            CO_normed="37.203311" CO2_normed="3316.037026" HC_normed="0.245025" PMx_normed="0.043468" NOx_normed="1.249262" fuel_normed="1.425435" electricity_normed="0"
            traveltime="1.29" CO_perVeh="5.581848" CO2_perVeh="497.525976" HC_perVeh="0.036763" PMx_perVeh="0.006522" NOx_perVeh="0.187435" fuel_perVeh="0.213867" electricity_perVeh="0"/>
        <edge id=":1110673630_1" sampledSeconds="339.04" CO_abs="1241.770804" CO2_abs="105183.870524" HC_abs="8.036915" PMx_abs="1.314853" NOx_abs="39.339625" fuel_abs="45.214572" electricity_abs="0"
            CO_normed="45.401571" CO2_normed="3845.728181" HC_normed="0.293845" PMx_normed="0.048074" NOx_normed="1.438334" fuel_normed="1.653133" electricity_normed="0"
            traveltime="1.08" CO_perVeh="3.958521" CO2_perVeh="335.305478" HC_perVeh="0.025620" PMx_perVeh="0.004191" NOx_perVeh="0.125407" fuel_perVeh="0.144135" electricity_perVeh="0"/>
        <edge id=":1110673650_0" sampledSeconds="200.40" CO_abs="3290.870464" CO2_abs="406458.801287" HC_abs="24.244496" PMx_abs="5.553514" NOx_abs="151.808093" fuel_abs="174.719583" electricity_abs="0"
            CO_normed="4612.292170" CO2_normed="569668.957655" HC_normed="33.979671" PMx_normed="7.783481" NOx_normed="212.765372" fuel_normed="244.876781" electricity_normed="0"
            traveltime="0.02" CO_perVeh="0.380345" CO2_perVeh="46.976785" HC_perVeh="0.002802" PMx_perVeh="0.000642" NOx_perVeh="0.017545" fuel_perVeh="0.020193" electricity_perVeh="0"/>
        <edge id=":1110673655_0" sampledSeconds="20.99" CO_abs="274.865027" CO2_abs="33656.663350" HC_abs="2.017967" PMx_abs="0.449893" NOx_abs="12.523943" fuel_abs="14.467603" electricity_abs="0"
            CO_normed="385.234796" CO2_normed="47171.217028" HC_normed="2.828265" PMx_normed="0.630543" NOx_normed="17.552828" fuel_normed="20.276949" electricity_normed="0"
            traveltime="0.02" CO_perVeh="0.314012" CO2_perVeh="38.450110" HC_perVeh="0.002305" PMx_perVeh="0.000514" NOx_perVeh="0.014308" fuel_perVeh="0.016528" electricity_perVeh="0"/>
        <edge id=":1110673663_0" sampledSeconds="111.55" CO_abs="2126.830520" CO2_abs="233927.515570" HC_abs="15.045181" PMx_abs="3.322012" NOx_abs="88.630165" fuel_abs="100.555587" electricity_abs="0"
            CO_normed="54.594169" CO2_normed="6004.746646" HC_normed="0.386199" PMx_normed="0.085274" NOx_normed="2.275071" fuel_normed="2.581188" electricity_normed="0"
            traveltime="1.31" CO_perVeh="24.980628" CO2_perVeh="2747.589027" HC_perVeh="0.176713" PMx_perVeh="0.039019" NOx_perVeh="1.041003" fuel_perVeh="1.181073" electricity_perVeh="0"/>
        <edge id=":1110673663_1" sampledSeconds="171.30" CO_abs="2740.212052" CO2_abs="323142.138042" HC_abs="19.890160" PMx_abs="4.489533" NOx_abs="121.422381" fuel_abs="138.905220" electricity_abs="0"
            CO_normed="70.425210" CO2_normed="8304.960516" HC_normed="0.511190" PMx_normed="0.115384" NOx_normed="3.120633" fuel_normed="3.569953" electricity_normed="0"
            traveltime="1.28" CO_perVeh="20.466734" CO2_perVeh="2413.559223" HC_perVeh="0.148560" PMx_perVeh="0.033532" NOx_perVeh="0.906908" fuel_perVeh="1.037488" electricity_perVeh="0"/>