<?xml version="1.0" encoding="UTF-8"?>

<!-- generated on Tue Nov 10 07:00:14 2020 by Eclipse SUMO sumo Version 1.7.0
<configuration xmlns:xsi="http://www.w3.org/2001/XMLSchema-instance" xsi:noNamespaceSchemaLocation="http://sumo.dlr.de/xsd/sumoConfiguration.xsd">

    <input>
        <net-file value="../dataSets/Porto/8AM9AM_Routing_SaoBento/Porto.net.xml"/>
        <route-files value="../results/Porto/8AM9AM_Routing_SaoBento/cost_co-length/solution18/Porto.rou.xml"/>
        <additional-files value="moreOutputInfo.xml"/>
    </input>

    <output>
        <emission-output.precision value="6"/>
        <tripinfo-output value="../results/Porto/8AM9AM_Routing_SaoBento/cost_co-length/solution18/Porto-tripinfo"/>
    </output>

    <processing>
        <collision.action value="warn"/>
        <time-to-teleport value="-1"/>
    </processing>

    <emissions>
        <device.emissions.probability value="1"/>
    </emissions>

    <gui_only>
        <quit-on-end value="true"/>
        <start value="true"/>
    </gui_only>

</configuration>
-->

<meandata xmlns:xsi="http://www.w3.org/2001/XMLSchema-instance" xsi:noNamespaceSchemaLocation="http://sumo.dlr.de/xsd/meandata_file.xsd">
    <interval begin="0.00" end="8809.00" id="emissions-detector">
        <edge id=":1092997347_0" sampledSeconds="581.07" CO_abs="71192.949514" CO2_abs="3088864.504312" HC_abs="397.276982" PMx_abs="62.453364" NOx_abs="1335.990525" fuel_abs="1327.776644" electricity_abs="0"
            CO_normed="66124.164917" CO2_normed="2868944.007555" HC_normed="368.991717" PMx_normed="58.006819" NOx_normed="1240.870878" fuel_normed="1233.241808" electricity_normed="0"
            traveltime="0.07" CO_perVeh="8.138109" CO2_perVeh="353.089963" HC_perVeh="0.045413" PMx_perVeh="0.007139" NOx_perVeh="0.152718" fuel_perVeh="0.151779" electricity_perVeh="0"/>
        <edge id=":1103427051_0" sampledSeconds="19.60" CO_abs="1513.163762" CO2_abs="83912.970837" HC_abs="8.880804" PMx_abs="1.643757" NOx_abs="35.814323" fuel_abs="36.070493" electricity_abs="0"
            CO_normed="2132.376192" CO2_normed="118251.590268" HC_normed="12.514981" PMx_normed="2.316410" NOx_normed="50.470155" fuel_normed="50.831154" electricity_normed="0"
            traveltime="0.03" CO_perVeh="2.353161" CO2_perVeh="130.495289" HC_perVeh="0.013811" PMx_perVeh="0.002556" NOx_perVeh="0.055696" fuel_perVeh="0.056094" electricity_perVeh="0"/>
        <edge id=":1105984386_0" sampledSeconds="10.67" CO_abs="212.734520" CO2_abs="14899.436719" HC_abs="1.303515" PMx_abs="0.181665" NOx_abs="5.585602" fuel_abs="6.404739" electricity_abs="0"
            CO_normed="8.953537" CO2_normed="627.085142" HC_normed="0.054862" PMx_normed="0.007646" NOx_normed="0.235086" fuel_normed="0.269562" electricity_normed="0"
            traveltime="1.02" CO_perVeh="20.407550" CO2_perVeh="1429.297871" HC_perVeh="0.125046" PMx_perVeh="0.017427" NOx_perVeh="0.535825" fuel_perVeh="0.614404" electricity_perVeh="0"/>
        <edge id=":1105984390_0" sampledSeconds="10.47" CO_abs="9.766773" CO2_abs="670.158963" HC_abs="0.059626" PMx_abs="0.008716" NOx_abs="0.255184" fuel_abs="0.288077" electricity_abs="0"
            CO_normed="0.317788" CO2_normed="21.805401" HC_normed="0.001940" PMx_normed="0.000284" NOx_normed="0.008303" fuel_normed="0.009373" electricity_normed="0"
            traveltime="1.09" CO_perVeh="1.012385" CO2_perVeh="69.466011" HC_perVeh="0.006181" PMx_perVeh="0.000904" NOx_perVeh="0.026451" fuel_perVeh="0.029861" electricity_perVeh="0"/>
        <edge id=":1105984390_1" sampledSeconds="2397.54" CO_abs="61650.026099" CO2_abs="7500203.272061" HC_abs="459.490810" PMx_abs="134.422428" NOx_abs="2842.785872" fuel_abs="3223.991695" electricity_abs="0"
            CO_normed="1918.865036" CO2_normed="233444.796855" HC_normed="14.301711" PMx_normed="4.183915" NOx_normed="88.482078" fuel_normed="100.347158" electricity_normed="0"
            traveltime="0.65" CO_perVeh="16.652738" CO2_perVeh="2025.934588" HC_perVeh="0.124116" PMx_perVeh="0.036310" NOx_perVeh="0.767886" fuel_perVeh="0.870856" electricity_perVeh="0"/>
        <edge id=":1105984395_0" sampledSeconds="4.09" CO_abs="129.083915" CO2_abs="9511.793401" HC_abs="0.802164" PMx_abs="0.117724" NOx_abs="3.571658" fuel_abs="4.088774" electricity_abs="0"
            CO_normed="57.340330" CO2_normed="4225.231142" HC_normed="0.356329" PMx_normed="0.052294" NOx_normed="1.586565" fuel_normed="1.816273" electricity_normed="0"
            traveltime="0.09" CO_perVeh="2.992119" CO2_perVeh="220.479968" HC_perVeh="0.018594" PMx_perVeh="0.002729" NOx_perVeh="0.082790" fuel_perVeh="0.094776" electricity_perVeh="0"/>
        <edge id=":1105984398_0" sampledSeconds="10.73" CO_abs="692.862831" CO2_abs="46254.463812" HC_abs="4.242082" PMx_abs="0.818621" NOx_abs="19.016414" fuel_abs="19.882787" electricity_abs="0"
            CO_normed="23.420537" CO2_normed="1563.519280" HC_normed="0.143393" PMx_normed="0.027671" NOx_normed="0.642803" fuel_normed="0.672089" electricity_normed="0"
            traveltime="1.16" CO_perVeh="74.793007" CO2_perVeh="4993.066870" HC_perVeh="0.457923" PMx_perVeh="0.088368" NOx_perVeh="2.052780" fuel_perVeh="2.146303" electricity_perVeh="0"/>
        <edge id=":1105984398_1" sampledSeconds="646.31" CO_abs="11406.671390" CO2_abs="1358014.144777" HC_abs="82.896336" PMx_abs="19.317439" NOx_abs="512.159438" fuel_abs="583.752459" electricity_abs="0"
            CO_normed="373.226423" CO2_normed="44434.238922" HC_normed="2.712369" PMx_normed="0.632067" NOx_normed="16.757863" fuel_normed="19.100387" electricity_normed="0"
            traveltime="0.95" CO_perVeh="16.843069" CO2_perVeh="2005.241114" HC_perVeh="0.122405" PMx_perVeh="0.028524" NOx_perVeh="0.756254" fuel_perVeh="0.861968" electricity_perVeh="0"/>
        <edge id=":1106006327_0" sampledSeconds="68.11" CO_abs="9252.071831" CO2_abs="299265.133084" HC_abs="49.175404" PMx_abs="6.260766" NOx_abs="131.103672" fuel_abs="128.643515" electricity_abs="0"
            CO_normed="426.757502" CO2_normed="13803.788285" HC_normed="2.268246" PMx_normed="0.288782" NOx_normed="6.047237" fuel_normed="5.933761" electricity_normed="0"
            traveltime="2.11" CO_perVeh="286.810666" CO2_perVeh="9277.103947" HC_perVeh="1.524419" PMx_perVeh="0.194081" NOx_perVeh="4.064163" fuel_perVeh="3.987899" electricity_perVeh="0"/>
        <edge id=":1106006327_1" sampledSeconds="680.94" CO_abs="92200.137080" CO2_abs="3087238.848250" HC_abs="492.589298" PMx_abs="64.411183" NOx_abs="1351.173331" fuel_abs="1327.092492" electricity_abs="0"
            CO_normed="3708.632071" CO2_normed="124180.216700" HC_normed="19.813772" PMx_normed="2.590857" NOx_normed="54.349211" fuel_normed="53.380591" electricity_normed="0"
            traveltime="2.29" CO_perVeh="309.493543" CO2_perVeh="10363.113558" HC_perVeh="1.653503" PMx_perVeh="0.216213" NOx_perVeh="4.535562" fuel_perVeh="4.454728" electricity_perVeh="0"/>
        <edge id=":1106006327_2" sampledSeconds="0.00" CO_abs="0" CO2_abs="0" HC_abs="0" PMx_abs="0" NOx_abs="0" fuel_abs="0" electricity_abs="0"
            CO_normed="0" CO2_normed="0" HC_normed="0" PMx_normed="0" NOx_normed="0" fuel_normed="0" electricity_normed="0"/>
        <edge id=":1106006327_3" sampledSeconds="0.00" CO_abs="0" CO2_abs="0" HC_abs="0" PMx_abs="0" NOx_abs="0" fuel_abs="0" electricity_abs="0"
            CO_normed="0" CO2_normed="0" HC_normed="0" PMx_normed="0" NOx_normed="0" fuel_normed="0" electricity_normed="0"/>
        <edge id=":1107381198_0" sampledSeconds="0.00" CO_abs="0" CO2_abs="0" HC_abs="0" PMx_abs="0" NOx_abs="0" fuel_abs="0" electricity_abs="0"
            CO_normed="0" CO2_normed="0" HC_normed="0" PMx_normed="0" NOx_normed="0" fuel_normed="0" electricity_normed="0"/>
        <edge id=":1107381198_1" sampledSeconds="103.97" CO_abs="4661.384970" CO2_abs="184555.584751" HC_abs="25.482751" PMx_abs="3.236361" NOx_abs="76.788620" fuel_abs="79.333993" electricity_abs="0"
            CO_normed="207.740669" CO2_normed="8224.959096" HC_normed="1.135672" PMx_normed="0.144233" NOx_normed="3.422184" fuel_normed="3.535622" electricity_normed="0"
            traveltime="1.56" CO_perVeh="69.789871" CO2_perVeh="2763.150980" HC_perVeh="0.381526" PMx_perVeh="0.048455" NOx_perVeh="1.149673" fuel_perVeh="1.187782" electricity_perVeh="0"/>
        <edge id=":1110338277_0" sampledSeconds="161.25" CO_abs="2344.447611" CO2_abs="284713.119422" HC_abs="17.142158" PMx_abs="3.897494" NOx_abs="106.485060" fuel_abs="122.386232" electricity_abs="0"
            CO_normed="3421.829703" CO2_normed="415551.963869" HC_normed="25.019773" PMx_normed="5.688573" NOx_normed="155.419869" fuel_normed="178.628365" electricity_normed="0"
            traveltime="0.02" CO_perVeh="0.317671" CO2_perVeh="38.578378" HC_perVeh="0.002323" PMx_perVeh="0.000528" NOx_perVeh="0.014429" fuel_perVeh="0.016583" electricity_perVeh="0"/>
        <edge id=":1110338293_0" sampledSeconds="6338.02" CO_abs="592510.485232" CO2_abs="10407141.255359" HC_abs="2941.372884" PMx_abs="247.951809" NOx_abs="4701.906773" fuel_abs="4473.853578" electricity_abs="0"
            CO_normed="807143.355975" CO2_normed="14177056.994472" HC_normed="4006.865094" PMx_normed="337.770656" NOx_normed="6405.140342" fuel_normed="6094.476438" electricity_normed="0"
            traveltime="0.42" CO_perVeh="39.604944" CO2_perVeh="695.640423" HC_perVeh="0.196609" PMx_perVeh="0.016574" NOx_perVeh="0.314288" fuel_perVeh="0.299044" electricity_perVeh="0"/>
        <edge id=":1110338295_0" sampledSeconds="0.00" CO_abs="0" CO2_abs="0" HC_abs="0" PMx_abs="0" NOx_abs="0" fuel_abs="0" electricity_abs="0"
            CO_normed="0" CO2_normed="0" HC_normed="0" PMx_normed="0" NOx_normed="0" fuel_normed="0" electricity_normed="0"/>
        <edge id=":1110673403_0" sampledSeconds="201.04" CO_abs="3019.563550" CO2_abs="372609.233471" HC_abs="22.237570" PMx_abs="5.050084" NOx_abs="138.979700" fuel_abs="160.169133" electricity_abs="0"
            CO_normed="4113.379794" CO2_normed="507584.379800" HC_normed="30.292977" PMx_normed="6.879442" NOx_normed="189.324145" fuel_normed="218.189306" electricity_normed="0"
            traveltime="0.02" CO_perVeh="0.348988" CO2_perVeh="43.064595" HC_perVeh="0.002570" PMx_perVeh="0.000584" NOx_perVeh="0.016063" fuel_perVeh="0.018512" electricity_perVeh="0"/>
        <edge id=":1110673412_0" sampledSeconds="951.35" CO_abs="168809.165759" CO2_abs="11527476.954348" HC_abs="1050.796833" PMx_abs="253.288205" NOx_abs="4952.970023" fuel_abs="4955.094596" electricity_abs="0"
            CO_normed="237888.756691" CO2_normed="16244717.211493" HC_normed="1480.800826" PMx_normed="356.938061" NOx_normed="6979.809867" fuel_normed="6982.803851" electricity_normed="0"
            traveltime="0.02" CO_perVeh="2.753134" CO2_perVeh="188.003367" HC_perVeh="0.017138" PMx_perVeh="0.004131" NOx_perVeh="0.080779" fuel_perVeh="0.080813" electricity_perVeh="0"/>
        <edge id=":1110673414_0" sampledSeconds="0.00" CO_abs="0" CO2_abs="0" HC_abs="0" PMx_abs="0" NOx_abs="0" fuel_abs="0" electricity_abs="0"
            CO_normed="0" CO2_normed="0" HC_normed="0" PMx_normed="0" NOx_normed="0" fuel_normed="0" electricity_normed="0"/>
        <edge id=":1110673414_1" sampledSeconds="243.82" CO_abs="17593.817655" CO2_abs="670688.065880" HC_abs="95.702030" PMx_abs="12.482541" NOx_abs="283.803629" fuel_abs="288.304799" electricity_abs="0"
            CO_normed="796.247766" CO2_normed="30353.496030" HC_normed="4.331210" PMx_normed="0.564925" NOx_normed="12.844171" fuel_normed="13.047882" electricity_normed="0"
            traveltime="1.58" CO_perVeh="114.150350" CO2_perVeh="4351.487473" HC_perVeh="0.620924" PMx_perVeh="0.080988" NOx_perVeh="1.841345" fuel_perVeh="1.870549" electricity_perVeh="0"/>
        <edge id=":1110673417_0" sampledSeconds="29.30" CO_abs="415.298525" CO2_abs="47730.218888" HC_abs="2.977092" PMx_abs="0.646882" NOx_abs="17.855973" fuel_abs="20.517245" electricity_abs="0"
            CO_normed="606.147403" CO2_normed="69664.461670" HC_normed="4.345203" PMx_normed="0.944155" NOx_normed="26.061618" fuel_normed="29.945867" electricity_normed="0"
            traveltime="0.02" CO_perVeh="0.316685" CO2_perVeh="36.396583" HC_perVeh="0.002270" PMx_perVeh="0.000493" NOx_perVeh="0.013616" fuel_perVeh="0.015645" electricity_perVeh="0"/>
        <edge id=":1110673446_0" sampledSeconds="1325.02" CO_abs="14372.069798" CO2_abs="1152819.557631" HC_abs="92.731926" PMx_abs="21.251148" NOx_abs="472.460324" fuel_abs="495.544040" electricity_abs="0"
            CO_normed="19578.253783" CO2_normed="1570420.557563" HC_normed="126.323433" PMx_normed="28.949231" NOx_normed="643.605845" fuel_normed="675.051479" electricity_normed="0"
            traveltime="0.02" CO_perVeh="0.246895" CO2_perVeh="19.804036" HC_perVeh="0.001593" PMx_perVeh="0.000365" NOx_perVeh="0.008116" fuel_perVeh="0.008513" electricity_perVeh="0"/>
        <edge id=":1110673451_0" sampledSeconds="36.49" CO_abs="365.586932" CO2_abs="26790.881625" HC_abs="2.278677" PMx_abs="0.383574" NOx_abs="10.383752" fuel_abs="11.516350" electricity_abs="0"
            CO_normed="553.353665" CO2_normed="40550.772505" HC_normed="3.449013" PMx_normed="0.580579" NOx_normed="15.716884" fuel_normed="17.431188" electricity_normed="0"
            traveltime="0.03" CO_perVeh="0.269357" CO2_perVeh="19.738957" HC_perVeh="0.001679" PMx_perVeh="0.000283" NOx_perVeh="0.007651" fuel_perVeh="0.008485" electricity_perVeh="0"/>
        <edge id=":1110673464_0" sampledSeconds="1030.80" CO_abs="3229.404659" CO2_abs="239186.200404" HC_abs="20.170666" PMx_abs="3.336090" NOx_abs="92.130213" fuel_abs="102.816883" electricity_abs="0"
            CO_normed="93.468153" CO2_normed="6922.728730" HC_normed="0.583796" PMx_normed="0.096556" NOx_normed="2.666510" fuel_normed="2.975813" electricity_normed="0"
            traveltime="1.22" CO_perVeh="3.829622" CO2_perVeh="283.641359" HC_perVeh="0.023920" PMx_perVeh="0.003956" NOx_perVeh="0.109254" fuel_perVeh="0.121926" electricity_perVeh="0"/>
        <edge id=":1110673464_1" sampledSeconds="2606.44" CO_abs="65879.039706" CO2_abs="7907743.782855" HC_abs="488.743103" PMx_abs="141.956607" NOx_abs="3006.443756" fuel_abs="3399.174247" electricity_abs="0"
            CO_normed="1868.354016" CO2_normed="224266.548558" HC_normed="13.860936" PMx_normed="4.025942" NOx_normed="85.263861" fuel_normed="96.401843" electricity_normed="0"
            traveltime="0.72" CO_perVeh="18.161207" CO2_perVeh="2179.967650" HC_perVeh="0.134734" PMx_perVeh="0.039134" NOx_perVeh="0.828802" fuel_perVeh="0.937068" electricity_perVeh="0"/>
        <edge id=":1110673479_0" sampledSeconds="134.80" CO_abs="6369.722812" CO2_abs="438705.954576" HC_abs="39.319452" PMx_abs="7.723820" NOx_abs="179.735772" fuel_abs="188.580586" electricity_abs="0"
            CO_normed="8677.111334" CO2_normed="597624.186049" HC_normed="53.562654" PMx_normed="10.521721" NOx_normed="244.843826" fuel_normed="256.892614" electricity_normed="0"
            traveltime="0.03" CO_perVeh="1.346617" CO2_perVeh="92.746405" HC_perVeh="0.008312" PMx_perVeh="0.001633" NOx_perVeh="0.037998" fuel_perVeh="0.039868" electricity_perVeh="0"/>
        <edge id=":1110673511_0" sampledSeconds="63.57" CO_abs="1356.968665" CO2_abs="137284.519543" HC_abs="9.342638" PMx_abs="2.005622" NOx_abs="52.590083" fuel_abs="59.012821" electricity_abs="0"
            CO_normed="1848.521282" CO2_normed="187014.897777" HC_normed="12.726944" PMx_normed="2.732145" NOx_normed="71.640481" fuel_normed="80.389812" electricity_normed="0"
            traveltime="0.02" CO_perVeh="0.520077" CO2_perVeh="52.616232" HC_perVeh="0.003581" PMx_perVeh="0.000769" NOx_perVeh="0.020156" fuel_perVeh="0.022617" electricity_perVeh="0"/>
        <edge id=":1110673517_0" sampledSeconds="183.04" CO_abs="8489.128961" CO2_abs="602275.547894" HC_abs="52.774824" PMx_abs="10.325795" NOx_abs="244.651971" fuel_abs="258.892269" electricity_abs="0"
            CO_normed="11564.257865" CO2_normed="820445.745797" HC_normed="71.892144" PMx_normed="14.066244" NOx_normed="333.275474" fuel_normed="352.674223" electricity_normed="0"
            traveltime="0.03" CO_perVeh="1.299754" CO2_perVeh="92.213261" HC_perVeh="0.008080" PMx_perVeh="0.001581" NOx_perVeh="0.037458" fuel_perVeh="0.039639" electricity_perVeh="0"/>
        <edge id=":1110673534_0" sampledSeconds="739.16" CO_abs="6089.514078" CO2_abs="491317.158674" HC_abs="38.980534" PMx_abs="6.841687" NOx_abs="188.481740" fuel_abs="211.197839" electricity_abs="0"
            CO_normed="160.763545" CO2_normed="12970.803081" HC_normed="1.029088" PMx_normed="0.180621" NOx_normed="4.975929" fuel_normed="5.575636" electricity_normed="0"
            traveltime="1.46" CO_perVeh="12.009529" CO2_perVeh="968.958729" HC_perVeh="0.076876" PMx_perVeh="0.013493" NOx_perVeh="0.371717" fuel_perVeh="0.416517" electricity_perVeh="0"/>
        <edge id=":1110673534_1" sampledSeconds="200.56" CO_abs="2711.570366" CO2_abs="353448.006591" HC_abs="20.411566" PMx_abs="4.699866" NOx_abs="130.872609" fuel_abs="151.932573" electricity_abs="0"
            CO_normed="69.607127" CO2_normed="9073.155707" HC_normed="0.523973" PMx_normed="0.120647" NOx_normed="3.359554" fuel_normed="3.900172" electricity_normed="0"
            traveltime="1.23" CO_perVeh="16.574976" CO2_perVeh="2160.516455" HC_perVeh="0.124769" PMx_perVeh="0.028729" NOx_perVeh="0.799983" fuel_perVeh="0.928716" electricity_perVeh="0"/>
        <edge id=":1110673549_0" sampledSeconds="646.92" CO_abs="1380.703080" CO2_abs="133491.599497" HC_abs="9.343999" PMx_abs="1.915861" NOx_abs="50.709122" fuel_abs="57.382529" electricity_abs="0"
            CO_normed="35.310138" CO2_normed="3413.917742" HC_normed="0.238964" PMx_normed="0.048996" NOx_normed="1.296836" fuel_normed="1.467502" electricity_normed="0"
            traveltime="1.29" CO_perVeh="2.743128" CO2_perVeh="265.215978" HC_perVeh="0.018564" PMx_perVeh="0.003806" NOx_perVeh="0.100747" fuel_perVeh="0.114005" electricity_perVeh="0"/>
        <edge id=":1110673549_1" sampledSeconds="3197.99" CO_abs="70356.986077" CO2_abs="9213363.039254" HC_abs="540.326570" PMx_abs="162.187348" NOx_abs="3445.817987" fuel_abs="3960.402921" electricity_abs="0"
            CO_normed="1740.496182" CO2_normed="227920.837492" HC_normed="13.366638" PMx_normed="4.012202" NOx_normed="85.242893" fuel_normed="97.972732" electricity_normed="0"
            traveltime="0.81" CO_perVeh="17.748270" CO2_perVeh="2324.165109" HC_perVeh="0.136303" PMx_perVeh="0.040913" NOx_perVeh="0.869243" fuel_perVeh="0.999052" electricity_perVeh="0"/>
        <edge id=":1110673556_0" sampledSeconds="465.81" CO_abs="58018.623858" CO2_abs="2790640.472239" HC_abs="330.501144" PMx_abs="56.576239" NOx_abs="1204.752991" fuel_abs="1199.577030" electricity_abs="0"
            CO_normed="1100.261812" CO2_normed="52921.543802" HC_normed="6.267605" PMx_normed="1.072909" NOx_normed="22.846866" fuel_normed="22.748709" electricity_normed="0"
            traveltime="2.75" CO_perVeh="342.014209" CO2_perVeh="16450.557260" HC_perVeh="1.948272" PMx_perVeh="0.333511" NOx_perVeh="7.101903" fuel_perVeh="7.071391" electricity_perVeh="0"/>
        <edge id=":1110673556_2" sampledSeconds="176.65" CO_abs="17856.740159" CO2_abs="762565.798367" HC_abs="99.240439" PMx_abs="14.856200" NOx_abs="326.178206" fuel_abs="327.796980" electricity_abs="0"
            CO_normed="354.078925" CO2_normed="15120.815767" HC_normed="1.967825" PMx_normed="0.294582" NOx_normed="6.467744" fuel_normed="6.499843" electricity_normed="0"
            traveltime="3.05" CO_perVeh="308.768554" CO2_perVeh="13185.852326" HC_perVeh="1.716009" PMx_perVeh="0.256885" NOx_perVeh="5.640087" fuel_perVeh="5.668078" electricity_perVeh="0"/>
        <edge id=":1110673556_3" sampledSeconds="334.12" CO_abs="33222.028832" CO2_abs="1147883.740029" HC_abs="178.120055" PMx_abs="22.728293" NOx_abs="494.839435" fuel_abs="493.434690" electricity_abs="0"
            CO_normed="1498.558992" CO2_normed="51778.038867" HC_normed="8.034531" PMx_normed="1.025214" NOx_normed="22.320915" fuel_normed="22.257551" electricity_normed="0"
            traveltime="1.83" CO_perVeh="181.626588" CO2_perVeh="6275.541084" HC_perVeh="0.973792" PMx_perVeh="0.124257" NOx_perVeh="2.705313" fuel_perVeh="2.697634" electricity_perVeh="0"/>
        <edge id=":1110673556_4" sampledSeconds="97.03" CO_abs="11016.406740" CO2_abs="426299.953841" HC_abs="60.198214" PMx_abs="8.552651" NOx_abs="184.239761" fuel_abs="183.250023" electricity_abs="0"
            CO_normed="303.581080" CO2_normed="11747.623663" HC_normed="1.658893" PMx_normed="0.235687" NOx_normed="5.077128" fuel_normed="5.049853" electricity_normed="0"
            traveltime="2.53" CO_perVeh="287.720249" CO2_perVeh="11133.859877" HC_perVeh="1.572223" PMx_perVeh="0.223373" NOx_perVeh="4.811869" fuel_perVeh="4.786020" electricity_perVeh="0"/>
        <edge id=":1110673556_5" sampledSeconds="22.43" CO_abs="1456.817038" CO2_abs="64471.753325" HC_abs="8.122524" PMx_abs="1.108560" NOx_abs="26.633741" fuel_abs="27.714045" electricity_abs="0"
            CO_normed="55.955048" CO2_normed="2476.302773" HC_normed="0.311979" PMx_normed="0.042579" NOx_normed="1.022978" fuel_normed="1.064472" electricity_normed="0"
            traveltime="1.55" CO_perVeh="100.718215" CO2_perVeh="4457.306403" HC_perVeh="0.561557" PMx_perVeh="0.076641" NOx_perVeh="1.841345" fuel_perVeh="1.916033" electricity_perVeh="0"/>
        <edge id=":1110673556_6" sampledSeconds="215.63" CO_abs="25940.741144" CO2_abs="1304973.963239" HC_abs="149.129946" PMx_abs="26.195089" NOx_abs="560.823072" fuel_abs="560.951986" electricity_abs="0"
            CO_normed="504.342491" CO2_normed="25371.434671" HC_normed="2.899399" PMx_normed="0.509288" NOx_normed="10.903578" fuel_normed="10.906085" electricity_normed="0"
            traveltime="2.51" CO_perVeh="302.275281" CO2_perVeh="15206.249075" HC_perVeh="1.737741" PMx_perVeh="0.305239" NOx_perVeh="6.535008" fuel_perVeh="6.536510" electricity_perVeh="0"/>
        <edge id=":1110673561_0" sampledSeconds="103.62" CO_abs="10143.071563" CO2_abs="709188.561673" HC_abs="63.269782" PMx_abs="14.477396" NOx_abs="301.335901" fuel_abs="304.846321" electricity_abs="0"
            CO_normed="247.770410" CO2_normed="17323.740602" HC_normed="1.545526" PMx_normed="0.353647" NOx_normed="7.360898" fuel_normed="7.446649" electricity_normed="0"
            traveltime="1.22" CO_perVeh="119.698089" CO2_perVeh="8369.113366" HC_perVeh="0.746645" PMx_perVeh="0.170847" NOx_perVeh="3.556056" fuel_perVeh="3.597482" electricity_perVeh="0"/>
        <edge id=":1110673561_1" sampledSeconds="5242.33" CO_abs="490048.297130" CO2_abs="33949868.958337" HC_abs="3052.514745" PMx_abs="709.710601" NOx_abs="14514.878551" fuel_abs="14593.408890" electricity_abs="0"
            CO_normed="11670.715752" CO2_normed="808531.062677" HC_normed="72.696981" PMx_normed="16.902070" NOx_normed="345.678217" fuel_normed="347.548452" electricity_normed="0"
            traveltime="1.19" CO_perVeh="111.308985" CO2_perVeh="7711.332698" HC_perVeh="0.693345" PMx_perVeh="0.161203" NOx_perVeh="3.296892" fuel_perVeh="3.314729" electricity_perVeh="0"/>
        <edge id=":1110673562_0" sampledSeconds="302.11" CO_abs="6405.459279" CO2_abs="498691.662576" HC_abs="40.505416" PMx_abs="6.581573" NOx_abs="189.350016" fuel_abs="214.368553" electricity_abs="0"
            CO_normed="9695.325658" CO2_normed="754821.451661" HC_normed="61.309140" PMx_normed="9.961891" NOx_normed="286.600849" fuel_normed="324.468995" electricity_normed="0"
            traveltime="0.03" CO_perVeh="0.574195" CO2_perVeh="44.703436" HC_perVeh="0.003631" PMx_perVeh="0.000590" NOx_perVeh="0.016974" fuel_perVeh="0.019216" electricity_perVeh="0"/>
        <edge id=":1110673564_0" sampledSeconds="27.95" CO_abs="351.447061" CO2_abs="44072.135115" HC_abs="2.604725" PMx_abs="0.591853" NOx_abs="16.384073" fuel_abs="18.944774" electricity_abs="0"
            CO_normed="1436.269067" CO2_normed="180110.893873" HC_normed="10.644805" PMx_normed="2.418745" NOx_normed="66.957274" fuel_normed="77.422167" electricity_normed="0"
            traveltime="7.894120e-03" CO_perVeh="0.099265" CO2_perVeh="12.447997" HC_perVeh="0.000736" PMx_perVeh="0.000167" NOx_perVeh="0.004628" fuel_perVeh="0.005351" electricity_perVeh="0"/>
        <edge id=":1110673588_0" sampledSeconds="63.27" CO_abs="1191.211265" CO2_abs="121830.592453" HC_abs="8.234618" PMx_abs="1.750285" NOx_abs="46.481857" fuel_abs="52.369865" electricity_abs="0"
            CO_normed="1947.263277" CO2_normed="199155.469557" HC_normed="13.461063" PMx_normed="2.861177" NOx_normed="75.983510" fuel_normed="85.608589" electricity_normed="0"
            traveltime="0.02" CO_perVeh="0.384262" CO2_perVeh="39.300191" HC_perVeh="0.002656" PMx_perVeh="0.000565" NOx_perVeh="0.014994" fuel_perVeh="0.016894" electricity_perVeh="0"/>
        <edge id=":1110673601_0" sampledSeconds="29.32" CO_abs="458.670954" CO2_abs="54978.534791" HC_abs="3.344890" PMx_abs="0.734048" NOx_abs="20.462096" fuel_abs="23.633000" electricity_abs="0"
            CO_normed="669.451468" CO2_normed="80243.713916" HC_normed="4.882022" PMx_normed="1.071377" NOx_normed="29.865376" fuel_normed="34.493457" electricity_normed="0"
            traveltime="0.02" CO_perVeh="0.349759" CO2_perVeh="41.923772" HC_perVeh="0.002551" PMx_perVeh="0.000560" NOx_perVeh="0.015603" fuel_perVeh="0.018021" electricity_perVeh="0"/>
        <edge id=":1110673617_0" sampledSeconds="856.73" CO_abs="32456.016597" CO2_abs="3267718.678692" HC_abs="226.095129" PMx_abs="61.717427" NOx_abs="1282.698804" fuel_abs="1404.639208" electricity_abs="0"
            CO_normed="44212.986623" CO2_normed="4451427.420173" HC_normed="307.996543" PMx_normed="84.074143" NOx_normed="1747.347673" fuel_normed="1913.460154" electricity_normed="0"
            traveltime="0.02" CO_perVeh="0.574888" CO2_perVeh="57.880526" HC_perVeh="0.004005" PMx_perVeh="0.001093" NOx_perVeh="0.022720" fuel_perVeh="0.024880" electricity_perVeh="0"/>
        <edge id=":1110673621_0" sampledSeconds="26.39" CO_abs="608.240081" CO2_abs="61028.612622" HC_abs="4.186955" PMx_abs="0.927165" NOx_abs="23.594777" fuel_abs="26.233577" electricity_abs="0"
            CO_normed="994.285068" CO2_normed="99762.972160" HC_normed="6.844381" PMx_normed="1.515629" NOx_normed="38.570188" fuel_normed="42.883813" electricity_normed="0"
            traveltime="0.02" CO_perVeh="0.460788" CO2_perVeh="46.233797" HC_perVeh="0.003172" PMx_perVeh="0.000702" NOx_perVeh="0.017875" fuel_perVeh="0.019874" electricity_perVeh="0"/>
        <edge id=":1110673630_0" sampledSeconds="285.81" CO_abs="1141.582814" CO2_abs="109889.088764" HC_abs="7.695108" PMx_abs="1.371488" NOx_abs="40.855086" fuel_abs="47.237061" electricity_abs="0"
            CO_normed="33.276321" CO2_normed="3203.188151" HC_normed="0.224307" PMx_normed="0.039978" NOx_normed="1.190896" fuel_normed="1.376926" electricity_normed="0"
            traveltime="1.29" CO_perVeh="5.136687" CO2_perVeh="494.458930" HC_perVeh="0.034625" PMx_perVeh="0.006171" NOx_perVeh="0.183832" fuel_perVeh="0.212549" electricity_perVeh="0"/>
        <edge id=":1110673630_1" sampledSeconds="337.66" CO_abs="1667.238913" CO2_abs="132853.859840" HC_abs="10.641635" PMx_abs="1.894432" NOx_abs="51.295329" fuel_abs="57.108572" electricity_abs="0"
            CO_normed="59.248299" CO2_normed="4721.198137" HC_normed="0.378169" PMx_normed="0.067322" NOx_normed="1.822871" fuel_normed="2.029455" electricity_normed="0"
            traveltime="1.08" CO_perVeh="5.314840" CO2_perVeh="423.512824" HC_perVeh="0.033924" PMx_perVeh="0.006039" NOx_perVeh="0.163520" fuel_perVeh="0.182051" electricity_perVeh="0"/>
        <edge id=":1110673650_0" sampledSeconds="201.03" CO_abs="2753.991872" CO2_abs="359221.797288" HC_abs="20.697649" PMx_abs="4.774398" NOx_abs="133.040335" fuel_abs="154.414475" electricity_abs="0"
            CO_normed="3751.606592" CO2_normed="489347.436424" HC_normed="28.195231" PMx_normed="6.503892" NOx_normed="181.233286" fuel_normed="210.350062" electricity_normed="0"
            traveltime="0.02" CO_perVeh="0.318295" CO2_perVeh="41.517332" HC_perVeh="0.002392" PMx_perVeh="0.000552" NOx_perVeh="0.015376" fuel_perVeh="0.017847" electricity_perVeh="0"/>
        <edge id=":1110673655_0" sampledSeconds="20.89" CO_abs="383.348519" CO2_abs="42959.612400" HC_abs="2.722778" PMx_abs="0.597165" NOx_abs="16.179000" fuel_abs="18.466542" electricity_abs="0"
            CO_normed="522.213898" CO2_normed="58521.438165" HC_normed="3.709085" PMx_normed="0.813485" NOx_normed="22.039732" fuel_normed="25.155921" electricity_normed="0"
            traveltime="0.02" CO_perVeh="0.437946" CO2_perVeh="49.078004" HC_perVeh="0.003111" PMx_perVeh="0.000682" NOx_perVeh="0.018483" fuel_perVeh="0.021097" electricity_perVeh="0"/>
        <edge id=":1110673663_0" sampledSeconds="110.46" CO_abs="1785.460271" CO2_abs="227932.251900" HC_abs="13.336392" PMx_abs="2.947465" NOx_abs="84.128040" fuel_abs="97.978715" electricity_abs="0"
            CO_normed="44.546356" CO2_normed="5686.797641" HC_normed="0.332736" PMx_normed="0.073538" NOx_normed="2.098953" fuel_normed="2.444521" electricity_normed="0"
            traveltime="1.30" CO_perVeh="20.971073" CO2_perVeh="2677.171827" HC_perVeh="0.156642" PMx_perVeh="0.034619" NOx_perVeh="0.988124" fuel_perVeh="1.150806" electricity_perVeh="0"/>
        <edge id=":1110673663_1" sampledSeconds="170.84" CO_abs="2353.687496" CO2_abs="312575.482227" HC_abs="17.792254" PMx_abs="4.018618" NOx_abs="114.893100" fuel_abs="134.363339" electricity_abs="0"
            CO_normed="58.795135" CO2_normed="7808.138376" HC_normed="0.444451" PMx_normed="0.100385" NOx_normed="2.870031" fuel_normed="3.356397" electricity_normed="0"
            traveltime="1.27" CO_perVeh="17.539230" CO2_perVeh="2329.252856" HC_perVeh="0.132584" PMx_perVeh="0.029946" NOx_perVeh="0.856161" fuel_perVeh="1.001250" electricity_perVeh="0"/>