<?xml version="1.0" encoding="UTF-8"?>

<!-- generated on Tue Nov 10 13:48:03 2020 by Eclipse SUMO sumo Version 1.7.0
<configuration xmlns:xsi="http://www.w3.org/2001/XMLSchema-instance" xsi:noNamespaceSchemaLocation="http://sumo.dlr.de/xsd/sumoConfiguration.xsd">

    <input>
        <net-file value="../dataSets/Porto/8AM9AM_Routing_SaoBento/Porto.net.xml"/>
        <route-files value="../results/Porto/8AM9AM_Routing_SaoBento/inputdata/cost_hc-length/solution21/Porto.rou.xml"/>
        <additional-files value="moreOutputInfo.xml"/>
    </input>

    <output>
        <emission-output.precision value="6"/>
        <tripinfo-output value="../results/Porto/8AM9AM_Routing_SaoBento/inputdata/cost_hc-length/solution21/Porto-tripinfo"/>
    </output>

    <processing>
        <collision.action value="warn"/>
        <time-to-teleport value="-1"/>
    </processing>

    <emissions>
        <device.emissions.probability value="1"/>
    </emissions>

    <gui_only>
        <quit-on-end value="true"/>
        <start value="true"/>
    </gui_only>

</configuration>
-->

<meandata xmlns:xsi="http://www.w3.org/2001/XMLSchema-instance" xsi:noNamespaceSchemaLocation="http://sumo.dlr.de/xsd/meandata_file.xsd">
    <interval begin="0.00" end="8561.00" id="emissions-detector">
        <edge id=":1092997347_0" sampledSeconds="587.75" CO_abs="71318.684991" CO2_abs="3066067.351817" HC_abs="397.288365" PMx_abs="61.986694" NOx_abs="1326.134068" fuel_abs="1317.977641" electricity_abs="0"
            CO_normed="68159.854405" CO2_normed="2930265.810744" HC_normed="379.691761" PMx_normed="59.241193" NOx_normed="1267.397246" fuel_normed="1259.602083" electricity_normed="0"
            traveltime="0.07" CO_perVeh="8.168846" CO2_perVeh="351.187517" HC_perVeh="0.045505" PMx_perVeh="0.007100" NOx_perVeh="0.151895" fuel_perVeh="0.150961" electricity_perVeh="0"/>
        <edge id=":1103427051_0" sampledSeconds="19.35" CO_abs="1549.676293" CO2_abs="87223.447911" HC_abs="9.126376" PMx_abs="1.707258" NOx_abs="37.196670" fuel_abs="37.493505" electricity_abs="0"
            CO_normed="2247.092732" CO2_normed="126477.495168" HC_normed="13.233611" PMx_normed="2.475592" NOx_normed="53.936663" fuel_normed="54.367086" electricity_normed="0"
            traveltime="0.03" CO_perVeh="2.409943" CO2_perVeh="135.643500" HC_perVeh="0.014193" PMx_perVeh="0.002655" NOx_perVeh="0.057846" fuel_perVeh="0.058307" electricity_perVeh="0"/>
        <edge id=":1105984386_0" sampledSeconds="10.55" CO_abs="175.222504" CO2_abs="13354.447170" HC_abs="1.098393" PMx_abs="0.161392" NOx_abs="4.983067" fuel_abs="5.740593" electricity_abs="0"
            CO_normed="7.588373" CO2_normed="578.341941" HC_normed="0.047568" PMx_normed="0.006989" NOx_normed="0.215802" fuel_normed="0.248608" electricity_normed="0"
            traveltime="1.01" CO_perVeh="16.809035" CO2_perVeh="1281.087552" HC_perVeh="0.105368" PMx_perVeh="0.015482" NOx_perVeh="0.478024" fuel_perVeh="0.550693" electricity_perVeh="0"/>
        <edge id=":1105984390_0" sampledSeconds="11.23" CO_abs="45.441429" CO2_abs="3615.339022" HC_abs="0.288222" PMx_abs="0.042973" NOx_abs="1.342655" fuel_abs="1.554103" electricity_abs="0"
            CO_normed="1.521389" CO2_normed="121.042363" HC_normed="0.009650" PMx_normed="0.001439" NOx_normed="0.044952" fuel_normed="0.052032" electricity_normed="0"
            traveltime="1.16" CO_perVeh="4.710278" CO2_perVeh="374.751656" HC_perVeh="0.029876" PMx_perVeh="0.004454" NOx_perVeh="0.139174" fuel_perVeh="0.161092" electricity_perVeh="0"/>
        <edge id=":1105984390_1" sampledSeconds="2398.80" CO_abs="67171.397165" CO2_abs="7813470.358321" HC_abs="492.587287" PMx_abs="142.016266" NOx_abs="2983.626034" fuel_abs="3358.649367" electricity_abs="0"
            CO_normed="2151.283565" CO2_normed="250240.296842" HC_normed="15.775985" PMx_normed="4.548324" NOx_normed="95.555935" fuel_normed="107.566725" electricity_normed="0"
            traveltime="0.65" CO_perVeh="18.138832" CO2_perVeh="2109.934225" HC_perVeh="0.133017" PMx_perVeh="0.038350" NOx_perVeh="0.805693" fuel_perVeh="0.906963" electricity_perVeh="0"/>
        <edge id=":1105984395_0" sampledSeconds="4.07" CO_abs="91.840682" CO2_abs="6535.422802" HC_abs="0.567632" PMx_abs="0.092672" NOx_abs="2.532809" fuel_abs="2.809325" electricity_abs="0"
            CO_normed="41.978341" CO2_normed="2987.197006" HC_normed="0.259452" PMx_normed="0.042358" NOx_normed="1.157691" fuel_normed="1.284080" electricity_normed="0"
            traveltime="0.09" CO_perVeh="2.128834" CO2_perVeh="151.488762" HC_perVeh="0.013158" PMx_perVeh="0.002148" NOx_perVeh="0.058710" fuel_perVeh="0.065119" electricity_perVeh="0"/>
        <edge id=":1105984398_0" sampledSeconds="10.77" CO_abs="628.251959" CO2_abs="42741.016280" HC_abs="3.866723" PMx_abs="0.760325" NOx_abs="17.576716" fuel_abs="18.372495" electricity_abs="0"
            CO_normed="21.851716" CO2_normed="1486.608280" HC_normed="0.134491" PMx_normed="0.026445" NOx_normed="0.611349" fuel_normed="0.639028" electricity_normed="0"
            traveltime="1.19" CO_perVeh="69.702537" CO2_perVeh="4741.978475" HC_perVeh="0.429000" PMx_perVeh="0.084356" NOx_perVeh="1.950080" fuel_perVeh="2.038369" electricity_perVeh="0"/>
        <edge id=":1105984398_1" sampledSeconds="646.03" CO_abs="11463.094539" CO2_abs="1352081.371439" HC_abs="83.108404" PMx_abs="19.369436" NOx_abs="511.049394" fuel_abs="581.202083" electricity_abs="0"
            CO_normed="385.937909" CO2_normed="45521.691851" HC_normed="2.798082" PMx_normed="0.652128" NOx_normed="17.205942" fuel_normed="19.567833" electricity_normed="0"
            traveltime="0.95" CO_perVeh="16.894883" CO2_perVeh="1992.765240" HC_perVeh="0.122489" PMx_perVeh="0.028548" NOx_perVeh="0.753210" fuel_perVeh="0.856605" electricity_perVeh="0"/>
        <edge id=":1106006327_0" sampledSeconds="67.12" CO_abs="9064.819685" CO2_abs="295468.434762" HC_abs="48.232053" PMx_abs="6.164592" NOx_abs="129.346286" fuel_abs="127.011413" electricity_abs="0"
            CO_normed="430.232735" CO2_normed="14023.466241" HC_normed="2.289180" PMx_normed="0.292583" NOx_normed="6.139009" fuel_normed="6.028191" electricity_normed="0"
            traveltime="2.08" CO_perVeh="281.005921" CO2_perVeh="9159.407760" HC_perVeh="1.495175" PMx_perVeh="0.191100" NOx_perVeh="4.009685" fuel_perVeh="3.937305" electricity_perVeh="0"/>
        <edge id=":1106006327_1" sampledSeconds="684.19" CO_abs="92648.318363" CO2_abs="3092810.523840" HC_abs="494.754773" PMx_abs="64.538114" NOx_abs="1353.685202" fuel_abs="1329.487778" electricity_abs="0"
            CO_normed="3834.615618" CO2_normed="128008.146790" HC_normed="20.477375" PMx_normed="2.671164" NOx_normed="56.027595" fuel_normed="55.026089" electricity_normed="0"
            traveltime="2.30" CO_perVeh="310.997980" CO2_perVeh="10381.816324" HC_perVeh="1.660772" PMx_perVeh="0.216639" NOx_perVeh="4.543994" fuel_perVeh="4.462769" electricity_perVeh="0"/>
        <edge id=":1106006327_2" sampledSeconds="0.00" CO_abs="0" CO2_abs="0" HC_abs="0" PMx_abs="0" NOx_abs="0" fuel_abs="0" electricity_abs="0"
            CO_normed="0" CO2_normed="0" HC_normed="0" PMx_normed="0" NOx_normed="0" fuel_normed="0" electricity_normed="0"/>
        <edge id=":1106006327_3" sampledSeconds="0.00" CO_abs="0" CO2_abs="0" HC_abs="0" PMx_abs="0" NOx_abs="0" fuel_abs="0" electricity_abs="0"
            CO_normed="0" CO2_normed="0" HC_normed="0" PMx_normed="0" NOx_normed="0" fuel_normed="0" electricity_normed="0"/>
        <edge id=":1107381198_0" sampledSeconds="0.00" CO_abs="0" CO2_abs="0" HC_abs="0" PMx_abs="0" NOx_abs="0" fuel_abs="0" electricity_abs="0"
            CO_normed="0" CO2_normed="0" HC_normed="0" PMx_normed="0" NOx_normed="0" fuel_normed="0" electricity_normed="0"/>
        <edge id=":1107381198_1" sampledSeconds="105.99" CO_abs="4481.501103" CO2_abs="176835.538890" HC_abs="24.489646" PMx_abs="3.125808" NOx_abs="73.753667" fuel_abs="76.015389" electricity_abs="0"
            CO_normed="205.509629" CO2_normed="8109.203857" HC_normed="1.123030" PMx_normed="0.143341" NOx_normed="3.382145" fuel_normed="3.485862" electricity_normed="0"
            traveltime="1.59" CO_perVeh="67.096665" CO2_perVeh="2647.567091" HC_perVeh="0.366657" PMx_perVeh="0.046799" NOx_perVeh="1.104234" fuel_perVeh="1.138096" electricity_perVeh="0"/>
        <edge id=":1110338277_0" sampledSeconds="159.93" CO_abs="2690.816972" CO2_abs="318329.610575" HC_abs="19.519259" PMx_abs="4.442426" NOx_abs="119.674561" fuel_abs="136.836479" electricity_abs="0"
            CO_normed="4041.142181" CO2_normed="478076.075088" HC_normed="29.314555" PMx_normed="6.671756" NOx_normed="179.730514" fuel_normed="205.504749" electricity_normed="0"
            traveltime="0.02" CO_perVeh="0.365038" CO2_perVeh="43.184855" HC_perVeh="0.002648" PMx_perVeh="0.000603" NOx_perVeh="0.016235" fuel_perVeh="0.018563" electricity_perVeh="0"/>
        <edge id=":1110338293_0" sampledSeconds="6841.82" CO_abs="637472.842985" CO2_abs="11120679.293647" HC_abs="3162.838140" PMx_abs="265.847055" NOx_abs="5029.882819" fuel_abs="4780.593847" electricity_abs="0"
            CO_normed="893549.131623" CO2_normed="15587916.309282" HC_normed="4433.367327" PMx_normed="372.639254" NOx_normed="7050.413950" fuel_normed="6700.984250" electricity_normed="0"
            traveltime="0.46" CO_perVeh="42.601141" CO2_perVeh="743.174595" HC_perVeh="0.211367" PMx_perVeh="0.017766" NOx_perVeh="0.336138" fuel_perVeh="0.319478" electricity_perVeh="0"/>
        <edge id=":1110338295_0" sampledSeconds="0.00" CO_abs="0" CO2_abs="0" HC_abs="0" PMx_abs="0" NOx_abs="0" fuel_abs="0" electricity_abs="0"
            CO_normed="0" CO2_normed="0" HC_normed="0" PMx_normed="0" NOx_normed="0" fuel_normed="0" electricity_normed="0"/>
        <edge id=":1110673403_0" sampledSeconds="200.31" CO_abs="3146.773399" CO2_abs="393530.644661" HC_abs="23.272022" PMx_abs="5.353079" NOx_abs="146.756398" fuel_abs="169.162317" electricity_abs="0"
            CO_normed="4410.849292" CO2_normed="551614.032933" HC_normed="32.620520" PMx_normed="7.503439" NOx_normed="205.709237" fuel_normed="237.115735" electricity_normed="0"
            traveltime="0.02" CO_perVeh="0.363691" CO2_perVeh="45.482603" HC_perVeh="0.002690" PMx_perVeh="0.000619" NOx_perVeh="0.016961" fuel_perVeh="0.019551" electricity_perVeh="0"/>
        <edge id=":1110673412_0" sampledSeconds="940.93" CO_abs="167169.447728" CO2_abs="11418958.553335" HC_abs="1040.659042" PMx_abs="250.855937" NOx_abs="4906.024578" fuel_abs="4908.447909" electricity_abs="0"
            CO_normed="242402.398939" CO2_normed="16557947.545609" HC_normed="1508.997318" PMx_normed="363.751162" NOx_normed="7113.932260" fuel_normed="7117.446187" electricity_normed="0"
            traveltime="0.02" CO_perVeh="2.757375" CO2_perVeh="188.349909" HC_perVeh="0.017165" PMx_perVeh="0.004138" NOx_perVeh="0.080922" fuel_perVeh="0.080962" electricity_perVeh="0"/>
        <edge id=":1110673414_0" sampledSeconds="0.00" CO_abs="0" CO2_abs="0" HC_abs="0" PMx_abs="0" NOx_abs="0" fuel_abs="0" electricity_abs="0"
            CO_normed="0" CO2_normed="0" HC_normed="0" PMx_normed="0" NOx_normed="0" fuel_normed="0" electricity_normed="0"/>
        <edge id=":1110673414_1" sampledSeconds="6.92" CO_abs="475.258716" CO2_abs="18810.292743" HC_abs="2.598539" PMx_abs="0.333102" NOx_abs="7.851970" fuel_abs="8.085882" electricity_abs="0"
            CO_normed="22.131984" CO2_normed="875.963092" HC_normed="0.121010" PMx_normed="0.015512" NOx_normed="0.365653" fuel_normed="0.376546" electricity_normed="0"
            traveltime="1.51" CO_perVeh="103.811955" CO2_perVeh="4108.779474" HC_perVeh="0.567605" PMx_perVeh="0.072760" NOx_perVeh="1.715126" fuel_perVeh="1.766219" electricity_perVeh="0"/>
        <edge id=":1110673417_0" sampledSeconds="28.76" CO_abs="451.096917" CO2_abs="49521.836943" HC_abs="3.163658" PMx_abs="0.699455" NOx_abs="18.722611" fuel_abs="21.287356" electricity_abs="0"
            CO_normed="677.469631" CO2_normed="74373.242860" HC_normed="4.751267" PMx_normed="1.050461" NOx_normed="28.118128" fuel_normed="31.969930" electricity_normed="0"
            traveltime="0.02" CO_perVeh="0.343983" CO2_perVeh="37.762778" HC_perVeh="0.002412" PMx_perVeh="0.000533" NOx_perVeh="0.014277" fuel_perVeh="0.016233" electricity_perVeh="0"/>
        <edge id=":1110673446_0" sampledSeconds="1311.09" CO_abs="14091.139260" CO2_abs="1141825.610070" HC_abs="91.277035" PMx_abs="20.976154" NOx_abs="467.279803" fuel_abs="490.818275" electricity_abs="0"
            CO_normed="19751.626108" CO2_normed="1600503.132910" HC_normed="127.943514" PMx_normed="29.402389" NOx_normed="654.988627" fuel_normed="687.982630" electricity_normed="0"
            traveltime="0.02" CO_perVeh="0.244636" CO2_perVeh="19.823207" HC_perVeh="0.001585" PMx_perVeh="0.000364" NOx_perVeh="0.008112" fuel_perVeh="0.008521" electricity_perVeh="0"/>
        <edge id=":1110673451_0" sampledSeconds="36.15" CO_abs="272.582121" CO2_abs="21409.512193" HC_abs="1.732545" PMx_abs="0.305534" NOx_abs="8.272696" fuel_abs="9.203097" electricity_abs="0"
            CO_normed="424.533148" CO2_normed="33344.254477" HC_normed="2.698354" PMx_normed="0.475854" NOx_normed="12.884314" fuel_normed="14.333368" electricity_normed="0"
            traveltime="0.03" CO_perVeh="0.200833" CO2_perVeh="15.774077" HC_perVeh="0.001277" PMx_perVeh="0.000225" NOx_perVeh="0.006095" fuel_perVeh="0.006781" electricity_perVeh="0"/>
        <edge id=":1110673464_0" sampledSeconds="1022.26" CO_abs="3209.180254" CO2_abs="246837.060193" HC_abs="20.257769" PMx_abs="3.428410" NOx_abs="94.761503" fuel_abs="106.105630" electricity_abs="0"
            CO_normed="95.573484" CO2_normed="7351.122710" HC_normed="0.603302" PMx_normed="0.102102" NOx_normed="2.822119" fuel_normed="3.159961" electricity_normed="0"
            traveltime="1.21" CO_perVeh="3.805639" CO2_perVeh="292.714208" HC_perVeh="0.024023" PMx_perVeh="0.004066" NOx_perVeh="0.112374" fuel_perVeh="0.125826" electricity_perVeh="0"/>
        <edge id=":1110673464_1" sampledSeconds="2609.86" CO_abs="64620.842174" CO2_abs="7788015.272131" HC_abs="479.727426" PMx_abs="139.471145" NOx_abs="2959.298331" fuel_abs="3347.708649" electricity_abs="0"
            CO_normed="1885.760943" CO2_normed="227269.322549" HC_normed="13.999373" PMx_normed="4.070037" NOx_normed="86.358039" fuel_normed="97.692602" electricity_normed="0"
            traveltime="0.72" CO_perVeh="17.814166" CO2_perVeh="2146.938891" HC_perVeh="0.132247" PMx_perVeh="0.038448" NOx_perVeh="0.815796" fuel_perVeh="0.922870" electricity_perVeh="0"/>
        <edge id=":1110673479_0" sampledSeconds="135.69" CO_abs="6265.428328" CO2_abs="432133.976891" HC_abs="38.660354" PMx_abs="7.473161" NOx_abs="176.172188" fuel_abs="185.755777" electricity_abs="0"
            CO_normed="8782.284772" CO2_normed="605724.532496" HC_normed="54.190428" PMx_normed="10.475170" NOx_normed="246.941509" fuel_normed="260.374877" electricity_normed="0"
            traveltime="0.03" CO_perVeh="1.324576" CO2_perVeh="91.357592" HC_perVeh="0.008173" PMx_perVeh="0.001580" NOx_perVeh="0.037245" fuel_perVeh="0.039271" electricity_perVeh="0"/>
        <edge id=":1110673511_0" sampledSeconds="63.65" CO_abs="1233.105243" CO2_abs="126684.630738" HC_abs="8.524161" PMx_abs="1.820636" NOx_abs="48.299962" fuel_abs="54.456409" electricity_abs="0"
            CO_normed="1728.450288" CO2_normed="177574.532047" HC_normed="11.948363" PMx_normed="2.551996" NOx_normed="67.702318" fuel_normed="76.331842" electricity_normed="0"
            traveltime="0.02" CO_perVeh="0.472605" CO2_perVeh="48.553675" HC_perVeh="0.003267" PMx_perVeh="0.000698" NOx_perVeh="0.018512" fuel_perVeh="0.020871" electricity_perVeh="0"/>
        <edge id=":1110673517_0" sampledSeconds="183.02" CO_abs="8118.251714" CO2_abs="581112.716591" HC_abs="50.588846" PMx_abs="9.949791" NOx_abs="235.862290" fuel_abs="249.795250" electricity_abs="0"
            CO_normed="11379.397333" CO2_normed="814548.837646" HC_normed="70.910659" PMx_normed="13.946677" NOx_normed="330.609447" fuel_normed="350.139353" electricity_normed="0"
            traveltime="0.03" CO_perVeh="1.242970" CO2_perVeh="88.973061" HC_perVeh="0.007746" PMx_perVeh="0.001523" NOx_perVeh="0.036112" fuel_perVeh="0.038246" electricity_perVeh="0"/>
        <edge id=":1110673534_0" sampledSeconds="660.15" CO_abs="4651.987267" CO2_abs="394781.989097" HC_abs="30.196100" PMx_abs="5.288940" NOx_abs="149.770478" fuel_abs="169.701329" electricity_abs="0"
            CO_normed="126.370460" CO2_normed="10724.187000" HC_normed="0.820272" PMx_normed="0.143673" NOx_normed="4.068490" fuel_normed="4.609908" electricity_normed="0"
            traveltime="1.45" CO_perVeh="10.229028" CO2_perVeh="868.066848" HC_perVeh="0.066397" PMx_perVeh="0.011630" NOx_perVeh="0.329323" fuel_perVeh="0.373148" electricity_perVeh="0"/>
        <edge id=":1110673534_1" sampledSeconds="264.69" CO_abs="4027.253264" CO2_abs="498497.539014" HC_abs="29.616653" PMx_abs="6.803775" NOx_abs="186.004425" fuel_abs="214.283177" electricity_abs="0"
            CO_normed="106.376056" CO2_normed="13167.337244" HC_normed="0.782296" PMx_normed="0.179715" NOx_normed="4.913130" fuel_normed="5.660086" electricity_normed="0"
            traveltime="1.23" CO_perVeh="18.685445" CO2_perVeh="2312.903522" HC_perVeh="0.137414" PMx_perVeh="0.031568" NOx_perVeh="0.863014" fuel_perVeh="0.994220" electricity_perVeh="0"/>
        <edge id=":1110673549_0" sampledSeconds="652.03" CO_abs="1711.011902" CO2_abs="160347.854424" HC_abs="11.433106" PMx_abs="2.462827" NOx_abs="61.929250" fuel_abs="68.926714" electricity_abs="0"
            CO_normed="45.025056" CO2_normed="4219.532943" HC_normed="0.300861" PMx_normed="0.064809" NOx_normed="1.629660" fuel_normed="1.813798" electricity_normed="0"
            traveltime="1.30" CO_perVeh="3.399373" CO2_perVeh="318.572952" HC_perVeh="0.022715" PMx_perVeh="0.004893" NOx_perVeh="0.123039" fuel_perVeh="0.136941" electricity_perVeh="0"/>
        <edge id=":1110673549_1" sampledSeconds="3198.76" CO_abs="68536.212471" CO2_abs="9172189.623186" HC_abs="530.931811" PMx_abs="160.445298" NOx_abs="3419.198880" fuel_abs="3942.705097" electricity_abs="0"
            CO_normed="1744.568638" CO2_normed="233475.323250" HC_normed="13.514709" PMx_normed="4.084087" NOx_normed="87.034677" fuel_normed="100.360370" electricity_normed="0"
            traveltime="0.81" CO_perVeh="17.287568" CO2_perVeh="2313.592295" HC_perVeh="0.133922" PMx_perVeh="0.040471" NOx_perVeh="0.862458" fuel_perVeh="0.994508" electricity_perVeh="0"/>
        <edge id=":1110673556_0" sampledSeconds="472.15" CO_abs="58110.242806" CO2_abs="2770129.572098" HC_abs="330.362909" PMx_abs="55.894324" NOx_abs="1194.234433" fuel_abs="1190.761115" electricity_abs="0"
            CO_normed="1133.922621" CO2_normed="54054.370340" HC_normed="6.446471" PMx_normed="1.090683" NOx_normed="23.303455" fuel_normed="23.235679" electricity_normed="0"
            traveltime="2.78" CO_perVeh="342.554294" CO2_perVeh="16329.647476" HC_perVeh="1.947458" PMx_perVeh="0.329492" NOx_perVeh="7.039897" fuel_perVeh="7.019422" electricity_perVeh="0"/>
        <edge id=":1110673556_2" sampledSeconds="174.36" CO_abs="17120.816788" CO2_abs="735540.707742" HC_abs="95.267199" PMx_abs="14.380221" NOx_abs="314.924303" fuel_abs="316.179795" electricity_abs="0"
            CO_normed="349.320837" CO2_normed="15007.443785" HC_normed="1.943763" PMx_normed="0.293404" NOx_normed="6.425489" fuel_normed="6.451105" electricity_normed="0"
            traveltime="3.02" CO_perVeh="296.043387" CO2_perVeh="12718.549891" HC_perVeh="1.647306" PMx_perVeh="0.248655" NOx_perVeh="5.445491" fuel_perVeh="5.467200" electricity_perVeh="0"/>
        <edge id=":1110673556_3" sampledSeconds="352.22" CO_abs="35546.900248" CO2_abs="1237756.830004" HC_abs="190.789752" PMx_abs="24.369980" NOx_abs="532.703530" fuel_abs="532.067931" electricity_abs="0"
            CO_normed="1649.876898" CO2_normed="57449.352408" HC_normed="8.855332" PMx_normed="1.131110" NOx_normed="24.724948" fuel_normed="24.695447" electricity_normed="0"
            traveltime="1.82" CO_perVeh="183.625306" CO2_perVeh="6393.904269" HC_perVeh="0.985566" PMx_perVeh="0.125888" NOx_perVeh="2.751797" fuel_perVeh="2.748514" electricity_perVeh="0"/>
        <edge id=":1110673556_4" sampledSeconds="77.43" CO_abs="9008.064720" CO2_abs="337524.842733" HC_abs="48.943780" PMx_abs="6.718892" NOx_abs="145.584408" fuel_abs="145.089322" electricity_abs="0"
            CO_normed="255.427910" CO2_normed="9570.675606" HC_normed="1.387824" PMx_normed="0.190517" NOx_normed="4.128114" fuel_normed="4.114076" electricity_normed="0"
            traveltime="2.67" CO_perVeh="310.125359" CO2_perVeh="11620.144437" HC_perVeh="1.685013" PMx_perVeh="0.231315" NOx_perVeh="5.012111" fuel_perVeh="4.995066" electricity_perVeh="0"/>
        <edge id=":1110673556_5" sampledSeconds="22.65" CO_abs="1571.504554" CO2_abs="69511.770884" HC_abs="8.794562" PMx_abs="1.369130" NOx_abs="29.847162" fuel_abs="29.880298" electricity_abs="0"
            CO_normed="62.108640" CO2_normed="2747.228154" HC_normed="0.347577" PMx_normed="0.054110" NOx_normed="1.179613" fuel_normed="1.180922" electricity_normed="0"
            traveltime="1.57" CO_perVeh="108.647228" CO2_perVeh="4805.752061" HC_perVeh="0.608019" PMx_perVeh="0.094656" NOx_perVeh="2.063507" fuel_perVeh="2.065798" electricity_perVeh="0"/>
        <edge id=":1110673556_6" sampledSeconds="551.90" CO_abs="64935.136429" CO2_abs="3109369.376875" HC_abs="369.467172" PMx_abs="62.547132" NOx_abs="1339.088398" fuel_abs="1336.585967" electricity_abs="0"
            CO_normed="1299.047554" CO2_normed="62203.899217" HC_normed="7.391305" PMx_normed="1.251275" NOx_normed="26.788879" fuel_normed="26.738817" electricity_normed="0"
            traveltime="2.68" CO_perVeh="315.274444" CO2_perVeh="15096.675791" HC_perVeh="1.793845" PMx_perVeh="0.303680" NOx_perVeh="6.501570" fuel_perVeh="6.489420" electricity_perVeh="0"/>
        <edge id=":1110673561_0" sampledSeconds="103.87" CO_abs="10200.848022" CO2_abs="714627.587418" HC_abs="63.672117" PMx_abs="14.559749" NOx_abs="303.368235" fuel_abs="307.184338" electricity_abs="0"
            CO_normed="256.400188" CO2_normed="17962.295652" HC_normed="1.600410" PMx_normed="0.365962" NOx_normed="7.625216" fuel_normed="7.721135" electricity_normed="0"
            traveltime="1.23" CO_perVeh="120.379908" CO2_perVeh="8433.299149" HC_perVeh="0.751393" PMx_perVeh="0.171819" NOx_perVeh="3.580040" fuel_perVeh="3.625073" electricity_perVeh="0"/>
        <edge id=":1110673561_1" sampledSeconds="5188.61" CO_abs="481950.002398" CO2_abs="33433862.099246" HC_abs="3003.491479" PMx_abs="698.404439" NOx_abs="14290.080666" fuel_abs="14371.602864" electricity_abs="0"
            CO_normed="11810.348337" CO2_normed="819308.135019" HC_normed="73.601578" PMx_normed="17.114638" NOx_normed="350.183275" fuel_normed="352.181005" electricity_normed="0"
            traveltime="1.19" CO_perVeh="110.661059" CO2_perVeh="7676.785051" HC_perVeh="0.689635" PMx_perVeh="0.160361" NOx_perVeh="3.281161" fuel_perVeh="3.299879" electricity_perVeh="0"/>
        <edge id=":1110673562_0" sampledSeconds="300.98" CO_abs="6800.550889" CO2_abs="521524.466695" HC_abs="42.864146" PMx_abs="7.118502" NOx_abs="199.659594" fuel_abs="224.183221" electricity_abs="0"
            CO_normed="10591.521066" CO2_normed="812248.517221" HC_normed="66.758784" PMx_normed="11.086714" NOx_normed="310.959926" fuel_normed="349.154259" electricity_normed="0"
            traveltime="0.03" CO_perVeh="0.609611" CO2_perVeh="46.750201" HC_perVeh="0.003842" PMx_perVeh="0.000638" NOx_perVeh="0.017898" fuel_perVeh="0.020096" electricity_perVeh="0"/>
        <edge id=":1110673564_0" sampledSeconds="27.62" CO_abs="413.233357" CO2_abs="48167.016553" HC_abs="2.982139" PMx_abs="0.663245" NOx_abs="18.071735" fuel_abs="20.704987" electricity_abs="0"
            CO_normed="1737.694295" CO2_normed="202547.902805" HC_normed="12.540240" PMx_normed="2.789021" NOx_normed="75.993748" fuel_normed="87.066877" electricity_normed="0"
            traveltime="7.802028e-03" CO_perVeh="0.116716" CO2_perVeh="13.604580" HC_perVeh="0.000842" PMx_perVeh="0.000187" NOx_perVeh="0.005104" fuel_perVeh="0.005848" electricity_perVeh="0"/>
        <edge id=":1110673588_0" sampledSeconds="63.31" CO_abs="1089.004879" CO2_abs="121045.305161" HC_abs="7.721829" PMx_abs="1.647673" NOx_abs="45.446107" fuel_abs="52.032374" electricity_abs="0"
            CO_normed="1831.756834" CO2_normed="203603.830664" HC_normed="12.988476" PMx_normed="2.771462" NOx_normed="76.442465" fuel_normed="87.520872" electricity_normed="0"
            traveltime="0.02" CO_perVeh="0.351292" CO2_perVeh="39.046873" HC_perVeh="0.002491" PMx_perVeh="0.000532" NOx_perVeh="0.014660" fuel_perVeh="0.016785" electricity_perVeh="0"/>
        <edge id=":1110673601_0" sampledSeconds="28.84" CO_abs="399.006624" CO2_abs="45772.685584" HC_abs="2.857741" PMx_abs="0.640939" NOx_abs="17.238743" fuel_abs="19.675752" electricity_abs="0"
            CO_normed="599.239011" CO2_normed="68742.665285" HC_normed="4.291833" PMx_normed="0.962580" NOx_normed="25.889613" fuel_normed="29.549580" electricity_normed="0"
            traveltime="0.02" CO_perVeh="0.304262" CO2_perVeh="34.903870" HC_perVeh="0.002179" PMx_perVeh="0.000489" NOx_perVeh="0.013145" fuel_perVeh="0.015004" electricity_perVeh="0"/>
        <edge id=":1110673617_0" sampledSeconds="857.81" CO_abs="32799.446012" CO2_abs="3279268.379285" HC_abs="228.038806" PMx_abs="62.036433" NOx_abs="1288.584147" fuel_abs="1409.603871" electricity_abs="0"
            CO_normed="45975.160863" CO2_normed="4596568.222337" HC_normed="319.643227" PMx_normed="86.956803" NOx_normed="1806.215367" fuel_normed="1975.849369" electricity_normed="0"
            traveltime="0.02" CO_perVeh="0.581332" CO2_perVeh="58.121195" HC_perVeh="0.004042" PMx_perVeh="0.001100" NOx_perVeh="0.022839" fuel_perVeh="0.024984" electricity_perVeh="0"/>
        <edge id=":1110673621_0" sampledSeconds="26.52" CO_abs="607.774231" CO2_abs="59463.661931" HC_abs="4.150514" PMx_abs="0.897013" NOx_abs="22.996445" fuel_abs="25.560891" electricity_abs="0"
            CO_normed="1022.304513" CO2_normed="100020.643828" HC_normed="6.981358" PMx_normed="1.508818" NOx_normed="38.681090" fuel_normed="42.994606" electricity_normed="0"
            traveltime="0.02" CO_perVeh="0.460435" CO2_perVeh="45.048229" HC_perVeh="0.003144" PMx_perVeh="0.000680" NOx_perVeh="0.017422" fuel_perVeh="0.019364" electricity_perVeh="0"/>
        <edge id=":1110673630_0" sampledSeconds="288.35" CO_abs="1211.883269" CO2_abs="103954.399461" HC_abs="7.873075" PMx_abs="1.356039" NOx_abs="39.193268" fuel_abs="44.685972" electricity_abs="0"
            CO_normed="36.348859" CO2_normed="3117.976689" HC_normed="0.236143" PMx_normed="0.040673" NOx_normed="1.175551" fuel_normed="1.340297" electricity_normed="0"
            traveltime="1.30" CO_perVeh="5.453012" CO2_perVeh="467.755095" HC_perVeh="0.035426" PMx_perVeh="0.006102" NOx_perVeh="0.176355" fuel_perVeh="0.201070" electricity_perVeh="0"/>
        <edge id=":1110673630_1" sampledSeconds="334.89" CO_abs="1121.592905" CO2_abs="96081.856166" HC_abs="7.284911" PMx_abs="1.204423" NOx_abs="35.933223" fuel_abs="41.301946" electricity_abs="0"
            CO_normed="41.012422" CO2_normed="3513.351063" HC_normed="0.266382" PMx_normed="0.044041" NOx_normed="1.313942" fuel_normed="1.510256" electricity_normed="0"
            traveltime="1.07" CO_perVeh="3.575417" CO2_perVeh="306.290047" HC_perVeh="0.023223" PMx_perVeh="0.003839" NOx_perVeh="0.114548" fuel_perVeh="0.131662" electricity_perVeh="0"/>
        <edge id=":1110673650_0" sampledSeconds="200.44" CO_abs="2867.121419" CO2_abs="372022.721879" HC_abs="21.472851" PMx_abs="5.012745" NOx_abs="138.130038" fuel_abs="159.916969" electricity_abs="0"
            CO_normed="4018.859599" CO2_normed="521466.261248" HC_normed="30.098611" PMx_normed="7.026392" NOx_normed="193.617622" fuel_normed="224.156480" electricity_normed="0"
            traveltime="0.02" CO_perVeh="0.331370" CO2_perVeh="42.996809" HC_perVeh="0.002482" PMx_perVeh="0.000579" NOx_perVeh="0.015964" fuel_perVeh="0.018483" electricity_perVeh="0"/>
        <edge id=":1110673655_0" sampledSeconds="20.65" CO_abs="342.105614" CO2_abs="42978.074784" HC_abs="2.543300" PMx_abs="0.585920" NOx_abs="16.039676" fuel_abs="18.474470" electricity_abs="0"
            CO_normed="479.531290" CO2_normed="60242.599860" HC_normed="3.564957" PMx_normed="0.821287" NOx_normed="22.482900" fuel_normed="25.895764" electricity_normed="0"
            traveltime="0.02" CO_perVeh="0.390829" CO2_perVeh="49.099095" HC_perVeh="0.002906" PMx_perVeh="0.000669" NOx_perVeh="0.018324" fuel_perVeh="0.021106" electricity_perVeh="0"/>
        <edge id=":1110673663_0" sampledSeconds="110.83" CO_abs="1792.484546" CO2_abs="206556.731853" HC_abs="12.816552" PMx_abs="2.854068" NOx_abs="77.580197" fuel_abs="88.790093" electricity_abs="0"
            CO_normed="46.017130" CO2_normed="5302.778171" HC_normed="0.329030" PMx_normed="0.073270" NOx_normed="1.991659" fuel_normed="2.279442" electricity_normed="0"
            traveltime="1.30" CO_perVeh="21.053577" CO2_perVeh="2426.106260" HC_perVeh="0.150536" PMx_perVeh="0.033522" NOx_perVeh="0.911216" fuel_perVeh="1.042882" electricity_perVeh="0"/>
        <edge id=":1110673663_1" sampledSeconds="170.32" CO_abs="2571.559063" CO2_abs="319747.551871" HC_abs="18.996561" PMx_abs="4.283492" NOx_abs="118.911156" fuel_abs="137.446171" electricity_abs="0"
            CO_normed="66.098440" CO2_normed="8218.677373" HC_normed="0.488281" PMx_normed="0.110101" NOx_normed="3.056450" fuel_normed="3.532867" electricity_normed="0"
            traveltime="1.27" CO_perVeh="19.219390" CO2_perVeh="2389.738142" HC_perVeh="0.141977" PMx_perVeh="0.032014" NOx_perVeh="0.888722" fuel_perVeh="1.027249" electricity_perVeh="0"/>