<?xml version="1.0" encoding="UTF-8"?>

<!-- generated on Mon Nov  9 21:17:11 2020 by Eclipse SUMO sumo Version 1.7.0
<configuration xmlns:xsi="http://www.w3.org/2001/XMLSchema-instance" xsi:noNamespaceSchemaLocation="http://sumo.dlr.de/xsd/sumoConfiguration.xsd">

    <input>
        <net-file value="../dataSets/Porto/6AM7AM_Routing_SaoBento/Porto.net.xml"/>
        <route-files value="../results/Porto/6AM7AM_Routing_SaoBento/length-ttime/solution5/Porto.rou.xml"/>
        <additional-files value="moreOutputInfo.xml"/>
    </input>

    <output>
        <emission-output.precision value="6"/>
        <tripinfo-output value="../results/Porto/6AM7AM_Routing_SaoBento/length-ttime/solution5/Porto-tripinfo"/>
    </output>

    <processing>
        <collision.action value="warn"/>
        <time-to-teleport value="-1"/>
    </processing>

    <emissions>
        <device.emissions.probability value="1"/>
    </emissions>

    <gui_only>
        <quit-on-end value="true"/>
        <start value="true"/>
    </gui_only>

</configuration>
-->

<meandata xmlns:xsi="http://www.w3.org/2001/XMLSchema-instance" xsi:noNamespaceSchemaLocation="http://sumo.dlr.de/xsd/meandata_file.xsd">
    <interval begin="0.00" end="4700.00" id="emissions-detector">
        <edge id=":1092997347_0" sampledSeconds="273.44" CO_abs="35096.354583" CO2_abs="1373380.242106" HC_abs="192.253958" PMx_abs="28.056069" NOx_abs="596.494960" fuel_abs="590.362493" electricity_abs="0"
            CO_normed="61096.168519" CO2_normed="2390797.326683" HC_normed="334.678070" PMx_normed="48.840352" NOx_normed="1038.385811" fuel_normed="1027.710335" electricity_normed="0"
            traveltime="0.08" CO_perVeh="9.852850" CO2_perVeh="385.558841" HC_perVeh="0.053973" PMx_perVeh="0.007876" NOx_perVeh="0.167458" fuel_perVeh="0.165737" electricity_perVeh="0"/>
        <edge id=":1103427051_0" sampledSeconds="10.83" CO_abs="895.449200" CO2_abs="50013.338235" HC_abs="5.269315" PMx_abs="1.006736" NOx_abs="21.517828" fuel_abs="21.498486" electricity_abs="0"
            CO_normed="2365.089595" CO2_normed="132096.858141" HC_normed="13.917485" PMx_normed="2.659023" NOx_normed="56.833588" fuel_normed="56.782502" electricity_normed="0"
            traveltime="0.03" CO_perVeh="2.453517" CO2_perVeh="137.035791" HC_perVeh="0.014438" PMx_perVeh="0.002758" NOx_perVeh="0.058959" fuel_perVeh="0.058906" electricity_perVeh="0"/>
        <edge id=":1105984386_0" sampledSeconds="22.88" CO_abs="468.429105" CO2_abs="37962.559179" HC_abs="2.999101" PMx_abs="0.512195" NOx_abs="14.469396" fuel_abs="16.318627" electricity_abs="0"
            CO_normed="36.951263" CO2_normed="2994.614305" HC_normed="0.236579" PMx_normed="0.040404" NOx_normed="1.141395" fuel_normed="1.287268" electricity_normed="0"
            traveltime="0.96" CO_perVeh="19.659607" CO2_perVeh="1593.259205" HC_perVeh="0.125870" PMx_perVeh="0.021496" NOx_perVeh="0.607269" fuel_perVeh="0.684880" electricity_perVeh="0"/>
        <edge id=":1105984390_0" sampledSeconds="23.38" CO_abs="31.496387" CO2_abs="2974.922587" HC_abs="0.208841" PMx_abs="0.026260" NOx_abs="1.039717" fuel_abs="1.278821" electricity_abs="0"
            CO_normed="1.920772" CO2_normed="181.422302" HC_normed="0.012736" PMx_normed="0.001601" NOx_normed="0.063406" fuel_normed="0.077987" electricity_normed="0"
            traveltime="1.06" CO_perVeh="1.428346" CO2_perVeh="134.911279" HC_perVeh="0.009471" PMx_perVeh="0.001191" NOx_perVeh="0.047151" fuel_perVeh="0.057994" electricity_perVeh="0"/>
        <edge id=":1105984390_1" sampledSeconds="646.51" CO_abs="14932.447077" CO2_abs="1898949.308348" HC_abs="113.544661" PMx_abs="33.795932" NOx_abs="713.092583" fuel_abs="816.271147" electricity_abs="0"
            CO_normed="871.105791" CO2_normed="110777.940887" HC_normed="6.623791" PMx_normed="1.971534" NOx_normed="41.599282" fuel_normed="47.618352" electricity_normed="0"
            traveltime="0.64" CO_perVeh="14.706476" CO2_perVeh="1870.212777" HC_perVeh="0.111826" PMx_perVeh="0.033285" NOx_perVeh="0.702301" fuel_perVeh="0.803919" electricity_perVeh="0"/>
        <edge id=":1105984395_0" sampledSeconds="9.01" CO_abs="184.399430" CO2_abs="14820.268393" HC_abs="1.178214" PMx_abs="0.202655" NOx_abs="5.669083" fuel_abs="6.370653" electricity_abs="0"
            CO_normed="153.524040" CO2_normed="12338.798847" HC_normed="0.980937" PMx_normed="0.168723" NOx_normed="4.719865" fuel_normed="5.303967" electricity_normed="0"
            traveltime="0.09" CO_perVeh="1.870012" CO2_perVeh="150.293727" HC_perVeh="0.011948" PMx_perVeh="0.002055" NOx_perVeh="0.057491" fuel_perVeh="0.064605" electricity_perVeh="0"/>
        <edge id=":1105984398_0" sampledSeconds="22.92" CO_abs="1406.315203" CO2_abs="100623.535258" HC_abs="8.767546" PMx_abs="1.748662" NOx_abs="41.026561" fuel_abs="43.253670" electricity_abs="0"
            CO_normed="89.096576" CO2_normed="6374.966597" HC_normed="0.555465" PMx_normed="0.110786" NOx_normed="2.599223" fuel_normed="2.740320" electricity_normed="0"
            traveltime="1.11" CO_perVeh="68.023680" CO2_perVeh="4867.175657" HC_perVeh="0.424088" PMx_perVeh="0.084583" NOx_perVeh="1.984461" fuel_perVeh="2.092187" electricity_perVeh="0"/>
        <edge id=":1105984398_1" sampledSeconds="453.66" CO_abs="7319.429782" CO2_abs="896038.377172" HC_abs="53.840355" PMx_abs="12.511157" NOx_abs="336.280099" fuel_abs="385.168966" electricity_abs="0"
            CO_normed="448.868835" CO2_normed="54950.141523" HC_normed="3.301795" PMx_normed="0.767255" NOx_normed="20.622598" fuel_normed="23.620740" electricity_normed="0"
            traveltime="0.96" CO_perVeh="15.408955" CO2_perVeh="1886.351152" HC_perVeh="0.113345" PMx_perVeh="0.026339" NOx_perVeh="0.707941" fuel_perVeh="0.810863" electricity_perVeh="0"/>
        <edge id=":1106006327_0" sampledSeconds="37.84" CO_abs="5066.259647" CO2_abs="166059.702881" HC_abs="26.976542" PMx_abs="3.451595" NOx_abs="72.618331" fuel_abs="71.383178" electricity_abs="0"
            CO_normed="437.984120" CO2_normed="14356.057115" HC_normed="2.332154" PMx_normed="0.298394" NOx_normed="6.277940" fuel_normed="6.171160" electricity_normed="0"
            traveltime="2.05" CO_perVeh="274.841174" CO2_perVeh="9008.627036" HC_perVeh="1.463459" PMx_perVeh="0.187247" NOx_perVeh="3.939496" fuel_perVeh="3.872489" electricity_perVeh="0"/>
        <edge id=":1106006327_1" sampledSeconds="160.09" CO_abs="21709.269739" CO2_abs="730210.249000" HC_abs="116.065824" PMx_abs="15.240485" NOx_abs="319.626993" fuel_abs="313.890923" electricity_abs="0"
            CO_normed="1636.651262" CO2_normed="55050.194681" HC_normed="8.750146" PMx_normed="1.148973" NOx_normed="24.096523" fuel_normed="23.664084" electricity_normed="0"
            traveltime="2.27" CO_perVeh="308.191064" CO2_perVeh="10366.275612" HC_perVeh="1.647704" PMx_perVeh="0.216358" NOx_perVeh="4.537517" fuel_perVeh="4.456086" electricity_perVeh="0"/>
        <edge id=":1106006327_2" sampledSeconds="0.00" CO_abs="0" CO2_abs="0" HC_abs="0" PMx_abs="0" NOx_abs="0" fuel_abs="0" electricity_abs="0"
            CO_normed="0" CO2_normed="0" HC_normed="0" PMx_normed="0" NOx_normed="0" fuel_normed="0" electricity_normed="0"/>
        <edge id=":1106006327_3" sampledSeconds="0.00" CO_abs="0" CO2_abs="0" HC_abs="0" PMx_abs="0" NOx_abs="0" fuel_abs="0" electricity_abs="0"
            CO_normed="0" CO2_normed="0" HC_normed="0" PMx_normed="0" NOx_normed="0" fuel_normed="0" electricity_normed="0"/>
        <edge id=":1107381198_0" sampledSeconds="0.00" CO_abs="0" CO2_abs="0" HC_abs="0" PMx_abs="0" NOx_abs="0" fuel_abs="0" electricity_abs="0"
            CO_normed="0" CO2_normed="0" HC_normed="0" PMx_normed="0" NOx_normed="0" fuel_normed="0" electricity_normed="0"/>
        <edge id=":1107381198_1" sampledSeconds="35.87" CO_abs="1246.859904" CO2_abs="51059.429055" HC_abs="6.850035" PMx_abs="0.860248" NOx_abs="21.008078" fuel_abs="21.948681" electricity_abs="0"
            CO_normed="104.148487" CO2_normed="4264.923655" HC_normed="0.572174" PMx_normed="0.071855" NOx_normed="1.754776" fuel_normed="1.833343" electricity_normed="0"
            traveltime="1.48" CO_perVeh="51.336680" CO2_perVeh="2102.258281" HC_perVeh="0.282035" PMx_perVeh="0.035419" NOx_perVeh="0.864961" fuel_perVeh="0.903688" electricity_perVeh="0"/>
        <edge id=":1110338277_0" sampledSeconds="96.78" CO_abs="1410.794628" CO2_abs="171078.930844" HC_abs="10.312139" PMx_abs="2.357125" NOx_abs="64.041238" fuel_abs="73.539641" electricity_abs="0"
            CO_normed="3859.316611" CO2_normed="467997.075258" HC_normed="28.209498" PMx_normed="6.448061" NOx_normed="175.188797" fuel_normed="201.172272" electricity_normed="0"
            traveltime="0.02" CO_perVeh="0.317949" CO2_perVeh="38.555791" HC_perVeh="0.002324" PMx_perVeh="0.000531" NOx_perVeh="0.014433" fuel_perVeh="0.016574" electricity_perVeh="0"/>
        <edge id=":1110338293_0" sampledSeconds="123.88" CO_abs="6253.683170" CO2_abs="426169.598927" HC_abs="38.510051" PMx_abs="7.592936" NOx_abs="175.284085" fuel_abs="183.191661" electricity_abs="0"
            CO_normed="15966.850646" CO2_normed="1088092.593004" HC_normed="98.323534" PMx_normed="19.386220" NOx_normed="447.533835" fuel_normed="467.723390" electricity_normed="0"
            traveltime="0.03" CO_perVeh="1.434386" CO2_perVeh="97.749057" HC_perVeh="0.008833" PMx_perVeh="0.001742" NOx_perVeh="0.040204" fuel_perVeh="0.042018" electricity_perVeh="0"/>
        <edge id=":1110338295_0" sampledSeconds="0.00" CO_abs="0" CO2_abs="0" HC_abs="0" PMx_abs="0" NOx_abs="0" fuel_abs="0" electricity_abs="0"
            CO_normed="0" CO2_normed="0" HC_normed="0" PMx_normed="0" NOx_normed="0" fuel_normed="0" electricity_normed="0"/>
        <edge id=":1110673403_0" sampledSeconds="144.25" CO_abs="1961.150543" CO2_abs="247787.985370" HC_abs="14.596312" PMx_abs="3.322972" NOx_abs="92.108128" fuel_abs="106.513724" electricity_abs="0"
            CO_normed="5007.192875" CO2_normed="632650.175413" HC_normed="37.267179" PMx_normed="8.484183" NOx_normed="235.169688" fuel_normed="271.949934" electricity_normed="0"
            traveltime="0.02" CO_perVeh="0.314876" CO2_perVeh="39.783996" HC_perVeh="0.002344" PMx_perVeh="0.000534" NOx_perVeh="0.014789" fuel_perVeh="0.017101" electricity_perVeh="0"/>
        <edge id=":1110673412_0" sampledSeconds="252.41" CO_abs="44832.610531" CO2_abs="3062029.935672" HC_abs="279.078425" PMx_abs="67.269984" NOx_abs="1315.696448" fuel_abs="1316.215856" electricity_abs="0"
            CO_normed="118413.351365" CO2_normed="8087533.212341" HC_normed="737.111027" PMx_normed="177.675673" NOx_normed="3475.060319" fuel_normed="3476.432196" electricity_normed="0"
            traveltime="0.02" CO_perVeh="2.759253" CO2_perVeh="188.454706" HC_perVeh="0.017176" PMx_perVeh="0.004140" NOx_perVeh="0.080975" fuel_perVeh="0.081007" electricity_perVeh="0"/>
        <edge id=":1110673414_0" sampledSeconds="0.00" CO_abs="0" CO2_abs="0" HC_abs="0" PMx_abs="0" NOx_abs="0" fuel_abs="0" electricity_abs="0"
            CO_normed="0" CO2_normed="0" HC_normed="0" PMx_normed="0" NOx_normed="0" fuel_normed="0" electricity_normed="0"/>
        <edge id=":1110673414_1" sampledSeconds="14.24" CO_abs="1010.162514" CO2_abs="40124.658962" HC_abs="5.536669" PMx_abs="0.761803" NOx_abs="17.069679" fuel_abs="17.248096" electricity_abs="0"
            CO_normed="85.685659" CO2_normed="3403.519527" HC_normed="0.469640" PMx_normed="0.064619" NOx_normed="1.447912" fuel_normed="1.463046" electricity_normed="0"
            traveltime="1.56" CO_perVeh="110.326167" CO2_perVeh="4382.265003" HC_perVeh="0.604694" PMx_perVeh="0.083201" NOx_perVeh="1.864286" fuel_perVeh="1.883773" electricity_perVeh="0"/>
        <edge id=":1110673417_0" sampledSeconds="29.82" CO_abs="617.178368" CO2_abs="67802.533833" HC_abs="4.371600" PMx_abs="0.952221" NOx_abs="25.658240" fuel_abs="29.145469" electricity_abs="0"
            CO_normed="1688.329883" CO2_normed="185478.056079" HC_normed="11.958785" PMx_normed="2.604859" NOx_normed="70.189715" fuel_normed="79.729246" electricity_normed="0"
            traveltime="0.02" CO_perVeh="0.458078" CO2_perVeh="50.323948" HC_perVeh="0.003245" PMx_perVeh="0.000707" NOx_perVeh="0.019044" fuel_perVeh="0.021632" electricity_perVeh="0"/>
        <edge id=":1110673446_0" sampledSeconds="333.24" CO_abs="2978.245164" CO2_abs="242016.717417" HC_abs="19.278830" PMx_abs="4.402683" NOx_abs="98.747173" fuel_abs="104.031904" electricity_abs="0"
            CO_normed="7604.030205" CO2_normed="617915.023191" HC_normed="49.222544" PMx_normed="11.240893" NOx_normed="252.120441" fuel_normed="265.613372" electricity_normed="0"
            traveltime="0.02" CO_perVeh="0.203574" CO2_perVeh="16.542745" HC_perVeh="0.001318" PMx_perVeh="0.000301" NOx_perVeh="0.006750" fuel_perVeh="0.007111" electricity_perVeh="0"/>
        <edge id=":1110673451_0" sampledSeconds="37.87" CO_abs="552.207551" CO2_abs="38811.367834" HC_abs="3.410933" PMx_abs="0.598771" NOx_abs="15.362397" fuel_abs="16.683436" electricity_abs="0"
            CO_normed="1566.546244" CO2_normed="110103.171162" HC_normed="9.676405" PMx_normed="1.698640" NOx_normed="43.581269" fuel_normed="47.328895" electricity_normed="0"
            traveltime="0.03" CO_perVeh="0.396005" CO2_perVeh="27.832853" HC_perVeh="0.002446" PMx_perVeh="0.000429" NOx_perVeh="0.011017" fuel_perVeh="0.011964" electricity_perVeh="0"/>
        <edge id=":1110673464_0" sampledSeconds="322.90" CO_abs="638.336267" CO2_abs="46562.543103" HC_abs="3.968432" PMx_abs="0.640231" NOx_abs="17.885252" fuel_abs="20.015455" electricity_abs="0"
            CO_normed="34.627367" CO2_normed="2525.844662" HC_normed="0.215273" PMx_normed="0.034730" NOx_normed="0.970208" fuel_normed="1.085764" electricity_normed="0"
            traveltime="1.17" CO_perVeh="2.307501" CO2_perVeh="168.317450" HC_perVeh="0.014345" PMx_perVeh="0.002314" NOx_perVeh="0.064653" fuel_perVeh="0.072353" electricity_perVeh="0"/>
        <edge id=":1110673464_1" sampledSeconds="710.14" CO_abs="16420.481634" CO2_abs="2089570.315915" HC_abs="124.811566" PMx_abs="37.157384" NOx_abs="784.731031" fuel_abs="898.210366" electricity_abs="0"
            CO_normed="872.823747" CO2_normed="111070.225129" HC_normed="6.634306" PMx_normed="1.975085" NOx_normed="41.712046" fuel_normed="47.743992" electricity_normed="0"
            traveltime="0.70" CO_perVeh="16.215231" CO2_perVeh="2063.451416" HC_perVeh="0.123251" PMx_perVeh="0.036693" NOx_perVeh="0.774922" fuel_perVeh="0.886983" electricity_perVeh="0"/>
        <edge id=":1110673479_0" sampledSeconds="132.46" CO_abs="7218.913925" CO2_abs="501363.071742" HC_abs="44.661449" PMx_abs="8.824584" NOx_abs="205.350529" fuel_abs="215.514109" electricity_abs="0"
            CO_normed="18431.269596" CO2_normed="1280075.927852" HC_normed="114.029233" PMx_normed="22.530852" NOx_normed="524.299222" fuel_normed="550.248788" electricity_normed="0"
            traveltime="0.03" CO_perVeh="1.520732" CO2_perVeh="105.616826" HC_perVeh="0.009408" PMx_perVeh="0.001859" NOx_perVeh="0.043259" fuel_perVeh="0.045400" electricity_perVeh="0"/>
        <edge id=":1110673511_0" sampledSeconds="11.87" CO_abs="74.433601" CO2_abs="12103.599232" HC_abs="0.615705" PMx_abs="0.144343" NOx_abs="4.358628" fuel_abs="5.202845" electricity_abs="0"
            CO_normed="190.043236" CO2_normed="30902.806550" HC_normed="1.572013" PMx_normed="0.368536" NOx_normed="11.128413" fuel_normed="13.283859" electricity_normed="0"
            traveltime="0.02" CO_perVeh="0.147393" CO2_perVeh="23.967523" HC_perVeh="0.001219" PMx_perVeh="0.000286" NOx_perVeh="0.008631" fuel_perVeh="0.010303" electricity_perVeh="0"/>
        <edge id=":1110673517_0" sampledSeconds="17.14" CO_abs="688.741877" CO2_abs="50572.255507" HC_abs="4.319613" PMx_abs="0.848705" NOx_abs="20.383121" fuel_abs="21.738842" electricity_abs="0"
            CO_normed="1758.489899" CO2_normed="129120.652359" HC_normed="11.028799" PMx_normed="2.166906" NOx_normed="52.042011" fuel_normed="55.503427" electricity_normed="0"
            traveltime="0.03" CO_perVeh="1.105821" CO2_perVeh="81.197092" HC_perVeh="0.006935" PMx_perVeh="0.001363" NOx_perVeh="0.032726" fuel_perVeh="0.034903" electricity_perVeh="0"/>
        <edge id=":1110673534_0" sampledSeconds="474.61" CO_abs="2597.919089" CO2_abs="237215.346673" HC_abs="17.242100" PMx_abs="3.111758" NOx_abs="89.343801" fuel_abs="101.969551" electricity_abs="0"
            CO_normed="128.546219" CO2_normed="11737.523339" HC_normed="0.853147" PMx_normed="0.153971" NOx_normed="4.420772" fuel_normed="5.045500" electricity_normed="0"
            traveltime="1.43" CO_perVeh="7.826489" CO2_perVeh="714.634764" HC_perVeh="0.051944" PMx_perVeh="0.009374" NOx_perVeh="0.269157" fuel_perVeh="0.307193" electricity_perVeh="0"/>
        <edge id=":1110673534_1" sampledSeconds="184.01" CO_abs="3253.281844" CO2_abs="389050.375216" HC_abs="23.674638" PMx_abs="5.450417" NOx_abs="146.236379" fuel_abs="167.236303" electricity_abs="0"
            CO_normed="156.524840" CO2_normed="18718.343724" HC_normed="1.139056" PMx_normed="0.262235" NOx_normed="7.035857" fuel_normed="8.046224" electricity_normed="0"
            traveltime="1.22" CO_perVeh="21.600749" CO2_perVeh="2583.169825" HC_perVeh="0.157192" PMx_perVeh="0.036189" NOx_perVeh="0.970963" fuel_perVeh="1.110395" electricity_perVeh="0"/>
        <edge id=":1110673549_0" sampledSeconds="59.52" CO_abs="71.611137" CO2_abs="6743.895629" HC_abs="0.484735" PMx_abs="0.109757" NOx_abs="2.637643" fuel_abs="2.898905" electricity_abs="0"
            CO_normed="3.432483" CO2_normed="323.250130" HC_normed="0.023234" PMx_normed="0.005261" NOx_normed="0.126428" fuel_normed="0.138951" electricity_normed="0"
            traveltime="1.24" CO_perVeh="1.491957" CO2_perVeh="140.503321" HC_perVeh="0.010099" PMx_perVeh="0.002287" NOx_perVeh="0.054953" fuel_perVeh="0.060396" electricity_perVeh="0"/>
        <edge id=":1110673549_1" sampledSeconds="638.81" CO_abs="13870.340404" CO2_abs="1820369.322442" HC_abs="106.582417" PMx_abs="31.995228" NOx_abs="680.775545" fuel_abs="782.493440" electricity_abs="0"
            CO_normed="643.104753" CO2_normed="84402.266251" HC_normed="4.941743" PMx_normed="1.483474" NOx_normed="31.564473" fuel_normed="36.280671" electricity_normed="0"
            traveltime="0.80" CO_perVeh="17.460018" CO2_perVeh="2291.485274" HC_perVeh="0.134166" PMx_perVeh="0.040276" NOx_perVeh="0.856962" fuel_perVeh="0.985005" electricity_perVeh="0"/>
        <edge id=":1110673556_0" sampledSeconds="414.57" CO_abs="50715.131609" CO2_abs="2556857.786141" HC_abs="291.727583" PMx_abs="51.558559" NOx_abs="1100.896138" fuel_abs="1099.082301" electricity_abs="0"
            CO_normed="1802.581565" CO2_normed="90879.084071" HC_normed="10.368952" PMx_normed="1.832560" NOx_normed="39.129448" fuel_normed="39.064978" electricity_normed="0"
            traveltime="2.57" CO_perVeh="314.814808" CO2_perVeh="15871.726377" HC_perVeh="1.810903" PMx_perVeh="0.320050" NOx_perVeh="6.833826" fuel_perVeh="6.822567" electricity_perVeh="0"/>
        <edge id=":1110673556_2" sampledSeconds="251.63" CO_abs="25101.786712" CO2_abs="1071743.249913" HC_abs="139.478973" PMx_abs="20.770839" NOx_abs="457.733548" fuel_abs="460.700349" electricity_abs="0"
            CO_normed="932.891822" CO2_normed="39830.651302" HC_normed="5.183647" PMx_normed="0.771935" NOx_normed="17.011374" fuel_normed="17.121633" electricity_normed="0"
            traveltime="3.05" CO_perVeh="304.479863" CO2_perVeh="13000.040245" HC_perVeh="1.691853" PMx_perVeh="0.251946" NOx_perVeh="5.552220" fuel_perVeh="5.588207" electricity_perVeh="0"/>
        <edge id=":1110673556_3" sampledSeconds="417.41" CO_abs="36651.261860" CO2_abs="1332547.189783" HC_abs="197.961210" PMx_abs="25.597965" NOx_abs="569.301118" fuel_abs="572.814556" electricity_abs="0"
            CO_normed="3098.599002" CO2_normed="112657.223315" HC_normed="16.736188" PMx_normed="2.164123" NOx_normed="48.130290" fuel_normed="48.427326" electricity_normed="0"
            traveltime="1.71" CO_perVeh="150.280789" CO2_perVeh="5463.829444" HC_perVeh="0.811698" PMx_perVeh="0.104959" NOx_perVeh="2.334299" fuel_perVeh="2.348706" electricity_perVeh="0"/>
        <edge id=":1110673556_4" sampledSeconds="189.16" CO_abs="19785.034165" CO2_abs="785377.963157" HC_abs="108.511353" PMx_abs="15.323164" NOx_abs="336.587120" fuel_abs="337.604136" electricity_abs="0"
            CO_normed="1021.880934" CO2_normed="40564.133475" HC_normed="5.604523" PMx_normed="0.791429" NOx_normed="17.384451" fuel_normed="17.436979" electricity_normed="0"
            traveltime="2.43" CO_perVeh="253.988034" CO2_perVeh="10082.196632" HC_perVeh="1.393002" PMx_perVeh="0.196709" NOx_perVeh="4.320897" fuel_perVeh="4.333953" electricity_perVeh="0"/>
        <edge id=":1110673556_5" sampledSeconds="24.98" CO_abs="2114.823321" CO2_abs="83207.696710" HC_abs="11.572990" PMx_abs="1.584277" NOx_abs="35.425647" fuel_abs="35.767900" electricity_abs="0"
            CO_normed="152.242920" CO2_normed="5989.995764" HC_normed="0.833122" PMx_normed="0.114050" NOx_normed="2.550239" fuel_normed="2.574877" electricity_normed="0"
            traveltime="1.73" CO_perVeh="146.210007" CO2_perVeh="5752.630884" HC_perVeh="0.800108" PMx_perVeh="0.109530" NOx_perVeh="2.449181" fuel_perVeh="2.472842" electricity_perVeh="0"/>
        <edge id=":1110673556_6" sampledSeconds="467.64" CO_abs="55247.841240" CO2_abs="2783970.615820" HC_abs="317.741454" PMx_abs="55.990196" NOx_abs="1197.503316" fuel_abs="1196.708532" electricity_abs="0"
            CO_normed="2013.201495" CO2_normed="101446.385580" HC_normed="11.578327" PMx_normed="2.040252" NOx_normed="43.636374" fuel_normed="43.607413" electricity_normed="0"
            traveltime="2.51" CO_perVeh="296.476325" CO2_perVeh="14939.613163" HC_perVeh="1.705095" PMx_perVeh="0.300460" NOx_perVeh="6.426158" fuel_perVeh="6.421893" electricity_perVeh="0"/>
        <edge id=":1110673561_0" sampledSeconds="100.25" CO_abs="10215.275222" CO2_abs="721491.298914" HC_abs="63.912256" PMx_abs="14.754340" NOx_abs="306.350397" fuel_abs="310.134593" electricity_abs="0"
            CO_normed="467.690743" CO2_normed="33032.374968" HC_normed="2.926125" PMx_normed="0.675505" NOx_normed="14.025784" fuel_normed="14.199038" electricity_normed="0"
            traveltime="1.18" CO_perVeh="120.550163" CO2_perVeh="8514.297607" HC_perVeh="0.754227" PMx_perVeh="0.174116" NOx_perVeh="3.615232" fuel_perVeh="3.659889" electricity_perVeh="0"/>
        <edge id=":1110673561_1" sampledSeconds="1312.69" CO_abs="122018.372192" CO2_abs="8415370.266331" HC_abs="759.279510" PMx_abs="176.471745" NOx_abs="3602.365194" fuel_abs="3617.360760" electricity_abs="0"
            CO_normed="5446.438277" CO2_normed="375630.275242" HC_normed="33.891363" PMx_normed="7.877031" NOx_normed="160.795947" fuel_normed="161.465292" electricity_normed="0"
            traveltime="1.19" CO_perVeh="110.771587" CO2_perVeh="7639.701358" HC_perVeh="0.689295" PMx_perVeh="0.160206" NOx_perVeh="3.270325" fuel_perVeh="3.283938" electricity_perVeh="0"/>
        <edge id=":1110673562_0" sampledSeconds="104.09" CO_abs="2136.903353" CO2_abs="171586.806771" HC_abs="13.639324" PMx_abs="2.284551" NOx_abs="65.156609" fuel_abs="73.758558" electricity_abs="0"
            CO_normed="6062.137171" CO2_normed="486771.083038" HC_normed="38.693116" PMx_normed="6.480995" NOx_normed="184.841445" fuel_normed="209.244137" electricity_normed="0"
            traveltime="0.03" CO_perVeh="0.544706" CO2_perVeh="43.738258" HC_perVeh="0.003477" PMx_perVeh="0.000582" NOx_perVeh="0.016609" fuel_perVeh="0.018801" electricity_perVeh="0"/>
        <edge id=":1110673564_0" sampledSeconds="28.84" CO_abs="413.903738" CO2_abs="49803.929362" HC_abs="3.012922" PMx_abs="0.680240" NOx_abs="18.618356" fuel_abs="21.408626" electricity_abs="0"
            CO_normed="3170.326505" CO2_normed="381476.905748" HC_normed="23.077701" PMx_normed="5.210351" NOx_normed="142.608688" fuel_normed="163.980964" electricity_normed="0"
            traveltime="7.928787e-03" CO_perVeh="0.113788" CO2_perVeh="13.691802" HC_perVeh="0.000828" PMx_perVeh="0.000187" NOx_perVeh="0.005118" fuel_perVeh="0.005886" electricity_perVeh="0"/>
        <edge id=":1110673588_0" sampledSeconds="11.71" CO_abs="173.001582" CO2_abs="22038.371909" HC_abs="1.294574" PMx_abs="0.288173" NOx_abs="8.152821" fuel_abs="9.473387" electricity_abs="0"
            CO_normed="530.047400" CO2_normed="67521.820318" HC_normed="3.966353" PMx_normed="0.882914" NOx_normed="24.978856" fuel_normed="29.024846" electricity_normed="0"
            traveltime="0.02" CO_perVeh="0.288336" CO2_perVeh="36.730620" HC_perVeh="0.002158" PMx_perVeh="0.000480" NOx_perVeh="0.013588" fuel_perVeh="0.015789" electricity_perVeh="0"/>
        <edge id=":1110673601_0" sampledSeconds="29.99" CO_abs="392.377741" CO2_abs="52072.295303" HC_abs="2.959103" PMx_abs="0.645031" NOx_abs="19.032028" fuel_abs="22.383770" electricity_abs="0"
            CO_normed="1073.373759" CO2_normed="142447.008428" HC_normed="8.094812" PMx_normed="1.764521" NOx_normed="52.063300" fuel_normed="61.232196" electricity_normed="0"
            traveltime="0.02" CO_perVeh="0.291228" CO2_perVeh="38.648755" HC_perVeh="0.002196" PMx_perVeh="0.000479" NOx_perVeh="0.014126" fuel_perVeh="0.016614" electricity_perVeh="0"/>
        <edge id=":1110673617_0" sampledSeconds="238.41" CO_abs="5487.592572" CO2_abs="686701.615805" HC_abs="41.410394" PMx_abs="12.266915" NOx_abs="258.489193" fuel_abs="295.181467" electricity_abs="0"
            CO_normed="14010.874652" CO2_normed="1753280.721205" HC_normed="105.728666" PMx_normed="31.319782" NOx_normed="659.972407" fuel_normed="753.654810" electricity_normed="0"
            traveltime="0.01" CO_perVeh="0.336080" CO2_perVeh="42.056123" HC_perVeh="0.002536" PMx_perVeh="0.000751" NOx_perVeh="0.015831" fuel_perVeh="0.018078" electricity_perVeh="0"/>
        <edge id=":1110673621_0" sampledSeconds="26.05" CO_abs="473.010783" CO2_abs="50337.063295" HC_abs="3.309507" PMx_abs="0.750272" NOx_abs="19.290068" fuel_abs="21.637743" electricity_abs="0"
            CO_normed="1449.224525" CO2_normed="154224.193925" HC_normed="10.139765" PMx_normed="2.298705" NOx_normed="59.101486" fuel_normed="66.294361" electricity_normed="0"
            traveltime="0.02" CO_perVeh="0.358342" CO2_perVeh="38.134139" HC_perVeh="0.002507" PMx_perVeh="0.000568" NOx_perVeh="0.014614" fuel_perVeh="0.016392" electricity_perVeh="0"/>
        <edge id=":1110673630_0" sampledSeconds="54.21" CO_abs="258.481606" CO2_abs="24219.660764" HC_abs="1.728176" PMx_abs="0.307609" NOx_abs="9.036262" fuel_abs="10.411092" electricity_abs="0"
            CO_normed="14.121677" CO2_normed="1323.197541" HC_normed="0.094416" PMx_normed="0.016806" NOx_normed="0.493680" fuel_normed="0.568791" electricity_normed="0"
            traveltime="1.27" CO_perVeh="6.033418" CO2_perVeh="565.329721" HC_perVeh="0.040339" PMx_perVeh="0.007180" NOx_perVeh="0.210922" fuel_perVeh="0.243013" electricity_perVeh="0"/>
        <edge id=":1110673630_1" sampledSeconds="7.49" CO_abs="63.380803" CO2_abs="5236.875978" HC_abs="0.406934" PMx_abs="0.069376" NOx_abs="1.985092" fuel_abs="2.251130" electricity_abs="0"
            CO_normed="4.221478" CO2_normed="348.802100" HC_normed="0.027104" PMx_normed="0.004621" NOx_normed="0.132217" fuel_normed="0.149937" electricity_normed="0"
            traveltime="1.06" CO_perVeh="8.970821" CO2_perVeh="741.219369" HC_perVeh="0.057597" PMx_perVeh="0.009819" NOx_perVeh="0.280967" fuel_perVeh="0.318621" electricity_perVeh="0"/>
        <edge id=":1110673650_0" sampledSeconds="143.61" CO_abs="2058.415204" CO2_abs="267517.474360" HC_abs="15.470947" PMx_abs="3.565599" NOx_abs="99.171636" fuel_abs="114.994602" electricity_abs="0"
            CO_normed="5255.528182" CO2_normed="683023.338791" HC_normed="39.500291" PMx_normed="9.103658" NOx_normed="253.204176" fuel_normed="293.603238" electricity_normed="0"
            traveltime="0.02" CO_perVeh="0.330492" CO2_perVeh="42.951695" HC_perVeh="0.002484" PMx_perVeh="0.000572" NOx_perVeh="0.015923" fuel_perVeh="0.018463" electricity_perVeh="0"/>
        <edge id=":1110673655_0" sampledSeconds="45.06" CO_abs="621.932949" CO2_abs="76716.341252" HC_abs="4.578223" PMx_abs="0.999778" NOx_abs="28.388656" fuel_abs="32.977207" electricity_abs="0"
            CO_normed="1587.913913" CO2_normed="195871.509578" HC_normed="11.689080" PMx_normed="2.552625" NOx_normed="72.481675" fuel_normed="84.197125" electricity_normed="0"
            traveltime="0.02" CO_perVeh="0.332851" CO2_perVeh="41.057715" HC_perVeh="0.002450" PMx_perVeh="0.000535" NOx_perVeh="0.015193" fuel_perVeh="0.017649" electricity_perVeh="0"/>
        <edge id=":1110673663_0" sampledSeconds="108.50" CO_abs="1746.700853" CO2_abs="210894.724069" HC_abs="12.697364" PMx_abs="2.881851" NOx_abs="78.792765" fuel_abs="90.654812" electricity_abs="0"
            CO_normed="81.678787" CO2_normed="9861.806129" HC_normed="0.593751" PMx_normed="0.134760" NOx_normed="3.684487" fuel_normed="4.239178" electricity_normed="0"
            traveltime="1.27" CO_perVeh="20.515826" CO2_perVeh="2477.058025" HC_perVeh="0.149137" PMx_perVeh="0.033849" NOx_perVeh="0.925458" fuel_perVeh="1.064784" electricity_perVeh="0"/>
        <edge id=":1110673663_1" sampledSeconds="154.06" CO_abs="2654.911028" CO2_abs="317678.006344" HC_abs="19.392984" PMx_abs="4.471333" NOx_abs="119.555893" fuel_abs="136.556318" electricity_abs="0"
            CO_normed="124.300053" CO2_normed="14873.339526" HC_normed="0.907958" PMx_normed="0.209343" NOx_normed="5.597477" fuel_normed="6.393419" electricity_normed="0"
            traveltime="1.25" CO_perVeh="21.484741" CO2_perVeh="2570.794151" HC_perVeh="0.156937" PMx_perVeh="0.036184" NOx_perVeh="0.967500" fuel_perVeh="1.105076" electricity_perVeh="0"/>
        <edge id=":1110673666_0" sampledSeconds="191.35" CO_abs="4522.883668" CO2_abs="359160.372624" HC_abs="28.823748" PMx_abs="5.040160" NOx_abs="138.155191" fuel_abs="154.388846" electricity_abs="0"