<?xml version="1.0" encoding="UTF-8"?>

<!-- generated on Tue Nov 10 16:22:33 2020 by Eclipse SUMO sumo Version 1.7.0
<configuration xmlns:xsi="http://www.w3.org/2001/XMLSchema-instance" xsi:noNamespaceSchemaLocation="http://sumo.dlr.de/xsd/sumoConfiguration.xsd">

    <input>
        <net-file value="../dataSets/Porto/8AM9AM_Routing_SaoBento/Porto.net.xml"/>
        <route-files value="../results/Porto/8AM9AM_Routing_SaoBento/cost_co-cost_co2/solution9/Porto.rou.xml"/>
        <additional-files value="moreOutputInfo.xml"/>
    </input>

    <output>
        <emission-output.precision value="6"/>
        <tripinfo-output value="../results/Porto/8AM9AM_Routing_SaoBento/cost_co-cost_co2/solution9/Porto-tripinfo"/>
    </output>

    <processing>
        <collision.action value="warn"/>
        <time-to-teleport value="-1"/>
    </processing>

    <emissions>
        <device.emissions.probability value="1"/>
    </emissions>

    <gui_only>
        <quit-on-end value="true"/>
        <start value="true"/>
    </gui_only>

</configuration>
-->

<meandata xmlns:xsi="http://www.w3.org/2001/XMLSchema-instance" xsi:noNamespaceSchemaLocation="http://sumo.dlr.de/xsd/meandata_file.xsd">
    <interval begin="0.00" end="8562.00" id="emissions-detector">
        <edge id=":1092997347_0" sampledSeconds="584.06" CO_abs="71306.792904" CO2_abs="3069531.273454" HC_abs="397.312875" PMx_abs="62.034157" NOx_abs="1327.603342" fuel_abs="1319.466583" electricity_abs="0"
            CO_normed="68140.529627" CO2_normed="2933233.681710" HC_normed="379.670836" PMx_normed="59.279630" NOx_normed="1268.653254" fuel_normed="1260.877795" electricity_normed="0"
            traveltime="0.07" CO_perVeh="8.167446" CO2_perVeh="351.582644" HC_perVeh="0.045508" PMx_perVeh="0.007105" NOx_perVeh="0.152063" fuel_perVeh="0.151131" electricity_perVeh="0"/>
        <edge id=":1103427051_0" sampledSeconds="19.37" CO_abs="1583.213198" CO2_abs="87944.969608" HC_abs="9.299216" PMx_abs="1.741544" NOx_abs="37.651130" fuel_abs="37.803641" electricity_abs="0"
            CO_normed="2295.454459" CO2_normed="127508.836393" HC_normed="13.482662" PMx_normed="2.525014" NOx_normed="54.589271" fuel_normed="54.810392" electricity_normed="0"
            traveltime="0.03" CO_perVeh="2.462097" CO2_perVeh="136.765558" HC_perVeh="0.014461" PMx_perVeh="0.002708" NOx_perVeh="0.058552" fuel_perVeh="0.058789" electricity_perVeh="0"/>
        <edge id=":1105984386_0" sampledSeconds="10.53" CO_abs="183.873232" CO2_abs="12352.166629" HC_abs="1.119356" PMx_abs="0.175844" NOx_abs="4.802698" fuel_abs="5.309725" electricity_abs="0"
            CO_normed="7.962080" CO2_normed="534.873632" HC_normed="0.048470" PMx_normed="0.007614" NOx_normed="0.207966" fuel_normed="0.229922" electricity_normed="0"
            traveltime="1.01" CO_perVeh="17.638896" CO2_perVeh="1184.939122" HC_perVeh="0.107379" PMx_perVeh="0.016869" NOx_perVeh="0.460721" fuel_perVeh="0.509360" electricity_perVeh="0"/>
        <edge id=":1105984390_0" sampledSeconds="10.02" CO_abs="0" CO2_abs="0" HC_abs="0" PMx_abs="0" NOx_abs="0" fuel_abs="0" electricity_abs="0"
            CO_normed="0" CO2_normed="0" HC_normed="0" PMx_normed="0" NOx_normed="0" fuel_normed="0" electricity_normed="0"
            traveltime="1.04" CO_perVeh="0" CO2_perVeh="0" HC_perVeh="0" PMx_perVeh="0" NOx_perVeh="0" fuel_perVeh="0" electricity_perVeh="0"/>
        <edge id=":1105984390_1" sampledSeconds="2401.49" CO_abs="64748.176294" CO2_abs="7649352.604359" HC_abs="477.428618" PMx_abs="138.321895" NOx_abs="2913.728557" fuel_abs="3288.103208" electricity_abs="0"
            CO_normed="2073.433408" CO2_normed="244955.520671" HC_normed="15.288716" PMx_normed="4.429488" NOx_normed="93.306445" fuel_normed="105.295059" electricity_normed="0"
            traveltime="0.65" CO_perVeh="17.484203" CO2_perVeh="2065.584611" HC_perVeh="0.128922" PMx_perVeh="0.037352" NOx_perVeh="0.786806" fuel_perVeh="0.887899" electricity_perVeh="0"/>
        <edge id=":1105984395_0" sampledSeconds="4.19" CO_abs="68.754792" CO2_abs="5314.534467" HC_abs="0.434874" PMx_abs="0.075419" NOx_abs="2.054298" fuel_abs="2.284508" electricity_abs="0"
            CO_normed="31.422622" CO2_normed="2428.872277" HC_normed="0.198748" PMx_normed="0.034468" NOx_normed="0.938865" fuel_normed="1.044076" electricity_normed="0"
            traveltime="0.10" CO_perVeh="1.593711" CO2_perVeh="123.189008" HC_perVeh="0.010080" PMx_perVeh="0.001748" NOx_perVeh="0.047618" fuel_perVeh="0.052954" electricity_perVeh="0"/>
        <edge id=":1105984398_0" sampledSeconds="10.89" CO_abs="717.931338" CO2_abs="46499.595300" HC_abs="4.368307" PMx_abs="0.860961" NOx_abs="19.386767" fuel_abs="19.988117" electricity_abs="0"
            CO_normed="24.968008" CO2_normed="1617.149421" HC_normed="0.151920" PMx_normed="0.029942" NOx_normed="0.674227" fuel_normed="0.695141" electricity_normed="0"
            traveltime="1.15" CO_perVeh="75.855276" CO2_perVeh="4913.059872" HC_perVeh="0.461547" PMx_perVeh="0.090968" NOx_perVeh="2.048369" fuel_perVeh="2.111907" electricity_perVeh="0"/>
        <edge id=":1105984398_1" sampledSeconds="646.22" CO_abs="12338.493705" CO2_abs="1423358.385571" HC_abs="88.955078" PMx_abs="20.614977" NOx_abs="539.931474" fuel_abs="611.840906" electricity_abs="0"
            CO_normed="415.362211" CO2_normed="47915.839685" HC_normed="2.994578" PMx_normed="0.693981" NOx_normed="18.176216" fuel_normed="20.596971" electricity_normed="0"
            traveltime="0.95" CO_perVeh="18.198582" CO2_perVeh="2099.373299" HC_perVeh="0.131204" PMx_perVeh="0.030406" NOx_perVeh="0.796368" fuel_perVeh="0.902431" electricity_perVeh="0"/>
        <edge id=":1106006327_0" sampledSeconds="733.37" CO_abs="99128.177643" CO2_abs="3228469.186508" HC_abs="527.389711" PMx_abs="67.420564" NOx_abs="1413.651913" fuel_abs="1387.804510" electricity_abs="0"
            CO_normed="4704.253077" CO2_normed="153211.089573" HC_normed="25.027946" PMx_normed="3.199528" NOx_normed="67.086640" fuel_normed="65.860019" electricity_normed="0"
            traveltime="2.08" CO_perVeh="281.797565" CO2_perVeh="9177.761341" HC_perVeh="1.499242" PMx_perVeh="0.191660" NOx_perVeh="4.018672" fuel_perVeh="3.945194" electricity_perVeh="0"/>
        <edge id=":1106006327_1" sampledSeconds="685.89" CO_abs="92828.241263" CO2_abs="3092720.261187" HC_abs="495.565102" PMx_abs="64.528708" NOx_abs="1353.582848" fuel_abs="1329.449147" electricity_abs="0"
            CO_normed="3841.613701" CO2_normed="127989.460621" HC_normed="20.508518" PMx_normed="2.670463" NOx_normed="56.016815" fuel_normed="55.018063" electricity_normed="0"
            traveltime="2.30" CO_perVeh="311.602029" CO2_perVeh="10381.516380" HC_perVeh="1.663493" PMx_perVeh="0.216607" NOx_perVeh="4.543651" fuel_perVeh="4.462640" electricity_perVeh="0"/>
        <edge id=":1106006327_2" sampledSeconds="0.00" CO_abs="0" CO2_abs="0" HC_abs="0" PMx_abs="0" NOx_abs="0" fuel_abs="0" electricity_abs="0"
            CO_normed="0" CO2_normed="0" HC_normed="0" PMx_normed="0" NOx_normed="0" fuel_normed="0" electricity_normed="0"/>
        <edge id=":1106006327_3" sampledSeconds="0.00" CO_abs="0" CO2_abs="0" HC_abs="0" PMx_abs="0" NOx_abs="0" fuel_abs="0" electricity_abs="0"
            CO_normed="0" CO2_normed="0" HC_normed="0" PMx_normed="0" NOx_normed="0" fuel_normed="0" electricity_normed="0"/>
        <edge id=":1107381198_0" sampledSeconds="0.00" CO_abs="0" CO2_abs="0" HC_abs="0" PMx_abs="0" NOx_abs="0" fuel_abs="0" electricity_abs="0"
            CO_normed="0" CO2_normed="0" HC_normed="0" PMx_normed="0" NOx_normed="0" fuel_normed="0" electricity_normed="0"/>
        <edge id=":1107381198_1" sampledSeconds="103.66" CO_abs="4712.645077" CO2_abs="185779.588903" HC_abs="25.733471" PMx_abs="3.204836" NOx_abs="76.960843" fuel_abs="79.860248" electricity_abs="0"
            CO_normed="216.084032" CO2_normed="8518.359000" HC_normed="1.179930" PMx_normed="0.146948" NOx_normed="3.528806" fuel_normed="3.661749" electricity_normed="0"
            traveltime="1.55" CO_perVeh="70.557333" CO2_perVeh="2781.476669" HC_perVeh="0.385279" PMx_perVeh="0.047983" NOx_perVeh="1.152251" fuel_perVeh="1.195661" electricity_perVeh="0"/>
        <edge id=":1110338277_0" sampledSeconds="160.36" CO_abs="2557.350091" CO2_abs="325547.084331" HC_abs="19.103186" PMx_abs="4.416637" NOx_abs="121.245056" fuel_abs="139.939035" electricity_abs="0"
            CO_normed="3840.249411" CO2_normed="488858.370704" HC_normed="28.686334" PMx_normed="6.632251" NOx_normed="182.067859" fuel_normed="210.139706" electricity_normed="0"
            traveltime="0.02" CO_perVeh="0.346369" CO2_perVeh="44.092227" HC_perVeh="0.002587" PMx_perVeh="0.000598" NOx_perVeh="0.016421" fuel_perVeh="0.018953" electricity_perVeh="0"/>
        <edge id=":1110338293_0" sampledSeconds="7047.24" CO_abs="687658.903809" CO2_abs="11909981.776017" HC_abs="3409.874125" PMx_abs="285.679903" NOx_abs="5391.904253" fuel_abs="5119.904650" electricity_abs="0"
            CO_normed="963782.626222" CO2_normed="16692336.056085" HC_normed="4779.080764" PMx_normed="400.392296" NOx_normed="7556.978630" fuel_normed="7175.759846" electricity_normed="0"
            traveltime="0.47" CO_perVeh="45.959169" CO2_perVeh="795.994725" HC_perVeh="0.227896" PMx_perVeh="0.019093" NOx_perVeh="0.360364" fuel_perVeh="0.342185" electricity_perVeh="0"/>
        <edge id=":1110338295_0" sampledSeconds="0.00" CO_abs="0" CO2_abs="0" HC_abs="0" PMx_abs="0" NOx_abs="0" fuel_abs="0" electricity_abs="0"
            CO_normed="0" CO2_normed="0" HC_normed="0" PMx_normed="0" NOx_normed="0" fuel_normed="0" electricity_normed="0"/>
        <edge id=":1110673403_0" sampledSeconds="200.82" CO_abs="3173.144573" CO2_abs="388626.025810" HC_abs="23.327664" PMx_abs="5.357097" NOx_abs="145.486446" fuel_abs="167.053972" electricity_abs="0"
            CO_normed="4447.294425" CO2_normed="544675.579271" HC_normed="32.694694" PMx_normed="7.508195" NOx_normed="203.905321" fuel_normed="234.133107" electricity_normed="0"
            traveltime="0.02" CO_perVeh="0.366739" CO2_perVeh="44.915748" HC_perVeh="0.002696" PMx_perVeh="0.000619" NOx_perVeh="0.016815" fuel_perVeh="0.019307" electricity_perVeh="0"/>
        <edge id=":1110673412_0" sampledSeconds="953.24" CO_abs="167946.919090" CO2_abs="11478304.407744" HC_abs="1045.591613" PMx_abs="252.028453" NOx_abs="4931.031648" fuel_abs="4933.957849" electricity_abs="0"
            CO_normed="243501.320479" CO2_normed="16642057.474437" HC_normed="1515.972665" PMx_normed="365.408674" NOx_normed="7149.358405" fuel_normed="7153.601018" electricity_normed="0"
            traveltime="0.02" CO_perVeh="2.740263" CO2_perVeh="187.282793" HC_perVeh="0.017060" PMx_perVeh="0.004112" NOx_perVeh="0.080456" fuel_perVeh="0.080504" electricity_perVeh="0"/>
        <edge id=":1110673414_0" sampledSeconds="0.00" CO_abs="0" CO2_abs="0" HC_abs="0" PMx_abs="0" NOx_abs="0" fuel_abs="0" electricity_abs="0"
            CO_normed="0" CO2_normed="0" HC_normed="0" PMx_normed="0" NOx_normed="0" fuel_normed="0" electricity_normed="0"/>
        <edge id=":1110673414_1" sampledSeconds="238.09" CO_abs="17733.754023" CO2_abs="681542.547922" HC_abs="96.568539" PMx_abs="12.539675" NOx_abs="287.424491" fuel_abs="292.970854" electricity_abs="0"
            CO_normed="825.734076" CO2_normed="31734.561409" HC_normed="4.496506" PMx_normed="0.583883" NOx_normed="13.383303" fuel_normed="13.641557" electricity_normed="0"
            traveltime="1.54" CO_perVeh="115.058270" CO2_perVeh="4421.912377" HC_perVeh="0.626546" PMx_perVeh="0.081359" NOx_perVeh="1.864837" fuel_perVeh="1.900823" electricity_perVeh="0"/>
        <edge id=":1110673417_0" sampledSeconds="28.97" CO_abs="498.873282" CO2_abs="60172.826756" HC_abs="3.644258" PMx_abs="0.821538" NOx_abs="22.496532" fuel_abs="25.865782" electricity_abs="0"
            CO_normed="749.133970" CO2_normed="90358.634632" HC_normed="5.472407" PMx_normed="1.233664" NOx_normed="33.781958" fuel_normed="38.841399" electricity_normed="0"
            traveltime="0.02" CO_perVeh="0.380415" CO2_perVeh="45.884669" HC_perVeh="0.002779" PMx_perVeh="0.000626" NOx_perVeh="0.017155" fuel_perVeh="0.019724" electricity_perVeh="0"/>
        <edge id=":1110673446_0" sampledSeconds="1329.05" CO_abs="14078.052748" CO2_abs="1140334.913429" HC_abs="91.086958" PMx_abs="20.900521" NOx_abs="466.423320" fuel_abs="490.177548" electricity_abs="0"
            CO_normed="19730.977923" CO2_normed="1598226.928422" HC_normed="127.662170" PMx_normed="29.292952" NOx_normed="653.711731" fuel_normed="687.004272" electricity_normed="0"
            traveltime="0.02" CO_perVeh="0.241471" CO2_perVeh="19.559381" HC_perVeh="0.001562" PMx_perVeh="0.000358" NOx_perVeh="0.008000" fuel_perVeh="0.008408" electricity_perVeh="0"/>
        <edge id=":1110673451_0" sampledSeconds="36.63" CO_abs="340.657125" CO2_abs="24844.608621" HC_abs="2.113784" PMx_abs="0.319959" NOx_abs="9.386794" fuel_abs="10.679781" electricity_abs="0"
            CO_normed="530.494628" CO2_normed="38689.727666" HC_normed="3.291729" PMx_normed="0.498262" NOx_normed="14.617760" fuel_normed="16.631287" electricity_normed="0"
            traveltime="0.03" CO_perVeh="0.250989" CO2_perVeh="18.304984" HC_perVeh="0.001557" PMx_perVeh="0.000236" NOx_perVeh="0.006916" fuel_perVeh="0.007869" electricity_perVeh="0"/>
        <edge id=":1110673464_0" sampledSeconds="1031.65" CO_abs="3341.930694" CO2_abs="248387.835475" HC_abs="20.898901" PMx_abs="3.525841" NOx_abs="95.980613" fuel_abs="106.772213" electricity_abs="0"
            CO_normed="99.515337" CO2_normed="7396.442808" HC_normed="0.622323" PMx_normed="0.104992" NOx_normed="2.858091" fuel_normed="3.179441" electricity_normed="0"
            traveltime="1.22" CO_perVeh="3.963062" CO2_perVeh="294.553210" HC_perVeh="0.024783" PMx_perVeh="0.004181" NOx_perVeh="0.113820" fuel_perVeh="0.126617" electricity_perVeh="0"/>
        <edge id=":1110673464_1" sampledSeconds="2604.42" CO_abs="64965.484935" CO2_abs="7876528.567231" HC_abs="483.640749" PMx_abs="140.963974" NOx_abs="2989.439810" fuel_abs="3385.756579" electricity_abs="0"
            CO_normed="1895.596862" CO2_normed="229825.465766" HC_normed="14.111922" PMx_normed="4.113120" NOx_normed="87.227437" fuel_normed="98.791374" electricity_normed="0"
            traveltime="0.72" CO_perVeh="17.906187" CO2_perVeh="2170.977264" HC_perVeh="0.133304" PMx_perVeh="0.038853" NOx_perVeh="0.823968" fuel_perVeh="0.933203" electricity_perVeh="0"/>
        <edge id=":1110673479_0" sampledSeconds="134.67" CO_abs="6386.932767" CO2_abs="439777.091026" HC_abs="39.409069" PMx_abs="7.676074" NOx_abs="179.750300" fuel_abs="189.041124" electricity_abs="0"
            CO_normed="8951.552582" CO2_normed="616365.929960" HC_normed="55.233453" PMx_normed="10.758338" NOx_normed="251.927541" fuel_normed="264.949017" electricity_normed="0"
            traveltime="0.03" CO_perVeh="1.350257" CO2_perVeh="92.972995" HC_perVeh="0.008331" PMx_perVeh="0.001623" NOx_perVeh="0.038001" fuel_perVeh="0.039965" electricity_perVeh="0"/>
        <edge id=":1110673511_0" sampledSeconds="63.62" CO_abs="966.423488" CO2_abs="110841.096160" HC_abs="6.951928" PMx_abs="1.507842" NOx_abs="41.563773" fuel_abs="47.645990" electricity_abs="0"
            CO_normed="1354.482815" CO2_normed="155348.417884" HC_normed="9.743417" PMx_normed="2.113304" NOx_normed="58.253362" fuel_normed="66.777841" electricity_normed="0"
            traveltime="0.02" CO_perVeh="0.370395" CO2_perVeh="42.481417" HC_perVeh="0.002664" PMx_perVeh="0.000578" NOx_perVeh="0.015930" fuel_perVeh="0.018261" electricity_perVeh="0"/>
        <edge id=":1110673517_0" sampledSeconds="182.99" CO_abs="8210.837590" CO2_abs="577638.453877" HC_abs="50.948066" PMx_abs="10.014415" NOx_abs="235.446278" fuel_abs="248.301726" electricity_abs="0"
            CO_normed="11507.831240" CO2_normed="809584.378244" HC_normed="71.405838" PMx_normed="14.035620" NOx_normed="329.987776" fuel_normed="348.005222" electricity_normed="0"
            traveltime="0.03" CO_perVeh="1.257146" CO2_perVeh="88.441123" HC_perVeh="0.007801" PMx_perVeh="0.001533" NOx_perVeh="0.036049" fuel_perVeh="0.038017" electricity_perVeh="0"/>
        <edge id=":1110673534_0" sampledSeconds="734.50" CO_abs="6180.623343" CO2_abs="520390.432329" HC_abs="40.052210" PMx_abs="7.131824" NOx_abs="198.570595" fuel_abs="223.695269" electricity_abs="0"
            CO_normed="167.875995" CO2_normed="14134.668392" HC_normed="1.087885" PMx_normed="0.193712" NOx_normed="5.393507" fuel_normed="6.075935" electricity_normed="0"
            traveltime="1.45" CO_perVeh="12.189212" CO2_perVeh="1026.296035" HC_perVeh="0.078990" PMx_perVeh="0.014065" NOx_perVeh="0.391614" fuel_perVeh="0.441164" electricity_perVeh="0"/>
        <edge id=":1110673534_1" sampledSeconds="200.21" CO_abs="2851.609778" CO2_abs="359717.512769" HC_abs="21.245142" PMx_abs="4.852320" NOx_abs="133.814425" fuel_abs="154.627536" electricity_abs="0"
            CO_normed="75.313756" CO2_normed="9500.485419" HC_normed="0.561105" PMx_normed="0.128154" NOx_normed="3.534168" fuel_normed="4.083862" electricity_normed="0"
            traveltime="1.22" CO_perVeh="17.430993" CO2_perVeh="2198.839973" HC_perVeh="0.129865" PMx_perVeh="0.029661" NOx_perVeh="0.817965" fuel_perVeh="0.945189" electricity_perVeh="0"/>
        <edge id=":1110673549_0" sampledSeconds="652.02" CO_abs="1330.077768" CO2_abs="131830.833710" HC_abs="9.018104" PMx_abs="1.854498" NOx_abs="49.754725" fuel_abs="56.668661" electricity_abs="0"
            CO_normed="34.996736" CO2_normed="3468.706075" HC_normed="0.237283" PMx_normed="0.048795" NOx_normed="1.309136" fuel_normed="1.491054" electricity_normed="0"
            traveltime="1.30" CO_perVeh="2.642547" CO2_perVeh="261.916432" HC_perVeh="0.017917" PMx_perVeh="0.003684" NOx_perVeh="0.098851" fuel_perVeh="0.112587" electricity_perVeh="0"/>
        <edge id=":1110673549_1" sampledSeconds="3197.19" CO_abs="71804.209991" CO2_abs="9258320.051664" HC_abs="548.190691" PMx_abs="163.666476" NOx_abs="3471.574926" fuel_abs="3979.727340" electricity_abs="0"
            CO_normed="1827.541058" CO2_normed="235640.222507" HC_normed="13.952399" PMx_normed="4.165594" NOx_normed="88.357573" fuel_normed="101.290929" electricity_normed="0"
            traveltime="0.81" CO_perVeh="18.109436" CO2_perVeh="2335.001698" HC_perVeh="0.138257" PMx_perVeh="0.041278" NOx_perVeh="0.875551" fuel_perVeh="1.003710" electricity_perVeh="0"/>
        <edge id=":1110673556_0" sampledSeconds="463.56" CO_abs="56449.531998" CO2_abs="2719075.348067" HC_abs="321.621357" PMx_abs="54.924188" NOx_abs="1172.426123" fuel_abs="1168.814494" electricity_abs="0"
            CO_normed="1101.388021" CO2_normed="53051.937000" HC_normed="6.275161" PMx_normed="1.071627" NOx_normed="22.875231" fuel_normed="22.804764" electricity_normed="0"
            traveltime="2.73" CO_perVeh="332.764563" CO2_perVeh="16028.687734" HC_perVeh="1.895927" PMx_perVeh="0.323773" NOx_perVeh="6.911339" fuel_perVeh="6.890049" electricity_perVeh="0"/>
        <edge id=":1110673556_2" sampledSeconds="173.85" CO_abs="17559.904242" CO2_abs="757753.647917" HC_abs="97.746501" PMx_abs="14.574607" NOx_abs="322.809609" fuel_abs="325.728566" electricity_abs="0"
            CO_normed="358.237816" CO2_normed="15458.854916" HC_normed="1.994116" PMx_normed="0.297335" NOx_normed="6.585606" fuel_normed="6.645155" electricity_normed="0"
            traveltime="3.01" CO_perVeh="303.635837" CO2_perVeh="13102.643368" HC_perVeh="1.690177" PMx_perVeh="0.252016" NOx_perVeh="5.581839" fuel_perVeh="5.632312" electricity_perVeh="0"/>
        <edge id=":1110673556_3" sampledSeconds="243.13" CO_abs="25883.752497" CO2_abs="896535.566299" HC_abs="138.864022" PMx_abs="17.930372" NOx_abs="387.628513" fuel_abs="385.388658" electricity_abs="0"
            CO_normed="1201.230410" CO2_normed="41607.019139" HC_normed="6.444494" PMx_normed="0.832125" NOx_normed="17.989322" fuel_normed="17.885373" electricity_normed="0"
            traveltime="1.85" CO_perVeh="197.452804" CO2_perVeh="6839.173021" HC_perVeh="1.059317" PMx_perVeh="0.136781" NOx_perVeh="2.957003" fuel_perVeh="2.939917" electricity_perVeh="0"/>
        <edge id=":1110673556_4" sampledSeconds="43.35" CO_abs="5045.744558" CO2_abs="196792.404350" HC_abs="27.604875" PMx_abs="3.924632" NOx_abs="84.901813" fuel_abs="84.593519" electricity_abs="0"
            CO_normed="143.057749" CO2_normed="5579.489416" HC_normed="0.782658" PMx_normed="0.111272" NOx_normed="2.407150" fuel_normed="2.398409" electricity_normed="0"
            traveltime="2.53" CO_perVeh="293.974982" CO2_perVeh="11465.511733" HC_perVeh="1.608314" PMx_perVeh="0.228657" NOx_perVeh="4.946546" fuel_perVeh="4.928584" electricity_perVeh="0"/>
        <edge id=":1110673556_5" sampledSeconds="22.46" CO_abs="1286.319489" CO2_abs="57663.179199" HC_abs="7.190598" PMx_abs="0.997138" NOx_abs="23.852832" fuel_abs="24.787266" electricity_abs="0"
            CO_normed="50.831684" CO2_normed="2278.684679" HC_normed="0.284152" PMx_normed="0.039404" NOx_normed="0.942596" fuel_normed="0.979522" electricity_normed="0"
            traveltime="1.55" CO_perVeh="88.930730" CO2_perVeh="3986.590167" HC_perVeh="0.497128" PMx_perVeh="0.068938" NOx_perVeh="1.649085" fuel_perVeh="1.713688" electricity_perVeh="0"/>
        <edge id=":1110673556_6" sampledSeconds="210.82" CO_abs="25377.035621" CO2_abs="1296993.643805" HC_abs="146.397856" PMx_abs="26.090932" NOx_abs="557.678264" fuel_abs="557.521166" electricity_abs="0"
            CO_normed="507.616178" CO2_normed="25943.729844" HC_normed="2.928392" PMx_normed="0.521896" NOx_normed="11.155224" fuel_normed="11.152081" electricity_normed="0"
            traveltime="2.46" CO_perVeh="295.706685" CO2_perVeh="15113.258159" HC_perVeh="1.705905" PMx_perVeh="0.304025" NOx_perVeh="6.498363" fuel_perVeh="6.496532" electricity_perVeh="0"/>
        <edge id=":1110673561_0" sampledSeconds="103.46" CO_abs="10082.040875" CO2_abs="711211.005020" HC_abs="63.038408" PMx_abs="14.431051" NOx_abs="301.610372" fuel_abs="305.715734" electricity_abs="0"
            CO_normed="253.384351" CO2_normed="17874.331347" HC_normed="1.584297" PMx_normed="0.362685" NOx_normed="7.580147" fuel_normed="7.683324" electricity_normed="0"
            traveltime="1.22" CO_perVeh="118.977868" CO2_perVeh="8392.980161" HC_perVeh="0.743914" PMx_perVeh="0.170300" NOx_perVeh="3.559295" fuel_perVeh="3.607742" electricity_perVeh="0"/>
        <edge id=":1110673561_1" sampledSeconds="5254.56" CO_abs="486982.250595" CO2_abs="33763484.559993" HC_abs="3034.164993" PMx_abs="705.258181" NOx_abs="14431.881127" fuel_abs="14513.291780" electricity_abs="0"
            CO_normed="11932.271492" CO2_normed="827289.010639" HC_normed="74.344559" PMx_normed="17.280572" NOx_normed="353.616838" fuel_normed="355.611601" electricity_normed="0"
            traveltime="1.19" CO_perVeh="110.594647" CO2_perVeh="7667.755161" HC_perVeh="0.689065" PMx_perVeh="0.160166" NOx_perVeh="3.277509" fuel_perVeh="3.295998" electricity_perVeh="0"/>
        <edge id=":1110673562_0" sampledSeconds="301.80" CO_abs="6770.344962" CO2_abs="511669.107595" HC_abs="42.512378" PMx_abs="7.063698" NOx_abs="196.518310" fuel_abs="219.946733" electricity_abs="0"
            CO_normed="10543.245288" CO2_normed="796806.209756" HC_normed="66.203190" PMx_normed="11.000075" NOx_normed="306.031784" fuel_normed="342.516130" electricity_normed="0"
            traveltime="0.03" CO_perVeh="0.606903" CO2_perVeh="45.866753" HC_perVeh="0.003811" PMx_perVeh="0.000633" NOx_perVeh="0.017616" fuel_perVeh="0.019716" electricity_perVeh="0"/>
        <edge id=":1110673564_0" sampledSeconds="27.84" CO_abs="527.899912" CO2_abs="57443.614257" HC_abs="3.714879" PMx_abs="0.847185" NOx_abs="21.926823" fuel_abs="24.692549" electricity_abs="0"
            CO_normed="2219.621214" CO2_normed="241528.861626" HC_normed="15.619674" PMx_normed="3.562096" NOx_normed="92.194071" fuel_normed="103.822913" electricity_normed="0"
            traveltime="7.864141e-03" CO_perVeh="0.149103" CO2_perVeh="16.224718" HC_perVeh="0.001049" PMx_perVeh="0.000239" NOx_perVeh="0.006193" fuel_perVeh="0.006974" electricity_perVeh="0"/>
        <edge id=":1110673588_0" sampledSeconds="63.05" CO_abs="1044.971587" CO2_abs="119992.683313" HC_abs="7.497597" PMx_abs="1.629362" NOx_abs="44.963290" fuel_abs="51.579878" electricity_abs="0"
            CO_normed="1757.485501" CO2_normed="201809.698635" HC_normed="12.609834" PMx_normed="2.740343" NOx_normed="75.621511" fuel_normed="86.749620" electricity_normed="0"
            traveltime="0.02" CO_perVeh="0.337088" CO2_perVeh="38.707317" HC_perVeh="0.002419" PMx_perVeh="0.000526" NOx_perVeh="0.014504" fuel_perVeh="0.016639" electricity_perVeh="0"/>
        <edge id=":1110673601_0" sampledSeconds="28.89" CO_abs="592.471125" CO2_abs="66105.949455" HC_abs="4.225980" PMx_abs="0.944901" NOx_abs="25.055521" fuel_abs="28.416152" electricity_abs="0"
            CO_normed="889.685341" CO2_normed="99268.119114" HC_normed="6.345951" PMx_normed="1.418913" NOx_normed="37.624669" fuel_normed="42.671167" electricity_normed="0"
            traveltime="0.02" CO_perVeh="0.451788" CO2_perVeh="50.408960" HC_perVeh="0.003223" PMx_perVeh="0.000721" NOx_perVeh="0.019106" fuel_perVeh="0.021669" electricity_perVeh="0"/>
        <edge id=":1110673617_0" sampledSeconds="855.49" CO_abs="33109.098092" CO2_abs="3313605.589324" HC_abs="230.046185" PMx_abs="62.691297" NOx_abs="1302.335733" fuel_abs="1424.363726" electricity_abs="0"
            CO_normed="46403.781489" CO2_normed="4644156.397090" HC_normed="322.419320" PMx_normed="87.864467" NOx_normed="1825.277831" fuel_normed="1996.305152" electricity_normed="0"
            traveltime="0.02" CO_perVeh="0.586632" CO2_perVeh="58.710980" HC_perVeh="0.004076" PMx_perVeh="0.001111" NOx_perVeh="0.023075" fuel_perVeh="0.025237" electricity_perVeh="0"/>
        <edge id=":1110673621_0" sampledSeconds="26.74" CO_abs="589.373748" CO2_abs="57315.869779" HC_abs="4.016799" PMx_abs="0.882885" NOx_abs="22.265382" fuel_abs="24.637623" electricity_abs="0"
            CO_normed="991.238259" CO2_normed="96396.697596" HC_normed="6.755653" PMx_normed="1.484881" NOx_normed="37.447034" fuel_normed="41.436787" electricity_normed="0"
            traveltime="0.02" CO_perVeh="0.446495" CO2_perVeh="43.421113" HC_perVeh="0.003043" PMx_perVeh="0.000669" NOx_perVeh="0.016868" fuel_perVeh="0.018665" electricity_perVeh="0"/>
        <edge id=":1110673630_0" sampledSeconds="287.51" CO_abs="1265.605032" CO2_abs="115850.239461" HC_abs="8.392851" PMx_abs="1.448008" NOx_abs="43.148027" fuel_abs="49.799572" electricity_abs="0"
            CO_normed="37.955739" CO2_normed="3474.371064" HC_normed="0.251703" PMx_normed="0.043426" NOx_normed="1.294018" fuel_normed="1.493499" electricity_normed="0"
            traveltime="1.29" CO_perVeh="5.694739" CO2_perVeh="521.281832" HC_perVeh="0.037765" PMx_perVeh="0.006515" NOx_perVeh="0.194150" fuel_perVeh="0.224079" electricity_perVeh="0"/>
        <edge id=":1110673630_1" sampledSeconds="338.25" CO_abs="1534.209942" CO2_abs="124344.160476" HC_abs="9.821690" PMx_abs="1.671027" NOx_abs="47.347328" fuel_abs="53.450725" electricity_abs="0"
            CO_normed="56.093718" CO2_normed="4546.265884" HC_normed="0.359100" PMx_normed="0.061096" NOx_normed="1.731111" fuel_normed="1.954263" electricity_normed="0"
            traveltime="1.08" CO_perVeh="4.890759" CO2_perVeh="396.384711" HC_perVeh="0.031310" PMx_perVeh="0.005327" NOx_perVeh="0.150934" fuel_perVeh="0.170390" electricity_perVeh="0"/>
        <edge id=":1110673650_0" sampledSeconds="199.88" CO_abs="2719.686931" CO2_abs="360055.513405" HC_abs="20.563484" PMx_abs="4.761860" NOx_abs="133.130912" fuel_abs="154.772864" electricity_abs="0"
            CO_normed="3811.754634" CO2_normed="504632.814863" HC_normed="28.820580" PMx_normed="6.673946" NOx_normed="186.588524" fuel_normed="216.920622" electricity_normed="0"
            traveltime="0.02" CO_perVeh="0.314697" CO2_perVeh="41.662261" HC_perVeh="0.002379" PMx_perVeh="0.000551" NOx_perVeh="0.015405" fuel_perVeh="0.017909" electricity_perVeh="0"/>
        <edge id=":1110673655_0" sampledSeconds="20.78" CO_abs="317.773219" CO2_abs="39081.030679" HC_abs="2.333352" PMx_abs="0.510424" NOx_abs="14.456133" fuel_abs="16.799331" electricity_abs="0"
            CO_normed="445.372417" CO2_normed="54773.694014" HC_normed="3.270290" PMx_normed="0.715381" NOx_normed="20.260873" fuel_normed="23.544963" electricity_normed="0"
            traveltime="0.02" CO_perVeh="0.363031" CO2_perVeh="44.647027" HC_perVeh="0.002666" PMx_perVeh="0.000583" NOx_perVeh="0.016515" fuel_perVeh="0.019192" electricity_perVeh="0"/>
        <edge id=":1110673663_0" sampledSeconds="111.39" CO_abs="1865.944728" CO2_abs="229484.169257" HC_abs="13.714105" PMx_abs="3.033971" NOx_abs="85.191159" fuel_abs="98.645765" electricity_abs="0"
            CO_normed="47.897424" CO2_normed="5890.689226" HC_normed="0.352031" PMx_normed="0.077880" NOx_normed="2.186794" fuel_normed="2.532164" electricity_normed="0"
            traveltime="1.31" CO_perVeh="21.916401" CO2_perVeh="2695.399828" HC_perVeh="0.161079" PMx_perVeh="0.035635" NOx_perVeh="1.000610" fuel_perVeh="1.158641" electricity_perVeh="0"/>
        <edge id=":1110673663_1" sampledSeconds="169.81" CO_abs="3087.334617" CO2_abs="365432.506157" HC_abs="22.436320" PMx_abs="5.109203" NOx_abs="137.453025" fuel_abs="157.084017" electricity_abs="0"
            CO_normed="79.346483" CO2_normed="9391.850142" HC_normed="0.576628" PMx_normed="0.131310" NOx_normed="3.532631" fuel_normed="4.037160" electricity_normed="0"
            traveltime="1.27" CO_perVeh="23.124697" CO2_perVeh="2737.155816" HC_perVeh="0.168052" PMx_perVeh="0.038269" NOx_perVeh="1.029548" fuel_perVeh="1.176588" electricity_perVeh="0"/>
        <edge id=":1110673666_0" sampledSeconds="207.93" CO_abs="4270.183700" CO2_abs="348424.096206" HC_abs="27.380112" PMx_abs="4.616246" NOx_abs="132.118173" fuel_abs="149.774077" electricity_abs="0"