<?xml version="1.0" encoding="UTF-8"?>

<!-- generated on Tue Nov 10 02:13:32 2020 by Eclipse SUMO sumo Version 1.7.0
<configuration xmlns:xsi="http://www.w3.org/2001/XMLSchema-instance" xsi:noNamespaceSchemaLocation="http://sumo.dlr.de/xsd/sumoConfiguration.xsd">

    <input>
        <net-file value="../dataSets/Porto/6AM7AM_Routing_SaoBento/Porto.net.xml"/>
        <route-files value="../results/Porto/6AM7AM_Routing_SaoBento/cost_PMx-cost_hc/solution2/Porto.rou.xml"/>
        <additional-files value="moreOutputInfo.xml"/>
    </input>

    <output>
        <emission-output.precision value="6"/>
        <tripinfo-output value="../results/Porto/6AM7AM_Routing_SaoBento/cost_PMx-cost_hc/solution2/Porto-tripinfo"/>
    </output>

    <processing>
        <collision.action value="warn"/>
        <time-to-teleport value="-1"/>
    </processing>

    <emissions>
        <device.emissions.probability value="1"/>
    </emissions>

    <gui_only>
        <quit-on-end value="true"/>
        <start value="true"/>
    </gui_only>

</configuration>
-->

<meandata xmlns:xsi="http://www.w3.org/2001/XMLSchema-instance" xsi:noNamespaceSchemaLocation="http://sumo.dlr.de/xsd/meandata_file.xsd">
    <interval begin="0.00" end="4699.00" id="emissions-detector">
        <edge id=":1092997347_0" sampledSeconds="282.57" CO_abs="36244.475443" CO2_abs="1442772.801773" HC_abs="199.141433" PMx_abs="29.468596" NOx_abs="626.460447" fuel_abs="620.191129" electricity_abs="0"
            CO_normed="63108.258815" CO2_normed="2512131.249580" HC_normed="346.741647" PMx_normed="51.310214" NOx_normed="1090.782183" fuel_normed="1079.866154" electricity_normed="0"
            traveltime="0.07" CO_perVeh="9.576312" CO2_perVeh="381.201320" HC_perVeh="0.052616" PMx_perVeh="0.007786" NOx_perVeh="0.165520" fuel_perVeh="0.163863" electricity_perVeh="0"/>
        <edge id=":1103427051_0" sampledSeconds="11.07" CO_abs="803.802529" CO2_abs="44797.168769" HC_abs="4.727990" PMx_abs="0.903551" NOx_abs="19.285277" fuel_abs="19.256288" electricity_abs="0"
            CO_normed="2123.481229" CO2_normed="118344.921201" HC_normed="12.490379" PMx_normed="2.386995" NOx_normed="50.947741" fuel_normed="50.871159" electricity_normed="0"
            traveltime="0.03" CO_perVeh="2.202407" CO2_perVeh="122.743565" HC_perVeh="0.012955" PMx_perVeh="0.002476" NOx_perVeh="0.052841" fuel_perVeh="0.052762" electricity_perVeh="0"/>
        <edge id=":1105984386_0" sampledSeconds="22.92" CO_abs="496.788954" CO2_abs="38561.405881" HC_abs="3.144741" PMx_abs="0.540181" NOx_abs="14.849950" fuel_abs="16.576033" electricity_abs="0"
            CO_normed="39.196723" CO2_normed="3042.500687" HC_normed="0.248121" PMx_normed="0.042620" NOx_normed="1.171663" fuel_normed="1.307851" electricity_normed="0"
            traveltime="0.96" CO_perVeh="20.849848" CO2_perVeh="1618.392337" HC_perVeh="0.131982" PMx_perVeh="0.022671" NOx_perVeh="0.623241" fuel_perVeh="0.695683" electricity_perVeh="0"/>
        <edge id=":1105984390_0" sampledSeconds="22.78" CO_abs="6.466156" CO2_abs="721.172690" HC_abs="0.045501" PMx_abs="0.007090" NOx_abs="0.255213" fuel_abs="0.310006" electricity_abs="0"
            CO_normed="0.394415" CO2_normed="43.989263" HC_normed="0.002775" PMx_normed="0.000432" NOx_normed="0.015567" fuel_normed="0.018909" electricity_normed="0"
            traveltime="1.03" CO_perVeh="0.293237" CO2_perVeh="32.704827" HC_perVeh="0.002063" PMx_perVeh="0.000322" NOx_perVeh="0.011574" fuel_perVeh="0.014059" electricity_perVeh="0"/>
        <edge id=":1105984390_1" sampledSeconds="645.76" CO_abs="15062.241550" CO2_abs="1916571.310501" HC_abs="114.575190" PMx_abs="34.128042" NOx_abs="719.462221" fuel_abs="823.846041" electricity_abs="0"
            CO_normed="878.864531" CO2_normed="111829.739305" HC_normed="6.685331" PMx_normed="1.991332" NOx_normed="41.979796" fuel_normed="48.070472" electricity_normed="0"
            traveltime="0.64" CO_perVeh="14.832726" CO2_perVeh="1887.366974" HC_perVeh="0.112829" PMx_perVeh="0.033608" NOx_perVeh="0.708499" fuel_perVeh="0.811292" electricity_perVeh="0"/>
        <edge id=":1105984395_0" sampledSeconds="8.90" CO_abs="162.104103" CO2_abs="12317.025609" HC_abs="1.020764" PMx_abs="0.177032" NOx_abs="4.776059" fuel_abs="5.294601" electricity_abs="0"
            CO_normed="134.990509" CO2_normed="10256.875235" HC_normed="0.850031" PMx_normed="0.147421" NOx_normed="3.977214" fuel_normed="4.409024" electricity_normed="0"
            traveltime="0.09" CO_perVeh="1.643913" CO2_perVeh="124.908108" HC_perVeh="0.010352" PMx_perVeh="0.001795" NOx_perVeh="0.048434" fuel_perVeh="0.053693" electricity_perVeh="0"/>
        <edge id=":1105984398_0" sampledSeconds="23.71" CO_abs="1577.668598" CO2_abs="106714.341875" HC_abs="9.706347" PMx_abs="1.955868" NOx_abs="44.261651" fuel_abs="45.871751" electricity_abs="0"
            CO_normed="99.973877" CO2_normed="6762.286166" HC_normed="0.615073" PMx_normed="0.123940" NOx_normed="2.804777" fuel_normed="2.906806" electricity_normed="0"
            traveltime="1.11" CO_perVeh="73.906468" CO2_perVeh="4999.072715" HC_perVeh="0.454697" PMx_perVeh="0.091623" NOx_perVeh="2.073453" fuel_perVeh="2.148879" electricity_perVeh="0"/>
        <edge id=":1105984398_1" sampledSeconds="451.69" CO_abs="7907.071215" CO2_abs="942356.365751" HC_abs="57.496460" PMx_abs="13.374358" NOx_abs="355.235419" fuel_abs="405.078917" electricity_abs="0"
            CO_normed="485.009525" CO2_normed="57802.921063" HC_normed="3.526759" PMx_normed="0.820366" NOx_normed="21.789681" fuel_normed="24.847017" electricity_normed="0"
            traveltime="0.95" CO_perVeh="16.682898" CO2_perVeh="1988.250138" HC_perVeh="0.121310" PMx_perVeh="0.028218" NOx_perVeh="0.749501" fuel_perVeh="0.854664" electricity_perVeh="0"/>
        <edge id=":1106006327_0" sampledSeconds="228.37" CO_abs="30695.993459" CO2_abs="984444.934274" HC_abs="162.928852" PMx_abs="20.515035" NOx_abs="430.777246" fuel_abs="423.178464" electricity_abs="0"
            CO_normed="2654.269566" CO2_normed="85124.536929" HC_normed="14.088389" PMx_normed="1.773926" NOx_normed="37.249126" fuel_normed="36.592063" electricity_normed="0"
            traveltime="2.12" CO_perVeh="285.469195" CO2_perVeh="9155.224223" HC_perVeh="1.515220" PMx_perVeh="0.190787" NOx_perVeh="4.006179" fuel_perVeh="3.935511" electricity_perVeh="0"/>
        <edge id=":1106006327_1" sampledSeconds="164.02" CO_abs="22062.785630" CO2_abs="727683.917262" HC_abs="117.596262" PMx_abs="15.153113" NOx_abs="318.293869" fuel_abs="312.805364" electricity_abs="0"
            CO_normed="1663.656622" CO2_normed="54871.410531" HC_normed="8.867412" PMx_normed="1.142629" NOx_normed="24.001126" fuel_normed="23.587262" electricity_normed="0"
            traveltime="2.33" CO_perVeh="313.209678" CO2_perVeh="10330.411077" HC_perVeh="1.669430" PMx_perVeh="0.215118" NOx_perVeh="4.518592" fuel_perVeh="4.440675" electricity_perVeh="0"/>
        <edge id=":1106006327_2" sampledSeconds="0.00" CO_abs="0" CO2_abs="0" HC_abs="0" PMx_abs="0" NOx_abs="0" fuel_abs="0" electricity_abs="0"
            CO_normed="0" CO2_normed="0" HC_normed="0" PMx_normed="0" NOx_normed="0" fuel_normed="0" electricity_normed="0"/>
        <edge id=":1106006327_3" sampledSeconds="0.00" CO_abs="0" CO2_abs="0" HC_abs="0" PMx_abs="0" NOx_abs="0" fuel_abs="0" electricity_abs="0"
            CO_normed="0" CO2_normed="0" HC_normed="0" PMx_normed="0" NOx_normed="0" fuel_normed="0" electricity_normed="0"/>
        <edge id=":1107381198_0" sampledSeconds="0.00" CO_abs="0" CO2_abs="0" HC_abs="0" PMx_abs="0" NOx_abs="0" fuel_abs="0" electricity_abs="0"
            CO_normed="0" CO2_normed="0" HC_normed="0" PMx_normed="0" NOx_normed="0" fuel_normed="0" electricity_normed="0"/>
        <edge id=":1107381198_1" sampledSeconds="35.16" CO_abs="1442.842194" CO2_abs="60868.763280" HC_abs="7.971795" PMx_abs="1.039111" NOx_abs="25.121880" fuel_abs="26.165318" electricity_abs="0"
            CO_normed="120.544265" CO2_normed="5085.365800" HC_normed="0.666015" PMx_normed="0.086814" NOx_normed="2.098843" fuel_normed="2.186018" electricity_normed="0"
            traveltime="1.45" CO_perVeh="59.405814" CO2_perVeh="2506.135773" HC_perVeh="0.328221" PMx_perVeh="0.042783" NOx_perVeh="1.034337" fuel_perVeh="1.077299" electricity_perVeh="0"/>
        <edge id=":1110338277_0" sampledSeconds="96.80" CO_abs="1462.187482" CO2_abs="179373.890638" HC_abs="10.705520" PMx_abs="2.399260" NOx_abs="66.713732" fuel_abs="77.105385" electricity_abs="0"
            CO_normed="4000.756192" CO2_normed="490792.878648" HC_normed="29.291849" PMx_normed="6.564723" NOx_normed="182.538407" fuel_normed="210.971474" electricity_normed="0"
            traveltime="0.02" CO_perVeh="0.330098" CO2_perVeh="40.494830" HC_perVeh="0.002417" PMx_perVeh="0.000542" NOx_perVeh="0.015061" fuel_perVeh="0.017407" electricity_perVeh="0"/>
        <edge id=":1110338293_0" sampledSeconds="123.12" CO_abs="6374.724807" CO2_abs="436924.592536" HC_abs="39.313403" PMx_abs="7.771416" NOx_abs="179.597669" fuel_abs="187.814754" electricity_abs="0"
            CO_normed="16279.356818" CO2_normed="1115789.553188" HC_normed="100.396006" PMx_normed="19.846135" NOx_normed="458.644823" fuel_normed="479.629079" electricity_normed="0"
            traveltime="0.03" CO_perVeh="1.462149" CO2_perVeh="100.215893" HC_perVeh="0.009017" PMx_perVeh="0.001783" NOx_perVeh="0.041194" fuel_perVeh="0.043078" electricity_perVeh="0"/>
        <edge id=":1110338295_0" sampledSeconds="0.00" CO_abs="0" CO2_abs="0" HC_abs="0" PMx_abs="0" NOx_abs="0" fuel_abs="0" electricity_abs="0"
            CO_normed="0" CO2_normed="0" HC_normed="0" PMx_normed="0" NOx_normed="0" fuel_normed="0" electricity_normed="0"/>
        <edge id=":1110673403_0" sampledSeconds="143.64" CO_abs="2069.513290" CO2_abs="267742.929520" HC_abs="15.511913" PMx_abs="3.606165" NOx_abs="99.490926" fuel_abs="115.091463" electricity_abs="0"
            CO_normed="5284.988184" CO2_normed="683744.446528" HC_normed="39.613312" PMx_normed="9.209188" NOx_normed="254.073443" fuel_normed="293.913078" electricity_normed="0"
            traveltime="0.02" CO_perVeh="0.332274" CO2_perVeh="42.987893" HC_perVeh="0.002491" PMx_perVeh="0.000579" NOx_perVeh="0.015974" fuel_perVeh="0.018479" electricity_perVeh="0"/>
        <edge id=":1110673412_0" sampledSeconds="253.14" CO_abs="44286.796283" CO2_abs="3033049.354506" HC_abs="275.869581" PMx_abs="66.512032" NOx_abs="1302.444592" fuel_abs="1303.758616" electricity_abs="0"
            CO_normed="116996.621893" CO2_normed="8012693.585739" HC_normed="728.790786" PMx_normed="175.711132" NOx_normed="3440.791167" fuel_normed="3444.262548" electricity_normed="0"
            traveltime="0.02" CO_perVeh="2.728619" CO2_perVeh="186.873668" HC_perVeh="0.016997" PMx_perVeh="0.004098" NOx_perVeh="0.080247" fuel_perVeh="0.080328" electricity_perVeh="0"/>
        <edge id=":1110673414_0" sampledSeconds="0.00" CO_abs="0" CO2_abs="0" HC_abs="0" PMx_abs="0" NOx_abs="0" fuel_abs="0" electricity_abs="0"
            CO_normed="0" CO2_normed="0" HC_normed="0" PMx_normed="0" NOx_normed="0" fuel_normed="0" electricity_normed="0"/>
        <edge id=":1110673414_1" sampledSeconds="184.85" CO_abs="11677.299096" CO2_abs="441464.346249" HC_abs="63.444547" PMx_abs="8.291802" NOx_abs="187.324389" fuel_abs="189.769689" electricity_abs="0"
            CO_normed="990.721778" CO2_normed="37454.580744" HC_normed="5.382742" PMx_normed="0.703490" NOx_normed="15.892918" fuel_normed="16.100381" electricity_normed="0"
            traveltime="1.62" CO_perVeh="102.028070" CO2_perVeh="3857.206625" HC_perVeh="0.554334" PMx_perVeh="0.072448" NOx_perVeh="1.636709" fuel_perVeh="1.658075" electricity_perVeh="0"/>
        <edge id=":1110673417_0" sampledSeconds="29.62" CO_abs="429.807632" CO2_abs="50421.100158" HC_abs="3.071884" PMx_abs="0.699964" NOx_abs="18.924460" fuel_abs="21.673908" electricity_abs="0"
            CO_normed="1176.015774" CO2_normed="137959.414289" HC_normed="8.405119" PMx_normed="1.915202" NOx_normed="51.780056" fuel_normed="59.302943" electricity_normed="0"
            traveltime="0.02" CO_perVeh="0.319009" CO2_perVeh="37.423215" HC_perVeh="0.002280" PMx_perVeh="0.000520" NOx_perVeh="0.014046" fuel_perVeh="0.016087" electricity_perVeh="0"/>
        <edge id=":1110673446_0" sampledSeconds="333.15" CO_abs="3343.788168" CO2_abs="258268.310393" HC_abs="21.376697" PMx_abs="4.886203" NOx_abs="106.847610" fuel_abs="111.017552" electricity_abs="0"
            CO_normed="8539.148333" CO2_normed="659548.781595" HC_normed="54.590416" PMx_normed="12.478066" NOx_normed="272.860464" fuel_normed="283.509389" electricity_normed="0"
            traveltime="0.02" CO_perVeh="0.228293" CO2_perVeh="17.632979" HC_perVeh="0.001459" PMx_perVeh="0.000334" NOx_perVeh="0.007295" fuel_perVeh="0.007580" electricity_perVeh="0"/>
        <edge id=":1110673451_0" sampledSeconds="37.54" CO_abs="265.289159" CO2_abs="19744.596207" HC_abs="1.657240" PMx_abs="0.265232" NOx_abs="7.540395" fuel_abs="8.487451" electricity_abs="0"
            CO_normed="752.753519" CO2_normed="56024.959088" HC_normed="4.702390" PMx_normed="0.752592" NOx_normed="21.395743" fuel_normed="24.083000" electricity_normed="0"
            traveltime="0.03" CO_perVeh="0.190247" CO2_perVeh="14.159471" HC_perVeh="0.001188" PMx_perVeh="0.000190" NOx_perVeh="0.005407" fuel_perVeh="0.006087" electricity_perVeh="0"/>
        <edge id=":1110673464_0" sampledSeconds="323.35" CO_abs="424.888439" CO2_abs="34292.781974" HC_abs="2.713367" PMx_abs="0.443579" NOx_abs="12.947741" fuel_abs="14.741163" electricity_abs="0"
            CO_normed="23.053521" CO2_normed="1860.651671" HC_normed="0.147221" PMx_normed="0.024068" NOx_normed="0.702516" fuel_normed="0.799823" electricity_normed="0"
            traveltime="1.17" CO_perVeh="1.535916" CO2_perVeh="123.963882" HC_perVeh="0.009808" PMx_perVeh="0.001603" NOx_perVeh="0.046804" fuel_perVeh="0.053287" electricity_perVeh="0"/>
        <edge id=":1110673464_1" sampledSeconds="710.04" CO_abs="15921.236400" CO2_abs="2026712.966091" HC_abs="120.917763" PMx_abs="35.973017" NOx_abs="761.288267" fuel_abs="871.190894" electricity_abs="0"
            CO_normed="846.466677" CO2_normed="107751.995278" HC_normed="6.428700" PMx_normed="1.912537" NOx_normed="40.474567" fuel_normed="46.317638" electricity_normed="0"
            traveltime="0.70" CO_perVeh="15.705631" CO2_perVeh="1999.267275" HC_perVeh="0.119280" PMx_perVeh="0.035486" NOx_perVeh="0.750979" fuel_perVeh="0.859393" electricity_perVeh="0"/>
        <edge id=":1110673479_0" sampledSeconds="133.46" CO_abs="6870.179822" CO2_abs="469307.049371" HC_abs="42.349424" PMx_abs="8.441780" NOx_abs="193.511049" fuel_abs="201.734430" electricity_abs="0"
            CO_normed="17544.617550" CO2_normed="1198485.761321" HC_normed="108.149200" PMx_normed="21.558068" NOx_normed="494.175907" fuel_normed="515.176242" electricity_normed="0"
            traveltime="0.03" CO_perVeh="1.447284" CO2_perVeh="98.865068" HC_perVeh="0.008921" PMx_perVeh="0.001778" NOx_perVeh="0.040765" fuel_perVeh="0.042498" electricity_perVeh="0"/>
        <edge id=":1110673511_0" sampledSeconds="11.84" CO_abs="211.000686" CO2_abs="22071.617559" HC_abs="1.462041" PMx_abs="0.318666" NOx_abs="8.409198" fuel_abs="9.487657" electricity_abs="0"
            CO_normed="538.839801" CO2_normed="56365.058675" HC_normed="3.733666" PMx_normed="0.813787" NOx_normed="21.474861" fuel_normed="24.228961" electricity_normed="0"
            traveltime="0.02" CO_perVeh="0.417823" CO2_perVeh="43.706173" HC_perVeh="0.002895" PMx_perVeh="0.000631" NOx_perVeh="0.016652" fuel_perVeh="0.018787" electricity_perVeh="0"/>
        <edge id=":1110673517_0" sampledSeconds="17.20" CO_abs="676.028506" CO2_abs="51426.847817" HC_abs="4.273213" PMx_abs="0.813715" NOx_abs="20.391225" fuel_abs="22.106251" electricity_abs="0"
            CO_normed="1726.397547" CO2_normed="131330.532837" HC_normed="10.912654" PMx_normed="2.078012" NOx_normed="52.073781" fuel_normed="56.453503" electricity_normed="0"
            traveltime="0.03" CO_perVeh="1.085408" CO2_perVeh="82.569196" HC_perVeh="0.006861" PMx_perVeh="0.001306" NOx_perVeh="0.032739" fuel_perVeh="0.035493" electricity_perVeh="0"/>
        <edge id=":1110673534_0" sampledSeconds="476.34" CO_abs="2722.230623" CO2_abs="239795.886667" HC_abs="17.872117" PMx_abs="3.196115" NOx_abs="90.756014" fuel_abs="103.078817" electricity_abs="0"
            CO_normed="134.725876" CO2_normed="11867.734682" HC_normed="0.884509" PMx_normed="0.158179" NOx_normed="4.491605" fuel_normed="5.101472" electricity_normed="0"
            traveltime="1.44" CO_perVeh="8.200990" CO2_perVeh="722.408897" HC_perVeh="0.053842" PMx_perVeh="0.009629" NOx_perVeh="0.273411" fuel_perVeh="0.310535" electricity_perVeh="0"/>
        <edge id=":1110673534_1" sampledSeconds="185.09" CO_abs="2581.307135" CO2_abs="342439.951305" HC_abs="19.558659" PMx_abs="4.491595" NOx_abs="126.371518" fuel_abs="147.200727" electricity_abs="0"
            CO_normed="124.220615" CO2_normed="16479.287060" HC_normed="0.941224" PMx_normed="0.216150" NOx_normed="6.081395" fuel_normed="7.083762" electricity_normed="0"
            traveltime="1.23" CO_perVeh="17.138953" CO2_perVeh="2273.678338" HC_perVeh="0.129862" PMx_perVeh="0.029823" NOx_perVeh="0.839062" fuel_perVeh="0.977360" electricity_perVeh="0"/>
        <edge id=":1110673549_0" sampledSeconds="60.24" CO_abs="34.734414" CO2_abs="5358.047178" HC_abs="0.279574" PMx_abs="0.058083" NOx_abs="1.887601" fuel_abs="2.303217" electricity_abs="0"
            CO_normed="1.665253" CO2_normed="256.877943" HC_normed="0.013403" PMx_normed="0.002785" NOx_normed="0.090496" fuel_normed="0.110422" electricity_normed="0"
            traveltime="1.25" CO_perVeh="0.723662" CO2_perVeh="111.630349" HC_perVeh="0.005825" PMx_perVeh="0.001210" NOx_perVeh="0.039327" fuel_perVeh="0.047986" electricity_perVeh="0"/>
        <edge id=":1110673549_1" sampledSeconds="638.52" CO_abs="14383.374090" CO2_abs="1908581.534058" HC_abs="111.011722" PMx_abs="33.487619" NOx_abs="711.791857" fuel_abs="820.411945" electricity_abs="0"
            CO_normed="667.033720" CO2_normed="88511.098423" HC_normed="5.148205" PMx_normed="1.552999" NOx_normed="33.009582" fuel_normed="38.046875" electricity_normed="0"
            traveltime="0.80" CO_perVeh="18.108918" CO2_perVeh="2402.937277" HC_perVeh="0.139766" PMx_perVeh="0.042161" NOx_perVeh="0.896158" fuel_perVeh="1.032913" electricity_perVeh="0"/>
        <edge id=":1110673556_0" sampledSeconds="411.04" CO_abs="51606.263262" CO2_abs="2614729.425963" HC_abs="297.238546" PMx_abs="53.074835" NOx_abs="1127.945592" fuel_abs="1123.958069" electricity_abs="0"
            CO_normed="1834.645647" CO2_normed="92955.809164" HC_normed="10.567078" PMx_normed="1.886855" NOx_normed="40.099405" fuel_normed="39.957646" electricity_normed="0"
            traveltime="2.55" CO_perVeh="320.346518" CO2_perVeh="16230.965298" HC_perVeh="1.845112" PMx_perVeh="0.329463" NOx_perVeh="7.001736" fuel_perVeh="6.976984" electricity_perVeh="0"/>
        <edge id=":1110673556_2" sampledSeconds="245.76" CO_abs="23842.317042" CO2_abs="1036619.908679" HC_abs="132.888111" PMx_abs="19.851977" NOx_abs="441.070980" fuel_abs="445.602207" electricity_abs="0"
            CO_normed="886.273008" CO2_normed="38533.513446" HC_normed="4.939753" PMx_normed="0.737943" NOx_normed="16.395609" fuel_normed="16.564045" electricity_normed="0"
            traveltime="2.98" CO_perVeh="289.202737" CO2_perVeh="12574.000846" HC_perVeh="1.611907" PMx_perVeh="0.240801" NOx_perVeh="5.350106" fuel_perVeh="5.405069" electricity_perVeh="0"/>
        <edge id=":1110673556_3" sampledSeconds="376.20" CO_abs="32567.558916" CO2_abs="1147597.302600" HC_abs="175.003377" PMx_abs="21.949000" NOx_abs="489.741026" fuel_abs="493.312187" electricity_abs="0"
            CO_normed="2753.937410" CO2_normed="97041.695719" HC_normed="14.798418" PMx_normed="1.856024" NOx_normed="41.412871" fuel_normed="41.714852" electricity_normed="0"
            traveltime="1.76" CO_perVeh="152.613057" CO2_perVeh="5377.692956" HC_perVeh="0.820074" PMx_perVeh="0.102854" NOx_perVeh="2.294949" fuel_perVeh="2.311683" electricity_perVeh="0"/>
        <edge id=":1110673556_4" sampledSeconds="171.34" CO_abs="18051.410007" CO2_abs="728008.658392" HC_abs="99.295346" PMx_abs="14.276185" NOx_abs="312.414329" fuel_abs="312.942901" electricity_abs="0"
            CO_normed="932.539068" CO2_normed="37609.057439" HC_normed="5.129615" PMx_normed="0.737510" NOx_normed="16.139380" fuel_normed="16.166686" electricity_normed="0"
            traveltime="2.40" CO_perVeh="253.189583" CO2_perVeh="10211.069879" HC_perVeh="1.392719" PMx_perVeh="0.200238" NOx_perVeh="4.381932" fuel_perVeh="4.389346" electricity_perVeh="0"/>
        <edge id=":1110673556_5" sampledSeconds="25.52" CO_abs="2591.393625" CO2_abs="102689.757485" HC_abs="14.205381" PMx_abs="1.989702" NOx_abs="43.933528" fuel_abs="44.142447" electricity_abs="0"
            CO_normed="186.590193" CO2_normed="7394.052945" HC_normed="1.022841" PMx_normed="0.143266" NOx_normed="3.163381" fuel_normed="3.178424" electricity_normed="0"
            traveltime="1.76" CO_perVeh="179.158078" CO2_perVeh="7099.538789" HC_perVeh="0.982100" PMx_perVeh="0.137560" NOx_perVeh="3.037380" fuel_perVeh="3.051824" electricity_perVeh="0"/>
        <edge id=":1110673556_6" sampledSeconds="307.12" CO_abs="36416.218183" CO2_abs="1873232.717469" HC_abs="210.371774" PMx_abs="37.668227" NOx_abs="805.407149" fuel_abs="805.221101" electricity_abs="0"
            CO_normed="1327.269720" CO2_normed="68274.114873" HC_normed="7.667465" PMx_normed="1.372902" NOx_normed="29.354847" fuel_normed="29.348066" electricity_normed="0"
            traveltime="2.43" CO_perVeh="288.387154" CO2_perVeh="14834.496242" HC_perVeh="1.665975" PMx_perVeh="0.298302" NOx_perVeh="6.378177" fuel_perVeh="6.376703" electricity_perVeh="0"/>
        <edge id=":1110673561_0" sampledSeconds="100.88" CO_abs="9527.480803" CO2_abs="678310.819837" HC_abs="59.730941" PMx_abs="13.807695" NOx_abs="287.464133" fuel_abs="291.573417" electricity_abs="0"
            CO_normed="436.293956" CO2_normed="31062.031759" HC_normed="2.735272" PMx_normed="0.632299" NOx_normed="13.163906" fuel_normed="13.352084" electricity_normed="0"
            traveltime="1.19" CO_perVeh="112.433521" CO2_perVeh="8004.726042" HC_perVeh="0.704883" PMx_perVeh="0.162944" NOx_perVeh="3.392356" fuel_perVeh="3.440849" electricity_perVeh="0"/>
        <edge id=":1110673561_1" sampledSeconds="1314.43" CO_abs="120936.205435" CO2_abs="8360913.209812" HC_abs="753.046555" PMx_abs="175.083388" NOx_abs="3576.978377" fuel_abs="3593.952489" electricity_abs="0"
            CO_normed="5399.283232" CO2_normed="373278.939418" HC_normed="33.620301" PMx_normed="7.816723" NOx_normed="159.696753" fuel_normed="160.454575" electricity_normed="0"
            traveltime="1.19" CO_perVeh="109.582328" CO2_perVeh="7575.963960" HC_perVeh="0.682348" PMx_perVeh="0.158646" NOx_perVeh="3.241160" fuel_perVeh="3.256541" electricity_perVeh="0"/>
        <edge id=":1110673562_0" sampledSeconds="103.71" CO_abs="1988.155971" CO2_abs="158261.332259" HC_abs="12.640738" PMx_abs="2.066303" NOx_abs="59.874571" fuel_abs="68.030521" electricity_abs="0"
            CO_normed="5641.359073" CO2_normed="449063.863967" HC_normed="35.867882" PMx_normed="5.863101" NOx_normed="169.893088" fuel_normed="193.035458" electricity_normed="0"
            traveltime="0.03" CO_perVeh="0.506790" CO2_perVeh="40.341534" HC_perVeh="0.003222" PMx_perVeh="0.000527" NOx_perVeh="0.015262" fuel_perVeh="0.017341" electricity_perVeh="0"/>
        <edge id=":1110673564_0" sampledSeconds="28.57" CO_abs="520.577213" CO2_abs="57101.229722" HC_abs="3.674792" PMx_abs="0.825122" NOx_abs="21.707988" fuel_abs="24.545394" electricity_abs="0"
            CO_normed="3988.248496" CO2_normed="437464.198766" HC_normed="28.153332" PMx_normed="6.321427" NOx_normed="166.309336" fuel_normed="188.047283" electricity_normed="0"
            traveltime="7.854925e-03" CO_perVeh="0.143116" CO2_perVeh="15.698205" HC_perVeh="0.001010" PMx_perVeh="0.000227" NOx_perVeh="0.005968" fuel_perVeh="0.006748" electricity_perVeh="0"/>
        <edge id=":1110673588_0" sampledSeconds="11.71" CO_abs="207.558287" CO2_abs="27647.496865" HC_abs="1.578645" PMx_abs="0.364446" NOx_abs="10.228781" fuel_abs="11.884507" electricity_abs="0"
            CO_normed="636.058595" CO2_normed="84725.251087" HC_normed="4.837727" PMx_normed="1.116838" NOx_normed="31.345913" fuel_normed="36.419857" electricity_normed="0"
            traveltime="0.02" CO_perVeh="0.345930" CO2_perVeh="46.079161" HC_perVeh="0.002631" PMx_perVeh="0.000607" NOx_perVeh="0.017048" fuel_perVeh="0.019808" electricity_perVeh="0"/>
        <edge id=":1110673601_0" sampledSeconds="29.51" CO_abs="478.781955" CO2_abs="53976.105577" HC_abs="3.425868" PMx_abs="0.773830" NOx_abs="20.462309" fuel_abs="23.202038" electricity_abs="0"
            CO_normed="1310.016598" CO2_normed="147686.422701" HC_normed="9.373670" PMx_normed="2.117310" NOx_normed="55.987833" fuel_normed="63.484128" electricity_normed="0"
            traveltime="0.02" CO_perVeh="0.355358" CO2_perVeh="40.061788" HC_perVeh="0.002543" PMx_perVeh="0.000574" NOx_perVeh="0.015187" fuel_perVeh="0.017221" electricity_perVeh="0"/>
        <edge id=":1110673617_0" sampledSeconds="238.02" CO_abs="5665.611646" CO2_abs="717285.842866" HC_abs="42.961653" PMx_abs="12.768780" NOx_abs="269.627671" fuel_abs="308.328244" electricity_abs="0"
            CO_normed="14468.469833" CO2_normed="1831757.845156" HC_normed="109.712669" PMx_normed="32.608078" NOx_normed="688.557577" fuel_normed="787.388578" electricity_normed="0"
            traveltime="0.01" CO_perVeh="0.347450" CO2_perVeh="43.988416" HC_perVeh="0.002635" PMx_perVeh="0.000783" NOx_perVeh="0.016535" fuel_perVeh="0.018909" electricity_perVeh="0"/>
        <edge id=":1110673621_0" sampledSeconds="25.81" CO_abs="541.023923" CO2_abs="54113.140132" HC_abs="3.717346" PMx_abs="0.840305" NOx_abs="21.015519" fuel_abs="23.260888" electricity_abs="0"
            CO_normed="1657.957967" CO2_normed="165828.733326" HC_normed="11.391738" PMx_normed="2.575099" NOx_normed="64.401675" fuel_normed="71.282567" electricity_normed="0"
            traveltime="0.02" CO_perVeh="0.409873" CO2_perVeh="40.995418" HC_perVeh="0.002816" PMx_perVeh="0.000637" NOx_perVeh="0.015921" fuel_perVeh="0.017622" electricity_perVeh="0"/>
        <edge id=":1110673630_0" sampledSeconds="53.96" CO_abs="332.035296" CO2_abs="29282.447911" HC_abs="2.182756" PMx_abs="0.401108" NOx_abs="11.153521" fuel_abs="12.587355" electricity_abs="0"
            CO_normed="18.144011" CO2_normed="1600.134251" HC_normed="0.119276" PMx_normed="0.021918" NOx_normed="0.609482" fuel_normed="0.687834" electricity_normed="0"
            traveltime="1.26" CO_perVeh="7.750291" CO2_perVeh="683.504128" HC_perVeh="0.050949" PMx_perVeh="0.009363" NOx_perVeh="0.260343" fuel_perVeh="0.293811" electricity_perVeh="0"/>
        <edge id=":1110673630_1" sampledSeconds="7.37" CO_abs="0" CO2_abs="0" HC_abs="0" PMx_abs="0" NOx_abs="0" fuel_abs="0" electricity_abs="0"
            CO_normed="0" CO2_normed="0" HC_normed="0" PMx_normed="0" NOx_normed="0" fuel_normed="0" electricity_normed="0"
            traveltime="1.04" CO_perVeh="0" CO2_perVeh="0" HC_perVeh="0" PMx_perVeh="0" NOx_perVeh="0" fuel_perVeh="0" electricity_perVeh="0"/>
        <edge id=":1110673650_0" sampledSeconds="143.07" CO_abs="2152.780573" CO2_abs="272629.904893" HC_abs="15.987409" PMx_abs="3.665187" NOx_abs="101.364938" fuel_abs="117.192205" electricity_abs="0"
            CO_normed="5497.630746" CO2_normed="696224.485786" HC_normed="40.827605" PMx_normed="9.359915" NOx_normed="258.859173" fuel_normed="299.277817" electricity_normed="0"
            traveltime="0.02" CO_perVeh="0.347168" CO2_perVeh="43.965679" HC_perVeh="0.002578" PMx_perVeh="0.000591" NOx_perVeh="0.016347" fuel_perVeh="0.018899" electricity_perVeh="0"/>
        <edge id=":1110673655_0" sampledSeconds="44.74" CO_abs="834.578967" CO2_abs="91524.392924" HC_abs="5.890336" PMx_abs="1.302875" NOx_abs="34.688594" fuel_abs="39.342479" electricity_abs="0"
            CO_normed="2131.293381" CO2_normed="233729.030664" HC_normed="15.042355" PMx_normed="3.327198" NOx_normed="88.585471" fuel_normed="100.470259" electricity_normed="0"
            traveltime="0.02" CO_perVeh="0.446657" CO2_perVeh="48.982817" HC_perVeh="0.003152" PMx_perVeh="0.000697" NOx_perVeh="0.018565" fuel_perVeh="0.021056" electricity_perVeh="0"/>
        <edge id=":1110673663_0" sampledSeconds="108.88" CO_abs="1766.813273" CO2_abs="217696.205244" HC_abs="13.072681" PMx_abs="2.978016" NOx_abs="81.360664" fuel_abs="93.578472" electricity_abs="0"
            CO_normed="82.636861" CO2_normed="10182.021671" HC_normed="0.611432" PMx_normed="0.139287" NOx_normed="3.805377" fuel_normed="4.376824" electricity_normed="0"
            traveltime="1.28" CO_perVeh="20.752055" CO2_perVeh="2556.944630" HC_perVeh="0.153545" PMx_perVeh="0.034978" NOx_perVeh="0.955619" fuel_perVeh="1.099123" electricity_perVeh="0"/>
        <edge id=":1110673663_1" sampledSeconds="154.32" CO_abs="2289.115779" CO2_abs="305996.650388" HC_abs="17.306981" PMx_abs="4.045362" NOx_abs="112.954808" fuel_abs="131.535199" electricity_abs="0"
            CO_normed="107.196725" CO2_normed="14329.479942" HC_normed="0.810467" PMx_normed="0.189440" NOx_normed="5.289547" fuel_normed="6.159646" electricity_normed="0"
            traveltime="1.25" CO_perVeh="18.524701" CO2_perVeh="2476.282172" HC_perVeh="0.140057" PMx_perVeh="0.032737" NOx_perVeh="0.914088" fuel_perVeh="1.064450" electricity_perVeh="0"/>
        <edge id=":1110673666_0" sampledSeconds="192.16" CO_abs="4089.301487" CO2_abs="323155.136209" HC_abs="25.990759" PMx_abs="4.363442" NOx_abs="123.201754" fuel_abs="138.911897" electricity_abs="0"