<?xml version="1.0" encoding="UTF-8"?>

<!-- generated on Wed Nov 11 12:32:09 2020 by Eclipse SUMO sumo Version 1.7.0
<configuration xmlns:xsi="http://www.w3.org/2001/XMLSchema-instance" xsi:noNamespaceSchemaLocation="http://sumo.dlr.de/xsd/sumoConfiguration.xsd">

    <input>
        <net-file value="../dataSets/Porto/6AM7AM_Routing_Boavista/Porto.net.xml"/>
        <route-files value="../results/Porto/6AM7AM_Routing_Boavista/inputdata/Porto-base.rou.xml"/>
        <additional-files value="moreOutputInfo.xml"/>
    </input>

    <output>
        <emission-output.precision value="6"/>
        <tripinfo-output value="../results/Porto/6AM7AM_Routing_Boavista/inputdata/Porto-tripinfo"/>
    </output>

    <processing>
        <collision.action value="warn"/>
        <time-to-teleport value="-1"/>
    </processing>

    <emissions>
        <device.emissions.probability value="1"/>
    </emissions>

    <gui_only>
        <quit-on-end value="true"/>
        <start value="true"/>
    </gui_only>

</configuration>
-->

<meandata xmlns:xsi="http://www.w3.org/2001/XMLSchema-instance" xsi:noNamespaceSchemaLocation="http://sumo.dlr.de/xsd/meandata_file.xsd">
    <interval begin="0.00" end="4892.00" id="emissions-detector">
        <edge id=":1092997347_0" sampledSeconds="276.45" CO_abs="35761.213369" CO2_abs="1383061.715201" HC_abs="195.503763" PMx_abs="28.286468" NOx_abs="600.900927" fuel_abs="594.524488" electricity_abs="0"
            CO_normed="59810.250561" CO2_normed="2313156.068685" HC_normed="326.977973" PMx_normed="47.308819" NOx_normed="1005.000436" fuel_normed="994.335909" electricity_normed="0"
            traveltime="0.08" CO_perVeh="10.046424" CO2_perVeh="388.544560" HC_perVeh="0.054923" PMx_perVeh="0.007947" NOx_perVeh="0.168812" fuel_perVeh="0.167020" electricity_perVeh="0"/>
        <edge id=":1103427051_0" sampledSeconds="11.17" CO_abs="853.866002" CO2_abs="47409.955803" HC_abs="5.009695" PMx_abs="0.912360" NOx_abs="20.124992" fuel_abs="20.379478" electricity_abs="0"
            CO_normed="2166.744867" CO2_normed="120306.087977" HC_normed="12.712453" PMx_normed="2.315179" NOx_normed="51.068579" fuel_normed="51.714354" electricity_normed="0"
            traveltime="0.03" CO_perVeh="2.339580" CO2_perVeh="129.902562" HC_perVeh="0.013726" PMx_perVeh="0.002500" NOx_perVeh="0.055142" fuel_perVeh="0.055839" electricity_perVeh="0"/>
        <edge id=":1105984386_0" sampledSeconds="69.88" CO_abs="1354.215524" CO2_abs="107340.950888" HC_abs="8.603913" PMx_abs="1.395299" NOx_abs="40.593657" fuel_abs="46.141801" electricity_abs="0"
            CO_normed="102.632430" CO2_normed="8135.088103" HC_normed="0.652068" PMx_normed="0.105746" NOx_normed="3.076486" fuel_normed="3.496966" electricity_normed="0"
            traveltime="0.96" CO_perVeh="18.558490" CO2_perVeh="1471.025818" HC_perVeh="0.117910" PMx_perVeh="0.019122" NOx_perVeh="0.556305" fuel_perVeh="0.632338" electricity_perVeh="0"/>
        <edge id=":1105984390_0" sampledSeconds="71.61" CO_abs="251.167917" CO2_abs="17969.597462" HC_abs="1.565466" PMx_abs="0.308088" NOx_abs="7.270875" fuel_abs="7.724356" electricity_abs="0"
            CO_normed="14.716027" CO2_normed="1052.845782" HC_normed="0.091721" PMx_normed="0.018051" NOx_normed="0.426003" fuel_normed="0.452573" electricity_normed="0"
            traveltime="1.06" CO_perVeh="3.719295" CO2_perVeh="266.093852" HC_perVeh="0.023181" PMx_perVeh="0.004562" NOx_perVeh="0.107667" fuel_perVeh="0.114382" electricity_perVeh="0"/>
        <edge id=":1105984390_1" sampledSeconds="647.55" CO_abs="14618.236381" CO2_abs="1935203.916234" HC_abs="112.723274" PMx_abs="34.026691" NOx_abs="721.979419" fuel_abs="831.855629" electricity_abs="0"
            CO_normed="819.306323" CO2_normed="108462.112918" HC_normed="6.317786" PMx_normed="1.907089" NOx_normed="40.464683" fuel_normed="46.622900" electricity_normed="0"
            traveltime="0.64" CO_perVeh="14.382677" CO2_perVeh="1904.019852" HC_perVeh="0.110907" PMx_perVeh="0.033478" NOx_perVeh="0.710345" fuel_perVeh="0.818451" electricity_perVeh="0"/>
        <edge id=":1105984395_0" sampledSeconds="27.52" CO_abs="644.330955" CO2_abs="48068.209528" HC_abs="4.033331" PMx_abs="0.673981" NOx_abs="18.527838" fuel_abs="20.662653" electricity_abs="0"
            CO_normed="515.391464" CO2_normed="38449.099306" HC_normed="3.226206" PMx_normed="0.539108" NOx_normed="14.820162" fuel_normed="16.527772" electricity_normed="0"
            traveltime="0.09" CO_perVeh="2.133623" CO2_perVeh="159.171986" HC_perVeh="0.013356" PMx_perVeh="0.002232" NOx_perVeh="0.061353" fuel_perVeh="0.068422" electricity_perVeh="0"/>
        <edge id=":1105984398_0" sampledSeconds="70.91" CO_abs="4470.447469" CO2_abs="312826.918648" HC_abs="27.738262" PMx_abs="5.625759" NOx_abs="128.804080" fuel_abs="134.470441" electricity_abs="0"
            CO_normed="272.107647" CO2_normed="19041.180434" HC_normed="1.688375" PMx_normed="0.342429" NOx_normed="7.840060" fuel_normed="8.184960" electricity_normed="0"
            traveltime="1.10" CO_perVeh="69.106103" CO2_perVeh="4835.813251" HC_perVeh="0.428790" PMx_perVeh="0.086965" NOx_perVeh="1.991109" fuel_perVeh="2.078702" electricity_perVeh="0"/>
        <edge id=":1105984398_1" sampledSeconds="454.30" CO_abs="8303.030710" CO2_abs="950625.049633" HC_abs="59.535542" PMx_abs="13.610880" NOx_abs="359.831582" fuel_abs="408.633305" electricity_abs="0"
            CO_normed="489.204292" CO2_normed="56009.651199" HC_normed="3.507760" PMx_normed="0.801936" NOx_normed="21.200831" fuel_normed="24.076168" electricity_normed="0"
            traveltime="0.96" CO_perVeh="17.599978" CO2_perVeh="2015.044876" HC_perVeh="0.126198" PMx_perVeh="0.028851" NOx_perVeh="0.762737" fuel_perVeh="0.866182" electricity_perVeh="0"/>
        <edge id=":1106006327_0" sampledSeconds="38.28" CO_abs="5167.529528" CO2_abs="168529.372282" HC_abs="27.497579" PMx_abs="3.515506" NOx_abs="73.768973" fuel_abs="72.444806" electricity_abs="0"
            CO_normed="429.205519" CO2_normed="13997.740361" HC_normed="2.283898" PMx_normed="0.291991" NOx_normed="6.127116" fuel_normed="6.017133" electricity_normed="0"
            traveltime="2.08" CO_perVeh="280.334996" CO2_perVeh="9142.604938" HC_perVeh="1.491725" PMx_perVeh="0.190714" NOx_perVeh="4.001917" fuel_perVeh="3.930082" electricity_perVeh="0"/>
        <edge id=":1106006327_1" sampledSeconds="161.69" CO_abs="21668.980519" CO2_abs="720823.702594" HC_abs="115.641306" PMx_abs="14.981751" NOx_abs="315.137063" fuel_abs="309.856284" electricity_abs="0"
            CO_normed="1569.498206" CO2_normed="52209.724726" HC_normed="8.375974" PMx_normed="1.085138" NOx_normed="22.825580" fuel_normed="22.443090" electricity_normed="0"
            traveltime="2.30" CO_perVeh="307.619106" CO2_perVeh="10233.021488" HC_perVeh="1.641677" PMx_perVeh="0.212685" NOx_perVeh="4.473777" fuel_perVeh="4.398809" electricity_perVeh="0"/>
        <edge id=":1106006327_2" sampledSeconds="0.00" CO_abs="0" CO2_abs="0" HC_abs="0" PMx_abs="0" NOx_abs="0" fuel_abs="0" electricity_abs="0"
            CO_normed="0" CO2_normed="0" HC_normed="0" PMx_normed="0" NOx_normed="0" fuel_normed="0" electricity_normed="0"/>
        <edge id=":1106006327_3" sampledSeconds="0.00" CO_abs="0" CO2_abs="0" HC_abs="0" PMx_abs="0" NOx_abs="0" fuel_abs="0" electricity_abs="0"
            CO_normed="0" CO2_normed="0" HC_normed="0" PMx_normed="0" NOx_normed="0" fuel_normed="0" electricity_normed="0"/>
        <edge id=":1107381198_0" sampledSeconds="0.00" CO_abs="0" CO2_abs="0" HC_abs="0" PMx_abs="0" NOx_abs="0" fuel_abs="0" electricity_abs="0"
            CO_normed="0" CO2_normed="0" HC_normed="0" PMx_normed="0" NOx_normed="0" fuel_normed="0" electricity_normed="0"/>
        <edge id=":1107381198_1" sampledSeconds="37.96" CO_abs="1341.938380" CO2_abs="54322.005872" HC_abs="7.369004" PMx_abs="0.975988" NOx_abs="22.752470" fuel_abs="23.351070" electricity_abs="0"
            CO_normed="107.690970" CO2_normed="4359.357791" HC_normed="0.591365" PMx_normed="0.078323" NOx_normed="1.825893" fuel_normed="1.873931" electricity_normed="0"
            traveltime="1.56" CO_perVeh="55.251324" CO2_perVeh="2236.587616" HC_perVeh="0.303402" PMx_perVeh="0.040184" NOx_perVeh="0.936782" fuel_perVeh="0.961428" electricity_perVeh="0"/>
        <edge id=":1110338277_0" sampledSeconds="95.90" CO_abs="1351.727197" CO2_abs="171511.462639" HC_abs="10.050931" PMx_abs="2.332062" NOx_abs="63.898606" fuel_abs="73.725573" electricity_abs="0"
            CO_normed="3552.606228" CO2_normed="450766.021420" HC_normed="26.415833" PMx_normed="6.129119" NOx_normed="167.938165" fuel_normed="193.765378" electricity_normed="0"
            traveltime="0.02" CO_perVeh="0.304637" CO2_perVeh="38.653270" HC_perVeh="0.002265" PMx_perVeh="0.000526" NOx_perVeh="0.014401" fuel_perVeh="0.016615" electricity_perVeh="0"/>
        <edge id=":1110338293_0" sampledSeconds="121.69" CO_abs="5589.309566" CO2_abs="399476.843455" HC_abs="34.825735" PMx_abs="6.890766" NOx_abs="162.526770" fuel_abs="171.717759" electricity_abs="0"
            CO_normed="13710.489532" CO2_normed="979910.490896" HC_normed="85.426988" PMx_normed="16.902942" NOx_normed="398.675643" fuel_normed="421.220996" electricity_normed="0"
            traveltime="0.03" CO_perVeh="1.282001" CO2_perVeh="91.626632" HC_perVeh="0.007988" PMx_perVeh="0.001581" NOx_perVeh="0.037278" fuel_perVeh="0.039386" electricity_perVeh="0"/>
        <edge id=":1110338295_0" sampledSeconds="0.00" CO_abs="0" CO2_abs="0" HC_abs="0" PMx_abs="0" NOx_abs="0" fuel_abs="0" electricity_abs="0"
            CO_normed="0" CO2_normed="0" HC_normed="0" PMx_normed="0" NOx_normed="0" fuel_normed="0" electricity_normed="0"/>
        <edge id=":1110673403_0" sampledSeconds="158.75" CO_abs="2655.071455" CO2_abs="321622.827326" HC_abs="19.451056" PMx_abs="4.432100" NOx_abs="120.448690" fuel_abs="138.252141" electricity_abs="0"
            CO_normed="6512.849031" CO2_normed="788935.798838" HC_normed="47.713139" PMx_normed="10.871872" NOx_normed="295.458766" fuel_normed="339.130354" electricity_normed="0"
            traveltime="0.02" CO_perVeh="0.391382" CO2_perVeh="47.410190" HC_perVeh="0.002867" PMx_perVeh="0.000653" NOx_perVeh="0.017755" fuel_perVeh="0.020380" electricity_perVeh="0"/>
        <edge id=":1110673412_0" sampledSeconds="252.82" CO_abs="44592.049358" CO2_abs="3053616.381140" HC_abs="277.751771" PMx_abs="67.004541" NOx_abs="1311.151938" fuel_abs="1312.599345" electricity_abs="0"
            CO_normed="113155.452736" CO2_normed="7748765.734418" HC_normed="704.814599" PMx_normed="170.028721" NOx_normed="3327.140001" fuel_normed="3330.812899" electricity_normed="0"
            traveltime="0.02" CO_perVeh="2.735780" CO2_perVeh="187.343332" HC_perVeh="0.017040" PMx_perVeh="0.004111" NOx_perVeh="0.080441" fuel_perVeh="0.080530" electricity_perVeh="0"/>
        <edge id=":1110673414_0" sampledSeconds="0.00" CO_abs="0" CO2_abs="0" HC_abs="0" PMx_abs="0" NOx_abs="0" fuel_abs="0" electricity_abs="0"
            CO_normed="0" CO2_normed="0" HC_normed="0" PMx_normed="0" NOx_normed="0" fuel_normed="0" electricity_normed="0"/>
        <edge id=":1110673414_1" sampledSeconds="13.03" CO_abs="940.416303" CO2_abs="39474.393621" HC_abs="5.197488" PMx_abs="0.707258" NOx_abs="16.513737" fuel_abs="16.968591" electricity_abs="0"
            CO_normed="76.638757" CO2_normed="3216.945990" HC_normed="0.423567" PMx_normed="0.057638" NOx_normed="1.345779" fuel_normed="1.382847" electricity_normed="0"
            traveltime="1.42" CO_perVeh="102.708747" CO2_perVeh="4311.245457" HC_perVeh="0.567650" PMx_perVeh="0.077244" NOx_perVeh="1.803569" fuel_perVeh="1.853246" electricity_perVeh="0"/>
        <edge id=":1110673417_0" sampledSeconds="30.07" CO_abs="433.101888" CO2_abs="51347.086971" HC_abs="3.148894" PMx_abs="0.699574" NOx_abs="19.217743" fuel_abs="22.071972" electricity_abs="0"
            CO_normed="1138.277361" CO2_normed="134950.292821" HC_normed="8.275917" PMx_normed="1.838619" NOx_normed="50.508027" fuel_normed="58.009505" electricity_normed="0"
            traveltime="0.02" CO_perVeh="0.321454" CO2_perVeh="38.110495" HC_perVeh="0.002337" PMx_perVeh="0.000519" NOx_perVeh="0.014264" fuel_perVeh="0.016382" electricity_perVeh="0"/>
        <edge id=":1110673446_0" sampledSeconds="332.32" CO_abs="3817.854605" CO2_abs="308560.323707" HC_abs="24.689047" PMx_abs="5.696063" NOx_abs="126.435143" fuel_abs="132.635844" electricity_abs="0"
            CO_normed="9365.138032" CO2_normed="756893.680393" HC_normed="60.561848" PMx_normed="13.972353" NOx_normed="310.143443" fuel_normed="325.353665" electricity_normed="0"
            traveltime="0.02" CO_perVeh="0.260431" CO2_perVeh="21.048122" HC_perVeh="0.001684" PMx_perVeh="0.000389" NOx_perVeh="0.008625" fuel_perVeh="0.009048" electricity_perVeh="0"/>
        <edge id=":1110673451_0" sampledSeconds="37.50" CO_abs="332.665737" CO2_abs="23993.325827" HC_abs="2.060404" PMx_abs="0.323457" NOx_abs="9.184486" fuel_abs="10.313824" electricity_abs="0"
            CO_normed="906.693206" CO2_normed="65394.728336" HC_normed="5.615711" PMx_normed="0.881595" NOx_normed="25.032670" fuel_normed="28.110723" electricity_normed="0"
            traveltime="0.03" CO_perVeh="0.238565" CO2_perVeh="17.206369" HC_perVeh="0.001478" PMx_perVeh="0.000232" NOx_perVeh="0.006586" fuel_perVeh="0.007396" electricity_perVeh="0"/>
        <edge id=":1110673464_0" sampledSeconds="332.43" CO_abs="662.958416" CO2_abs="49152.593162" HC_abs="4.138334" PMx_abs="0.666755" NOx_abs="18.811852" fuel_abs="21.128824" electricity_abs="0"
            CO_normed="34.551559" CO2_normed="2561.697183" HC_normed="0.215679" PMx_normed="0.034749" NOx_normed="0.980422" fuel_normed="1.101176" electricity_normed="0"
            traveltime="1.20" CO_perVeh="2.396507" CO2_perVeh="177.680139" HC_perVeh="0.014960" PMx_perVeh="0.002410" NOx_perVeh="0.068002" fuel_perVeh="0.076378" electricity_perVeh="0"/>
        <edge id=":1110673464_1" sampledSeconds="740.40" CO_abs="17758.540665" CO2_abs="2266025.947117" HC_abs="135.115661" PMx_abs="40.233664" NOx_abs="851.014811" fuel_abs="974.060552" electricity_abs="0"
            CO_normed="906.899883" CO2_normed="115722.271567" HC_normed="6.900138" PMx_normed="2.054668" NOx_normed="43.459947" fuel_normed="49.743693" electricity_normed="0"
            traveltime="0.70" CO_perVeh="16.820379" CO2_perVeh="2146.314583" HC_perVeh="0.127978" PMx_perVeh="0.038108" NOx_perVeh="0.806057" fuel_perVeh="0.922602" electricity_perVeh="0"/>
        <edge id=":1110673479_0" sampledSeconds="134.18" CO_abs="6630.246052" CO2_abs="456671.362124" HC_abs="40.925169" PMx_abs="8.026039" NOx_abs="187.023306" fuel_abs="196.303152" electricity_abs="0"
            CO_normed="16263.890561" CO2_normed="1120207.756642" HC_normed="100.388803" PMx_normed="19.687749" NOx_normed="458.765265" fuel_normed="481.528582" electricity_normed="0"
            traveltime="0.03" CO_perVeh="1.396723" CO2_perVeh="96.202099" HC_perVeh="0.008621" PMx_perVeh="0.001691" NOx_perVeh="0.039398" fuel_perVeh="0.041353" electricity_perVeh="0"/>
        <edge id=":1110673511_0" sampledSeconds="11.82" CO_abs="102.523127" CO2_abs="13473.234625" HC_abs="0.777800" PMx_abs="0.180534" NOx_abs="5.003917" fuel_abs="5.791579" electricity_abs="0"
            CO_normed="251.487638" CO2_normed="33049.635221" HC_normed="1.907932" PMx_normed="0.442846" NOx_normed="12.274531" fuel_normed="14.206654" electricity_normed="0"
            traveltime="0.02" CO_perVeh="0.203016" CO2_perVeh="26.679673" HC_perVeh="0.001540" PMx_perVeh="0.000357" NOx_perVeh="0.009909" fuel_perVeh="0.011468" electricity_perVeh="0"/>
        <edge id=":1110673517_0" sampledSeconds="17.23" CO_abs="783.600674" CO2_abs="57768.780314" HC_abs="4.925137" PMx_abs="0.995999" NOx_abs="23.457222" fuel_abs="24.832276" electricity_abs="0"
            CO_normed="1922.160281" CO2_normed="141705.920638" HC_normed="12.081284" PMx_normed="2.443170" NOx_normed="57.540200" fuel_normed="60.913187" electricity_normed="0"
            traveltime="0.03" CO_perVeh="1.258123" CO2_perVeh="92.751587" HC_perVeh="0.007908" PMx_perVeh="0.001599" NOx_perVeh="0.037662" fuel_perVeh="0.039870" electricity_perVeh="0"/>
        <edge id=":1110673534_0" sampledSeconds="486.32" CO_abs="3777.793547" CO2_abs="321332.536454" HC_abs="24.533524" PMx_abs="4.275276" NOx_abs="121.681168" fuel_abs="138.128325" electricity_abs="0"
            CO_normed="179.590482" CO2_normed="15275.653485" HC_normed="1.166286" PMx_normed="0.203240" NOx_normed="5.784535" fuel_normed="6.566408" electricity_normed="0"
            traveltime="1.45" CO_perVeh="11.292064" CO2_perVeh="960.483283" HC_perVeh="0.073332" PMx_perVeh="0.012779" NOx_perVeh="0.363713" fuel_perVeh="0.412874" electricity_perVeh="0"/>
        <edge id=":1110673534_1" sampledSeconds="236.46" CO_abs="3525.716880" CO2_abs="442790.452212" HC_abs="26.176760" PMx_abs="5.968822" NOx_abs="164.862968" fuel_abs="190.337117" electricity_abs="0"
            CO_normed="162.974788" CO2_normed="20467.803397" HC_normed="1.210010" PMx_normed="0.275906" NOx_normed="7.620722" fuel_normed="8.798254" electricity_normed="0"
            traveltime="1.24" CO_perVeh="18.472798" CO2_perVeh="2319.976040" HC_perVeh="0.137152" PMx_perVeh="0.031273" NOx_perVeh="0.863790" fuel_perVeh="0.997261" electricity_perVeh="0"/>
        <edge id=":1110673549_0" sampledSeconds="60.77" CO_abs="154.204381" CO2_abs="13274.207830" HC_abs="1.014701" PMx_abs="0.222072" NOx_abs="5.264501" fuel_abs="5.705999" electricity_abs="0"
            CO_normed="7.101269" CO2_normed="611.290843" HC_normed="0.046728" PMx_normed="0.010227" NOx_normed="0.242436" fuel_normed="0.262767" electricity_normed="0"
            traveltime="1.27" CO_perVeh="3.212717" CO2_perVeh="276.556813" HC_perVeh="0.021140" PMx_perVeh="0.004627" NOx_perVeh="0.109681" fuel_perVeh="0.118880" electricity_perVeh="0"/>
        <edge id=":1110673549_1" sampledSeconds="634.05" CO_abs="14561.509666" CO2_abs="1930376.703186" HC_abs="112.399516" PMx_abs="33.952043" NOx_abs="719.823567" fuel_abs="829.780650" electricity_abs="0"
            CO_normed="648.652972" CO2_normed="85990.025365" HC_normed="5.006918" PMx_normed="1.512418" NOx_normed="32.065061" fuel_normed="36.963179" electricity_normed="0"
            traveltime="0.80" CO_perVeh="18.337558" CO2_perVeh="2430.956404" HC_perVeh="0.141547" PMx_perVeh="0.042756" NOx_perVeh="0.906486" fuel_perVeh="1.044957" electricity_perVeh="0"/>
        <edge id=":1110673556_0" sampledSeconds="615.83" CO_abs="76079.907209" CO2_abs="3930711.721630" HC_abs="439.965804" PMx_abs="79.302909" NOx_abs="1692.228701" fuel_abs="1689.640912" electricity_abs="0"
            CO_normed="2597.997640" CO2_normed="134227.027202" HC_normed="15.024074" PMx_normed="2.708058" NOx_normed="57.786692" fuel_normed="57.698324" electricity_normed="0"
            traveltime="2.50" CO_perVeh="308.610097" CO2_perVeh="15944.516358" HC_perVeh="1.784675" PMx_perVeh="0.321684" NOx_perVeh="6.864347" fuel_perVeh="6.853850" electricity_perVeh="0"/>
        <edge id=":1110673556_2" sampledSeconds="250.45" CO_abs="25081.801949" CO2_abs="1076041.481569" HC_abs="139.516654" PMx_abs="20.980824" NOx_abs="460.416209" fuel_abs="462.547691" electricity_abs="0"
            CO_normed="895.564345" CO2_normed="38420.859350" HC_normed="4.981546" PMx_normed="0.749136" NOx_normed="16.439502" fuel_normed="16.515608" electricity_normed="0"
            traveltime="3.04" CO_perVeh="304.237451" CO2_perVeh="13052.176971" HC_perVeh="1.692310" PMx_perVeh="0.254493" NOx_perVeh="5.584760" fuel_perVeh="5.610615" electricity_perVeh="0"/>
        <edge id=":1110673556_3" sampledSeconds="363.79" CO_abs="32767.045872" CO2_abs="1146549.821897" HC_abs="175.868813" PMx_abs="21.869903" NOx_abs="488.921855" fuel_abs="492.862197" electricity_abs="0"
            CO_normed="2661.491870" CO2_normed="93128.109298" HC_normed="14.284883" PMx_normed="1.776375" NOx_normed="39.712507" fuel_normed="40.032560" electricity_normed="0"
            traveltime="1.77" CO_perVeh="159.234819" CO2_perVeh="5571.776430" HC_perVeh="0.854653" PMx_perVeh="0.106279" NOx_perVeh="2.375966" fuel_perVeh="2.395114" electricity_perVeh="0"/>
        <edge id=":1110673556_4" sampledSeconds="164.91" CO_abs="17773.052132" CO2_abs="706070.637706" HC_abs="97.508124" PMx_abs="13.870372" NOx_abs="303.227437" fuel_abs="303.512773" electricity_abs="0"
            CO_normed="881.935686" CO2_normed="35036.688572" HC_normed="4.838555" PMx_normed="0.688277" NOx_normed="15.046774" fuel_normed="15.060933" electricity_normed="0"
            traveltime="2.45" CO_perVeh="263.949171" CO2_perVeh="10485.917560" HC_perVeh="1.448102" PMx_perVeh="0.205990" NOx_perVeh="4.503258" fuel_perVeh="4.507495" electricity_perVeh="0"/>
        <edge id=":1110673556_5" sampledSeconds="23.20" CO_abs="1366.559691" CO2_abs="59368.849861" HC_abs="7.592226" PMx_abs="1.018118" NOx_abs="24.520019" fuel_abs="25.520518" electricity_abs="0"
            CO_normed="94.515499" CO2_normed="4106.133451" HC_normed="0.525102" PMx_normed="0.070416" NOx_normed="1.695880" fuel_normed="1.765078" electricity_normed="0"
            traveltime="1.60" CO_perVeh="94.478201" CO2_perVeh="4104.513077" HC_perVeh="0.524895" PMx_perVeh="0.070388" NOx_perVeh="1.695211" fuel_perVeh="1.764381" electricity_perVeh="0"/>
        <edge id=":1110673556_6" sampledSeconds="339.72" CO_abs="41568.735012" CO2_abs="2072819.065467" HC_abs="238.559201" PMx_abs="41.808890" NOx_abs="892.497966" fuel_abs="891.015420" electricity_abs="0"
            CO_normed="1455.292025" CO2_normed="72567.930045" HC_normed="8.351789" PMx_normed="1.463700" NOx_normed="31.245723" fuel_normed="31.193820" electricity_normed="0"
            traveltime="2.54" CO_perVeh="311.070340" CO2_perVeh="15511.478305" HC_perVeh="1.785204" PMx_perVeh="0.312867" NOx_perVeh="6.678809" fuel_perVeh="6.667715" electricity_perVeh="0"/>
        <edge id=":1110673561_0" sampledSeconds="100.49" CO_abs="10268.736337" CO2_abs="727166.848503" HC_abs="64.286567" PMx_abs="14.836299" NOx_abs="308.578145" fuel_abs="312.574265" electricity_abs="0"
            CO_normed="451.686504" CO2_normed="31985.576493" HC_normed="2.827746" PMx_normed="0.652598" NOx_normed="13.573295" fuel_normed="13.749070" electricity_normed="0"
            traveltime="1.19" CO_perVeh="121.181056" CO2_perVeh="8581.274600" HC_perVeh="0.758644" PMx_perVeh="0.175083" NOx_perVeh="3.641522" fuel_perVeh="3.688680" electricity_perVeh="0"/>
        <edge id=":1110673561_1" sampledSeconds="1309.07" CO_abs="122629.446182" CO2_abs="8500268.494903" HC_abs="763.966510" PMx_abs="177.775750" NOx_abs="3634.580719" fuel_abs="3653.854692" electricity_abs="0"
            CO_normed="5258.883328" CO2_normed="364528.436390" HC_normed="32.762202" PMx_normed="7.623796" NOx_normed="155.866609" fuel_normed="156.693161" electricity_normed="0"
            traveltime="1.19" CO_perVeh="111.218545" CO2_perVeh="7709.302475" HC_perVeh="0.692878" PMx_perVeh="0.161233" NOx_perVeh="3.296376" fuel_perVeh="3.313857" electricity_perVeh="0"/>
        <edge id=":1110673562_0" sampledSeconds="105.68" CO_abs="2204.623141" CO2_abs="172316.151927" HC_abs="13.952827" PMx_abs="2.250933" NOx_abs="65.240991" fuel_abs="74.072183" electricity_abs="0"
            CO_normed="6008.784796" CO2_normed="469654.270720" HC_normed="38.028964" PMx_normed="6.135004" NOx_normed="177.816818" fuel_normed="201.886571" electricity_normed="0"
            traveltime="0.03" CO_perVeh="0.561968" CO2_perVeh="43.924172" HC_perVeh="0.003557" PMx_perVeh="0.000574" NOx_perVeh="0.016630" fuel_perVeh="0.018881" electricity_perVeh="0"/>
        <edge id=":1110673564_0" sampledSeconds="28.71" CO_abs="464.040074" CO2_abs="57953.491160" HC_abs="3.439249" PMx_abs="0.773833" NOx_abs="21.543890" fuel_abs="24.911797" electricity_abs="0"
            CO_normed="3414.849277" CO2_normed="426477.040422" HC_normed="25.309275" PMx_normed="5.694598" NOx_normed="158.540482" fuel_normed="183.324756" electricity_normed="0"
            traveltime="7.892898e-03" CO_perVeh="0.127571" CO2_perVeh="15.932231" HC_perVeh="0.000945" PMx_perVeh="0.000213" NOx_perVeh="0.005923" fuel_perVeh="0.006849" electricity_perVeh="0"/>
        <edge id=":1110673588_0" sampledSeconds="11.67" CO_abs="174.907667" CO2_abs="19173.387743" HC_abs="1.242057" PMx_abs="0.287471" NOx_abs="7.350348" fuel_abs="8.241811" electricity_abs="0"
            CO_normed="514.854947" CO2_normed="56438.426717" HC_normed="3.656096" PMx_normed="0.846195" NOx_normed="21.636348" fuel_normed="24.260441" electricity_normed="0"
            traveltime="0.02" CO_perVeh="0.291513" CO2_perVeh="31.955646" HC_perVeh="0.002070" PMx_perVeh="0.000479" NOx_perVeh="0.012251" fuel_perVeh="0.013736" electricity_perVeh="0"/>
        <edge id=":1110673601_0" sampledSeconds="29.97" CO_abs="548.438535" CO2_abs="60111.812917" HC_abs="3.883162" PMx_abs="0.849239" NOx_abs="22.765234" fuel_abs="25.839545" electricity_abs="0"
            CO_normed="1441.404864" CO2_normed="157985.724873" HC_normed="10.205718" PMx_normed="2.231967" NOx_normed="59.831535" fuel_normed="67.911431" electricity_normed="0"
            traveltime="0.02" CO_perVeh="0.407058" CO2_perVeh="44.615792" HC_perVeh="0.002882" PMx_perVeh="0.000630" NOx_perVeh="0.016897" fuel_perVeh="0.019178" electricity_perVeh="0"/>
        <edge id=":1110673617_0" sampledSeconds="247.23" CO_abs="6060.258359" CO2_abs="748787.874246" HC_abs="45.530483" PMx_abs="13.405251" NOx_abs="282.785731" fuel_abs="321.869447" electricity_abs="0"
            CO_normed="14865.719604" CO2_normed="1836765.022679" HC_normed="111.685567" PMx_normed="32.882873" NOx_normed="693.669006" fuel_normed="789.540754" electricity_normed="0"
            traveltime="0.01" CO_perVeh="0.359092" CO2_perVeh="44.368335" HC_perVeh="0.002698" PMx_perVeh="0.000794" NOx_perVeh="0.016756" fuel_perVeh="0.019072" electricity_perVeh="0"/>
        <edge id=":1110673621_0" sampledSeconds="25.96" CO_abs="387.955843" CO2_abs="48789.959021" HC_abs="2.882681" PMx_abs="0.625491" NOx_abs="17.999718" fuel_abs="20.972811" electricity_abs="0"
            CO_normed="1141.979586" CO2_normed="143617.213798" HC_normed="8.485406" PMx_normed="1.841184" NOx_normed="52.983636" fuel_normed="61.735175" electricity_normed="0"
            traveltime="0.02" CO_perVeh="0.293906" CO2_perVeh="36.962090" HC_perVeh="0.002184" PMx_perVeh="0.000474" NOx_perVeh="0.013636" fuel_perVeh="0.015888" electricity_perVeh="0"/>
        <edge id=":1110673630_0" sampledSeconds="56.49" CO_abs="262.560051" CO2_abs="21219.999584" HC_abs="1.682214" PMx_abs="0.298848" NOx_abs="8.161213" fuel_abs="9.121634" electricity_abs="0"
            CO_normed="13.781506" CO2_normed="1113.815891" HC_normed="0.088298" PMx_normed="0.015686" NOx_normed="0.428374" fuel_normed="0.478785" electricity_normed="0"
            traveltime="1.32" CO_perVeh="6.128616" CO2_perVeh="495.312324" HC_perVeh="0.039266" PMx_perVeh="0.006976" NOx_perVeh="0.190497" fuel_perVeh="0.212915" electricity_perVeh="0"/>
        <edge id=":1110673630_1" sampledSeconds="7.06" CO_abs="6.637536" CO2_abs="534.896802" HC_abs="0.042230" PMx_abs="0.006219" NOx_abs="0.197716" fuel_abs="0.229933" electricity_abs="0"
            CO_normed="0.424742" CO2_normed="34.228527" HC_normed="0.002702" PMx_normed="0.000398" NOx_normed="0.012652" fuel_normed="0.014714" electricity_normed="0"
            traveltime="1.00" CO_perVeh="0.939467" CO2_perVeh="75.708470" HC_perVeh="0.005977" PMx_perVeh="0.000880" NOx_perVeh="0.027984" fuel_perVeh="0.032544" electricity_perVeh="0"/>
        <edge id=":1110673650_0" sampledSeconds="158.52" CO_abs="2513.216978" CO2_abs="300556.697296" HC_abs="18.327280" PMx_abs="4.121870" NOx_abs="112.541955" fuel_abs="129.196745" electricity_abs="0"
            CO_normed="6164.882203" CO2_normed="737260.909149" HC_normed="44.956532" PMx_normed="10.110884" NOx_normed="276.063668" fuel_normed="316.917608" electricity_normed="0"
            traveltime="0.02" CO_perVeh="0.370474" CO2_perVeh="44.305091" HC_perVeh="0.002702" PMx_perVeh="0.000608" NOx_perVeh="0.016590" fuel_perVeh="0.019045" electricity_perVeh="0"/>
        <edge id=":1110673655_0" sampledSeconds="43.52" CO_abs="891.336286" CO2_abs="96825.251870" HC_abs="6.291321" PMx_abs="1.424033" NOx_abs="36.977508" fuel_abs="41.621036" electricity_abs="0"
            CO_normed="2186.434063" CO2_normed="237510.838602" HC_normed="15.432513" PMx_normed="3.493132" NOx_normed="90.705253" fuel_normed="102.095755" electricity_normed="0"
            traveltime="0.02" CO_perVeh="0.477033" CO2_perVeh="51.819776" HC_perVeh="0.003367" PMx_perVeh="0.000762" NOx_perVeh="0.019790" fuel_perVeh="0.022275" electricity_perVeh="0"/>
        <edge id=":1110673663_0" sampledSeconds="110.07" CO_abs="1790.731158" CO2_abs="212515.560708" HC_abs="13.058176" PMx_abs="2.909231" NOx_abs="79.640108" fuel_abs="91.351562" electricity_abs="0"
            CO_normed="80.451203" CO2_normed="9547.570858" HC_normed="0.586658" PMx_normed="0.130701" NOx_normed="3.577948" fuel_normed="4.104102" electricity_normed="0"
            traveltime="1.29" CO_perVeh="21.032982" CO2_perVeh="2496.095516" HC_perVeh="0.153374" PMx_perVeh="0.034170" NOx_perVeh="0.935411" fuel_perVeh="1.072967" electricity_perVeh="0"/>
        <edge id=":1110673663_1" sampledSeconds="153.24" CO_abs="2569.079882" CO2_abs="318874.020114" HC_abs="19.000815" PMx_abs="4.419337" NOx_abs="119.401678" fuel_abs="137.070469" electricity_abs="0"
            CO_normed="115.560753" CO2_normed="14343.392741" HC_normed="0.854683" PMx_normed="0.198788" NOx_normed="5.370852" fuel_normed="6.165619" electricity_normed="0"
            traveltime="1.24" CO_perVeh="20.740802" CO2_perVeh="2574.346984" HC_perVeh="0.153398" PMx_perVeh="0.035678" NOx_perVeh="0.963959" fuel_perVeh="1.106603" electricity_perVeh="0"/>
        <edge id=":1110673666_0" sampledSeconds="244.60" CO_abs="5334.523079" CO2_abs="427750.266556" HC_abs="34.025969" PMx_abs="5.656436" NOx_abs="162.291432" fuel_abs="183.873415" electricity_abs="0"