<?xml version="1.0" encoding="UTF-8"?>

<!-- generated on Mon Nov  9 20:47:19 2020 by Eclipse SUMO sumo Version 1.7.0
<configuration xmlns:xsi="http://www.w3.org/2001/XMLSchema-instance" xsi:noNamespaceSchemaLocation="http://sumo.dlr.de/xsd/sumoConfiguration.xsd">

    <input>
        <net-file value="../dataSets/Angeja_Estarreja/angeja_estarreja.net.xml"/>
        <route-files value="../results/angeja_estarreja/cost_co-cost_nox/solution4/angeja_estarreja.rou.xml"/>
        <additional-files value="moreOutputInfo.xml"/>
    </input>

    <output>
        <emission-output.precision value="6"/>
        <tripinfo-output value="../results/angeja_estarreja/cost_co-cost_nox/solution4/angeja_estarreja-tripinfo"/>
    </output>

    <processing>
        <collision.action value="warn"/>
        <time-to-teleport value="-1"/>
    </processing>

    <emissions>
        <device.emissions.probability value="1"/>
    </emissions>

    <gui_only>
        <quit-on-end value="true"/>
        <start value="true"/>
    </gui_only>

</configuration>
-->

<meandata xmlns:xsi="http://www.w3.org/2001/XMLSchema-instance" xsi:noNamespaceSchemaLocation="http://sumo.dlr.de/xsd/meandata_file.xsd">
    <interval begin="0.00" end="19080.00" id="emissions-detector">
        <edge id=":10_0" sampledSeconds="393.87" CO_abs="40633.534169" CO2_abs="2227012.097025" HC_abs="237.869192" PMx_abs="43.737514" NOx_abs="950.751164" fuel_abs="957.294759" electricity_abs="0"
            CO_normed="438.347888" CO2_normed="24024.640463" HC_normed="2.566094" PMx_normed="0.471833" NOx_normed="10.256547" fuel_normed="10.327139" electricity_normed="0"
            traveltime="1.92" CO_perVeh="197.758830" CO2_perVeh="10838.616835" HC_perVeh="1.157683" PMx_perVeh="0.212866" NOx_perVeh="4.627199" fuel_perVeh="4.659046" electricity_perVeh="0"/>
        <edge id=":10_1" sampledSeconds="0.00" CO_abs="0" CO2_abs="0" HC_abs="0" PMx_abs="0" NOx_abs="0" fuel_abs="0" electricity_abs="0"
            CO_normed="0" CO2_normed="0" HC_normed="0" PMx_normed="0" NOx_normed="0" fuel_normed="0" electricity_normed="0"/>
        <edge id=":100_0" sampledSeconds="0.00" CO_abs="0" CO2_abs="0" HC_abs="0" PMx_abs="0" NOx_abs="0" fuel_abs="0" electricity_abs="0"
            CO_normed="0" CO2_normed="0" HC_normed="0" PMx_normed="0" NOx_normed="0" fuel_normed="0" electricity_normed="0"/>
        <edge id=":100_1" sampledSeconds="911.50" CO_abs="21500.802759" CO2_abs="2723955.264656" HC_abs="164.052316" PMx_abs="49.202288" NOx_abs="1016.489274" fuel_abs="1170.903554" electricity_abs="0"
            CO_normed="137.237999" CO2_normed="17386.800525" HC_normed="1.047134" PMx_normed="0.314054" NOx_normed="6.488174" fuel_normed="7.473789" electricity_normed="0"
            traveltime="1.37" CO_perVeh="32.328367" CO2_perVeh="4095.708700" HC_perVeh="0.246667" PMx_perVeh="0.073980" NOx_perVeh="1.528382" fuel_perVeh="1.760558" electricity_perVeh="0"/>
        <edge id=":101_0" sampledSeconds="438.39" CO_abs="10366.370633" CO2_abs="1321253.365421" HC_abs="79.298840" PMx_abs="23.829633" NOx_abs="492.528698" fuel_abs="567.946314" electricity_abs="0"
            CO_normed="239.402569" CO2_normed="30513.229843" HC_normed="1.831340" PMx_normed="0.550325" NOx_normed="11.374534" fuel_normed="13.116240" electricity_normed="0"
            traveltime="0.38" CO_perVeh="8.955198" CO2_perVeh="1141.391327" HC_perVeh="0.068504" PMx_perVeh="0.020586" NOx_perVeh="0.425481" fuel_perVeh="0.490632" electricity_perVeh="0"/>
        <edge id=":102_0" sampledSeconds="341.67" CO_abs="7964.526117" CO2_abs="985597.678443" HC_abs="60.237489" PMx_abs="17.926806" NOx_abs="369.199020" fuel_abs="423.663192" electricity_abs="0"
            CO_normed="185.523553" CO2_normed="22958.250138" HC_normed="1.403156" PMx_normed="0.417582" NOx_normed="8.600024" fuel_normed="9.868698" electricity_normed="0"
            traveltime="0.38" CO_perVeh="8.761676" CO2_perVeh="1084.243784" HC_perVeh="0.066267" PMx_perVeh="0.019721" NOx_perVeh="0.406151" fuel_perVeh="0.466067" electricity_perVeh="0"/>
        <edge id=":103_0" sampledSeconds="434.54" CO_abs="10015.834713" CO2_abs="1250028.509094" HC_abs="75.989845" PMx_abs="22.680688" NOx_abs="467.524528" fuel_abs="537.329913" electricity_abs="0"
            CO_normed="234.755296" CO2_normed="29298.687662" HC_normed="1.781082" PMx_normed="0.531599" NOx_normed="10.958034" fuel_normed="12.594162" electricity_normed="0"
            traveltime="0.37" CO_perVeh="8.605220" CO2_perVeh="1073.976424" HC_perVeh="0.065288" PMx_perVeh="0.019486" NOx_perVeh="0.401679" fuel_perVeh="0.461653" electricity_perVeh="0"/>
        <edge id=":104_0" sampledSeconds="341.05" CO_abs="8310.364363" CO2_abs="1018067.781791" HC_abs="62.567848" PMx_abs="18.565431" NOx_abs="381.927801" fuel_abs="437.620563" electricity_abs="0"
            CO_normed="193.818699" CO2_normed="23743.913562" HC_normed="1.459240" PMx_normed="0.432993" NOx_normed="8.907522" fuel_normed="10.206417" electricity_normed="0"
            traveltime="0.38" CO_perVeh="9.137953" CO2_perVeh="1119.452240" HC_perVeh="0.068799" PMx_perVeh="0.020414" NOx_perVeh="0.419962" fuel_perVeh="0.481201" electricity_perVeh="0"/>
        <edge id=":105_0" sampledSeconds="168.69" CO_abs="4067.552447" CO2_abs="508105.698544" HC_abs="30.857987" PMx_abs="9.214035" NOx_abs="190.017225" fuel_abs="218.411332" electricity_abs="0"
            CO_normed="3488.466936" CO2_normed="435768.180569" HC_normed="26.464826" PMx_normed="7.902260" NOx_normed="162.965030" fuel_normed="187.316751" electricity_normed="0"
            traveltime="0.01" CO_perVeh="0.245974" CO2_perVeh="30.726230" HC_perVeh="0.001866" PMx_perVeh="0.000557" NOx_perVeh="0.011491" fuel_perVeh="0.013208" electricity_perVeh="0"/>
        <edge id=":106_0" sampledSeconds="134.43" CO_abs="3018.437560" CO2_abs="393803.839163" HC_abs="23.312356" PMx_abs="7.056380" NOx_abs="146.299471" fuel_abs="169.278268" electricity_abs="0"
            CO_normed="1837.150067" CO2_normed="239685.842461" HC_normed="14.188896" PMx_normed="4.294814" NOx_normed="89.044109" fuel_normed="103.029986" electricity_normed="0"
            traveltime="0.01" CO_perVeh="0.322730" CO2_perVeh="42.105274" HC_perVeh="0.002493" PMx_perVeh="0.000754" NOx_perVeh="0.015642" fuel_perVeh="0.018099" electricity_perVeh="0"/>
        <edge id=":107_0" sampledSeconds="438.49" CO_abs="11312.425093" CO2_abs="1383480.521260" HC_abs="85.074091" PMx_abs="25.223642" NOx_abs="519.379271" fuel_abs="594.694687" electricity_abs="0"
            CO_normed="261.250897" CO2_normed="31950.313417" HC_normed="1.964714" PMx_normed="0.582519" NOx_normed="11.994625" fuel_normed="13.733971" electricity_normed="0"
            traveltime="0.38" CO_perVeh="9.772471" CO2_perVeh="1195.148083" HC_perVeh="0.073493" PMx_perVeh="0.021790" NOx_perVeh="0.448676" fuel_perVeh="0.513739" electricity_perVeh="0"/>
        <edge id=":108_0" sampledSeconds="93.17" CO_abs="7865.617552" CO2_abs="568022.468378" HC_abs="49.488026" PMx_abs="11.495516" NOx_abs="240.191648" fuel_abs="244.165738" electricity_abs="0"
            CO_normed="123.364820" CO2_normed="8908.898640" HC_normed="0.776173" PMx_normed="0.180296" NOx_normed="3.767180" fuel_normed="3.829510" electricity_normed="0"
            traveltime="0.85" CO_perVeh="71.958023" CO2_perVeh="5196.511697" HC_perVeh="0.452738" PMx_perVeh="0.105166" NOx_perVeh="2.197376" fuel_perVeh="2.233732" electricity_perVeh="0"/>
        <edge id=":108_1" sampledSeconds="403.04" CO_abs="9798.664078" CO2_abs="1236815.487983" HC_abs="74.698240" PMx_abs="22.366266" NOx_abs="461.961259" fuel_abs="531.650280" electricity_abs="0"
            CO_normed="143.318182" CO2_normed="18090.032002" HC_normed="1.092559" PMx_normed="0.327136" NOx_normed="6.756783" fuel_normed="7.776075" electricity_normed="0"
            traveltime="0.60" CO_perVeh="14.556158" CO2_perVeh="1837.320044" HC_perVeh="0.110966" PMx_perVeh="0.033226" NOx_perVeh="0.686255" fuel_perVeh="0.789780" electricity_perVeh="0"/>
        <edge id=":109_0" sampledSeconds="306.79" CO_abs="95.485455" CO2_abs="18222.321710" HC_abs="0.843232" PMx_abs="0.220423" NOx_abs="6.498663" fuel_abs="7.833022" electricity_abs="0"
            CO_normed="1.435548" CO2_normed="273.958080" HC_normed="0.012677" PMx_normed="0.003314" NOx_normed="0.097702" fuel_normed="0.117763" electricity_normed="0"
            traveltime="0.85" CO_perVeh="0.265396" CO2_perVeh="50.647828" HC_perVeh="0.002344" PMx_perVeh="0.000613" NOx_perVeh="0.018063" fuel_perVeh="0.021771" electricity_perVeh="0"/>
        <edge id=":109_1" sampledSeconds="524.61" CO_abs="12171.950103" CO2_abs="1533840.177082" HC_abs="92.649812" PMx_abs="27.739407" NOx_abs="572.918678" fuel_abs="659.327576" electricity_abs="0"
            CO_normed="119.365611" CO2_normed="15041.777910" HC_normed="0.908581" PMx_normed="0.272030" NOx_normed="5.618392" fuel_normed="6.465771" electricity_normed="0"
            traveltime="0.89" CO_perVeh="20.725932" CO2_perVeh="2611.764545" HC_perVeh="0.157761" PMx_perVeh="0.047234" NOx_perVeh="0.975544" fuel_perVeh="1.122678" electricity_perVeh="0"/>
        <edge id=":11_0" sampledSeconds="277.87" CO_abs="17361.453310" CO2_abs="1235329.948849" HC_abs="108.282012" PMx_abs="22.527774" NOx_abs="509.956206" fuel_abs="531.012993" electricity_abs="0"
            CO_normed="179.492926" CO2_normed="12771.568352" HC_normed="1.119483" PMx_normed="0.232905" NOx_normed="5.272228" fuel_normed="5.489925" electricity_normed="0"
            traveltime="1.59" CO_perVeh="99.107452" CO2_perVeh="7051.852226" HC_perVeh="0.618125" PMx_perVeh="0.128599" NOx_perVeh="2.911073" fuel_perVeh="3.031275" electricity_perVeh="0"/>
        <edge id=":11_1" sampledSeconds="50.55" CO_abs="1268.202183" CO2_abs="109015.332122" HC_abs="8.267590" PMx_abs="1.479422" NOx_abs="41.496842" fuel_abs="46.861381" electricity_abs="0"
            CO_normed="13.442889" CO2_normed="1155.557898" HC_normed="0.087636" PMx_normed="0.015682" NOx_normed="0.439865" fuel_normed="0.496729" electricity_normed="0"
            traveltime="1.66" CO_perVeh="41.711010" CO2_perVeh="3585.500576" HC_perVeh="0.271920" PMx_perVeh="0.048658" NOx_perVeh="1.364826" fuel_perVeh="1.541265" electricity_perVeh="0"/>
        <edge id=":110_0" sampledSeconds="95.39" CO_abs="3.163199" CO2_abs="467.749195" HC_abs="0.024861" PMx_abs="0.004523" NOx_abs="0.163384" fuel_abs="0.201068" electricity_abs="0"
            CO_normed="0.041019" CO2_normed="6.065606" HC_normed="0.000322" PMx_normed="0.000059" NOx_normed="0.002119" fuel_normed="0.002607" electricity_normed="0"
            traveltime="0.93" CO_perVeh="0.030970" CO2_perVeh="4.579605" HC_perVeh="0.000243" PMx_perVeh="0.000044" NOx_perVeh="0.001600" fuel_perVeh="0.001969" electricity_perVeh="0"/>
        <edge id=":110_1" sampledSeconds="443.83" CO_abs="10278.351004" CO2_abs="1286492.120774" HC_abs="77.982283" PMx_abs="23.308299" NOx_abs="480.870271" fuel_abs="553.003965" electricity_abs="0"
            CO_normed="131.925953" CO2_normed="16512.541661" HC_normed="1.000928" PMx_normed="0.299170" NOx_normed="6.172125" fuel_normed="7.097984" electricity_normed="0"
            traveltime="0.68" CO_perVeh="15.789065" CO2_perVeh="1976.241864" HC_perVeh="0.119792" PMx_perVeh="0.035805" NOx_perVeh="0.738688" fuel_perVeh="0.849496" electricity_perVeh="0"/>
        <edge id=":111_0" sampledSeconds="340.37" CO_abs="8354.903587" CO2_abs="1018741.753213" HC_abs="62.802248" PMx_abs="18.607645" NOx_abs="382.412260" fuel_abs="437.910258" electricity_abs="0"
            CO_normed="192.949437" CO2_normed="23526.979821" HC_normed="1.450365" PMx_normed="0.429728" NOx_normed="8.831488" fuel_normed="10.113167" electricity_normed="0"
            traveltime="0.38" CO_perVeh="9.285221" CO2_perVeh="1132.178563" HC_perVeh="0.069795" PMx_perVeh="0.020680" NOx_perVeh="0.424994" fuel_perVeh="0.486672" electricity_perVeh="0"/>
        <edge id=":114_0" sampledSeconds="107.04" CO_abs="10550.156829" CO2_abs="760216.598062" HC_abs="66.372190" PMx_abs="15.444751" NOx_abs="321.774219" fuel_abs="326.780758" electricity_abs="0"
            CO_normed="140.182791" CO2_normed="10101.203801" HC_normed="0.881905" PMx_normed="0.205219" NOx_normed="4.275501" fuel_normed="4.342024" electricity_normed="0"
            traveltime="0.99" CO_perVeh="97.600721" CO2_perVeh="7032.851684" HC_perVeh="0.614017" PMx_perVeh="0.142881" NOx_perVeh="2.976771" fuel_perVeh="3.023087" electricity_perVeh="0"/>
        <edge id=":114_1" sampledSeconds="415.75" CO_abs="10765.339980" CO2_abs="1288611.911714" HC_abs="80.375626" PMx_abs="23.654516" NOx_abs="485.602091" fuel_abs="553.914915" electricity_abs="0"
            CO_normed="142.141093" CO2_normed="17014.298318" HC_normed="1.061246" PMx_normed="0.312324" NOx_normed="6.411689" fuel_normed="7.313663" electricity_normed="0"
            traveltime="0.66" CO_perVeh="17.154284" CO2_perVeh="2053.368964" HC_perVeh="0.128076" PMx_perVeh="0.037693" NOx_perVeh="0.773794" fuel_perVeh="0.882649" electricity_perVeh="0"/>
        <edge id=":115_0" sampledSeconds="80.18" CO_abs="88.687426" CO2_abs="13214.469990" HC_abs="0.707061" PMx_abs="0.164503" NOx_abs="4.807153" fuel_abs="5.680358" electricity_abs="0"
            CO_normed="2.004009" CO2_normed="298.598350" HC_normed="0.015977" PMx_normed="0.003717" NOx_normed="0.108624" fuel_normed="0.128355" electricity_normed="0"
            traveltime="0.63" CO_perVeh="0.697898" CO2_perVeh="103.987206" HC_perVeh="0.005564" PMx_perVeh="0.001295" NOx_perVeh="0.037828" fuel_perVeh="0.044700" electricity_perVeh="0"/>
        <edge id=":115_1" sampledSeconds="72.11" CO_abs="958.149496" CO2_abs="152839.250343" HC_abs="7.804513" PMx_abs="2.235368" NOx_abs="56.491846" fuel_abs="65.698858" electricity_abs="0"
            CO_normed="19.335072" CO2_normed="3084.234696" HC_normed="0.157492" PMx_normed="0.045109" NOx_normed="1.139983" fuel_normed="1.325777" electricity_normed="0"
            traveltime="0.59" CO_perVeh="7.844057" CO2_perVeh="1251.245067" HC_perVeh="0.063893" PMx_perVeh="0.018300" NOx_perVeh="0.462480" fuel_perVeh="0.537855" electricity_perVeh="0"/>
        <edge id=":116_0" sampledSeconds="74.60" CO_abs="95.503825" CO2_abs="13868.132596" HC_abs="0.750500" PMx_abs="0.173318" NOx_abs="5.056657" fuel_abs="5.961341" electricity_abs="0"
            CO_normed="2.409036" CO2_normed="349.816683" HC_normed="0.018931" PMx_normed="0.004372" NOx_normed="0.127552" fuel_normed="0.150372" electricity_normed="0"
            traveltime="0.56" CO_perVeh="0.721126" CO2_perVeh="104.714810" HC_perVeh="0.005667" PMx_perVeh="0.001309" NOx_perVeh="0.038182" fuel_perVeh="0.045013" electricity_perVeh="0"/>
        <edge id=":117_0" sampledSeconds="238.75" CO_abs="12993.290627" CO2_abs="1091670.939337" HC_abs="85.103925" PMx_abs="19.912753" NOx_abs="444.587757" fuel_abs="469.259030" electricity_abs="0"
            CO_normed="293.600511" CO2_normed="24667.742387" HC_normed="1.923035" PMx_normed="0.449955" NOx_normed="10.046046" fuel_normed="10.603526" electricity_normed="0"
            traveltime="0.60" CO_perVeh="32.885209" CO2_perVeh="2762.951170" HC_perVeh="0.215393" PMx_perVeh="0.050398" NOx_perVeh="1.125224" fuel_perVeh="1.187665" electricity_perVeh="0"/>
        <edge id=":117_1" sampledSeconds="76.00" CO_abs="4671.186082" CO2_abs="383468.439005" HC_abs="30.387727" PMx_abs="7.111499" NOx_abs="157.096519" fuel_abs="164.835304" electricity_abs="0"
            CO_normed="99.475831" CO2_normed="8166.200413" HC_normed="0.647126" PMx_normed="0.151444" NOx_normed="3.345469" fuel_normed="3.510271" electricity_normed="0"
            traveltime="0.64" CO_perVeh="39.492265" CO2_perVeh="3242.011097" HC_perVeh="0.256911" PMx_perVeh="0.060124" NOx_perVeh="1.328163" fuel_perVeh="1.393590" electricity_perVeh="0"/>
        <edge id=":118_0" sampledSeconds="898.77" CO_abs="13197.007837" CO2_abs="2015199.060347" HC_abs="105.158106" PMx_abs="29.923822" NOx_abs="748.043499" fuel_abs="866.244963" electricity_abs="0"
            CO_normed="40.038615" CO2_normed="6113.944972" HC_normed="0.319041" PMx_normed="0.090786" NOx_normed="2.269501" fuel_normed="2.628115" electricity_normed="0"
            traveltime="3.92" CO_perVeh="57.561317" CO2_perVeh="8789.682693" HC_perVeh="0.458668" PMx_perVeh="0.130519" NOx_perVeh="3.262737" fuel_perVeh="3.778296" electricity_perVeh="0"/>
        <edge id=":118_4" sampledSeconds="283.35" CO_abs="4248.122251" CO2_abs="653519.523497" HC_abs="34.222969" PMx_abs="9.631716" NOx_abs="242.348534" fuel_abs="280.919257" electricity_abs="0"
            CO_normed="12.913364" CO2_normed="1986.556637" HC_normed="0.104030" PMx_normed="0.029278" NOx_normed="0.736687" fuel_normed="0.853933" electricity_normed="0"
            traveltime="3.93" CO_perVeh="58.897584" CO2_perVeh="9060.643391" HC_perVeh="0.474480" PMx_perVeh="0.133538" NOx_perVeh="3.360012" fuel_perVeh="3.894771" electricity_perVeh="0"/>
        <edge id=":118_5" sampledSeconds="238.21" CO_abs="3818.614984" CO2_abs="565613.125206" HC_abs="30.098065" PMx_abs="8.626536" NOx_abs="211.242874" fuel_abs="243.131844" electricity_abs="0"
            CO_normed="11.722964" CO2_normed="1736.405102" HC_normed="0.092400" PMx_normed="0.026483" NOx_normed="0.648505" fuel_normed="0.746403" electricity_normed="0"
            traveltime="3.81" CO_perVeh="61.114864" CO2_perVeh="9052.331577" HC_perVeh="0.481703" PMx_perVeh="0.138063" NOx_perVeh="3.380828" fuel_perVeh="3.891193" electricity_perVeh="0"/>
        <edge id=":119_0" sampledSeconds="139.49" CO_abs="1588.724188" CO2_abs="278678.367443" HC_abs="13.357724" PMx_abs="3.938233" NOx_abs="101.792249" fuel_abs="119.791632" electricity_abs="0"
            CO_normed="34.063555" CO2_normed="5975.093642" HC_normed="0.286401" PMx_normed="0.084439" NOx_normed="2.182510" fuel_normed="2.568431" electricity_normed="0"
            traveltime="0.56" CO_perVeh="6.369082" CO2_perVeh="1117.201783" HC_perVeh="0.053550" PMx_perVeh="0.015788" NOx_perVeh="0.408078" fuel_perVeh="0.480236" electricity_perVeh="0"/>
        <edge id=":12_0" sampledSeconds="588.07" CO_abs="54093.670503" CO2_abs="3076132.087806" HC_abs="319.369836" PMx_abs="60.268667" NOx_abs="1310.523105" fuel_abs="1322.292845" electricity_abs="0"
            CO_normed="506.770254" CO2_normed="28818.385339" HC_normed="2.991979" PMx_normed="0.564620" NOx_normed="12.277483" fuel_normed="12.387747" electricity_normed="0"
            traveltime="2.11" CO_perVeh="194.043439" CO2_perVeh="11034.622799" HC_perVeh="1.145635" PMx_perVeh="0.216194" NOx_perVeh="4.701075" fuel_perVeh="4.743295" electricity_perVeh="0"/>
        <edge id=":12_1" sampledSeconds="55.95" CO_abs="1083.267346" CO2_abs="98921.865289" HC_abs="7.180665" PMx_abs="1.252484" NOx_abs="36.989250" fuel_abs="42.522687" electricity_abs="0"
            CO_normed="10.138396" CO2_normed="925.818595" HC_normed="0.067204" PMx_normed="0.011722" NOx_normed="0.346186" fuel_normed="0.397974" electricity_normed="0"
            traveltime="1.89" CO_perVeh="36.529288" CO2_perVeh="3335.783494" HC_perVeh="0.242142" PMx_perVeh="0.042235" NOx_perVeh="1.247329" fuel_perVeh="1.433924" electricity_perVeh="0"/>
        <edge id=":120_0" sampledSeconds="38.99" CO_abs="506.499436" CO2_abs="88895.323310" HC_abs="4.284320" PMx_abs="1.258173" NOx_abs="32.465086" fuel_abs="38.212212" electricity_abs="0"
            CO_normed="398.191380" CO2_normed="69886.260464" HC_normed="3.368176" PMx_normed="0.989130" NOx_normed="25.522867" fuel_normed="30.041047" electricity_normed="0"
            traveltime="0.02" CO_perVeh="0.194888" CO2_perVeh="34.204665" HC_perVeh="0.001648" PMx_perVeh="0.000484" NOx_perVeh="0.012492" fuel_perVeh="0.014703" electricity_perVeh="0"/>
        <edge id=":121_0" sampledSeconds="372.48" CO_abs="53146.548434" CO2_abs="1432407.132340" HC_abs="275.646443" PMx_abs="30.934845" NOx_abs="633.611924" fuel_abs="615.747374" electricity_abs="0"
            CO_normed="30386.820145" CO2_normed="818986.353539" HC_normed="157.602312" PMx_normed="17.687161" NOx_normed="362.270968" fuel_normed="352.056818" electricity_normed="0"
            traveltime="0.11" CO_perVeh="16.253885" CO2_perVeh="438.075134" HC_perVeh="0.084301" PMx_perVeh="0.009461" NOx_perVeh="0.193778" fuel_perVeh="0.188315" electricity_perVeh="0"/>
        <edge id=":122_0" sampledSeconds="135.20" CO_abs="833.948301" CO2_abs="89797.846317" HC_abs="5.899748" PMx_abs="1.554618" NOx_abs="35.262373" fuel_abs="38.599956" electricity_abs="0"
            CO_normed="18.360413" CO2_normed="1977.011654" HC_normed="0.129890" PMx_normed="0.034227" NOx_normed="0.776345" fuel_normed="0.849826" electricity_normed="0"
            traveltime="0.54" CO_perVeh="3.322866" CO2_perVeh="357.799430" HC_perVeh="0.023508" PMx_perVeh="0.006194" NOx_perVeh="0.140503" fuel_perVeh="0.153801" electricity_perVeh="0"/>
        <edge id=":123_0" sampledSeconds="305.77" CO_abs="40024.957701" CO2_abs="2479921.192503" HC_abs="241.858909" PMx_abs="51.056758" NOx_abs="1064.257115" fuel_abs="1066.002222" electricity_abs="0"
            CO_normed="152.624875" CO2_normed="9456.541208" HC_normed="0.922267" PMx_normed="0.194692" NOx_normed="4.058271" fuel_normed="4.064925" electricity_normed="0"
            traveltime="4.16" CO_perVeh="545.062326" CO2_perVeh="33771.718745" HC_perVeh="3.293649" PMx_perVeh="0.695294" NOx_perVeh="14.493119" fuel_perVeh="14.516884" electricity_perVeh="0"/>
        <edge id=":123_1" sampledSeconds="0.00" CO_abs="0" CO2_abs="0" HC_abs="0" PMx_abs="0" NOx_abs="0" fuel_abs="0" electricity_abs="0"
            CO_normed="0" CO2_normed="0" HC_normed="0" PMx_normed="0" NOx_normed="0" fuel_normed="0" electricity_normed="0"/>
        <edge id=":123_2" sampledSeconds="267.32" CO_abs="35610.892835" CO2_abs="2177431.811528" HC_abs="214.474495" PMx_abs="44.944420" NOx_abs="936.034549" fuel_abs="935.976309" electricity_abs="0"
            CO_normed="137.095213" CO2_normed="8382.701303" HC_normed="0.825686" PMx_normed="0.173028" NOx_normed="3.603556" fuel_normed="3.603332" electricity_normed="0"
            traveltime="4.20" CO_perVeh="559.732226" CO2_perVeh="34224.886175" HC_perVeh="3.371111" PMx_perVeh="0.706437" NOx_perVeh="14.712597" fuel_perVeh="14.711681" electricity_perVeh="0"/>
        <edge id=":123_3" sampledSeconds="469.12" CO_abs="22671.976314" CO2_abs="2144679.783271" HC_abs="153.792761" PMx_abs="39.903704" NOx_abs="859.217656" fuel_abs="921.897199" electricity_abs="0"
            CO_normed="89.305457" CO2_normed="8447.944945" HC_normed="0.605793" PMx_normed="0.157182" NOx_normed="3.384479" fuel_normed="3.631375" electricity_normed="0"
            traveltime="2.81" CO_perVeh="135.701046" CO2_perVeh="12836.785160" HC_perVeh="0.920513" PMx_perVeh="0.238840" NOx_perVeh="5.142769" fuel_perVeh="5.517932" electricity_perVeh="0"/>
        <edge id=":123_5" sampledSeconds="0.00" CO_abs="0" CO2_abs="0" HC_abs="0" PMx_abs="0" NOx_abs="0" fuel_abs="0" electricity_abs="0"
            CO_normed="0" CO2_normed="0" HC_normed="0" PMx_normed="0" NOx_normed="0" fuel_normed="0" electricity_normed="0"/>
        <edge id=":123_6" sampledSeconds="194.43" CO_abs="9541.598465" CO2_abs="847461.816126" HC_abs="63.559402" PMx_abs="16.235471" NOx_abs="343.844341" fuel_abs="364.283731" electricity_abs="0"
            CO_normed="36.303722" CO2_normed="3224.409273" HC_normed="0.241830" PMx_normed="0.061772" NOx_normed="1.308253" fuel_normed="1.386021" electricity_normed="0"
            traveltime="2.91" CO_perVeh="142.746601" CO2_perVeh="12678.409607" HC_perVeh="0.950877" PMx_perVeh="0.242890" NOx_perVeh="5.144066" fuel_perVeh="5.449848" electricity_perVeh="0"/>
        <edge id=":124_0" sampledSeconds="118.87" CO_abs="4325.422629" CO2_abs="392031.630785" HC_abs="28.940731" PMx_abs="7.446478" NOx_abs="158.168467" fuel_abs="168.515907" electricity_abs="0"
            CO_normed="101.255270" CO2_normed="9177.200028" HC_normed="0.677483" PMx_normed="0.174317" NOx_normed="3.702619" fuel_normed="3.944845" electricity_normed="0"
            traveltime="0.46" CO_perVeh="16.808938" CO2_perVeh="1523.466213" HC_perVeh="0.112466" PMx_perVeh="0.028938" NOx_perVeh="0.614655" fuel_perVeh="0.654866" electricity_perVeh="0"/>
        <edge id=":125_0" sampledSeconds="141.16" CO_abs="5482.078959" CO2_abs="546280.532096" HC_abs="37.848068" PMx_abs="10.215056" NOx_abs="215.981275" fuel_abs="234.820360" electricity_abs="0"
            CO_normed="344.784840" CO2_normed="34357.266170" HC_normed="2.380382" PMx_normed="0.642456" NOx_normed="13.583728" fuel_normed="14.768576" electricity_normed="0"
            traveltime="0.16" CO_perVeh="6.278388" CO2_perVeh="625.631455" HC_perVeh="0.043346" PMx_perVeh="0.011699" NOx_perVeh="0.247354" fuel_perVeh="0.268930" electricity_perVeh="0"/>
        <edge id=":125_3" sampledSeconds="0.00" CO_abs="0" CO2_abs="0" HC_abs="0" PMx_abs="0" NOx_abs="0" fuel_abs="0" electricity_abs="0"
            CO_normed="0" CO2_normed="0" HC_normed="0" PMx_normed="0" NOx_normed="0" fuel_normed="0" electricity_normed="0"/>
        <edge id=":126_0" sampledSeconds="26.86" CO_abs="173.257598" CO2_abs="12576.443563" HC_abs="1.078955" PMx_abs="0.190369" NOx_abs="4.949742" fuel_abs="5.406105" electricity_abs="0"
            CO_normed="5.705081" CO2_normed="414.121096" HC_normed="0.035528" PMx_normed="0.006269" NOx_normed="0.162987" fuel_normed="0.178014" electricity_normed="0"
            traveltime="0.57" CO_perVeh="3.650191" CO2_perVeh="264.960520" HC_perVeh="0.022731" PMx_perVeh="0.004011" NOx_perVeh="0.104281" fuel_perVeh="0.113896" electricity_perVeh="0"/>
        <edge id=":126_1" sampledSeconds="80.73" CO_abs="1451.196748" CO2_abs="218801.294893" HC_abs="11.674832" PMx_abs="3.536787" NOx_abs="81.299431" fuel_abs="94.052780" electricity_abs="0"
            CO_normed="42.517191" CO2_normed="6410.444594" HC_normed="0.342049" PMx_normed="0.103621" NOx_normed="2.381912" fuel_normed="2.755560" electricity_normed="0"
            traveltime="0.35" CO_perVeh="6.279578" CO2_perVeh="946.790797" HC_perVeh="0.050519" PMx_perVeh="0.015304" NOx_perVeh="0.351797" fuel_perVeh="0.406983" electricity_perVeh="0"/>
        <edge id=":127_0" sampledSeconds="234.49" CO_abs="4741.374074" CO2_abs="627839.691181" HC_abs="36.210951" PMx_abs="10.660274" NOx_abs="236.792706" fuel_abs="269.879577" electricity_abs="0"
            CO_normed="109.632216" CO2_normed="14517.195967" HC_normed="0.837286" PMx_normed="0.246492" NOx_normed="5.475229" fuel_normed="6.240279" electricity_normed="0"
            traveltime="0.44" CO_perVeh="8.866484" CO2_perVeh="1174.075388" HC_perVeh="0.067715" PMx_perVeh="0.019935" NOx_perVeh="0.442808" fuel_perVeh="0.504681" electricity_perVeh="0"/>
        <edge id=":128_0" sampledSeconds="229.64" CO_abs="176.312312" CO2_abs="27213.656402" HC_abs="1.404734" PMx_abs="0.399545" NOx_abs="10.054373" fuel_abs="11.697954" electricity_abs="0"
            CO_normed="2.724527" CO2_normed="420.528432" HC_normed="0.021707" PMx_normed="0.006174" NOx_normed="0.155369" fuel_normed="0.180767" electricity_normed="0"
            traveltime="0.75" CO_perVeh="0.579603" CO2_perVeh="89.461194" HC_perVeh="0.004618" PMx_perVeh="0.001313" NOx_perVeh="0.033052" fuel_perVeh="0.038455" electricity_perVeh="0"/>
        <edge id=":128_1" sampledSeconds="142.54" CO_abs="115.984316" CO2_abs="18180.459571" HC_abs="0.944669" PMx_abs="0.221906" NOx_abs="6.583246" fuel_abs="7.815035" electricity_abs="0"
            CO_normed="1.851424" CO2_normed="290.209424" HC_normed="0.015079" PMx_normed="0.003542" NOx_normed="0.105086" fuel_normed="0.124749" electricity_normed="0"
            traveltime="0.85" CO_perVeh="0.695261" CO2_perVeh="108.981672" HC_perVeh="0.005663" PMx_perVeh="0.001330" NOx_perVeh="0.039463" fuel_perVeh="0.046847" electricity_perVeh="0"/>
        <edge id=":129_0" sampledSeconds="105.27" CO_abs="5281.001581" CO2_abs="483093.643210" HC_abs="35.460440" PMx_abs="9.002840" NOx_abs="194.923722" fuel_abs="207.659289" electricity_abs="0"
            CO_normed="123.014246" CO2_normed="11253.054815" HC_normed="0.826006" PMx_normed="0.209710" NOx_normed="4.540501" fuel_normed="4.837160" electricity_normed="0"
            traveltime="0.50" CO_perVeh="25.029176" CO2_perVeh="2289.610316" HC_perVeh="0.168064" PMx_perVeh="0.042669" NOx_perVeh="0.923836" fuel_perVeh="0.984196" electricity_perVeh="0"/>
        <edge id=":13_0" sampledSeconds="60.25" CO_abs="4784.642333" CO2_abs="344054.304650" HC_abs="30.000431" PMx_abs="6.614316" NOx_abs="143.880469" fuel_abs="147.893003" electricity_abs="0"
            CO_normed="33.824005" CO2_normed="2432.218304" HC_normed="0.212082" PMx_normed="0.046758" NOx_normed="1.017132" fuel_normed="1.045498" electricity_normed="0"
            traveltime="2.13" CO_perVeh="169.243453" CO2_perVeh="12169.966814" HC_perVeh="1.061182" PMx_perVeh="0.233963" NOx_perVeh="5.089373" fuel_perVeh="5.231305" electricity_perVeh="0"/>
        <edge id=":13_1" sampledSeconds="532.38" CO_abs="14182.276886" CO2_abs="1079335.769342" HC_abs="89.362270" PMx_abs="15.584165" NOx_abs="418.800836" fuel_abs="463.963533" electricity_abs="0"
            CO_normed="141.283068" CO2_normed="10752.283969" HC_normed="0.890222" PMx_normed="0.155249" NOx_normed="4.172071" fuel_normed="4.621979" electricity_normed="0"
            traveltime="1.86" CO_perVeh="49.513701" CO2_perVeh="3768.217841" HC_perVeh="0.311985" PMx_perVeh="0.054408" NOx_perVeh="1.462133" fuel_perVeh="1.619807" electricity_perVeh="0"/>
        <edge id=":132_0" sampledSeconds="41.08" CO_abs="525.232459" CO2_abs="85837.081880" HC_abs="4.283999" PMx_abs="1.226932" NOx_abs="31.540048" fuel_abs="36.897605" electricity_abs="0"
            CO_normed="991.004640" CO2_normed="161956.758265" HC_normed="8.083017" PMx_normed="2.314966" NOx_normed="59.509524" fuel_normed="69.618122" electricity_normed="0"
            traveltime="6.368803e-03" CO_perVeh="0.081425" CO2_perVeh="13.307043" HC_perVeh="0.000664" PMx_perVeh="0.000190" NOx_perVeh="0.004890" fuel_perVeh="0.005720" electricity_perVeh="0"/>