<?xml version="1.0" encoding="UTF-8"?>

<!-- generated on Tue Nov 10 04:05:11 2020 by Eclipse SUMO sumo Version 1.7.0
<configuration xmlns:xsi="http://www.w3.org/2001/XMLSchema-instance" xsi:noNamespaceSchemaLocation="http://sumo.dlr.de/xsd/sumoConfiguration.xsd">

    <input>
        <net-file value="../dataSets/Porto/8AM9AM_Routing_SaoBento/Porto.net.xml"/>
        <route-files value="../results/Porto/8AM9AM_Routing_SaoBento/cost_co-ttime/solution7/Porto.rou.xml"/>
        <additional-files value="moreOutputInfo.xml"/>
    </input>

    <output>
        <emission-output.precision value="6"/>
        <tripinfo-output value="../results/Porto/8AM9AM_Routing_SaoBento/cost_co-ttime/solution7/Porto-tripinfo"/>
    </output>

    <processing>
        <collision.action value="warn"/>
        <time-to-teleport value="-1"/>
    </processing>

    <emissions>
        <device.emissions.probability value="1"/>
    </emissions>

    <gui_only>
        <quit-on-end value="true"/>
        <start value="true"/>
    </gui_only>

</configuration>
-->

<meandata xmlns:xsi="http://www.w3.org/2001/XMLSchema-instance" xsi:noNamespaceSchemaLocation="http://sumo.dlr.de/xsd/meandata_file.xsd">
    <interval begin="0.00" end="8471.00" id="emissions-detector">
        <edge id=":1092997347_0" sampledSeconds="600.36" CO_abs="71885.396693" CO2_abs="3052785.766594" HC_abs="399.500972" PMx_abs="61.608894" NOx_abs="1320.068366" fuel_abs="1312.269304" electricity_abs="0"
            CO_normed="69431.383033" CO2_normed="2948570.191278" HC_normed="385.862863" PMx_normed="59.505698" NOx_normed="1275.004056" fuel_normed="1267.471237" electricity_normed="0"
            traveltime="0.07" CO_perVeh="8.239124" CO2_perVeh="349.894168" HC_perVeh="0.045789" PMx_perVeh="0.007061" NOx_perVeh="0.151299" fuel_perVeh="0.150405" electricity_perVeh="0"/>
        <edge id=":1103427051_0" sampledSeconds="19.29" CO_abs="1629.492935" CO2_abs="91337.539176" HC_abs="9.588827" PMx_abs="1.796002" NOx_abs="39.004641" fuel_abs="39.261965" electricity_abs="0"
            CO_normed="2387.933911" CO2_normed="133850.231839" HC_normed="14.051908" PMx_normed="2.631944" NOx_normed="57.159195" fuel_normed="57.536289" electricity_normed="0"
            traveltime="0.03" CO_perVeh="2.534068" CO2_perVeh="142.041433" HC_perVeh="0.014912" PMx_perVeh="0.002793" NOx_perVeh="0.060657" fuel_perVeh="0.061057" electricity_perVeh="0"/>
        <edge id=":1105984386_0" sampledSeconds="10.42" CO_abs="284.281974" CO2_abs="19211.605904" HC_abs="1.733167" PMx_abs="0.272552" NOx_abs="7.458432" fuel_abs="8.258336" electricity_abs="0"
            CO_normed="12.442221" CO2_normed="840.837860" HC_normed="0.075856" PMx_normed="0.011929" NOx_normed="0.326435" fuel_normed="0.361444" electricity_normed="0"
            traveltime="1.00" CO_perVeh="27.271073" CO2_perVeh="1842.962787" HC_perVeh="0.166262" PMx_perVeh="0.026146" NOx_perVeh="0.715485" fuel_perVeh="0.792219" electricity_perVeh="0"/>
        <edge id=":1105984390_0" sampledSeconds="10.86" CO_abs="12.077816" CO2_abs="1190.347008" HC_abs="0.080948" PMx_abs="0.009223" NOx_abs="0.407306" fuel_abs="0.511692" electricity_abs="0"
            CO_normed="0.408664" CO2_normed="40.276504" HC_normed="0.002739" PMx_normed="0.000312" NOx_normed="0.013782" fuel_normed="0.017314" electricity_normed="0"
            traveltime="1.13" CO_perVeh="1.251938" CO2_perVeh="123.386634" HC_perVeh="0.008391" PMx_perVeh="0.000956" NOx_perVeh="0.042220" fuel_perVeh="0.053040" electricity_perVeh="0"/>
        <edge id=":1105984390_1" sampledSeconds="2397.91" CO_abs="62999.833933" CO2_abs="7562747.169530" HC_abs="467.146486" PMx_abs="136.090436" NOx_abs="2872.555237" fuel_abs="3250.876046" electricity_abs="0"
            CO_normed="2039.118654" CO2_normed="244783.801248" HC_normed="15.120153" PMx_normed="4.404846" NOx_normed="92.976133" fuel_normed="105.221261" electricity_normed="0"
            traveltime="0.65" CO_perVeh="17.014841" CO2_perVeh="2042.528195" HC_perVeh="0.126166" PMx_perVeh="0.036755" NOx_perVeh="0.775813" fuel_perVeh="0.877989" electricity_perVeh="0"/>
        <edge id=":1105984395_0" sampledSeconds="4.14" CO_abs="76.797690" CO2_abs="6148.698072" HC_abs="0.490082" PMx_abs="0.083754" NOx_abs="2.350224" fuel_abs="2.643085" electricity_abs="0"
            CO_normed="35.475469" CO2_normed="2840.293105" HC_normed="0.226385" PMx_normed="0.038689" NOx_normed="1.085649" fuel_normed="1.220931" electricity_normed="0"
            traveltime="0.10" CO_perVeh="1.780143" CO2_perVeh="142.524621" HC_perVeh="0.011360" PMx_perVeh="0.001941" NOx_perVeh="0.054477" fuel_perVeh="0.061266" electricity_perVeh="0"/>
        <edge id=":1105984398_0" sampledSeconds="11.56" CO_abs="558.081483" CO2_abs="36508.281718" HC_abs="3.396048" PMx_abs="0.631601" NOx_abs="14.921826" fuel_abs="15.693358" electricity_abs="0"
            CO_normed="19.617295" CO2_normed="1283.313938" HC_normed="0.119376" PMx_normed="0.022202" NOx_normed="0.524522" fuel_normed="0.551642" electricity_normed="0"
            traveltime="1.22" CO_perVeh="58.720071" CO2_perVeh="3841.318829" HC_perVeh="0.357325" PMx_perVeh="0.066456" NOx_perVeh="1.570041" fuel_perVeh="1.651220" electricity_perVeh="0"/>
        <edge id=":1105984398_1" sampledSeconds="641.06" CO_abs="12508.809639" CO2_abs="1457075.660715" HC_abs="90.428631" PMx_abs="21.064188" NOx_abs="552.198481" fuel_abs="626.334489" electricity_abs="0"
            CO_normed="425.619350" CO2_normed="49577.826620" HC_normed="3.076886" PMx_normed="0.716721" NOx_normed="18.788867" fuel_normed="21.311387" electricity_normed="0"
            traveltime="0.95" CO_perVeh="18.539981" CO2_perVeh="2159.610384" HC_perVeh="0.134029" PMx_perVeh="0.031220" NOx_perVeh="0.818443" fuel_perVeh="0.928324" electricity_perVeh="0"/>
        <edge id=":1106006327_0" sampledSeconds="67.27" CO_abs="8993.119244" CO2_abs="291388.964842" HC_abs="47.803248" PMx_abs="6.055912" NOx_abs="127.414994" fuel_abs="125.257874" electricity_abs="0"
            CO_normed="431.364548" CO2_normed="13976.782205" HC_normed="2.292934" PMx_normed="0.290478" NOx_normed="6.111596" fuel_normed="6.008127" electricity_normed="0"
            traveltime="2.09" CO_perVeh="278.783235" CO2_perVeh="9032.945763" HC_perVeh="1.481882" PMx_perVeh="0.187731" NOx_perVeh="3.949816" fuel_perVeh="3.882946" electricity_perVeh="0"/>
        <edge id=":1106006327_1" sampledSeconds="683.49" CO_abs="92407.243008" CO2_abs="3085194.978512" HC_abs="493.469678" PMx_abs="64.338248" NOx_abs="1350.113594" fuel_abs="1326.214179" electricity_abs="0"
            CO_normed="3865.272565" CO2_normed="129049.619064" HC_normed="20.641183" PMx_normed="2.691184" NOx_normed="56.473463" fuel_normed="55.473782" electricity_normed="0"
            traveltime="2.29" CO_perVeh="310.188748" CO2_perVeh="10356.252782" HC_perVeh="1.656458" PMx_perVeh="0.215968" NOx_perVeh="4.532005" fuel_perVeh="4.451780" electricity_perVeh="0"/>
        <edge id=":1106006327_2" sampledSeconds="0.00" CO_abs="0" CO2_abs="0" HC_abs="0" PMx_abs="0" NOx_abs="0" fuel_abs="0" electricity_abs="0"
            CO_normed="0" CO2_normed="0" HC_normed="0" PMx_normed="0" NOx_normed="0" fuel_normed="0" electricity_normed="0"/>
        <edge id=":1106006327_3" sampledSeconds="0.00" CO_abs="0" CO2_abs="0" HC_abs="0" PMx_abs="0" NOx_abs="0" fuel_abs="0" electricity_abs="0"
            CO_normed="0" CO2_normed="0" HC_normed="0" PMx_normed="0" NOx_normed="0" fuel_normed="0" electricity_normed="0"/>
        <edge id=":1107381198_0" sampledSeconds="0.00" CO_abs="0" CO2_abs="0" HC_abs="0" PMx_abs="0" NOx_abs="0" fuel_abs="0" electricity_abs="0"
            CO_normed="0" CO2_normed="0" HC_normed="0" PMx_normed="0" NOx_normed="0" fuel_normed="0" electricity_normed="0"/>
        <edge id=":1107381198_1" sampledSeconds="103.51" CO_abs="5330.533334" CO2_abs="216303.397983" HC_abs="29.280908" PMx_abs="3.869322" NOx_abs="90.484228" fuel_abs="92.981039" electricity_abs="0"
            CO_normed="247.041063" CO2_normed="10024.479345" HC_normed="1.357010" PMx_normed="0.179322" NOx_normed="4.193449" fuel_normed="4.309163" electricity_normed="0"
            traveltime="1.55" CO_perVeh="79.808305" CO2_perVeh="3238.476619" HC_perVeh="0.438391" PMx_perVeh="0.057931" NOx_perVeh="1.354722" fuel_perVeh="1.392104" electricity_perVeh="0"/>
        <edge id=":1110338277_0" sampledSeconds="160.79" CO_abs="2461.276623" CO2_abs="287355.541191" HC_abs="17.777607" PMx_abs="4.054821" NOx_abs="108.377072" fuel_abs="123.521986" electricity_abs="0"
            CO_normed="3735.684708" CO2_normed="436143.459319" HC_normed="26.982556" PMx_normed="6.154340" NOx_normed="164.492917" fuel_normed="187.479616" electricity_normed="0"
            traveltime="0.02" CO_perVeh="0.334029" CO2_perVeh="38.998116" HC_perVeh="0.002413" PMx_perVeh="0.000550" NOx_perVeh="0.014708" fuel_perVeh="0.016764" electricity_perVeh="0"/>
        <edge id=":1110338293_0" sampledSeconds="6410.03" CO_abs="574684.372764" CO2_abs="10098576.374136" HC_abs="2852.926993" PMx_abs="240.335487" NOx_abs="4561.818916" fuel_abs="4341.206843" electricity_abs="0"
            CO_normed="814096.620607" CO2_normed="14305621.117888" HC_normed="4041.450114" PMx_normed="340.458723" NOx_normed="6462.262660" fuel_normed="6149.744082" electricity_normed="0"
            traveltime="0.43" CO_perVeh="38.402374" CO2_perVeh="674.821385" HC_perVeh="0.190642" PMx_perVeh="0.016060" NOx_perVeh="0.304836" fuel_perVeh="0.290094" electricity_perVeh="0"/>
        <edge id=":1110338295_0" sampledSeconds="0.00" CO_abs="0" CO2_abs="0" HC_abs="0" PMx_abs="0" NOx_abs="0" fuel_abs="0" electricity_abs="0"
            CO_normed="0" CO2_normed="0" HC_normed="0" PMx_normed="0" NOx_normed="0" fuel_normed="0" electricity_normed="0"/>
        <edge id=":1110673403_0" sampledSeconds="200.59" CO_abs="3333.767222" CO2_abs="397191.569411" HC_abs="24.223579" PMx_abs="5.528611" NOx_abs="149.195896" fuel_abs="170.735911" electricity_abs="0"
            CO_normed="4722.607327" CO2_normed="562660.705103" HC_normed="34.315068" PMx_normed="7.831818" NOx_normed="211.350579" fuel_normed="241.864117" electricity_normed="0"
            traveltime="0.02" CO_perVeh="0.385303" CO2_perVeh="45.905717" HC_perVeh="0.002800" PMx_perVeh="0.000639" NOx_perVeh="0.017243" fuel_perVeh="0.019733" electricity_perVeh="0"/>
        <edge id=":1110673412_0" sampledSeconds="967.81" CO_abs="168622.479379" CO2_abs="11546346.437457" HC_abs="1050.293020" PMx_abs="253.157892" NOx_abs="4957.863721" fuel_abs="4963.206058" electricity_abs="0"
            CO_normed="247107.138661" CO2_normed="16920547.252429" HC_normed="1539.147709" PMx_normed="370.989222" NOx_normed="7265.481581" fuel_normed="7273.310487" electricity_normed="0"
            traveltime="0.02" CO_perVeh="2.719423" CO2_perVeh="186.211254" HC_perVeh="0.016938" PMx_perVeh="0.004083" NOx_perVeh="0.079957" fuel_perVeh="0.080043" electricity_perVeh="0"/>
        <edge id=":1110673414_0" sampledSeconds="0.00" CO_abs="0" CO2_abs="0" HC_abs="0" PMx_abs="0" NOx_abs="0" fuel_abs="0" electricity_abs="0"
            CO_normed="0" CO2_normed="0" HC_normed="0" PMx_normed="0" NOx_normed="0" fuel_normed="0" electricity_normed="0"/>
        <edge id=":1110673414_1" sampledSeconds="240.53" CO_abs="17008.476226" CO2_abs="661867.595225" HC_abs="92.875876" PMx_abs="12.486358" NOx_abs="281.092371" fuel_abs="284.512642" electricity_abs="0"
            CO_normed="800.470767" CO2_normed="31149.507711" HC_normed="4.371022" PMx_normed="0.587646" NOx_normed="13.229064" fuel_normed="13.390033" electricity_normed="0"
            traveltime="1.56" CO_perVeh="110.352599" CO2_perVeh="4294.259427" HC_perVeh="0.602587" PMx_perVeh="0.081013" NOx_perVeh="1.823754" fuel_perVeh="1.845945" electricity_perVeh="0"/>
        <edge id=":1110673417_0" sampledSeconds="29.38" CO_abs="436.215556" CO2_abs="54565.019542" HC_abs="3.225023" PMx_abs="0.727992" NOx_abs="20.264742" fuel_abs="23.455234" electricity_abs="0"
            CO_normed="662.080713" CO2_normed="82817.878792" HC_normed="4.894886" PMx_normed="1.104934" NOx_normed="30.757489" fuel_normed="35.599964" electricity_normed="0"
            traveltime="0.02" CO_perVeh="0.332635" CO2_perVeh="41.608447" HC_perVeh="0.002459" PMx_perVeh="0.000555" NOx_perVeh="0.015453" fuel_perVeh="0.017886" electricity_perVeh="0"/>
        <edge id=":1110673446_0" sampledSeconds="1329.73" CO_abs="14422.835072" CO2_abs="1166988.825431" HC_abs="93.387598" PMx_abs="21.433730" NOx_abs="477.646183" fuel_abs="501.634799" electricity_abs="0"
            CO_normed="20431.356494" CO2_normed="1653153.807718" HC_normed="132.292666" PMx_normed="30.362975" NOx_normed="676.632534" fuel_normed="710.614755" electricity_normed="0"
            traveltime="0.02" CO_perVeh="0.247347" CO2_perVeh="20.013463" HC_perVeh="0.001602" PMx_perVeh="0.000368" NOx_perVeh="0.008191" fuel_perVeh="0.008603" electricity_perVeh="0"/>
        <edge id=":1110673451_0" sampledSeconds="36.63" CO_abs="358.618677" CO2_abs="26084.146994" HC_abs="2.228215" PMx_abs="0.361393" NOx_abs="10.040245" fuel_abs="11.212573" electricity_abs="0"
            CO_normed="564.464923" CO2_normed="41056.383730" HC_normed="3.507205" PMx_normed="0.568831" NOx_normed="15.803322" fuel_normed="17.648562" electricity_normed="0"
            traveltime="0.03" CO_perVeh="0.264223" CO2_perVeh="19.218249" HC_perVeh="0.001642" PMx_perVeh="0.000266" NOx_perVeh="0.007397" fuel_perVeh="0.008261" electricity_perVeh="0"/>
        <edge id=":1110673464_0" sampledSeconds="1033.74" CO_abs="3853.437509" CO2_abs="285955.930019" HC_abs="24.068549" PMx_abs="3.924582" NOx_abs="109.645282" fuel_abs="122.921478" electricity_abs="0"
            CO_normed="115.979556" CO2_normed="8606.612095" HC_normed="0.724408" PMx_normed="0.118121" NOx_normed="3.300069" fuel_normed="3.699652" electricity_normed="0"
            traveltime="1.23" CO_perVeh="4.569638" CO2_perVeh="339.103713" HC_perVeh="0.028542" PMx_perVeh="0.004654" NOx_perVeh="0.130024" fuel_perVeh="0.145768" electricity_perVeh="0"/>
        <edge id=":1110673464_1" sampledSeconds="2601.64" CO_abs="63400.826708" CO2_abs="7814636.068716" HC_abs="474.841340" PMx_abs="139.062930" NOx_abs="2959.368622" fuel_abs="3359.152290" electricity_abs="0"
            CO_normed="1869.815515" CO2_normed="230469.041557" HC_normed="14.004008" PMx_normed="4.101240" NOx_normed="87.277622" fuel_normed="99.068031" electricity_normed="0"
            traveltime="0.72" CO_perVeh="17.482721" CO2_perVeh="2154.878871" HC_perVeh="0.130937" PMx_perVeh="0.038346" NOx_perVeh="0.816043" fuel_perVeh="0.926283" electricity_perVeh="0"/>
        <edge id=":1110673479_0" sampledSeconds="134.22" CO_abs="6412.437493" CO2_abs="444458.108837" HC_abs="39.621683" PMx_abs="7.681867" NOx_abs="181.139343" fuel_abs="191.053373" electricity_abs="0"
            CO_normed="9083.844872" CO2_normed="629618.381071" HC_normed="56.127989" PMx_normed="10.882116" NOx_normed="256.601595" fuel_normed="270.645789" electricity_normed="0"
            traveltime="0.03" CO_perVeh="1.355652" CO2_perVeh="93.962770" HC_perVeh="0.008376" PMx_perVeh="0.001624" NOx_perVeh="0.038295" fuel_perVeh="0.040391" electricity_perVeh="0"/>
        <edge id=":1110673511_0" sampledSeconds="63.70" CO_abs="1071.309021" CO2_abs="114270.379329" HC_abs="7.474594" PMx_abs="1.571336" NOx_abs="43.049104" fuel_abs="49.120119" electricity_abs="0"
            CO_normed="1517.614007" CO2_normed="161875.168451" HC_normed="10.588494" PMx_normed="2.225951" NOx_normed="60.983267" fuel_normed="69.583453" electricity_normed="0"
            traveltime="0.02" CO_perVeh="0.410594" CO2_perVeh="43.795738" HC_perVeh="0.002865" PMx_perVeh="0.000602" NOx_perVeh="0.016499" fuel_perVeh="0.018826" electricity_perVeh="0"/>
        <edge id=":1110673517_0" sampledSeconds="183.47" CO_abs="8131.865447" CO2_abs="574530.241521" HC_abs="50.509087" PMx_abs="9.914979" NOx_abs="233.798340" fuel_abs="246.965689" electricity_abs="0"
            CO_normed="11519.582737" CO2_normed="813878.278627" HC_normed="71.551062" PMx_normed="14.045537" NOx_normed="331.198215" fuel_normed="349.851053" electricity_normed="0"
            traveltime="0.03" CO_perVeh="1.245054" CO2_perVeh="87.965230" HC_perVeh="0.007733" PMx_perVeh="0.001518" NOx_perVeh="0.035796" fuel_perVeh="0.037812" electricity_perVeh="0"/>
        <edge id=":1110673534_0" sampledSeconds="739.39" CO_abs="5648.856698" CO2_abs="459913.288665" HC_abs="36.232515" PMx_abs="6.293789" NOx_abs="175.662538" fuel_abs="197.698686" electricity_abs="0"
            CO_normed="155.080581" CO2_normed="12626.204552" HC_normed="0.994707" PMx_normed="0.172786" NOx_normed="4.822542" fuel_normed="5.427510" electricity_normed="0"
            traveltime="1.46" CO_perVeh="11.140480" CO2_perVeh="907.025102" HC_perVeh="0.071457" PMx_perVeh="0.012412" NOx_perVeh="0.346436" fuel_perVeh="0.389895" electricity_perVeh="0"/>
        <edge id=":1110673534_1" sampledSeconds="199.82" CO_abs="3254.881712" CO2_abs="399661.926607" HC_abs="23.911362" PMx_abs="5.548136" NOx_abs="149.668873" fuel_abs="171.797786" electricity_abs="0"
            CO_normed="86.888033" CO2_normed="10668.848135" HC_normed="0.638306" PMx_normed="0.148106" NOx_normed="3.995363" fuel_normed="4.586087" electricity_normed="0"
            traveltime="1.22" CO_perVeh="19.896068" CO2_perVeh="2443.007607" HC_perVeh="0.146163" PMx_perVeh="0.033914" NOx_perVeh="0.914879" fuel_perVeh="1.050146" electricity_perVeh="0"/>
        <edge id=":1110673549_0" sampledSeconds="650.73" CO_abs="1615.483774" CO2_abs="149632.712091" HC_abs="10.818781" PMx_abs="2.250467" NOx_abs="57.509140" fuel_abs="64.320831" electricity_abs="0"
            CO_normed="42.962906" CO2_normed="3979.399964" HC_normed="0.287720" PMx_normed="0.059850" NOx_normed="1.529424" fuel_normed="1.710577" electricity_normed="0"
            traveltime="1.29" CO_perVeh="3.209581" CO2_perVeh="297.284520" HC_perVeh="0.021494" PMx_perVeh="0.004471" NOx_perVeh="0.114257" fuel_perVeh="0.127790" electricity_perVeh="0"/>
        <edge id=":1110673549_1" sampledSeconds="3196.77" CO_abs="68195.151754" CO2_abs="9070106.156228" HC_abs="527.107667" PMx_abs="158.926902" NOx_abs="3384.716627" fuel_abs="3898.823869" electricity_abs="0"
            CO_normed="1754.329944" CO2_normed="233329.766322" HC_normed="13.559919" PMx_normed="4.088417" NOx_normed="87.072315" fuel_normed="100.297797" electricity_normed="0"
            traveltime="0.81" CO_perVeh="17.199990" CO2_perVeh="2287.636758" HC_perVeh="0.132946" PMx_perVeh="0.040084" NOx_perVeh="0.853684" fuel_perVeh="0.983350" electricity_perVeh="0"/>
        <edge id=":1110673556_0" sampledSeconds="454.08" CO_abs="55778.265062" CO2_abs="2733502.847070" HC_abs="318.931711" PMx_abs="55.203943" NOx_abs="1178.186443" fuel_abs="1175.015486" electricity_abs="0"
            CO_normed="1099.981919" CO2_normed="53906.368415" HC_normed="6.289531" PMx_normed="1.088656" NOx_normed="23.234566" fuel_normed="23.172033" electricity_normed="0"
            traveltime="2.68" CO_perVeh="328.807509" CO2_perVeh="16113.736454" HC_perVeh="1.880072" PMx_perVeh="0.325422" NOx_perVeh="6.945296" fuel_perVeh="6.926603" electricity_perVeh="0"/>
        <edge id=":1110673556_2" sampledSeconds="175.89" CO_abs="17332.426940" CO2_abs="737219.449720" HC_abs="96.221202" PMx_abs="14.187174" NOx_abs="314.197482" fuel_abs="316.901911" electricity_abs="0"
            CO_normed="357.395603" CO2_normed="15201.505877" HC_normed="1.984087" PMx_normed="0.292540" NOx_normed="6.478769" fuel_normed="6.534535" electricity_normed="0"
            traveltime="3.04" CO_perVeh="299.702429" CO2_perVeh="12747.577739" HC_perVeh="1.663802" PMx_perVeh="0.245317" NOx_perVeh="5.432923" fuel_perVeh="5.479687" electricity_perVeh="0"/>
        <edge id=":1110673556_3" sampledSeconds="349.01" CO_abs="36236.610116" CO2_abs="1251776.041420" HC_abs="194.273009" PMx_abs="24.766411" NOx_abs="539.476713" fuel_abs="538.094360" electricity_abs="0"
            CO_normed="1699.758355" CO2_normed="58717.324229" HC_normed="9.112805" PMx_normed="1.161723" NOx_normed="25.305349" fuel_normed="25.240506" electricity_normed="0"
            traveltime="1.83" CO_perVeh="190.183902" CO2_perVeh="6569.810227" HC_perVeh="1.019621" PMx_perVeh="0.129984" NOx_perVeh="2.831385" fuel_perVeh="2.824130" electricity_perVeh="0"/>
        <edge id=":1110673556_4" sampledSeconds="78.09" CO_abs="9247.455777" CO2_abs="366948.171477" HC_abs="50.751692" PMx_abs="7.350777" NOx_abs="158.485557" fuel_abs="157.736784" electricity_abs="0"
            CO_normed="265.001865" CO2_normed="10515.535549" HC_normed="1.454378" PMx_normed="0.210649" NOx_normed="4.541678" fuel_normed="4.520221" electricity_normed="0"
            traveltime="2.48" CO_perVeh="293.157890" CO2_perVeh="11632.794410" HC_perVeh="1.608903" PMx_perVeh="0.233030" NOx_perVeh="5.024224" fuel_perVeh="5.000487" electricity_perVeh="0"/>
        <edge id=":1110673556_5" sampledSeconds="22.98" CO_abs="1084.118370" CO2_abs="49123.343514" HC_abs="6.079053" PMx_abs="0.882168" NOx_abs="20.533123" fuel_abs="21.116246" electricity_abs="0"
            CO_normed="43.301495" CO2_normed="1962.068249" HC_normed="0.242808" PMx_normed="0.035235" NOx_normed="0.820127" fuel_normed="0.843418" electricity_normed="0"
            traveltime="1.59" CO_perVeh="74.951394" CO2_perVeh="3396.181774" HC_perVeh="0.420280" PMx_perVeh="0.060989" NOx_perVeh="1.419574" fuel_perVeh="1.459889" electricity_perVeh="0"/>
        <edge id=":1110673556_6" sampledSeconds="218.29" CO_abs="26563.972289" CO2_abs="1321002.657124" HC_abs="152.369725" PMx_abs="26.704099" NOx_abs="569.304658" fuel_abs="567.841964" electricity_abs="0"
            CO_normed="537.066577" CO2_normed="26707.842010" HC_normed="3.080589" PMx_normed="0.539900" NOx_normed="11.510120" fuel_normed="11.480547" electricity_normed="0"
            traveltime="2.54" CO_perVeh="309.537501" CO2_perVeh="15393.023922" HC_perVeh="1.775493" PMx_perVeh="0.311170" NOx_perVeh="6.633840" fuel_perVeh="6.616796" electricity_perVeh="0"/>
        <edge id=":1110673561_0" sampledSeconds="165.93" CO_abs="16623.445241" CO2_abs="1167428.679456" HC_abs="103.744041" PMx_abs="23.725808" NOx_abs="495.399087" fuel_abs="501.821966" electricity_abs="0"
            CO_normed="422.272613" CO2_normed="29655.294154" HC_normed="2.635330" PMx_normed="0.602688" NOx_normed="12.584243" fuel_normed="12.747398" electricity_normed="0"
            traveltime="1.22" CO_perVeh="122.201689" CO2_perVeh="8581.960847" HC_perVeh="0.762640" PMx_perVeh="0.174412" NOx_perVeh="3.641760" fuel_perVeh="3.688976" electricity_perVeh="0"/>
        <edge id=":1110673561_1" sampledSeconds="5263.07" CO_abs="487154.159870" CO2_abs="33798585.720975" HC_abs="3035.913353" PMx_abs="705.644019" NOx_abs="14444.313832" fuel_abs="14528.380385" electricity_abs="0"
            CO_normed="12064.711769" CO2_normed="837045.495103" HC_normed="75.186507" PMx_normed="17.475765" NOx_normed="357.723484" fuel_normed="359.805450" electricity_normed="0"
            traveltime="1.19" CO_perVeh="110.543548" CO2_perVeh="7669.472788" HC_perVeh="0.688900" PMx_perVeh="0.160123" NOx_perVeh="3.277660" fuel_perVeh="3.296736" electricity_perVeh="0"/>
        <edge id=":1110673562_0" sampledSeconds="301.15" CO_abs="6348.818841" CO2_abs="483866.829774" HC_abs="39.944997" PMx_abs="6.601353" NOx_abs="185.288864" fuel_abs="207.995689" electricity_abs="0"
            CO_normed="9993.025366" CO2_normed="761605.209576" HC_normed="62.873329" PMx_normed="10.390513" NOx_normed="291.644219" fuel_normed="327.384707" electricity_normed="0"
            traveltime="0.03" CO_perVeh="0.569119" CO2_perVeh="43.374642" HC_perVeh="0.003581" PMx_perVeh="0.000592" NOx_perVeh="0.016610" fuel_perVeh="0.018645" electricity_perVeh="0"/>
        <edge id=":1110673564_0" sampledSeconds="28.30" CO_abs="356.781587" CO2_abs="45358.793090" HC_abs="2.669034" PMx_abs="0.612336" NOx_abs="16.880763" fuel_abs="19.497848" electricity_abs="0"
            CO_normed="1516.248037" CO2_normed="192765.500085" HC_normed="11.342842" PMx_normed="2.602300" NOx_normed="71.739756" fuel_normed="82.861825" electricity_normed="0"
            traveltime="7.992348e-03" CO_perVeh="0.100772" CO2_perVeh="12.811409" HC_perVeh="0.000754" PMx_perVeh="0.000173" NOx_perVeh="0.004768" fuel_perVeh="0.005507" electricity_perVeh="0"/>
        <edge id=":1110673588_0" sampledSeconds="62.90" CO_abs="1179.161096" CO2_abs="129028.572565" HC_abs="8.335706" PMx_abs="1.825935" NOx_abs="48.873554" fuel_abs="55.463964" electricity_abs="0"
            CO_normed="2004.476424" CO2_normed="219337.911102" HC_normed="14.170012" PMx_normed="3.103939" NOx_normed="83.081003" fuel_normed="94.284155" electricity_normed="0"
            traveltime="0.02" CO_perVeh="0.380375" CO2_perVeh="41.622120" HC_perVeh="0.002689" PMx_perVeh="0.000589" NOx_perVeh="0.015766" fuel_perVeh="0.017892" electricity_perVeh="0"/>
        <edge id=":1110673601_0" sampledSeconds="29.01" CO_abs="582.513749" CO2_abs="67766.906168" HC_abs="4.206309" PMx_abs="0.923142" NOx_abs="25.379951" fuel_abs="29.130176" electricity_abs="0"
            CO_normed="884.129677" CO2_normed="102855.482657" HC_normed="6.384265" PMx_normed="1.401129" NOx_normed="38.521268" fuel_normed="44.213296" electricity_normed="0"
            traveltime="0.02" CO_perVeh="0.444195" CO2_perVeh="51.675519" HC_perVeh="0.003208" PMx_perVeh="0.000704" NOx_perVeh="0.019353" fuel_perVeh="0.022213" electricity_perVeh="0"/>
        <edge id=":1110673617_0" sampledSeconds="854.73" CO_abs="31014.587169" CO2_abs="3185707.512770" HC_abs="217.430095" PMx_abs="59.669453" NOx_abs="1245.638501" fuel_abs="1369.386830" electricity_abs="0"
            CO_normed="43935.196084" CO2_normed="4512866.267647" HC_normed="308.010995" PMx_normed="84.527616" NOx_normed="1764.568765" fuel_normed="1939.870377" electricity_normed="0"
            traveltime="0.02" CO_perVeh="0.550187" CO2_perVeh="56.513228" HC_perVeh="0.003857" PMx_perVeh="0.001059" NOx_perVeh="0.022097" fuel_perVeh="0.024292" electricity_perVeh="0"/>
        <edge id=":1110673621_0" sampledSeconds="42.63" CO_abs="1018.434442" CO2_abs="95700.047567" HC_abs="6.855564" PMx_abs="1.490245" NOx_abs="37.347785" fuel_abs="41.137323" electricity_abs="0"
            CO_normed="1731.254394" CO2_normed="162682.172703" HC_normed="11.653892" PMx_normed="2.533293" NOx_normed="63.488148" fuel_normed="69.930050" electricity_normed="0"
            traveltime="0.02" CO_perVeh="0.480394" CO2_perVeh="45.141532" HC_perVeh="0.003234" PMx_perVeh="0.000703" NOx_perVeh="0.017617" fuel_perVeh="0.019404" electricity_perVeh="0"/>
        <edge id=":1110673630_0" sampledSeconds="286.77" CO_abs="1660.545323" CO2_abs="139301.326952" HC_abs="10.765678" PMx_abs="1.993975" NOx_abs="53.677389" fuel_abs="59.880010" electricity_abs="0"
            CO_normed="50.335054" CO2_normed="4222.552508" HC_normed="0.326333" PMx_normed="0.060442" NOx_normed="1.627089" fuel_normed="1.815105" electricity_normed="0"
            traveltime="1.29" CO_perVeh="7.471820" CO2_perVeh="626.802769" HC_perVeh="0.048441" PMx_perVeh="0.008972" NOx_perVeh="0.241528" fuel_perVeh="0.269437" electricity_perVeh="0"/>
        <edge id=":1110673630_1" sampledSeconds="337.32" CO_abs="1109.082815" CO2_abs="93288.004258" HC_abs="7.156712" PMx_abs="1.156553" NOx_abs="34.836699" fuel_abs="40.101008" electricity_abs="0"
            CO_normed="40.985851" CO2_normed="3447.432574" HC_normed="0.264474" PMx_normed="0.042740" NOx_normed="1.287381" fuel_normed="1.481922" electricity_normed="0"
            traveltime="1.08" CO_perVeh="3.535538" CO2_perVeh="297.383797" HC_perVeh="0.022814" PMx_perVeh="0.003687" NOx_perVeh="0.111053" fuel_perVeh="0.127834" electricity_perVeh="0"/>
        <edge id=":1110673650_0" sampledSeconds="200.00" CO_abs="3013.401467" CO2_abs="371225.055563" HC_abs="22.149868" PMx_abs="5.090755" NOx_abs="138.742548" fuel_abs="159.574049" electricity_abs="0"
            CO_normed="4268.777902" CO2_normed="525876.598602" HC_normed="31.377454" PMx_normed="7.211552" NOx_normed="196.542389" fuel_normed="226.052248" electricity_normed="0"
            traveltime="0.02" CO_perVeh="0.348277" CO2_perVeh="42.904686" HC_perVeh="0.002560" PMx_perVeh="0.000588" NOx_perVeh="0.016035" fuel_perVeh="0.018443" electricity_perVeh="0"/>
        <edge id=":1110673655_0" sampledSeconds="20.70" CO_abs="376.325623" CO2_abs="43487.625249" HC_abs="2.703458" PMx_abs="0.598058" NOx_abs="16.323842" fuel_abs="18.693514" electricity_abs="0"
            CO_normed="533.102051" CO2_normed="61604.474441" HC_normed="3.829713" PMx_normed="0.847208" NOx_normed="23.124319" fuel_normed="26.481191" electricity_normed="0"
            traveltime="0.02" CO_perVeh="0.429923" CO2_perVeh="49.681217" HC_perVeh="0.003088" PMx_perVeh="0.000683" NOx_perVeh="0.018649" fuel_perVeh="0.021356" electricity_perVeh="0"/>
        <edge id=":1110673663_0" sampledSeconds="180.43" CO_abs="3478.553537" CO2_abs="372112.543355" HC_abs="24.399838" PMx_abs="5.309989" NOx_abs="141.356421" fuel_abs="159.955539" electricity_abs="0"
            CO_normed="90.251123" CO2_normed="9654.465419" HC_normed="0.633054" PMx_normed="0.137768" NOx_normed="3.667494" fuel_normed="4.150049" electricity_normed="0"
            traveltime="1.32" CO_perVeh="25.439421" CO2_perVeh="2721.340248" HC_perVeh="0.178441" PMx_perVeh="0.038833" NOx_perVeh="1.033770" fuel_perVeh="1.169790" electricity_perVeh="0"/>
        <edge id=":1110673663_1" sampledSeconds="169.86" CO_abs="2814.353999" CO2_abs="331463.421336" HC_abs="20.450913" PMx_abs="4.697933" NOx_abs="124.982942" fuel_abs="142.482071" electricity_abs="0"
            CO_normed="73.107721" CO2_normed="8610.336581" HC_normed="0.531248" PMx_normed="0.122037" NOx_normed="3.246648" fuel_normed="3.701219" electricity_normed="0"
            traveltime="1.27" CO_perVeh="21.100719" CO2_perVeh="2485.158803" HC_perVeh="0.153331" PMx_perVeh="0.035223" NOx_perVeh="0.937064" fuel_perVeh="1.068264" electricity_perVeh="0"/>