<?xml version="1.0" encoding="UTF-8"?>

<!-- generated on Tue Nov 10 13:39:56 2020 by Eclipse SUMO sumo Version 1.7.0
<configuration xmlns:xsi="http://www.w3.org/2001/XMLSchema-instance" xsi:noNamespaceSchemaLocation="http://sumo.dlr.de/xsd/sumoConfiguration.xsd">

    <input>
        <net-file value="../dataSets/Porto/8AM9AM_Routing_SaoBento/Porto.net.xml"/>
        <route-files value="../results/Porto/8AM9AM_Routing_SaoBento/inputdata/cost_hc-length/solution18/Porto.rou.xml"/>
        <additional-files value="moreOutputInfo.xml"/>
    </input>

    <output>
        <emission-output.precision value="6"/>
        <tripinfo-output value="../results/Porto/8AM9AM_Routing_SaoBento/inputdata/cost_hc-length/solution18/Porto-tripinfo"/>
    </output>

    <processing>
        <collision.action value="warn"/>
        <time-to-teleport value="-1"/>
    </processing>

    <emissions>
        <device.emissions.probability value="1"/>
    </emissions>

    <gui_only>
        <quit-on-end value="true"/>
        <start value="true"/>
    </gui_only>

</configuration>
-->

<meandata xmlns:xsi="http://www.w3.org/2001/XMLSchema-instance" xsi:noNamespaceSchemaLocation="http://sumo.dlr.de/xsd/meandata_file.xsd">
    <interval begin="0.00" end="8561.00" id="emissions-detector">
        <edge id=":1092997347_0" sampledSeconds="591.08" CO_abs="71530.952029" CO2_abs="3073291.711847" HC_abs="398.434065" PMx_abs="62.191685" NOx_abs="1329.758315" fuel_abs="1321.083035" electricity_abs="0"
            CO_normed="68362.719761" CO2_normed="2937170.191102" HC_normed="380.786716" PMx_normed="59.437106" NOx_normed="1270.860970" fuel_normed="1262.569933" electricity_normed="0"
            traveltime="0.07" CO_perVeh="8.180629" CO2_perVeh="351.476656" HC_perVeh="0.045567" PMx_perVeh="0.007113" NOx_perVeh="0.152078" fuel_perVeh="0.151086" electricity_perVeh="0"/>
        <edge id=":1103427051_0" sampledSeconds="19.40" CO_abs="1580.378873" CO2_abs="88201.547169" HC_abs="9.290332" PMx_abs="1.734120" NOx_abs="37.673004" fuel_abs="37.913946" electricity_abs="0"
            CO_normed="2291.612703" CO2_normed="127895.778292" HC_normed="13.471353" PMx_normed="2.514543" NOx_normed="54.627366" fuel_normed="54.976741" electricity_normed="0"
            traveltime="0.03" CO_perVeh="2.457689" CO2_perVeh="137.164568" HC_perVeh="0.014448" PMx_perVeh="0.002697" NOx_perVeh="0.058586" fuel_perVeh="0.058961" electricity_perVeh="0"/>
        <edge id=":1105984386_0" sampledSeconds="10.40" CO_abs="247.878809" CO2_abs="18439.935586" HC_abs="1.547691" PMx_abs="0.244930" NOx_abs="7.027279" fuel_abs="7.926631" electricity_abs="0"
            CO_normed="10.734904" CO2_normed="798.579530" HC_normed="0.067026" PMx_normed="0.010607" NOx_normed="0.304331" fuel_normed="0.343279" electricity_normed="0"
            traveltime="1.00" CO_perVeh="23.778929" CO2_perVeh="1768.936717" HC_perVeh="0.148470" PMx_perVeh="0.023496" NOx_perVeh="0.674124" fuel_perVeh="0.760399" electricity_perVeh="0"/>
        <edge id=":1105984390_0" sampledSeconds="10.37" CO_abs="8.654974" CO2_abs="585.683875" HC_abs="0.053013" PMx_abs="0.009515" NOx_abs="0.235428" fuel_abs="0.251761" electricity_abs="0"
            CO_normed="0.289770" CO2_normed="19.608828" HC_normed="0.001775" PMx_normed="0.000319" NOx_normed="0.007882" fuel_normed="0.008429" electricity_normed="0"
            traveltime="1.08" CO_perVeh="0.897140" CO2_perVeh="60.709660" HC_perVeh="0.005495" PMx_perVeh="0.000986" NOx_perVeh="0.024404" fuel_perVeh="0.026097" electricity_perVeh="0"/>
        <edge id=":1105984390_1" sampledSeconds="2398.79" CO_abs="63551.918449" CO2_abs="7446007.142415" HC_abs="467.799861" PMx_abs="135.188009" NOx_abs="2840.227798" fuel_abs="3200.694075" electricity_abs="0"
            CO_normed="2035.363316" CO2_normed="238471.633238" HC_normed="14.982123" PMx_normed="4.329637" NOx_normed="90.963351" fuel_normed="102.507925" electricity_normed="0"
            traveltime="0.65" CO_perVeh="17.155894" CO2_perVeh="2010.055905" HC_perVeh="0.126283" PMx_perVeh="0.036494" NOx_perVeh="0.766722" fuel_perVeh="0.864030" electricity_perVeh="0"/>
        <edge id=":1105984395_0" sampledSeconds="4.18" CO_abs="90.015673" CO2_abs="6177.078372" HC_abs="0.549229" PMx_abs="0.078507" NOx_abs="2.338498" fuel_abs="2.655303" electricity_abs="0"
            CO_normed="41.144171" CO2_normed="2823.405705" HC_normed="0.251040" PMx_normed="0.035884" NOx_normed="1.068876" fuel_normed="1.213680" electricity_normed="0"
            traveltime="0.10" CO_perVeh="2.086531" CO2_perVeh="143.182467" HC_perVeh="0.012731" PMx_perVeh="0.001820" NOx_perVeh="0.054206" fuel_perVeh="0.061549" electricity_perVeh="0"/>
        <edge id=":1105984398_0" sampledSeconds="10.39" CO_abs="691.995278" CO2_abs="45461.051835" HC_abs="4.220764" PMx_abs="0.813535" NOx_abs="18.755425" fuel_abs="19.541729" electricity_abs="0"
            CO_normed="24.068822" CO2_normed="1581.215936" HC_normed="0.146806" PMx_normed="0.028296" NOx_normed="0.652347" fuel_normed="0.679696" electricity_normed="0"
            traveltime="1.15" CO_perVeh="76.778024" CO2_perVeh="5043.979126" HC_perVeh="0.468301" PMx_perVeh="0.090263" NOx_perVeh="2.080946" fuel_perVeh="2.168187" electricity_perVeh="0"/>
        <edge id=":1105984398_1" sampledSeconds="643.67" CO_abs="12633.706520" CO2_abs="1425186.436295" HC_abs="90.430750" PMx_abs="20.998682" NOx_abs="543.239205" fuel_abs="612.626374" electricity_abs="0"
            CO_normed="425.349914" CO2_normed="47982.983239" HC_normed="3.044610" PMx_normed="0.706981" NOx_normed="18.289704" fuel_normed="20.625822" electricity_normed="0"
            traveltime="0.95" CO_perVeh="18.647713" CO2_perVeh="2103.616041" HC_perVeh="0.133478" PMx_perVeh="0.030995" NOx_perVeh="0.801837" fuel_perVeh="0.904254" electricity_perVeh="0"/>
        <edge id=":1106006327_0" sampledSeconds="511.41" CO_abs="69052.628749" CO2_abs="2241703.974663" HC_abs="367.201662" PMx_abs="46.811931" NOx_abs="981.559858" fuel_abs="963.629303" electricity_abs="0"
            CO_normed="3277.362636" CO2_normed="106395.324548" HC_normed="17.428055" PMx_normed="2.221779" NOx_normed="46.586606" fuel_normed="45.735589" electricity_normed="0"
            traveltime="2.09" CO_perVeh="282.721404" CO2_perVeh="9178.183455" HC_perVeh="1.503430" PMx_perVeh="0.191662" NOx_perVeh="4.018790" fuel_perVeh="3.945377" electricity_perVeh="0"/>
        <edge id=":1106006327_1" sampledSeconds="685.05" CO_abs="92512.224996" CO2_abs="3082629.954398" HC_abs="493.877155" PMx_abs="64.261546" NOx_abs="1348.846480" fuel_abs="1325.111758" electricity_abs="0"
            CO_normed="3828.982857" CO2_normed="127586.783820" HC_normed="20.441052" PMx_normed="2.659717" NOx_normed="55.827325" fuel_normed="54.844970" electricity_normed="0"
            traveltime="2.30" CO_perVeh="310.541147" CO2_perVeh="10347.642617" HC_perVeh="1.657826" PMx_perVeh="0.215710" NOx_perVeh="4.527751" fuel_perVeh="4.448079" electricity_perVeh="0"/>
        <edge id=":1106006327_2" sampledSeconds="0.00" CO_abs="0" CO2_abs="0" HC_abs="0" PMx_abs="0" NOx_abs="0" fuel_abs="0" electricity_abs="0"
            CO_normed="0" CO2_normed="0" HC_normed="0" PMx_normed="0" NOx_normed="0" fuel_normed="0" electricity_normed="0"/>
        <edge id=":1106006327_3" sampledSeconds="0.00" CO_abs="0" CO2_abs="0" HC_abs="0" PMx_abs="0" NOx_abs="0" fuel_abs="0" electricity_abs="0"
            CO_normed="0" CO2_normed="0" HC_normed="0" PMx_normed="0" NOx_normed="0" fuel_normed="0" electricity_normed="0"/>
        <edge id=":1107381198_0" sampledSeconds="0.00" CO_abs="0" CO2_abs="0" HC_abs="0" PMx_abs="0" NOx_abs="0" fuel_abs="0" electricity_abs="0"
            CO_normed="0" CO2_normed="0" HC_normed="0" PMx_normed="0" NOx_normed="0" fuel_normed="0" electricity_normed="0"/>
        <edge id=":1107381198_1" sampledSeconds="104.18" CO_abs="4778.111393" CO2_abs="189387.548968" HC_abs="26.120704" PMx_abs="3.294830" NOx_abs="78.636934" fuel_abs="81.411121" electricity_abs="0"
            CO_normed="219.111382" CO2_normed="8684.805397" HC_normed="1.197825" PMx_normed="0.151092" NOx_normed="3.606079" fuel_normed="3.733296" electricity_normed="0"
            traveltime="1.56" CO_perVeh="71.537489" CO2_perVeh="2835.494749" HC_perVeh="0.391077" PMx_perVeh="0.049330" NOx_perVeh="1.177346" fuel_perVeh="1.218881" electricity_perVeh="0"/>
        <edge id=":1110338277_0" sampledSeconds="160.80" CO_abs="2220.600467" CO2_abs="283736.660585" HC_abs="16.562279" PMx_abs="3.784067" NOx_abs="105.310987" fuel_abs="121.966567" electricity_abs="0"
            CO_normed="3334.958233" CO2_normed="426123.441065" HC_normed="24.873682" PMx_normed="5.683015" NOx_normed="158.158908" fuel_normed="183.172711" electricity_normed="0"
            traveltime="0.02" CO_perVeh="0.300759" CO2_perVeh="38.429407" HC_perVeh="0.002243" PMx_perVeh="0.000513" NOx_perVeh="0.014263" fuel_perVeh="0.016519" electricity_perVeh="0"/>
        <edge id=":1110338293_0" sampledSeconds="7002.44" CO_abs="703321.582051" CO2_abs="12171455.859296" HC_abs="3487.358621" PMx_abs="292.233323" NOx_abs="5511.438955" fuel_abs="5232.308167" electricity_abs="0"
            CO_normed="985849.665297" CO2_normed="17060795.504211" HC_normed="4888.249440" PMx_normed="409.625030" NOx_normed="7725.413791" fuel_normed="7334.154655" electricity_normed="0"
            traveltime="0.47" CO_perVeh="47.047384" CO2_perVeh="814.186805" HC_perVeh="0.233280" PMx_perVeh="0.019548" NOx_perVeh="0.368677" fuel_perVeh="0.350005" electricity_perVeh="0"/>
        <edge id=":1110338295_0" sampledSeconds="0.00" CO_abs="0" CO2_abs="0" HC_abs="0" PMx_abs="0" NOx_abs="0" fuel_abs="0" electricity_abs="0"
            CO_normed="0" CO2_normed="0" HC_normed="0" PMx_normed="0" NOx_normed="0" fuel_normed="0" electricity_normed="0"/>
        <edge id=":1110673403_0" sampledSeconds="201.27" CO_abs="3089.186518" CO2_abs="373944.785205" HC_abs="22.596017" PMx_abs="5.129977" NOx_abs="139.928754" fuel_abs="160.743181" electricity_abs="0"
            CO_normed="4330.129450" CO2_normed="524160.427807" HC_normed="31.672959" PMx_normed="7.190716" NOx_normed="196.138891" fuel_normed="225.314587" electricity_normed="0"
            traveltime="0.02" CO_perVeh="0.357035" CO2_perVeh="43.218953" HC_perVeh="0.002612" PMx_perVeh="0.000593" NOx_perVeh="0.016172" fuel_perVeh="0.018578" electricity_perVeh="0"/>
        <edge id=":1110673412_0" sampledSeconds="951.91" CO_abs="169748.591891" CO2_abs="11580401.001681" HC_abs="1056.366988" PMx_abs="254.566280" NOx_abs="4976.989154" fuel_abs="4977.843944" electricity_abs="0"
            CO_normed="246142.261341" CO2_normed="16792045.565919" HC_normed="1531.774470" PMx_normed="369.131309" NOx_normed="7216.833739" fuel_normed="7218.073218" electricity_normed="0"
            traveltime="0.02" CO_perVeh="2.767156" CO2_perVeh="188.777858" HC_perVeh="0.017220" PMx_perVeh="0.004150" NOx_perVeh="0.081132" fuel_perVeh="0.081146" electricity_perVeh="0"/>
        <edge id=":1110673414_0" sampledSeconds="0.00" CO_abs="0" CO2_abs="0" HC_abs="0" PMx_abs="0" NOx_abs="0" fuel_abs="0" electricity_abs="0"
            CO_normed="0" CO2_normed="0" HC_normed="0" PMx_normed="0" NOx_normed="0" fuel_normed="0" electricity_normed="0"/>
        <edge id=":1110673414_1" sampledSeconds="240.42" CO_abs="16218.965039" CO2_abs="631020.936827" HC_abs="88.538121" PMx_abs="11.783313" NOx_abs="267.224742" fuel_abs="271.252979" electricity_abs="0"
            CO_normed="755.289402" CO2_normed="29385.563451" HC_normed="4.123069" PMx_normed="0.548729" NOx_normed="12.444198" fuel_normed="12.631786" electricity_normed="0"
            traveltime="1.56" CO_perVeh="105.230176" CO2_perVeh="4094.123396" HC_perVeh="0.574444" PMx_perVeh="0.076451" NOx_perVeh="1.733779" fuel_perVeh="1.759915" electricity_perVeh="0"/>
        <edge id=":1110673417_0" sampledSeconds="29.10" CO_abs="519.422854" CO2_abs="56031.261526" HC_abs="3.647932" PMx_abs="0.807134" NOx_abs="21.307665" fuel_abs="24.085470" electricity_abs="0"
            CO_normed="780.083382" CO2_normed="84149.273906" HC_normed="5.478564" PMx_normed="1.212176" NOx_normed="32.000431" fuel_normed="36.172214" electricity_normed="0"
            traveltime="0.02" CO_perVeh="0.396085" CO2_perVeh="42.726526" HC_perVeh="0.002782" PMx_perVeh="0.000615" NOx_perVeh="0.016248" fuel_perVeh="0.018366" electricity_perVeh="0"/>
        <edge id=":1110673446_0" sampledSeconds="1329.14" CO_abs="14058.011754" CO2_abs="1138480.118956" HC_abs="90.971485" PMx_abs="20.915639" NOx_abs="465.854873" fuel_abs="489.380200" electricity_abs="0"
            CO_normed="19705.191105" CO2_normed="1595813.739921" HC_normed="127.515222" PMx_normed="29.317564" NOx_normed="652.991295" fuel_normed="685.966872" electricity_normed="0"
            traveltime="0.02" CO_perVeh="0.241095" CO2_perVeh="19.524907" HC_perVeh="0.001560" PMx_perVeh="0.000359" NOx_perVeh="0.007989" fuel_perVeh="0.008393" electricity_perVeh="0"/>
        <edge id=":1110673451_0" sampledSeconds="37.03" CO_abs="349.275538" CO2_abs="21776.892951" HC_abs="2.089872" PMx_abs="0.326364" NOx_abs="8.590279" fuel_abs="9.361050" electricity_abs="0"
            CO_normed="543.979345" CO2_normed="33916.431804" HC_normed="3.254873" PMx_normed="0.508295" NOx_normed="13.378934" fuel_normed="14.579371" electricity_normed="0"
            traveltime="0.03" CO_perVeh="0.257339" CO2_perVeh="16.044755" HC_perVeh="0.001540" PMx_perVeh="0.000240" NOx_perVeh="0.006329" fuel_perVeh="0.006897" electricity_perVeh="0"/>
        <edge id=":1110673464_0" sampledSeconds="1026.66" CO_abs="3286.519432" CO2_abs="255296.895401" HC_abs="20.774740" PMx_abs="3.444413" NOx_abs="97.293688" fuel_abs="109.742315" electricity_abs="0"
            CO_normed="97.876744" CO2_normed="7603.067401" HC_normed="0.618698" PMx_normed="0.102579" NOx_normed="2.897530" fuel_normed="3.268266" electricity_normed="0"
            traveltime="1.22" CO_perVeh="3.897352" CO2_perVeh="302.746388" HC_perVeh="0.024636" PMx_perVeh="0.004085" NOx_perVeh="0.115377" fuel_perVeh="0.130139" electricity_perVeh="0"/>
        <edge id=":1110673464_1" sampledSeconds="2600.40" CO_abs="64028.540642" CO2_abs="7831646.307625" HC_abs="477.903473" PMx_abs="139.829147" NOx_abs="2966.997383" fuel_abs="3366.464050" electricity_abs="0"
            CO_normed="1868.476441" CO2_normed="228542.560407" HC_normed="13.946146" PMx_normed="4.080484" NOx_normed="86.582712" fuel_normed="98.239921" electricity_normed="0"
            traveltime="0.72" CO_perVeh="17.651641" CO2_perVeh="2159.059167" HC_perVeh="0.131750" PMx_perVeh="0.038549" NOx_perVeh="0.817954" fuel_perVeh="0.928080" electricity_perVeh="0"/>
        <edge id=":1110673479_0" sampledSeconds="134.38" CO_abs="6227.385337" CO2_abs="433702.079265" HC_abs="38.531254" PMx_abs="7.503130" NOx_abs="176.760276" fuel_abs="186.429788" electricity_abs="0"
            CO_normed="8728.959706" CO2_normed="607922.550074" HC_normed="54.009467" PMx_normed="10.517178" NOx_normed="247.765834" fuel_normed="261.319643" electricity_normed="0"
            traveltime="0.03" CO_perVeh="1.316526" CO2_perVeh="91.688541" HC_perVeh="0.008146" PMx_perVeh="0.001586" NOx_perVeh="0.037369" fuel_perVeh="0.039413" electricity_perVeh="0"/>
        <edge id=":1110673511_0" sampledSeconds="64.10" CO_abs="961.598293" CO2_abs="108993.702929" HC_abs="6.836355" PMx_abs="1.448246" NOx_abs="40.642330" fuel_abs="46.851927" electricity_abs="0"
            CO_normed="1347.877528" CO2_normed="152777.062861" HC_normed="9.582555" PMx_normed="2.030015" NOx_normed="56.968574" fuel_normed="65.672599" electricity_normed="0"
            traveltime="0.02" CO_perVeh="0.368546" CO2_perVeh="41.773377" HC_perVeh="0.002620" PMx_perVeh="0.000555" NOx_perVeh="0.015577" fuel_perVeh="0.017957" electricity_perVeh="0"/>
        <edge id=":1110673517_0" sampledSeconds="182.53" CO_abs="8292.094493" CO2_abs="582256.386680" HC_abs="51.456059" PMx_abs="10.247260" NOx_abs="238.277128" fuel_abs="250.286559" electricity_abs="0"
            CO_normed="11623.073697" CO2_normed="816151.926196" HC_normed="72.126236" PMx_normed="14.363640" NOx_normed="333.994339" fuel_normed="350.828024" electricity_normed="0"
            traveltime="0.03" CO_perVeh="1.269587" CO2_perVeh="89.148166" HC_perVeh="0.007878" PMx_perVeh="0.001569" NOx_perVeh="0.036482" fuel_perVeh="0.038321" electricity_perVeh="0"/>
        <edge id=":1110673534_0" sampledSeconds="736.59" CO_abs="5221.707430" CO2_abs="436286.935676" HC_abs="33.725176" PMx_abs="5.885264" NOx_abs="165.932873" fuel_abs="187.542670" electricity_abs="0"
            CO_normed="141.846813" CO2_normed="11851.661963" HC_normed="0.916139" PMx_normed="0.159872" NOx_normed="4.507539" fuel_normed="5.094565" electricity_normed="0"
            traveltime="1.45" CO_perVeh="10.298081" CO2_perVeh="860.430896" HC_perVeh="0.066512" PMx_perVeh="0.011607" NOx_perVeh="0.327247" fuel_perVeh="0.369866" electricity_perVeh="0"/>
        <edge id=":1110673534_1" sampledSeconds="200.43" CO_abs="2866.953572" CO2_abs="377134.750715" HC_abs="21.646424" PMx_abs="5.065955" NOx_abs="139.837913" fuel_abs="162.114426" electricity_abs="0"
            CO_normed="75.727845" CO2_normed="9961.654894" HC_normed="0.571770" PMx_normed="0.133812" NOx_normed="3.693685" fuel_normed="4.282098" electricity_normed="0"
            traveltime="1.23" CO_perVeh="17.524785" CO2_perVeh="2305.306069" HC_perVeh="0.132318" PMx_perVeh="0.030967" NOx_perVeh="0.854785" fuel_perVeh="0.990954" electricity_perVeh="0"/>
        <edge id=":1110673549_0" sampledSeconds="652.17" CO_abs="1314.424254" CO2_abs="137223.610923" HC_abs="9.023170" PMx_abs="1.945085" NOx_abs="51.587070" fuel_abs="58.986733" electricity_abs="0"
            CO_normed="34.588903" CO2_normed="3611.021481" HC_normed="0.237444" PMx_normed="0.051185" NOx_normed="1.357507" fuel_normed="1.552228" electricity_normed="0"
            traveltime="1.30" CO_perVeh="2.611452" CO2_perVeh="272.631100" HC_perVeh="0.017927" PMx_perVeh="0.003864" NOx_perVeh="0.102491" fuel_perVeh="0.117193" electricity_perVeh="0"/>
        <edge id=":1110673549_1" sampledSeconds="3196.27" CO_abs="70581.563470" CO2_abs="9163495.569788" HC_abs="540.787358" PMx_abs="161.798845" NOx_abs="3431.985131" fuel_abs="3938.966887" electricity_abs="0"
            CO_normed="1796.632432" CO2_normed="233254.018740" HC_normed="13.765579" PMx_normed="4.118541" NOx_normed="87.360147" fuel_normed="100.265215" electricity_normed="0"
            traveltime="0.81" CO_perVeh="17.804334" CO2_perVeh="2311.509227" HC_perVeh="0.136415" PMx_perVeh="0.040814" NOx_perVeh="0.865725" fuel_perVeh="0.993612" electricity_perVeh="0"/>
        <edge id=":1110673556_0" sampledSeconds="463.63" CO_abs="57615.439546" CO2_abs="2772630.658916" HC_abs="328.257532" PMx_abs="56.284023" NOx_abs="1197.097921" fuel_abs="1191.835282" electricity_abs="0"
            CO_normed="1124.267376" CO2_normed="54103.174798" HC_normed="6.405388" PMx_normed="1.098287" NOx_normed="23.359331" fuel_normed="23.256640" electricity_normed="0"
            traveltime="2.73" CO_perVeh="339.637476" CO2_perVeh="16344.391143" HC_perVeh="1.935047" PMx_perVeh="0.331789" NOx_perVeh="7.056777" fuel_perVeh="7.025754" electricity_perVeh="0"/>
        <edge id=":1110673556_2" sampledSeconds="174.26" CO_abs="16974.875273" CO2_abs="729058.715566" HC_abs="94.421558" PMx_abs="14.104486" NOx_abs="311.164507" fuel_abs="313.393678" electricity_abs="0"
            CO_normed="346.343151" CO2_normed="14875.189877" HC_normed="1.926510" PMx_normed="0.287778" NOx_normed="6.348777" fuel_normed="6.394259" electricity_normed="0"
            traveltime="3.01" CO_perVeh="293.519850" CO2_perVeh="12606.466984" HC_perVeh="1.632684" PMx_perVeh="0.243887" NOx_perVeh="5.380479" fuel_perVeh="5.419025" electricity_perVeh="0"/>
        <edge id=":1110673556_3" sampledSeconds="353.91" CO_abs="35099.699920" CO2_abs="1209638.992928" HC_abs="188.096310" PMx_abs="23.874220" NOx_abs="520.984325" fuel_abs="519.981285" electricity_abs="0"
            CO_normed="1629.120503" CO2_normed="56144.288689" HC_normed="8.730318" PMx_normed="1.108100" NOx_normed="24.181011" fuel_normed="24.134456" electricity_normed="0"
            traveltime="1.84" CO_perVeh="182.754205" CO2_perVeh="6298.247920" HC_perVeh="0.979364" PMx_perVeh="0.124306" NOx_perVeh="2.712618" fuel_perVeh="2.707395" electricity_perVeh="0"/>
        <edge id=":1110673556_4" sampledSeconds="76.24" CO_abs="9113.536904" CO2_abs="358816.208357" HC_abs="49.947265" PMx_abs="7.183386" NOx_abs="154.947077" fuel_abs="154.241236" electricity_abs="0"
            CO_normed="258.418624" CO2_normed="10174.402289" HC_normed="1.416278" PMx_normed="0.203688" NOx_normed="4.393597" fuel_normed="4.373583" electricity_normed="0"
            traveltime="2.51" CO_perVeh="300.114918" CO2_perVeh="11816.059799" HC_perVeh="1.644797" PMx_perVeh="0.236554" NOx_perVeh="5.102512" fuel_perVeh="5.079268" electricity_perVeh="0"/>
        <edge id=":1110673556_5" sampledSeconds="22.33" CO_abs="1064.529741" CO2_abs="48406.701068" HC_abs="5.961004" PMx_abs="0.804245" NOx_abs="19.796633" fuel_abs="20.808287" electricity_abs="0"
            CO_normed="42.072099" CO2_normed="1913.118459" HC_normed="0.235589" PMx_normed="0.031785" NOx_normed="0.782398" fuel_normed="0.822380" electricity_normed="0"
            traveltime="1.54" CO_perVeh="73.597118" CO2_perVeh="3346.636123" HC_perVeh="0.412119" PMx_perVeh="0.055602" NOx_perVeh="1.368656" fuel_perVeh="1.438598" electricity_perVeh="0"/>
        <edge id=":1110673556_6" sampledSeconds="215.18" CO_abs="26358.007276" CO2_abs="1325574.521238" HC_abs="151.552524" PMx_abs="26.798672" NOx_abs="571.128551" fuel_abs="569.806969" electricity_abs="0"
            CO_normed="527.300114" CO2_normed="26518.529621" HC_normed="3.031855" PMx_normed="0.536116" NOx_normed="11.425604" fuel_normed="11.399165" electricity_normed="0"
            traveltime="2.51" CO_perVeh="307.137487" CO2_perVeh="15446.297709" HC_perVeh="1.765970" PMx_perVeh="0.312272" NOx_perVeh="6.655093" fuel_perVeh="6.639693" electricity_perVeh="0"/>
        <edge id=":1110673561_0" sampledSeconds="104.61" CO_abs="9780.638137" CO2_abs="701988.616271" HC_abs="61.408812" PMx_abs="14.060939" NOx_abs="296.195645" fuel_abs="301.751634" electricity_abs="0"
            CO_normed="245.838136" CO2_normed="17644.612791" HC_normed="1.543522" PMx_normed="0.353424" NOx_normed="7.444932" fuel_normed="7.584583" electricity_normed="0"
            traveltime="1.23" CO_perVeh="115.421023" CO2_perVeh="8284.147022" HC_perVeh="0.724684" PMx_perVeh="0.165933" NOx_perVeh="3.495396" fuel_perVeh="3.560962" electricity_perVeh="0"/>
        <edge id=":1110673561_1" sampledSeconds="5251.16" CO_abs="487723.517564" CO2_abs="33828818.750457" HC_abs="3039.108591" PMx_abs="706.610971" NOx_abs="14458.860344" fuel_abs="14541.375725" electricity_abs="0"
            CO_normed="11951.830285" CO2_normed="828986.681768" HC_normed="74.474387" PMx_normed="17.315742" NOx_normed="354.319279" fuel_normed="356.341346" electricity_normed="0"
            traveltime="1.19" CO_perVeh="110.811618" CO2_perVeh="7685.965548" HC_perVeh="0.690491" PMx_perVeh="0.160543" NOx_perVeh="3.285078" fuel_perVeh="3.303825" electricity_perVeh="0"/>
        <edge id=":1110673562_0" sampledSeconds="300.97" CO_abs="6820.221684" CO2_abs="525022.942614" HC_abs="43.032169" PMx_abs="7.152889" NOx_abs="200.884554" fuel_abs="225.687082" electricity_abs="0"
            CO_normed="10622.157355" CO2_normed="817697.220128" HC_normed="67.020471" PMx_normed="11.140271" NOx_normed="312.867739" fuel_normed="351.496448" electricity_normed="0"
            traveltime="0.03" CO_perVeh="0.611375" CO2_perVeh="47.063832" HC_perVeh="0.003857" PMx_perVeh="0.000641" NOx_perVeh="0.018008" fuel_perVeh="0.020231" electricity_perVeh="0"/>
        <edge id=":1110673564_0" sampledSeconds="27.87" CO_abs="426.522187" CO2_abs="50331.335872" HC_abs="3.104831" PMx_abs="0.710026" NOx_abs="18.966216" fuel_abs="21.635311" electricity_abs="0"
            CO_normed="1793.575369" CO2_normed="211649.117087" HC_normed="13.056174" PMx_normed="2.985740" NOx_normed="79.755141" fuel_normed="90.978999" electricity_normed="0"
            traveltime="7.872730e-03" CO_perVeh="0.120469" CO2_perVeh="14.215884" HC_perVeh="0.000877" PMx_perVeh="0.000201" NOx_perVeh="0.005357" fuel_perVeh="0.006111" electricity_perVeh="0"/>
        <edge id=":1110673588_0" sampledSeconds="63.61" CO_abs="1060.385244" CO2_abs="113219.725442" HC_abs="7.424803" PMx_abs="1.528647" NOx_abs="42.527975" fuel_abs="48.668528" electricity_abs="0"
            CO_normed="1783.617278" CO2_normed="190440.841766" HC_normed="12.488863" PMx_normed="2.571256" NOx_normed="71.534032" fuel_normed="81.862727" electricity_normed="0"
            traveltime="0.02" CO_perVeh="0.342064" CO2_perVeh="36.522932" HC_perVeh="0.002395" PMx_perVeh="0.000493" NOx_perVeh="0.013719" fuel_perVeh="0.015700" electricity_perVeh="0"/>
        <edge id=":1110673601_0" sampledSeconds="29.20" CO_abs="364.449330" CO2_abs="46381.460049" HC_abs="2.689047" PMx_abs="0.616627" NOx_abs="17.174286" fuel_abs="19.937459" electricity_abs="0"
            CO_normed="547.339926" CO2_normed="69656.939350" HC_normed="4.038484" PMx_normed="0.926067" NOx_normed="25.792810" fuel_normed="29.942619" electricity_normed="0"
            traveltime="0.02" CO_perVeh="0.277910" CO2_perVeh="35.368090" HC_perVeh="0.002051" PMx_perVeh="0.000470" NOx_perVeh="0.013096" fuel_perVeh="0.015203" electricity_perVeh="0"/>
        <edge id=":1110673617_0" sampledSeconds="852.75" CO_abs="32480.597246" CO2_abs="3281426.331378" HC_abs="226.375041" PMx_abs="61.900788" NOx_abs="1287.567624" fuel_abs="1410.531480" electricity_abs="0"
            CO_normed="45528.228822" CO2_normed="4599593.035455" HC_normed="317.311119" PMx_normed="86.766669" NOx_normed="1804.790503" fuel_normed="1977.149604" electricity_normed="0"
            traveltime="0.02" CO_perVeh="0.575610" CO2_perVeh="58.152345" HC_perVeh="0.004012" PMx_perVeh="0.001097" NOx_perVeh="0.022818" fuel_perVeh="0.024997" electricity_perVeh="0"/>
        <edge id=":1110673621_0" sampledSeconds="26.58" CO_abs="529.515518" CO2_abs="56148.981210" HC_abs="3.707472" PMx_abs="0.788413" NOx_abs="21.282268" fuel_abs="24.136108" electricity_abs="0"
            CO_normed="890.669718" CO2_normed="94445.196756" HC_normed="6.236140" PMx_normed="1.326148" NOx_normed="35.797763" fuel_normed="40.598056" electricity_normed="0"
            traveltime="0.02" CO_perVeh="0.401148" CO2_perVeh="42.537107" HC_perVeh="0.002809" PMx_perVeh="0.000597" NOx_perVeh="0.016123" fuel_perVeh="0.018285" electricity_perVeh="0"/>
        <edge id=":1110673630_0" sampledSeconds="286.66" CO_abs="1372.722354" CO2_abs="119275.159449" HC_abs="8.974844" PMx_abs="1.596820" NOx_abs="45.229986" fuel_abs="51.271699" electricity_abs="0"
            CO_normed="41.173017" CO2_normed="3577.502912" HC_normed="0.269189" PMx_normed="0.047895" NOx_normed="1.356614" fuel_normed="1.537828" electricity_normed="0"
            traveltime="1.29" CO_perVeh="6.176726" CO2_perVeh="536.692664" HC_perVeh="0.040383" PMx_perVeh="0.007185" NOx_perVeh="0.203518" fuel_perVeh="0.230703" electricity_perVeh="0"/>
        <edge id=":1110673630_1" sampledSeconds="337.78" CO_abs="1532.717260" CO2_abs="127598.521445" HC_abs="9.884261" PMx_abs="1.698229" NOx_abs="48.414053" fuel_abs="54.849645" electricity_abs="0"
            CO_normed="56.045689" CO2_normed="4665.796633" HC_normed="0.361430" PMx_normed="0.062098" NOx_normed="1.770319" fuel_normed="2.005645" electricity_normed="0"
            traveltime="1.08" CO_perVeh="4.886001" CO2_perVeh="406.758973" HC_perVeh="0.031509" PMx_perVeh="0.005414" NOx_perVeh="0.154334" fuel_perVeh="0.174850" electricity_perVeh="0"/>
        <edge id=":1110673650_0" sampledSeconds="201.00" CO_abs="2946.442335" CO2_abs="360745.386291" HC_abs="21.650008" PMx_abs="4.916354" NOx_abs="134.757388" fuel_abs="155.069338" electricity_abs="0"
            CO_normed="4130.044156" CO2_normed="505658.758964" HC_normed="30.346933" PMx_normed="6.891280" NOx_normed="188.890160" fuel_normed="217.361530" electricity_normed="0"
            traveltime="0.02" CO_perVeh="0.340538" CO2_perVeh="41.693476" HC_perVeh="0.002502" PMx_perVeh="0.000568" NOx_perVeh="0.015575" fuel_perVeh="0.017922" electricity_perVeh="0"/>
        <edge id=":1110673655_0" sampledSeconds="20.73" CO_abs="310.754434" CO2_abs="37662.614206" HC_abs="2.266598" PMx_abs="0.511132" NOx_abs="14.061717" fuel_abs="16.189585" electricity_abs="0"
            CO_normed="435.586170" CO2_normed="52791.890022" HC_normed="3.177102" PMx_normed="0.716457" NOx_normed="19.710385" fuel_normed="22.693029" electricity_normed="0"
            traveltime="0.02" CO_perVeh="0.355013" CO2_perVeh="43.026597" HC_perVeh="0.002589" PMx_perVeh="0.000584" NOx_perVeh="0.016064" fuel_perVeh="0.018495" electricity_perVeh="0"/>
        <edge id=":1110673663_0" sampledSeconds="110.88" CO_abs="1918.895964" CO2_abs="214424.588606" HC_abs="13.652733" PMx_abs="3.022431" NOx_abs="81.009035" fuel_abs="92.172118" electricity_abs="0"
            CO_normed="49.262397" CO2_normed="5504.763837" HC_normed="0.350497" PMx_normed="0.077593" NOx_normed="2.079685" fuel_normed="2.366267" electricity_normed="0"
            traveltime="1.30" CO_perVeh="22.538338" CO2_perVeh="2518.517949" HC_perVeh="0.160358" PMx_perVeh="0.035500" NOx_perVeh="0.951489" fuel_perVeh="1.082605" electricity_perVeh="0"/>
        <edge id=":1110673663_1" sampledSeconds="170.24" CO_abs="2702.788348" CO2_abs="339234.437724" HC_abs="19.992092" PMx_abs="4.601075" NOx_abs="126.363901" fuel_abs="145.822669" electricity_abs="0"
            CO_normed="69.471511" CO2_normed="8719.561357" HC_normed="0.513870" PMx_normed="0.118264" NOx_normed="3.248013" fuel_normed="3.748174" electricity_normed="0"
            traveltime="1.27" CO_perVeh="20.238202" CO2_perVeh="2540.152709" HC_perVeh="0.149699" PMx_perVeh="0.034452" NOx_perVeh="0.946200" fuel_perVeh="1.091905" electricity_perVeh="0"/>