<?xml version="1.0" encoding="UTF-8"?>

<!-- generated on Mon Nov  9 21:21:17 2020 by Eclipse SUMO sumo Version 1.7.0
<configuration xmlns:xsi="http://www.w3.org/2001/XMLSchema-instance" xsi:noNamespaceSchemaLocation="http://sumo.dlr.de/xsd/sumoConfiguration.xsd">

    <input>
        <net-file value="../dataSets/Porto/6AM7AM_Routing_SaoBento/Porto.net.xml"/>
        <route-files value="../results/Porto/6AM7AM_Routing_SaoBento/length-ttime/solution9/Porto.rou.xml"/>
        <additional-files value="moreOutputInfo.xml"/>
    </input>

    <output>
        <emission-output.precision value="6"/>
        <tripinfo-output value="../results/Porto/6AM7AM_Routing_SaoBento/length-ttime/solution9/Porto-tripinfo"/>
    </output>

    <processing>
        <collision.action value="warn"/>
        <time-to-teleport value="-1"/>
    </processing>

    <emissions>
        <device.emissions.probability value="1"/>
    </emissions>

    <gui_only>
        <quit-on-end value="true"/>
        <start value="true"/>
    </gui_only>

</configuration>
-->

<meandata xmlns:xsi="http://www.w3.org/2001/XMLSchema-instance" xsi:noNamespaceSchemaLocation="http://sumo.dlr.de/xsd/meandata_file.xsd">
    <interval begin="0.00" end="4700.00" id="emissions-detector">
        <edge id=":1092997347_0" sampledSeconds="272.26" CO_abs="35097.826075" CO2_abs="1372750.471177" HC_abs="192.254780" PMx_abs="28.088349" NOx_abs="596.458526" fuel_abs="590.091730" electricity_abs="0"
            CO_normed="61098.730111" CO2_normed="2389701.013654" HC_normed="334.679501" PMx_normed="48.896546" NOx_normed="1038.322386" fuel_normed="1027.238989" electricity_normed="0"
            traveltime="0.08" CO_perVeh="9.866447" CO2_perVeh="385.897687" HC_perVeh="0.054045" PMx_perVeh="0.007896" NOx_perVeh="0.167672" fuel_perVeh="0.165882" electricity_perVeh="0"/>
        <edge id=":1103427051_0" sampledSeconds="10.79" CO_abs="879.354939" CO2_abs="50711.750419" HC_abs="5.207017" PMx_abs="0.984654" NOx_abs="21.555577" fuel_abs="21.798736" electricity_abs="0"
            CO_normed="2322.580911" CO2_normed="133941.527151" HC_normed="13.752943" PMx_normed="2.600699" NOx_normed="56.933291" fuel_normed="57.575532" electricity_normed="0"
            traveltime="0.03" CO_perVeh="2.409419" CO2_perVeh="138.949430" HC_perVeh="0.014267" PMx_perVeh="0.002698" NOx_perVeh="0.059062" fuel_perVeh="0.059728" electricity_perVeh="0"/>
        <edge id=":1105984386_0" sampledSeconds="23.02" CO_abs="591.071161" CO2_abs="42999.256208" HC_abs="3.672868" PMx_abs="0.597283" NOx_abs="16.569310" fuel_abs="18.483725" electricity_abs="0"
            CO_normed="46.625681" CO2_normed="3391.925901" HC_normed="0.289728" PMx_normed="0.047116" NOx_normed="1.307043" fuel_normed="1.458058" electricity_normed="0"
            traveltime="0.97" CO_perVeh="24.806799" CO2_perVeh="1804.645478" HC_perVeh="0.154147" PMx_perVeh="0.025067" NOx_perVeh="0.695401" fuel_perVeh="0.775748" electricity_perVeh="0"/>
        <edge id=":1105984390_0" sampledSeconds="23.37" CO_abs="28.455754" CO2_abs="2111.053982" HC_abs="0.176878" PMx_abs="0.024660" NOx_abs="0.783041" fuel_abs="0.907468" electricity_abs="0"
            CO_normed="1.735342" CO2_normed="128.740248" HC_normed="0.010787" PMx_normed="0.001504" NOx_normed="0.047753" fuel_normed="0.055341" electricity_normed="0"
            traveltime="1.06" CO_perVeh="1.290454" CO2_perVeh="95.735261" HC_perVeh="0.008021" PMx_perVeh="0.001118" NOx_perVeh="0.035511" fuel_perVeh="0.041153" electricity_perVeh="0"/>
        <edge id=":1105984390_1" sampledSeconds="646.23" CO_abs="14333.710089" CO2_abs="1825213.581398" HC_abs="108.904543" PMx_abs="32.460872" NOx_abs="684.960448" fuel_abs="784.575564" electricity_abs="0"
            CO_normed="836.177607" CO2_normed="106476.461134" HC_normed="6.353103" PMx_normed="1.893652" NOx_normed="39.958154" fuel_normed="45.769345" electricity_normed="0"
            traveltime="0.64" CO_perVeh="14.122243" CO2_perVeh="1798.285998" HC_perVeh="0.107298" PMx_perVeh="0.031982" NOx_perVeh="0.674855" fuel_perVeh="0.773001" electricity_perVeh="0"/>
        <edge id=":1105984395_0" sampledSeconds="8.92" CO_abs="208.431721" CO2_abs="17537.259092" HC_abs="1.344714" PMx_abs="0.211703" NOx_abs="6.518469" fuel_abs="7.538617" electricity_abs="0"
            CO_normed="173.532423" CO2_normed="14600.863258" HC_normed="1.119559" PMx_normed="0.176256" NOx_normed="5.427033" fuel_normed="6.276369" electricity_normed="0"
            traveltime="0.09" CO_perVeh="2.113726" CO2_perVeh="177.846984" HC_perVeh="0.013637" PMx_perVeh="0.002147" NOx_perVeh="0.066104" fuel_perVeh="0.076450" electricity_perVeh="0"/>
        <edge id=":1105984398_0" sampledSeconds="23.36" CO_abs="1454.580697" CO2_abs="103459.904271" HC_abs="9.057003" PMx_abs="1.815488" NOx_abs="42.301101" fuel_abs="44.472881" electricity_abs="0"
            CO_normed="92.154418" CO2_normed="6554.663699" HC_normed="0.573803" PMx_normed="0.115020" NOx_normed="2.679971" fuel_normed="2.817563" electricity_normed="0"
            traveltime="1.11" CO_perVeh="69.091007" CO2_perVeh="4914.233384" HC_perVeh="0.430198" PMx_perVeh="0.086234" NOx_perVeh="2.009256" fuel_perVeh="2.112414" electricity_perVeh="0"/>
        <edge id=":1105984398_1" sampledSeconds="455.33" CO_abs="8288.162984" CO2_abs="937811.329936" HC_abs="59.228925" PMx_abs="13.613800" NOx_abs="356.267491" fuel_abs="403.125025" electricity_abs="0"
            CO_normed="508.277034" CO2_normed="57511.895265" HC_normed="3.632253" PMx_normed="0.834875" NOx_normed="21.848338" fuel_normed="24.721907" electricity_normed="0"
            traveltime="0.96" CO_perVeh="17.445521" CO2_perVeh="1973.972627" HC_perVeh="0.124669" PMx_perVeh="0.028655" NOx_perVeh="0.749897" fuel_perVeh="0.848526" electricity_perVeh="0"/>
        <edge id=":1106006327_0" sampledSeconds="38.72" CO_abs="5168.565040" CO2_abs="166464.856206" HC_abs="27.448912" PMx_abs="3.458224" NOx_abs="72.778197" fuel_abs="71.557420" electricity_abs="0"
            CO_normed="446.828542" CO2_normed="14391.083097" HC_normed="2.372991" PMx_normed="0.298968" NOx_normed="6.291761" fuel_normed="6.186223" electricity_normed="0"
            traveltime="2.10" CO_perVeh="280.391172" CO2_perVeh="9030.606331" HC_perVeh="1.489085" PMx_perVeh="0.187606" NOx_perVeh="3.948168" fuel_perVeh="3.881942" electricity_perVeh="0"/>
        <edge id=":1106006327_1" sampledSeconds="162.24" CO_abs="21874.017938" CO2_abs="727481.999168" HC_abs="116.739076" PMx_abs="15.157133" NOx_abs="318.262178" fuel_abs="312.718398" electricity_abs="0"
            CO_normed="1649.071548" CO2_normed="54844.513256" HC_normed="8.800902" PMx_normed="1.142689" NOx_normed="23.993630" fuel_normed="23.575688" electricity_normed="0"
            traveltime="2.30" CO_perVeh="310.529877" CO2_perVeh="10327.544589" HC_perVeh="1.657262" PMx_perVeh="0.215175" NOx_perVeh="4.518142" fuel_perVeh="4.439441" electricity_perVeh="0"/>
        <edge id=":1106006327_2" sampledSeconds="0.00" CO_abs="0" CO2_abs="0" HC_abs="0" PMx_abs="0" NOx_abs="0" fuel_abs="0" electricity_abs="0"
            CO_normed="0" CO2_normed="0" HC_normed="0" PMx_normed="0" NOx_normed="0" fuel_normed="0" electricity_normed="0"/>
        <edge id=":1106006327_3" sampledSeconds="0.00" CO_abs="0" CO2_abs="0" HC_abs="0" PMx_abs="0" NOx_abs="0" fuel_abs="0" electricity_abs="0"
            CO_normed="0" CO2_normed="0" HC_normed="0" PMx_normed="0" NOx_normed="0" fuel_normed="0" electricity_normed="0"/>
        <edge id=":1107381198_0" sampledSeconds="0.00" CO_abs="0" CO2_abs="0" HC_abs="0" PMx_abs="0" NOx_abs="0" fuel_abs="0" electricity_abs="0"
            CO_normed="0" CO2_normed="0" HC_normed="0" PMx_normed="0" NOx_normed="0" fuel_normed="0" electricity_normed="0"/>
        <edge id=":1107381198_1" sampledSeconds="36.58" CO_abs="1228.907635" CO2_abs="51220.697007" HC_abs="6.776400" PMx_abs="0.882169" NOx_abs="21.196330" fuel_abs="22.017957" electricity_abs="0"
            CO_normed="102.648959" CO2_normed="4278.394144" HC_normed="0.566023" PMx_normed="0.073686" NOx_normed="1.770500" fuel_normed="1.839130" electricity_normed="0"
            traveltime="1.51" CO_perVeh="50.597535" CO2_perVeh="2108.898130" HC_perVeh="0.279003" PMx_perVeh="0.036321" NOx_perVeh="0.872712" fuel_perVeh="0.906540" electricity_perVeh="0"/>
        <edge id=":1110338277_0" sampledSeconds="96.43" CO_abs="1476.481588" CO2_abs="191328.667639" HC_abs="11.075588" PMx_abs="2.513620" NOx_abs="70.748391" fuel_abs="82.244266" electricity_abs="0"
            CO_normed="4039.007384" CO2_normed="523391.492021" HC_normed="30.297960" PMx_normed="6.876165" NOx_normed="193.536633" fuel_normed="224.984313" electricity_normed="0"
            traveltime="0.02" CO_perVeh="0.333737" CO2_perVeh="43.247003" HC_perVeh="0.002503" PMx_perVeh="0.000568" NOx_perVeh="0.015992" fuel_perVeh="0.018590" electricity_perVeh="0"/>
        <edge id=":1110338293_0" sampledSeconds="123.84" CO_abs="5946.143518" CO2_abs="406753.841173" HC_abs="36.635014" PMx_abs="7.150431" NOx_abs="166.646566" fuel_abs="174.845808" electricity_abs="0"
            CO_normed="15181.643025" CO2_normed="1038520.445548" HC_normed="93.536207" PMx_normed="18.256419" NOx_normed="425.480594" fuel_normed="446.414828" electricity_normed="0"
            traveltime="0.03" CO_perVeh="1.363847" CO2_perVeh="93.295732" HC_perVeh="0.008403" PMx_perVeh="0.001640" NOx_perVeh="0.038223" fuel_perVeh="0.040104" electricity_perVeh="0"/>
        <edge id=":1110338295_0" sampledSeconds="0.00" CO_abs="0" CO2_abs="0" HC_abs="0" PMx_abs="0" NOx_abs="0" fuel_abs="0" electricity_abs="0"
            CO_normed="0" CO2_normed="0" HC_normed="0" PMx_normed="0" NOx_normed="0" fuel_normed="0" electricity_normed="0"/>
        <edge id=":1110673403_0" sampledSeconds="143.78" CO_abs="2099.874915" CO2_abs="259999.794195" HC_abs="15.513655" PMx_abs="3.569007" NOx_abs="97.204512" fuel_abs="111.762978" electricity_abs="0"
            CO_normed="5361.382763" CO2_normed="663829.261774" HC_normed="39.609332" PMx_normed="9.112357" NOx_normed="248.181734" fuel_normed="285.352283" electricity_normed="0"
            traveltime="0.02" CO_perVeh="0.337149" CO2_perVeh="41.744682" HC_perVeh="0.002491" PMx_perVeh="0.000573" NOx_perVeh="0.015607" fuel_perVeh="0.017944" electricity_perVeh="0"/>
        <edge id=":1110673412_0" sampledSeconds="258.00" CO_abs="45733.799625" CO2_abs="3123015.544579" HC_abs="284.669942" PMx_abs="68.621821" NOx_abs="1341.998619" fuel_abs="1342.430551" electricity_abs="0"
            CO_normed="120793.601358" CO2_normed="8248610.389205" HC_normed="751.879524" PMx_normed="181.246190" NOx_normed="3544.530469" fuel_normed="3545.671302" electricity_normed="0"
            traveltime="0.02" CO_perVeh="2.753841" CO2_perVeh="188.051009" HC_perVeh="0.017141" PMx_perVeh="0.004132" NOx_perVeh="0.080808" fuel_perVeh="0.080834" electricity_perVeh="0"/>
        <edge id=":1110673414_0" sampledSeconds="0.00" CO_abs="0" CO2_abs="0" HC_abs="0" PMx_abs="0" NOx_abs="0" fuel_abs="0" electricity_abs="0"
            CO_normed="0" CO2_normed="0" HC_normed="0" PMx_normed="0" NOx_normed="0" fuel_normed="0" electricity_normed="0"/>
        <edge id=":1110673414_1" sampledSeconds="15.11" CO_abs="907.208832" CO2_abs="32011.210695" HC_abs="4.867308" PMx_abs="0.567338" NOx_abs="13.371263" fuel_abs="13.760574" electricity_abs="0"
            CO_normed="76.952753" CO2_normed="2715.307333" HC_normed="0.412863" PMx_normed="0.048124" NOx_normed="1.134199" fuel_normed="1.167222" electricity_normed="0"
            traveltime="1.65" CO_perVeh="99.081952" CO2_perVeh="3496.144564" HC_perVeh="0.531589" PMx_perVeh="0.061963" NOx_perVeh="1.460359" fuel_perVeh="1.502878" electricity_perVeh="0"/>
        <edge id=":1110673417_0" sampledSeconds="29.88" CO_abs="536.402721" CO2_abs="58392.872927" HC_abs="3.778970" PMx_abs="0.830821" NOx_abs="22.136250" fuel_abs="25.100639" electricity_abs="0"
            CO_normed="1467.363065" CO2_normed="159737.342353" HC_normed="10.337608" PMx_normed="2.272763" NOx_normed="60.555092" fuel_normed="68.664361" electricity_normed="0"
            traveltime="0.02" CO_perVeh="0.398125" CO2_perVeh="43.339972" HC_perVeh="0.002805" PMx_perVeh="0.000617" NOx_perVeh="0.016430" fuel_perVeh="0.018630" electricity_perVeh="0"/>
        <edge id=":1110673446_0" sampledSeconds="341.55" CO_abs="3419.864877" CO2_abs="266025.812223" HC_abs="21.897825" PMx_abs="5.007238" NOx_abs="109.860468" fuel_abs="114.352162" electricity_abs="0"
            CO_normed="8731.569899" CO2_normed="679214.839718" HC_normed="55.909341" PMx_normed="12.784437" NOx_normed="280.494813" fuel_normed="291.962967" electricity_normed="0"
            traveltime="0.02" CO_perVeh="0.228014" CO2_perVeh="17.736865" HC_perVeh="0.001460" PMx_perVeh="0.000334" NOx_perVeh="0.007325" fuel_perVeh="0.007624" electricity_perVeh="0"/>
        <edge id=":1110673451_0" sampledSeconds="37.25" CO_abs="398.858274" CO2_abs="28228.606091" HC_abs="2.465917" PMx_abs="0.422478" NOx_abs="11.080997" fuel_abs="12.134353" electricity_abs="0"
            CO_normed="1131.512834" CO2_normed="80081.152032" HC_normed="6.995509" PMx_normed="1.198519" NOx_normed="31.435452" fuel_normed="34.423697" electricity_normed="0"
            traveltime="0.03" CO_perVeh="0.286034" CO2_perVeh="20.243622" HC_perVeh="0.001768" PMx_perVeh="0.000303" NOx_perVeh="0.007947" fuel_perVeh="0.008702" electricity_perVeh="0"/>
        <edge id=":1110673464_0" sampledSeconds="323.83" CO_abs="588.613818" CO2_abs="42403.860423" HC_abs="3.648158" PMx_abs="0.590259" NOx_abs="16.347675" fuel_abs="18.227790" electricity_abs="0"
            CO_normed="31.930109" CO2_normed="2300.251605" HC_normed="0.197899" PMx_normed="0.032019" NOx_normed="0.886800" fuel_normed="0.988790" electricity_normed="0"
            traveltime="1.17" CO_perVeh="2.127762" CO2_perVeh="153.284427" HC_perVeh="0.013188" PMx_perVeh="0.002134" NOx_perVeh="0.059095" fuel_perVeh="0.065891" electricity_perVeh="0"/>
        <edge id=":1110673464_1" sampledSeconds="711.17" CO_abs="16357.401552" CO2_abs="2040075.072275" HC_abs="123.334214" PMx_abs="36.467579" NOx_abs="768.867774" fuel_abs="876.934463" electricity_abs="0"
            CO_normed="869.470752" CO2_normed="108439.326416" HC_normed="6.555778" PMx_normed="1.938419" NOx_normed="40.868841" fuel_normed="46.613080" electricity_normed="0"
            traveltime="0.70" CO_perVeh="16.141630" CO2_perVeh="2013.164301" HC_perVeh="0.121707" PMx_perVeh="0.035987" NOx_perVeh="0.758726" fuel_perVeh="0.865367" electricity_perVeh="0"/>
        <edge id=":1110673479_0" sampledSeconds="133.80" CO_abs="6643.629176" CO2_abs="460043.975264" HC_abs="41.065032" PMx_abs="8.075455" NOx_abs="188.310328" fuel_abs="197.752879" electricity_abs="0"
            CO_normed="16962.457471" CO2_normed="1174580.362377" HC_normed="104.846889" PMx_normed="20.618183" NOx_normed="480.792327" fuel_normed="504.900969" electricity_normed="0"
            traveltime="0.03" CO_perVeh="1.399543" CO2_perVeh="96.912571" HC_perVeh="0.008651" PMx_perVeh="0.001701" NOx_perVeh="0.039669" fuel_perVeh="0.041658" electricity_perVeh="0"/>
        <edge id=":1110673511_0" sampledSeconds="11.81" CO_abs="206.352909" CO2_abs="22611.307749" HC_abs="1.463232" PMx_abs="0.329832" NOx_abs="8.616717" fuel_abs="9.719638" electricity_abs="0"
            CO_normed="526.858492" CO2_normed="57730.998509" HC_normed="3.735912" PMx_normed="0.842124" NOx_normed="22.000128" fuel_normed="24.816096" electricity_normed="0"
            traveltime="0.02" CO_perVeh="0.408620" CO2_perVeh="44.774867" HC_perVeh="0.002897" PMx_perVeh="0.000653" NOx_perVeh="0.017063" fuel_perVeh="0.019247" electricity_perVeh="0"/>
        <edge id=":1110673517_0" sampledSeconds="17.09" CO_abs="809.345575" CO2_abs="57812.423071" HC_abs="5.044445" PMx_abs="1.007511" NOx_abs="23.561180" fuel_abs="24.851039" electricity_abs="0"
            CO_normed="2066.414233" CO2_normed="147606.186565" HC_normed="12.879435" PMx_normed="2.572368" NOx_normed="60.156205" fuel_normed="63.449462" electricity_normed="0"
            traveltime="0.03" CO_perVeh="1.299458" CO2_perVeh="92.821659" HC_perVeh="0.008099" PMx_perVeh="0.001618" NOx_perVeh="0.037829" fuel_perVeh="0.039900" electricity_perVeh="0"/>
        <edge id=":1110673534_0" sampledSeconds="514.08" CO_abs="2793.276215" CO2_abs="244560.354365" HC_abs="18.288618" PMx_abs="3.200827" NOx_abs="92.160872" fuel_abs="105.126979" electricity_abs="0"
            CO_normed="138.212579" CO2_normed="12100.957663" HC_normed="0.904929" PMx_normed="0.158378" NOx_normed="4.560162" fuel_normed="5.201731" electricity_normed="0"
            traveltime="1.44" CO_perVeh="7.800787" CO2_perVeh="682.984057" HC_perVeh="0.051075" PMx_perVeh="0.008939" NOx_perVeh="0.257378" fuel_perVeh="0.293588" electricity_perVeh="0"/>
        <edge id=":1110673534_1" sampledSeconds="152.24" CO_abs="2235.287765" CO2_abs="300598.716579" HC_abs="16.969857" PMx_abs="4.010003" NOx_abs="111.218813" fuel_abs="129.214788" electricity_abs="0"
            CO_normed="107.546188" CO2_normed="14462.677479" HC_normed="0.816469" PMx_normed="0.192933" NOx_normed="5.351060" fuel_normed="6.216899" electricity_normed="0"
            traveltime="1.22" CO_perVeh="17.933489" CO2_perVeh="2411.673303" HC_perVeh="0.136147" PMx_perVeh="0.032172" NOx_perVeh="0.892297" fuel_perVeh="1.036677" electricity_perVeh="0"/>
        <edge id=":1110673549_0" sampledSeconds="59.88" CO_abs="18.537916" CO2_abs="4901.834582" HC_abs="0.196872" PMx_abs="0.055796" NOx_abs="1.713035" fuel_abs="2.107097" electricity_abs="0"
            CO_normed="0.888564" CO2_normed="234.955989" HC_normed="0.009437" PMx_normed="0.002674" NOx_normed="0.082110" fuel_normed="0.100998" electricity_normed="0"
            traveltime="1.25" CO_perVeh="0.386222" CO2_perVeh="102.125548" HC_perVeh="0.004102" PMx_perVeh="0.001162" NOx_perVeh="0.035690" fuel_perVeh="0.043900" electricity_perVeh="0"/>
        <edge id=":1110673549_1" sampledSeconds="639.84" CO_abs="13588.274314" CO2_abs="1771114.713057" HC_abs="103.901265" PMx_abs="31.194999" NOx_abs="662.239998" fuel_abs="761.321129" electricity_abs="0"
            CO_normed="630.026628" CO2_normed="82118.553488" HC_normed="4.817430" PMx_normed="1.446371" NOx_normed="30.705064" fuel_normed="35.299007" electricity_normed="0"
            traveltime="0.81" CO_perVeh="17.104964" CO2_perVeh="2229.484920" HC_perVeh="0.130791" PMx_perVeh="0.039268" NOx_perVeh="0.833630" fuel_perVeh="0.958353" electricity_perVeh="0"/>
        <edge id=":1110673556_0" sampledSeconds="419.71" CO_abs="51168.520547" CO2_abs="2557754.130678" HC_abs="293.797552" PMx_abs="51.582367" NOx_abs="1101.559382" fuel_abs="1099.467939" electricity_abs="0"
            CO_normed="1818.696490" CO2_normed="90910.943086" HC_normed="10.442525" PMx_normed="1.833406" NOx_normed="39.153021" fuel_normed="39.078685" electricity_normed="0"
            traveltime="2.61" CO_perVeh="317.629225" CO2_perVeh="15877.290447" HC_perVeh="1.823752" PMx_perVeh="0.320198" NOx_perVeh="6.837944" fuel_perVeh="6.824961" electricity_perVeh="0"/>
        <edge id=":1110673556_2" sampledSeconds="245.57" CO_abs="23051.953679" CO2_abs="1000717.345643" HC_abs="128.443029" PMx_abs="19.148739" NOx_abs="425.672026" fuel_abs="430.169161" electricity_abs="0"
            CO_normed="856.711091" CO2_normed="37191.019071" HC_normed="4.773503" PMx_normed="0.711651" NOx_normed="15.819828" fuel_normed="15.986961" electricity_normed="0"
            traveltime="2.98" CO_perVeh="279.615781" CO2_perVeh="12138.509637" HC_perVeh="1.557989" PMx_perVeh="0.232271" NOx_perVeh="5.163320" fuel_perVeh="5.217869" electricity_perVeh="0"/>
        <edge id=":1110673556_3" sampledSeconds="412.34" CO_abs="33603.348987" CO2_abs="1211950.206063" HC_abs="181.250481" PMx_abs="23.224882" NOx_abs="517.486552" fuel_abs="520.974519" electricity_abs="0"
            CO_normed="2840.920021" CO2_normed="102461.620916" HC_normed="15.323417" PMx_normed="1.963496" NOx_normed="43.749744" fuel_normed="44.044626" electricity_normed="0"
            traveltime="1.72" CO_perVeh="140.416269" CO2_perVeh="5064.302553" HC_perVeh="0.757380" PMx_perVeh="0.097048" NOx_perVeh="2.162390" fuel_perVeh="2.176965" electricity_perVeh="0"/>
        <edge id=":1110673556_4" sampledSeconds="196.80" CO_abs="20881.312957" CO2_abs="836417.818746" HC_abs="114.708874" PMx_abs="16.331782" NOx_abs="358.526461" fuel_abs="359.544050" electricity_abs="0"
            CO_normed="1078.502843" CO2_normed="43200.300533" HC_normed="5.924620" PMx_normed="0.843523" NOx_normed="18.517600" fuel_normed="18.570158" electricity_normed="0"
            traveltime="2.40" CO_perVeh="255.090671" CO2_perVeh="10217.862411" HC_perVeh="1.401309" PMx_perVeh="0.199513" NOx_perVeh="4.379837" fuel_perVeh="4.392268" electricity_perVeh="0"/>
        <edge id=":1110673556_5" sampledSeconds="22.47" CO_abs="1509.189096" CO2_abs="68161.683634" HC_abs="8.464086" PMx_abs="1.260540" NOx_abs="28.740686" fuel_abs="29.300048" electricity_abs="0"
            CO_normed="108.644232" CO2_normed="4906.856125" HC_normed="0.609317" PMx_normed="0.090744" NOx_normed="2.068998" fuel_normed="2.109266" electricity_normed="0"
            traveltime="1.55" CO_perVeh="104.338999" CO2_perVeh="4712.412696" HC_perVeh="0.585171" PMx_perVeh="0.087148" NOx_perVeh="1.987010" fuel_perVeh="2.025682" electricity_perVeh="0"/>
        <edge id=":1110673556_6" sampledSeconds="474.81" CO_abs="56010.918615" CO2_abs="2804368.951523" HC_abs="321.680054" PMx_abs="56.374255" NOx_abs="1206.432324" fuel_abs="1205.477207" electricity_abs="0"
            CO_normed="2041.007622" CO2_normed="102189.689915" HC_normed="11.721847" PMx_normed="2.054247" NOx_normed="43.961742" fuel_normed="43.926938" electricity_normed="0"
            traveltime="2.55" CO_perVeh="300.571225" CO2_perVeh="15049.076691" HC_perVeh="1.726231" PMx_perVeh="0.302521" NOx_perVeh="6.474074" fuel_perVeh="6.468949" electricity_perVeh="0"/>
        <edge id=":1110673561_0" sampledSeconds="99.32" CO_abs="9907.524583" CO2_abs="703256.172077" HC_abs="62.045087" PMx_abs="14.377020" NOx_abs="298.378581" fuel_abs="302.296164" electricity_abs="0"
            CO_normed="453.600851" CO2_normed="32197.507592" HC_normed="2.840639" PMx_normed="0.658230" NOx_normed="13.660807" fuel_normed="13.840167" electricity_normed="0"
            traveltime="1.17" CO_perVeh="116.918406" CO2_perVeh="8299.105411" HC_perVeh="0.732192" PMx_perVeh="0.169663" NOx_perVeh="3.521157" fuel_perVeh="3.567388" electricity_perVeh="0"/>
        <edge id=":1110673561_1" sampledSeconds="1342.92" CO_abs="125105.703878" CO2_abs="8641420.571367" HC_abs="778.797289" PMx_abs="181.044062" NOx_abs="3697.953192" fuel_abs="3714.528962" electricity_abs="0"
            CO_normed="5584.245077" CO2_normed="385720.305224" HC_normed="34.762563" PMx_normed="8.081122" NOx_normed="165.062633" fuel_normed="165.802513" electricity_normed="0"
            traveltime="1.19" CO_perVeh="110.992246" CO2_perVeh="7666.562339" HC_perVeh="0.690939" PMx_perVeh="0.160620" NOx_perVeh="3.280779" fuel_perVeh="3.295485" electricity_perVeh="0"/>
        <edge id=":1110673562_0" sampledSeconds="103.73" CO_abs="2426.831643" CO2_abs="191542.092819" HC_abs="15.418712" PMx_abs="2.585771" NOx_abs="73.029443" fuel_abs="82.336541" electricity_abs="0"
            CO_normed="6884.628775" CO2_normed="543381.823601" HC_normed="43.741026" PMx_normed="7.335519" NOx_normed="207.175724" fuel_normed="233.578841" electricity_normed="0"
            traveltime="0.03" CO_perVeh="0.618610" CO2_perVeh="48.824951" HC_perVeh="0.003930" PMx_perVeh="0.000659" NOx_perVeh="0.018616" fuel_perVeh="0.020988" electricity_perVeh="0"/>
        <edge id=":1110673564_0" sampledSeconds="28.85" CO_abs="493.419810" CO2_abs="57096.485665" HC_abs="3.548663" PMx_abs="0.782010" NOx_abs="21.416075" fuel_abs="24.543399" electricity_abs="0"
            CO_normed="3779.385775" CO2_normed="437334.783819" HC_normed="27.181245" PMx_normed="5.989862" NOx_normed="164.038022" fuel_normed="187.991996" electricity_normed="0"
            traveltime="7.932616e-03" CO_perVeh="0.135648" CO2_perVeh="15.696628" HC_perVeh="0.000976" PMx_perVeh="0.000215" NOx_perVeh="0.005888" fuel_perVeh="0.006747" electricity_perVeh="0"/>
        <edge id=":1110673588_0" sampledSeconds="11.74" CO_abs="135.358846" CO2_abs="19050.879806" HC_abs="1.048528" PMx_abs="0.240710" NOx_abs="6.960962" fuel_abs="8.189191" electricity_abs="0"
            CO_normed="414.716465" CO2_normed="58368.653021" HC_normed="3.212511" PMx_normed="0.737493" NOx_normed="21.327203" fuel_normed="25.090286" electricity_normed="0"
            traveltime="0.02" CO_perVeh="0.225598" CO2_perVeh="31.751466" HC_perVeh="0.001748" PMx_perVeh="0.000401" NOx_perVeh="0.011602" fuel_perVeh="0.013649" electricity_perVeh="0"/>
        <edge id=":1110673601_0" sampledSeconds="29.97" CO_abs="451.713757" CO2_abs="51786.698084" HC_abs="3.243483" PMx_abs="0.703933" NOx_abs="19.414575" fuel_abs="22.260954" electricity_abs="0"
            CO_normed="1235.691128" CO2_normed="141665.739440" HC_normed="8.872750" PMx_normed="1.925654" NOx_normed="53.109779" fuel_normed="60.896226" electricity_normed="0"
            traveltime="0.02" CO_perVeh="0.335268" CO2_perVeh="38.436781" HC_perVeh="0.002407" PMx_perVeh="0.000522" NOx_perVeh="0.014410" fuel_perVeh="0.016522" electricity_perVeh="0"/>
        <edge id=":1110673617_0" sampledSeconds="238.46" CO_abs="5998.247029" CO2_abs="728174.569073" HC_abs="44.724714" PMx_abs="13.121203" NOx_abs="275.414149" fuel_abs="313.008702" electricity_abs="0"
            CO_normed="15314.673264" CO2_normed="1859169.112527" HC_normed="114.190758" PMx_normed="33.500944" NOx_normed="703.185062" fuel_normed="799.171153" electricity_normed="0"
            traveltime="0.01" CO_perVeh="0.367352" CO2_perVeh="44.595768" HC_perVeh="0.002739" PMx_perVeh="0.000804" NOx_perVeh="0.016867" fuel_perVeh="0.019170" electricity_perVeh="0"/>
        <edge id=":1110673621_0" sampledSeconds="25.65" CO_abs="484.148313" CO2_abs="52531.784128" HC_abs="3.387220" PMx_abs="0.749444" NOx_abs="19.928916" fuel_abs="22.581198" electricity_abs="0"
            CO_normed="1483.348022" CO2_normed="160948.444989" HC_normed="10.377864" PMx_normed="2.296169" NOx_normed="61.058807" fuel_normed="69.184946" electricity_normed="0"
            traveltime="0.02" CO_perVeh="0.366779" CO2_perVeh="39.796806" HC_perVeh="0.002566" PMx_perVeh="0.000568" NOx_perVeh="0.015098" fuel_perVeh="0.017107" electricity_perVeh="0"/>
        <edge id=":1110673630_0" sampledSeconds="54.42" CO_abs="163.680088" CO2_abs="13879.943679" HC_abs="1.064476" PMx_abs="0.197438" NOx_abs="5.336396" fuel_abs="5.966428" electricity_abs="0"
            CO_normed="8.942367" CO2_normed="758.305722" HC_normed="0.058156" PMx_normed="0.010787" NOx_normed="0.291544" fuel_normed="0.325965" electricity_normed="0"
            traveltime="1.27" CO_perVeh="3.820583" CO2_perVeh="323.982436" HC_perVeh="0.024847" PMx_perVeh="0.004609" NOx_perVeh="0.124561" fuel_perVeh="0.139267" electricity_perVeh="0"/>
        <edge id=":1110673630_1" sampledSeconds="7.31" CO_abs="6.834706" CO2_abs="1518.762119" HC_abs="0.064042" PMx_abs="0.008543" NOx_abs="0.487732" fuel_abs="0.652866" electricity_abs="0"
            CO_normed="0.455226" CO2_normed="101.157144" HC_normed="0.004266" PMx_normed="0.000569" NOx_normed="0.032485" fuel_normed="0.043484" electricity_normed="0"
            traveltime="1.03" CO_perVeh="0.967374" CO2_perVeh="214.963254" HC_perVeh="0.009064" PMx_perVeh="0.001209" NOx_perVeh="0.069033" fuel_perVeh="0.092406" electricity_perVeh="0"/>
        <edge id=":1110673650_0" sampledSeconds="143.23" CO_abs="2343.220930" CO2_abs="285864.943748" HC_abs="17.226587" PMx_abs="3.976214" NOx_abs="107.247959" fuel_abs="122.881265" electricity_abs="0"
            CO_normed="5982.691735" CO2_normed="729867.941484" HC_normed="43.982776" PMx_normed="10.152035" NOx_normed="273.824575" fuel_normed="313.739399" electricity_normed="0"
            traveltime="0.02" CO_perVeh="0.376220" CO2_perVeh="45.897510" HC_perVeh="0.002766" PMx_perVeh="0.000638" NOx_perVeh="0.017219" fuel_perVeh="0.019729" electricity_perVeh="0"/>
        <edge id=":1110673655_0" sampledSeconds="44.86" CO_abs="637.025907" CO2_abs="78032.140237" HC_abs="4.677328" PMx_abs="1.050675" NOx_abs="29.087979" fuel_abs="33.542767" electricity_abs="0"
            CO_normed="1626.449125" CO2_normed="199230.996349" HC_normed="11.942114" PMx_normed="2.682575" NOx_normed="74.267180" fuel_normed="85.641107" electricity_normed="0"
            traveltime="0.02" CO_perVeh="0.340929" CO2_perVeh="41.761916" HC_perVeh="0.002503" PMx_perVeh="0.000562" NOx_perVeh="0.015568" fuel_perVeh="0.017952" electricity_perVeh="0"/>
        <edge id=":1110673663_0" sampledSeconds="108.46" CO_abs="1339.303408" CO2_abs="178946.423678" HC_abs="10.146624" PMx_abs="2.274779" NOx_abs="65.617605" fuel_abs="76.921737" electricity_abs="0"
            CO_normed="62.628170" CO2_normed="8367.847729" HC_normed="0.474474" PMx_normed="0.106373" NOx_normed="3.068394" fuel_normed="3.596995" electricity_normed="0"
            traveltime="1.27" CO_perVeh="15.730750" CO2_perVeh="2101.810165" HC_perVeh="0.119177" PMx_perVeh="0.026718" NOx_perVeh="0.770710" fuel_perVeh="0.903482" electricity_perVeh="0"/>
        <edge id=":1110673663_1" sampledSeconds="154.53" CO_abs="2265.028405" CO2_abs="275179.656551" HC_abs="16.632156" PMx_abs="3.886723" NOx_abs="103.515779" fuel_abs="118.288038" electricity_abs="0"
            CO_normed="106.046172" CO2_normed="12883.612906" HC_normed="0.778700" PMx_normed="0.181972" NOx_normed="4.846496" fuel_normed="5.538118" electricity_normed="0"
            traveltime="1.25" CO_perVeh="18.310097" CO2_perVeh="2224.504609" HC_perVeh="0.134451" PMx_perVeh="0.031420" NOx_perVeh="0.836804" fuel_perVeh="0.956220" electricity_perVeh="0"/>
        <edge id=":1110673666_0" sampledSeconds="157.45" CO_abs="3484.702002" CO2_abs="282449.883917" HC_abs="22.293859" PMx_abs="3.725349" NOx_abs="107.019849" fuel_abs="121.414350" electricity_abs="0"