<?xml version="1.0" encoding="UTF-8"?>

<!-- generated on Wed Sep 30 00:42:45 2020 by Eclipse SUMO Version 1.1.0
<configuration xmlns:xsi="http://www.w3.org/2001/XMLSchema-instance" xsi:noNamespaceSchemaLocation="http://sumo.dlr.de/xsd/sumoConfiguration.xsd">

    <input>
        <net-file value="../dataSets/Angeja_Estarreja/angeja_estarreja.net.xml"/>
        <route-files value="../results/angeja_estarreja/cost_co-length/solution16/angeja_estarreja.rou.xml"/>
        <additional-files value="moreOutputInfo.xml"/>
    </input>

    <output>
        <emission-output.precision value="6"/>
        <tripinfo-output value="../results/angeja_estarreja/cost_co-length/solution16/angeja_estarreja-tripinfo"/>
    </output>

    <processing>
        <collision.action value="warn"/>
        <time-to-teleport value="-1"/>
    </processing>

    <emissions>
        <device.emissions.probability value="1"/>
    </emissions>

    <gui_only>
        <quit-on-end value="true"/>
        <start value="true"/>
    </gui_only>

</configuration>
-->

<meandata xmlns:xsi="http://www.w3.org/2001/XMLSchema-instance" xsi:noNamespaceSchemaLocation="http://sumo.dlr.de/xsd/meandata_file.xsd">
    <interval begin="0.00" end="19080.00" id="emissions-detector">
        <edge id=":10_0" sampledSeconds="411.17" CO_abs="41638.668000" CO2_abs="2301393.690618" HC_abs="244.227497" PMx_abs="45.203829" NOx_abs="982.236353" fuel_abs="989.267863" electricity_abs="0"
            CO_normed="449.191107" CO2_normed="24827.056869" HC_normed="2.634686" PMx_normed="0.487651" NOx_normed="10.596204" fuel_normed="10.672059" electricity_normed="0"
            traveltime="1.89" CO_perVeh="191.494253" CO2_perVeh="10584.000076" HC_perVeh="1.123191" PMx_perVeh="0.207890" NOx_perVeh="4.517258" fuel_perVeh="4.549596" electricity_perVeh="0"/>
        <edge id=":10_1" sampledSeconds="0.00" CO_abs="0" CO2_abs="0" HC_abs="0" PMx_abs="0" NOx_abs="0" fuel_abs="0" electricity_abs="0"
            CO_normed="0" CO2_normed="0" HC_normed="0" PMx_normed="0" NOx_normed="0" fuel_normed="0" electricity_normed="0"/>
        <edge id=":100_0" sampledSeconds="0.00" CO_abs="0" CO2_abs="0" HC_abs="0" PMx_abs="0" NOx_abs="0" fuel_abs="0" electricity_abs="0"
            CO_normed="0" CO2_normed="0" HC_normed="0" PMx_normed="0" NOx_normed="0" fuel_normed="0" electricity_normed="0"/>
        <edge id=":100_1" sampledSeconds="912.03" CO_abs="20780.802972" CO2_abs="2674931.610188" HC_abs="159.679106" PMx_abs="48.120706" NOx_abs="995.808651" fuel_abs="1149.830683" electricity_abs="0"
            CO_normed="132.642294" CO2_normed="17073.886245" HC_normed="1.019220" PMx_normed="0.307151" NOx_normed="6.356171" fuel_normed="7.339282" electricity_normed="0"
            traveltime="1.37" CO_perVeh="31.245783" CO2_perVeh="4021.997281" HC_perVeh="0.240092" PMx_perVeh="0.072354" NOx_perVeh="1.497287" fuel_perVeh="1.728873" electricity_perVeh="0"/>
        <edge id=":101_0" sampledSeconds="438.04" CO_abs="11544.077299" CO2_abs="1387733.121451" HC_abs="86.362514" PMx_abs="25.458175" NOx_abs="522.346569" fuel_abs="596.522597" electricity_abs="0"
            CO_normed="266.600709" CO2_normed="32048.523624" HC_normed="1.994469" PMx_normed="0.587935" NOx_normed="12.063153" fuel_normed="13.776185" electricity_normed="0"
            traveltime="0.38" CO_perVeh="9.972584" CO2_perVeh="1198.821203" HC_perVeh="0.074606" PMx_perVeh="0.021993" NOx_perVeh="0.451240" fuel_perVeh="0.515318" electricity_perVeh="0"/>
        <edge id=":102_0" sampledSeconds="341.22" CO_abs="8199.869343" CO2_abs="1043235.403640" HC_abs="62.677348" PMx_abs="18.824380" NOx_abs="388.989048" fuel_abs="448.439118" electricity_abs="0"
            CO_normed="191.005575" CO2_normed="24300.847977" HC_normed="1.459989" PMx_normed="0.438490" NOx_normed="9.061007" fuel_normed="10.445822" electricity_normed="0"
            traveltime="0.38" CO_perVeh="9.020575" CO2_perVeh="1147.650331" HC_perVeh="0.068951" PMx_perVeh="0.020708" NOx_perVeh="0.427922" fuel_perVeh="0.493322" electricity_perVeh="0"/>
        <edge id=":103_0" sampledSeconds="434.24" CO_abs="10413.543671" CO2_abs="1314311.437789" HC_abs="79.363114" PMx_abs="23.770527" NOx_abs="490.761215" fuel_abs="564.962245" electricity_abs="0"
            CO_normed="244.076964" CO2_normed="30805.377658" HC_normed="1.860146" PMx_normed="0.557143" NOx_normed="11.502665" fuel_normed="13.241820" electricity_normed="0"
            traveltime="0.37" CO_perVeh="8.946916" CO2_perVeh="1129.205844" HC_perVeh="0.068186" PMx_perVeh="0.020423" NOx_perVeh="0.421643" fuel_perVeh="0.485394" electricity_perVeh="0"/>
        <edge id=":104_0" sampledSeconds="340.77" CO_abs="9029.701887" CO2_abs="1079394.902687" HC_abs="67.387365" PMx_abs="19.831671" NOx_abs="406.635326" fuel_abs="463.982166" electricity_abs="0"
            CO_normed="210.595468" CO2_normed="25174.217009" HC_normed="1.571644" PMx_normed="0.462525" NOx_normed="9.483763" fuel_normed="10.821237" electricity_normed="0"
            traveltime="0.37" CO_perVeh="9.928926" CO2_perVeh="1186.886633" HC_perVeh="0.074098" PMx_perVeh="0.021807" NOx_perVeh="0.447130" fuel_perVeh="0.510188" electricity_perVeh="0"/>
        <edge id=":105_0" sampledSeconds="168.54" CO_abs="3961.336295" CO2_abs="498942.952979" HC_abs="30.187884" PMx_abs="9.033076" NOx_abs="186.380329" fuel_abs="214.472701" electricity_abs="0"
            CO_normed="3397.372466" CO2_normed="427909.908215" HC_normed="25.890124" PMx_normed="7.747063" NOx_normed="159.845909" fuel_normed="183.938852" electricity_normed="0"
            traveltime="0.01" CO_perVeh="0.239550" CO2_perVeh="30.172139" HC_perVeh="0.001826" PMx_perVeh="0.000546" NOx_perVeh="0.011271" fuel_perVeh="0.012970" electricity_perVeh="0"/>
        <edge id=":106_0" sampledSeconds="134.49" CO_abs="3347.853069" CO2_abs="409368.964445" HC_abs="25.180043" PMx_abs="7.467534" NOx_abs="153.627306" fuel_abs="175.968905" electricity_abs="0"
            CO_normed="2037.646421" CO2_normed="249159.442754" HC_normed="15.325650" PMx_normed="4.545061" NOx_normed="93.504142" fuel_normed="107.102194" electricity_normed="0"
            traveltime="0.01" CO_perVeh="0.357953" CO2_perVeh="43.769741" HC_perVeh="0.002692" PMx_perVeh="0.000798" NOx_perVeh="0.016426" fuel_perVeh="0.018815" electricity_perVeh="0"/>
        <edge id=":107_0" sampledSeconds="438.38" CO_abs="11476.000711" CO2_abs="1392631.136926" HC_abs="86.079955" PMx_abs="25.459692" NOx_abs="523.380774" fuel_abs="598.628080" electricity_abs="0"
            CO_normed="265.028538" CO2_normed="32161.639152" HC_normed="1.987944" PMx_normed="0.587970" NOx_normed="12.087037" fuel_normed="13.824810" electricity_normed="0"
            traveltime="0.38" CO_perVeh="9.913779" CO2_perVeh="1203.053014" HC_perVeh="0.074362" PMx_perVeh="0.021994" NOx_perVeh="0.452133" fuel_perVeh="0.517137" electricity_perVeh="0"/>
        <edge id=":108_0" sampledSeconds="93.67" CO_abs="7704.560920" CO2_abs="568782.825491" HC_abs="48.740567" PMx_abs="11.292794" NOx_abs="238.961315" fuel_abs="244.492781" electricity_abs="0"
            CO_normed="120.838798" CO2_normed="8920.824127" HC_normed="0.764450" PMx_normed="0.177117" NOx_normed="3.747884" fuel_normed="3.834640" electricity_normed="0"
            traveltime="0.86" CO_perVeh="70.426738" CO2_perVeh="5199.195563" HC_perVeh="0.445533" PMx_perVeh="0.103226" NOx_perVeh="2.184325" fuel_perVeh="2.234888" electricity_perVeh="0"/>
        <edge id=":108_1" sampledSeconds="402.84" CO_abs="10205.908505" CO2_abs="1216286.891381" HC_abs="76.053821" PMx_abs="22.356337" NOx_abs="458.585508" fuel_abs="522.825704" electricity_abs="0"
            CO_normed="149.274660" CO2_normed="17789.774629" HC_normed="1.112386" PMx_normed="0.326990" NOx_normed="6.707408" fuel_normed="7.647005" electricity_normed="0"
            traveltime="0.60" CO_perVeh="15.161130" CO2_perVeh="1806.824305" HC_perVeh="0.112980" PMx_perVeh="0.033211" NOx_perVeh="0.681240" fuel_perVeh="0.776671" electricity_perVeh="0"/>
        <edge id=":109_0" sampledSeconds="306.28" CO_abs="88.286163" CO2_abs="18402.006479" HC_abs="0.820973" PMx_abs="0.221595" NOx_abs="6.476028" fuel_abs="7.910265" electricity_abs="0"
            CO_normed="1.327312" CO2_normed="276.659498" HC_normed="0.012343" PMx_normed="0.003331" NOx_normed="0.097362" fuel_normed="0.118925" electricity_normed="0"
            traveltime="0.85" CO_perVeh="0.245386" CO2_perVeh="51.147251" HC_perVeh="0.002282" PMx_perVeh="0.000616" NOx_perVeh="0.018000" fuel_perVeh="0.021986" electricity_perVeh="0"/>
        <edge id=":109_1" sampledSeconds="524.08" CO_abs="12735.445853" CO2_abs="1617170.015459" HC_abs="97.240842" PMx_abs="29.192072" NOx_abs="603.129101" fuel_abs="695.147312" electricity_abs="0"
            CO_normed="124.891596" CO2_normed="15858.961435" HC_normed="0.953603" PMx_normed="0.286275" NOx_normed="5.914654" fuel_normed="6.817041" electricity_normed="0"
            traveltime="0.89" CO_perVeh="21.685466" CO2_perVeh="2753.659820" HC_perVeh="0.165578" PMx_perVeh="0.049707" NOx_perVeh="1.026987" fuel_perVeh="1.183672" electricity_perVeh="0"/>
        <edge id=":11_0" sampledSeconds="295.23" CO_abs="17676.535186" CO2_abs="1266858.870975" HC_abs="110.455388" PMx_abs="23.008482" NOx_abs="522.194451" fuel_abs="544.565917" electricity_abs="0"
            CO_normed="182.750428" CO2_normed="13097.532913" HC_normed="1.141953" PMx_normed="0.237875" NOx_normed="5.398754" fuel_normed="5.630043" electricity_normed="0"
            traveltime="1.59" CO_perVeh="95.414601" CO2_perVeh="6838.265127" HC_perVeh="0.596217" PMx_perVeh="0.124195" NOx_perVeh="2.818707" fuel_perVeh="2.939464" electricity_perVeh="0"/>
        <edge id=":11_1" sampledSeconds="50.44" CO_abs="1018.035021" CO2_abs="91443.106110" HC_abs="6.728246" PMx_abs="1.236180" NOx_abs="34.702038" fuel_abs="39.307752" electricity_abs="0"
            CO_normed="10.791128" CO2_normed="969.293048" HC_normed="0.071319" PMx_normed="0.013103" NOx_normed="0.367840" fuel_normed="0.416661" electricity_normed="0"
            traveltime="1.66" CO_perVeh="33.483044" CO2_perVeh="3007.552270" HC_perVeh="0.221291" PMx_perVeh="0.040658" NOx_perVeh="1.141346" fuel_perVeh="1.292827" electricity_perVeh="0"/>
        <edge id=":110_0" sampledSeconds="94.47" CO_abs="0" CO2_abs="0" HC_abs="0" PMx_abs="0" NOx_abs="0" fuel_abs="0" electricity_abs="0"
            CO_normed="0" CO2_normed="0" HC_normed="0" PMx_normed="0" NOx_normed="0" fuel_normed="0" electricity_normed="0"
            traveltime="0.92" CO_perVeh="0" CO2_perVeh="0" HC_perVeh="0" PMx_perVeh="0" NOx_perVeh="0" fuel_perVeh="0" electricity_perVeh="0"/>
        <edge id=":110_1" sampledSeconds="443.54" CO_abs="10984.196494" CO2_abs="1347323.713035" HC_abs="82.755456" PMx_abs="24.564147" NOx_abs="505.344999" fuel_abs="579.152566" electricity_abs="0"
            CO_normed="140.985708" CO2_normed="17293.334784" HC_normed="1.062193" PMx_normed="0.315289" NOx_normed="6.486266" fuel_normed="7.433610" electricity_normed="0"
            traveltime="0.68" CO_perVeh="16.873359" CO2_perVeh="2069.689512" HC_perVeh="0.127125" PMx_perVeh="0.037734" NOx_perVeh="0.776285" fuel_perVeh="0.889664" electricity_perVeh="0"/>
        <edge id=":111_0" sampledSeconds="340.72" CO_abs="8160.500385" CO2_abs="1032118.502251" HC_abs="62.286274" PMx_abs="18.663398" NOx_abs="385.281225" fuel_abs="443.660444" electricity_abs="0"
            CO_normed="188.459860" CO2_normed="23835.904535" HC_normed="1.438449" PMx_normed="0.431015" NOx_normed="8.897744" fuel_normed="10.245963" electricity_normed="0"
            traveltime="0.38" CO_perVeh="9.069131" CO2_perVeh="1147.039661" HC_perVeh="0.069222" PMx_perVeh="0.020741" NOx_perVeh="0.428180" fuel_perVeh="0.493060" electricity_perVeh="0"/>
        <edge id=":114_0" sampledSeconds="106.92" CO_abs="10896.159938" CO2_abs="777584.672977" HC_abs="68.352457" PMx_abs="15.875728" NOx_abs="329.815399" fuel_abs="334.246410" electricity_abs="0"
            CO_normed="144.780228" CO2_normed="10331.978116" HC_normed="0.908218" PMx_normed="0.210945" NOx_normed="4.382347" fuel_normed="4.441223" electricity_normed="0"
            traveltime="0.99" CO_perVeh="100.801636" CO2_perVeh="7193.525754" HC_perVeh="0.632336" PMx_perVeh="0.146868" NOx_perVeh="3.051160" fuel_perVeh="3.092152" electricity_perVeh="0"/>
        <edge id=":114_1" sampledSeconds="415.98" CO_abs="11268.165708" CO2_abs="1349858.433291" HC_abs="84.133042" PMx_abs="24.770135" NOx_abs="508.546236" fuel_abs="580.241984" electricity_abs="0"
            CO_normed="148.780196" CO2_normed="17822.972039" HC_normed="1.110858" PMx_normed="0.327055" NOx_normed="6.714634" fuel_normed="7.661275" electricity_normed="0"
            traveltime="0.66" CO_perVeh="17.955515" CO2_perVeh="2150.962672" HC_perVeh="0.134064" PMx_perVeh="0.039471" NOx_perVeh="0.810355" fuel_perVeh="0.924600" electricity_perVeh="0"/>
        <edge id=":115_0" sampledSeconds="79.87" CO_abs="181.145360" CO2_abs="20223.744710" HC_abs="1.293544" PMx_abs="0.292516" NOx_abs="7.692695" fuel_abs="8.693327" electricity_abs="0"
            CO_normed="4.093218" CO2_normed="456.982142" HC_normed="0.029229" PMx_normed="0.006610" NOx_normed="0.173827" fuel_normed="0.196437" electricity_normed="0"
            traveltime="0.63" CO_perVeh="1.425468" CO2_perVeh="159.144537" HC_perVeh="0.010179" PMx_perVeh="0.002302" NOx_perVeh="0.060535" fuel_perVeh="0.068409" electricity_perVeh="0"/>
        <edge id=":115_1" sampledSeconds="72.13" CO_abs="1049.038267" CO2_abs="163992.586149" HC_abs="8.445587" PMx_abs="2.412307" NOx_abs="60.683207" fuel_abs="70.493180" electricity_abs="0"
            CO_normed="21.169171" CO2_normed="3309.304533" HC_normed="0.170429" PMx_normed="0.048679" NOx_normed="1.224563" fuel_normed="1.422524" electricity_normed="0"
            traveltime="0.59" CO_perVeh="8.588134" CO2_perVeh="1342.553787" HC_perVeh="0.069141" PMx_perVeh="0.019749" NOx_perVeh="0.496794" fuel_perVeh="0.577105" electricity_perVeh="0"/>
        <edge id=":116_0" sampledSeconds="75.03" CO_abs="115.952803" CO2_abs="13496.137974" HC_abs="0.840863" PMx_abs="0.195416" NOx_abs="5.124050" fuel_abs="5.801412" electricity_abs="0"
            CO_normed="2.924851" CO2_normed="340.433306" HC_normed="0.021210" PMx_normed="0.004929" NOx_normed="0.129252" fuel_normed="0.146338" electricity_normed="0"
            traveltime="0.57" CO_perVeh="0.875531" CO2_perVeh="101.905971" HC_perVeh="0.006349" PMx_perVeh="0.001476" NOx_perVeh="0.038690" fuel_perVeh="0.043805" electricity_perVeh="0"/>
        <edge id=":117_0" sampledSeconds="238.46" CO_abs="12954.922621" CO2_abs="1086836.845690" HC_abs="84.808313" PMx_abs="19.773563" NOx_abs="442.452548" fuel_abs="467.181154" electricity_abs="0"
            CO_normed="292.733536" CO2_normed="24558.509676" HC_normed="1.916356" PMx_normed="0.446810" NOx_normed="9.997798" fuel_normed="10.556573" electricity_normed="0"
            traveltime="0.60" CO_perVeh="32.862263" CO2_perVeh="2756.938005" HC_perVeh="0.215130" PMx_perVeh="0.050159" NOx_perVeh="1.122353" fuel_perVeh="1.185081" electricity_perVeh="0"/>
        <edge id=":117_1" sampledSeconds="75.87" CO_abs="4681.239859" CO2_abs="384918.391148" HC_abs="30.481753" PMx_abs="7.080927" NOx_abs="157.348571" fuel_abs="165.458654" electricity_abs="0"
            CO_normed="99.689933" CO2_normed="8197.078052" HC_normed="0.649128" PMx_normed="0.150793" NOx_normed="3.350836" fuel_normed="3.523546" electricity_normed="0"
            traveltime="0.64" CO_perVeh="39.577264" CO2_perVeh="3254.269631" HC_perVeh="0.257706" PMx_perVeh="0.059865" NOx_perVeh="1.330294" fuel_perVeh="1.398860" electricity_perVeh="0"/>
        <edge id=":118_0" sampledSeconds="898.43" CO_abs="12697.189777" CO2_abs="2027138.906718" HC_abs="103.255586" PMx_abs="29.761551" NOx_abs="748.809665" fuel_abs="871.377578" electricity_abs="0"
            CO_normed="38.522209" CO2_normed="6150.169465" HC_normed="0.313269" PMx_normed="0.090294" NOx_normed="2.271826" fuel_normed="2.643687" electricity_normed="0"
            traveltime="3.92" CO_perVeh="55.381263" CO2_perVeh="8841.760655" HC_perVeh="0.450369" PMx_perVeh="0.129811" NOx_perVeh="3.266079" fuel_perVeh="3.800683" electricity_perVeh="0"/>
        <edge id=":118_4" sampledSeconds="283.00" CO_abs="3641.133041" CO2_abs="609899.583079" HC_abs="30.234784" PMx_abs="8.792633" NOx_abs="223.753442" fuel_abs="262.169067" electricity_abs="0"
            CO_normed="11.068249" CO2_normed="1853.961544" HC_normed="0.091907" PMx_normed="0.026728" NOx_normed="0.680162" fuel_normed="0.796937" electricity_normed="0"
            traveltime="3.92" CO_perVeh="50.482054" CO2_perVeh="8455.879936" HC_perVeh="0.419187" PMx_perVeh="0.121904" NOx_perVeh="3.102203" fuel_perVeh="3.634812" electricity_perVeh="0"/>
        <edge id=":118_5" sampledSeconds="238.15" CO_abs="4010.645717" CO2_abs="586532.139166" HC_abs="31.389273" PMx_abs="8.973646" NOx_abs="219.278175" fuel_abs="252.123980" electricity_abs="0"
            CO_normed="12.312490" CO2_normed="1800.625469" HC_normed="0.096364" PMx_normed="0.027549" NOx_normed="0.673173" fuel_normed="0.774008" electricity_normed="0"
            traveltime="3.81" CO_perVeh="64.188211" CO2_perVeh="9387.129060" HC_perVeh="0.502368" PMx_perVeh="0.143618" NOx_perVeh="3.509428" fuel_perVeh="4.035108" electricity_perVeh="0"/>
        <edge id=":119_0" sampledSeconds="139.22" CO_abs="2019.460381" CO2_abs="308468.218868" HC_abs="16.350654" PMx_abs="4.647484" NOx_abs="114.981973" fuel_abs="132.596785" electricity_abs="0"
            CO_normed="43.298893" CO2_normed="6613.812583" HC_normed="0.350571" PMx_normed="0.099646" NOx_normed="2.465308" fuel_normed="2.842984" electricity_normed="0"
            traveltime="0.56" CO_perVeh="8.095875" CO2_perVeh="1236.627522" HC_perVeh="0.065549" PMx_perVeh="0.018631" NOx_perVeh="0.460955" fuel_perVeh="0.531571" electricity_perVeh="0"/>
        <edge id=":12_0" sampledSeconds="600.34" CO_abs="53939.749690" CO2_abs="3055625.321002" HC_abs="318.130473" PMx_abs="59.653510" NOx_abs="1300.671342" fuel_abs="1313.478370" electricity_abs="0"
            CO_normed="505.328265" CO2_normed="28626.270081" HC_normed="2.980368" PMx_normed="0.558857" NOx_normed="12.185188" fuel_normed="12.305169" electricity_normed="0"
            traveltime="2.12" CO_perVeh="190.681522" CO2_perVeh="10801.890821" HC_perVeh="1.124618" PMx_perVeh="0.210880" NOx_perVeh="4.597982" fuel_perVeh="4.643256" electricity_perVeh="0"/>
        <edge id=":12_1" sampledSeconds="56.07" CO_abs="954.895016" CO2_abs="86582.323760" HC_abs="6.311484" PMx_abs="1.076427" NOx_abs="32.259674" fuel_abs="37.218430" electricity_abs="0"
            CO_normed="8.936948" CO2_normed="810.331721" HC_normed="0.059070" PMx_normed="0.010074" NOx_normed="0.301921" fuel_normed="0.348331" electricity_normed="0"
            traveltime="1.89" CO_perVeh="32.200394" CO2_perVeh="2919.676915" HC_perVeh="0.212832" PMx_perVeh="0.036299" NOx_perVeh="1.087841" fuel_perVeh="1.255057" electricity_perVeh="0"/>
        <edge id=":120_0" sampledSeconds="39.06" CO_abs="525.674628" CO2_abs="83866.006032" HC_abs="4.301699" PMx_abs="1.239798" NOx_abs="30.990114" fuel_abs="36.050293" electricity_abs="0"
            CO_normed="413.266217" CO2_normed="65932.394679" HC_normed="3.381839" PMx_normed="0.974684" NOx_normed="24.363298" fuel_normed="28.341425" electricity_normed="0"
            traveltime="0.02" CO_perVeh="0.202264" CO2_perVeh="32.269084" HC_perVeh="0.001655" PMx_perVeh="0.000477" NOx_perVeh="0.011924" fuel_perVeh="0.013871" electricity_perVeh="0"/>
        <edge id=":121_0" sampledSeconds="379.58" CO_abs="53994.125547" CO2_abs="1435956.709510" HC_abs="279.566945" PMx_abs="31.003815" NOx_abs="635.061254" fuel_abs="617.273859" electricity_abs="0"
            CO_normed="30871.426842" CO2_normed="821015.843059" HC_normed="159.843880" PMx_normed="17.726595" NOx_normed="363.099631" fuel_normed="352.929594" electricity_normed="0"
            traveltime="0.12" CO_perVeh="16.525680" CO2_perVeh="439.495242" HC_perVeh="0.085565" PMx_perVeh="0.009489" NOx_perVeh="0.194370" fuel_perVeh="0.188926" electricity_perVeh="0"/>
        <edge id=":122_0" sampledSeconds="134.59" CO_abs="1152.907418" CO2_abs="115941.243508" HC_abs="7.967993" PMx_abs="2.056907" NOx_abs="45.985142" fuel_abs="49.837773" electricity_abs="0"
            CO_normed="25.382696" CO2_normed="2552.591169" HC_normed="0.175425" PMx_normed="0.045285" NOx_normed="1.012420" fuel_normed="1.097241" electricity_normed="0"
            traveltime="0.54" CO_perVeh="4.605890" CO2_perVeh="463.187747" HC_perVeh="0.031832" PMx_perVeh="0.008217" NOx_perVeh="0.183712" fuel_perVeh="0.199103" electricity_perVeh="0"/>
        <edge id=":123_0" sampledSeconds="317.10" CO_abs="40918.878999" CO2_abs="2481839.167134" HC_abs="245.900287" PMx_abs="50.995491" NOx_abs="1065.562764" fuel_abs="1066.827442" electricity_abs="0"
            CO_normed="156.033614" CO2_normed="9463.854910" HC_normed="0.937677" PMx_normed="0.194458" NOx_normed="4.063249" fuel_normed="4.068072" electricity_normed="0"
            traveltime="4.32" CO_perVeh="557.235801" CO2_perVeh="33797.837841" HC_perVeh="3.348685" PMx_perVeh="0.694460" NOx_perVeh="14.510899" fuel_perVeh="14.528121" electricity_perVeh="0"/>
        <edge id=":123_1" sampledSeconds="0.00" CO_abs="0" CO2_abs="0" HC_abs="0" PMx_abs="0" NOx_abs="0" fuel_abs="0" electricity_abs="0"
            CO_normed="0" CO2_normed="0" HC_normed="0" PMx_normed="0" NOx_normed="0" fuel_normed="0" electricity_normed="0"/>
        <edge id=":123_2" sampledSeconds="257.92" CO_abs="34591.858104" CO2_abs="2152910.781652" HC_abs="209.311565" PMx_abs="44.548977" NOx_abs="925.114098" fuel_abs="925.435280" electricity_abs="0"
            CO_normed="133.172122" CO2_normed="8288.299968" HC_normed="0.805810" PMx_normed="0.171505" NOx_normed="3.561515" fuel_normed="3.562751" electricity_normed="0"
            traveltime="4.05" CO_perVeh="543.715032" CO2_perVeh="33839.464481" HC_perVeh="3.289960" PMx_perVeh="0.700221" NOx_perVeh="14.540949" fuel_perVeh="14.545997" electricity_perVeh="0"/>
        <edge id=":123_3" sampledSeconds="469.15" CO_abs="22483.854496" CO2_abs="2132188.723121" HC_abs="152.857277" PMx_abs="39.685748" NOx_abs="854.403184" fuel_abs="916.527838" electricity_abs="0"
            CO_normed="88.564440" CO2_normed="8398.742361" HC_normed="0.602108" PMx_normed="0.156323" NOx_normed="3.365515" fuel_normed="3.610225" electricity_normed="0"
            traveltime="2.81" CO_perVeh="134.574978" CO2_perVeh="12762.013275" HC_perVeh="0.914913" PMx_perVeh="0.237535" NOx_perVeh="5.113949" fuel_perVeh="5.485790" electricity_perVeh="0"/>
        <edge id=":123_5" sampledSeconds="0.00" CO_abs="0" CO2_abs="0" HC_abs="0" PMx_abs="0" NOx_abs="0" fuel_abs="0" electricity_abs="0"
            CO_normed="0" CO2_normed="0" HC_normed="0" PMx_normed="0" NOx_normed="0" fuel_normed="0" electricity_normed="0"/>
        <edge id=":123_6" sampledSeconds="194.75" CO_abs="9039.385524" CO2_abs="885451.782791" HC_abs="61.958632" PMx_abs="16.225566" NOx_abs="352.723533" fuel_abs="380.614311" electricity_abs="0"
            CO_normed="34.392911" CO2_normed="3368.952896" HC_normed="0.235739" PMx_normed="0.061735" NOx_normed="1.342037" fuel_normed="1.448155" electricity_normed="0"
            traveltime="2.91" CO_perVeh="135.233270" CO2_perVeh="13246.756581" HC_perVeh="0.926929" PMx_perVeh="0.242742" NOx_perVeh="5.276903" fuel_perVeh="5.694161" electricity_perVeh="0"/>
        <edge id=":124_0" sampledSeconds="118.62" CO_abs="4117.780429" CO2_abs="373094.348876" HC_abs="27.518097" PMx_abs="7.043039" NOx_abs="150.666720" fuel_abs="160.375684" electricity_abs="0"
            CO_normed="96.394504" CO2_normed="8733.890839" HC_normed="0.644180" PMx_normed="0.164873" NOx_normed="3.527008" fuel_normed="3.754288" electricity_normed="0"
            traveltime="0.46" CO_perVeh="16.024527" CO2_perVeh="1451.913409" HC_perVeh="0.107088" PMx_perVeh="0.027408" NOx_perVeh="0.586326" fuel_perVeh="0.624109" electricity_perVeh="0"/>
        <edge id=":125_0" sampledSeconds="141.19" CO_abs="5365.106076" CO2_abs="546023.441575" HC_abs="37.265354" PMx_abs="10.133042" NOx_abs="215.029827" fuel_abs="234.709899" electricity_abs="0"
            CO_normed="337.428055" CO2_normed="34341.096954" HC_normed="2.343733" PMx_normed="0.637298" NOx_normed="13.523888" fuel_normed="14.761629" electricity_normed="0"
            traveltime="0.16" CO_perVeh="6.144424" CO2_perVeh="625.337020" HC_perVeh="0.042678" PMx_perVeh="0.011605" NOx_perVeh="0.246264" fuel_perVeh="0.268803" electricity_perVeh="0"/>
        <edge id=":125_3" sampledSeconds="0.00" CO_abs="0" CO2_abs="0" HC_abs="0" PMx_abs="0" NOx_abs="0" fuel_abs="0" electricity_abs="0"
            CO_normed="0" CO2_normed="0" HC_normed="0" PMx_normed="0" NOx_normed="0" fuel_normed="0" electricity_normed="0"/>
        <edge id=":126_0" sampledSeconds="27.18" CO_abs="159.698412" CO2_abs="11444.511765" HC_abs="0.992476" PMx_abs="0.180408" NOx_abs="4.547605" fuel_abs="4.919524" electricity_abs="0"
            CO_normed="5.258600" CO2_normed="376.848489" HC_normed="0.032681" PMx_normed="0.005941" NOx_normed="0.149745" fuel_normed="0.161992" electricity_normed="0"
            traveltime="0.57" CO_perVeh="3.331695" CO2_perVeh="238.760179" HC_perVeh="0.020705" PMx_perVeh="0.003764" NOx_perVeh="0.094874" fuel_perVeh="0.102633" electricity_perVeh="0"/>
        <edge id=":126_1" sampledSeconds="80.93" CO_abs="1252.861111" CO2_abs="205182.174929" HC_abs="10.375098" PMx_abs="3.227506" NOx_abs="75.344767" fuel_abs="88.198600" electricity_abs="0"
            CO_normed="36.706349" CO2_normed="6011.431353" HC_normed="0.303970" PMx_normed="0.094560" NOx_normed="2.207452" fuel_normed="2.584044" electricity_normed="0"
            traveltime="0.35" CO_perVeh="5.421345" CO2_perVeh="887.858525" HC_perVeh="0.044895" PMx_perVeh="0.013966" NOx_perVeh="0.326030" fuel_perVeh="0.381650" electricity_perVeh="0"/>
        <edge id=":127_0" sampledSeconds="234.70" CO_abs="4689.481550" CO2_abs="645981.872167" HC_abs="36.205320" PMx_abs="10.782242" NOx_abs="242.040864" fuel_abs="277.678203" electricity_abs="0"
            CO_normed="108.432333" CO2_normed="14936.687758" HC_normed="0.837156" PMx_normed="0.249312" NOx_normed="5.596579" fuel_normed="6.420602" electricity_normed="0"
            traveltime="0.44" CO_perVeh="8.769444" CO2_perVeh="1208.001704" HC_perVeh="0.067705" PMx_perVeh="0.020163" NOx_perVeh="0.452622" fuel_perVeh="0.519265" electricity_perVeh="0"/>
        <edge id=":128_0" sampledSeconds="229.41" CO_abs="226.238460" CO2_abs="43084.982514" HC_abs="1.966184" PMx_abs="0.600018" NOx_abs="15.479308" fuel_abs="18.520364" electricity_abs="0"
            CO_normed="3.496028" CO2_normed="665.785584" HC_normed="0.030383" PMx_normed="0.009272" NOx_normed="0.239199" fuel_normed="0.286192" electricity_normed="0"
            traveltime="0.75" CO_perVeh="0.743725" CO2_perVeh="141.635338" HC_perVeh="0.006464" PMx_perVeh="0.001972" NOx_perVeh="0.050886" fuel_perVeh="0.060883" electricity_perVeh="0"/>
        <edge id=":128_1" sampledSeconds="142.25" CO_abs="252.219488" CO2_abs="30841.593427" HC_abs="1.846263" PMx_abs="0.441008" NOx_abs="11.636157" fuel_abs="13.257478" electricity_abs="0"
            CO_normed="4.026107" CO2_normed="492.315446" HC_normed="0.029471" PMx_normed="0.007040" NOx_normed="0.185745" fuel_normed="0.211625" electricity_normed="0"
            traveltime="0.85" CO_perVeh="1.511912" CO2_perVeh="184.877821" HC_perVeh="0.011067" PMx_perVeh="0.002644" NOx_perVeh="0.069752" fuel_perVeh="0.079471" electricity_perVeh="0"/>
        <edge id=":129_0" sampledSeconds="105.57" CO_abs="5093.809618" CO2_abs="480491.373349" HC_abs="34.544321" PMx_abs="8.809360" NOx_abs="192.842709" fuel_abs="206.540795" electricity_abs="0"
            CO_normed="118.653846" CO2_normed="11192.438233" HC_normed="0.804666" PMx_normed="0.205203" NOx_normed="4.492027" fuel_normed="4.811106" electricity_normed="0"
            traveltime="0.50" CO_perVeh="24.141984" CO2_perVeh="2277.276922" HC_perVeh="0.163722" PMx_perVeh="0.041752" NOx_perVeh="0.913973" fuel_perVeh="0.978895" electricity_perVeh="0"/>
        <edge id=":13_0" sampledSeconds="59.82" CO_abs="5212.875867" CO2_abs="365753.578731" HC_abs="32.497735" PMx_abs="7.210629" NOx_abs="154.203660" fuel_abs="157.220340" electricity_abs="0"
            CO_normed="36.851311" CO2_normed="2585.616680" HC_normed="0.229736" PMx_normed="0.050974" NOx_normed="1.090110" fuel_normed="1.111436" electricity_normed="0"
            traveltime="2.12" CO_perVeh="184.387798" CO2_perVeh="12937.291953" HC_perVeh="1.149497" PMx_perVeh="0.255052" NOx_perVeh="5.454431" fuel_perVeh="5.561136" electricity_perVeh="0"/>
        <edge id=":13_1" sampledSeconds="544.11" CO_abs="12468.205282" CO2_abs="953165.807473" HC_abs="78.569934" PMx_abs="13.287755" NOx_abs="366.802884" fuel_abs="409.728757" electricity_abs="0"
            CO_normed="124.207580" CO2_normed="9495.385701" HC_normed="0.782709" PMx_normed="0.132372" NOx_normed="3.654070" fuel_normed="4.081695" electricity_normed="0"
            traveltime="1.90" CO_perVeh="43.529470" CO2_perVeh="3327.728501" HC_perVeh="0.274306" PMx_perVeh="0.046391" NOx_perVeh="1.280596" fuel_perVeh="1.430461" electricity_perVeh="0"/>
        <edge id=":132_0" sampledSeconds="41.02" CO_abs="570.834054" CO2_abs="88362.196967" HC_abs="4.599701" PMx_abs="1.303830" NOx_abs="32.804112" fuel_abs="37.983006" electricity_abs="0"
            CO_normed="1077.045384" CO2_normed="166721.126354" HC_normed="8.678681" PMx_normed="2.460056" NOx_normed="61.894551" fuel_normed="71.666049" electricity_normed="0"
            traveltime="6.358963e-03" CO_perVeh="0.088495" CO2_perVeh="13.698504" HC_perVeh="0.000713" PMx_perVeh="0.000202" NOx_perVeh="0.005086" fuel_perVeh="0.005888" electricity_perVeh="0"/>
        <edge id=":133_0" sampledSeconds="44.76" CO_abs="615.028375" CO2_abs="84533.671263" HC_abs="4.704783" PMx_abs="1.125688" NOx_abs="31.251099" fuel_abs="36.337474" electricity_abs="0"