<?xml version="1.0" encoding="UTF-8"?>

<!-- generated on ter 01 set 2020 17:21:48 by Eclipse SUMO GUI Version 1.6.0
<configuration xmlns:xsi="http://www.w3.org/2001/XMLSchema-instance" xsi:noNamespaceSchemaLocation="http://sumo.dlr.de/xsd/sumoConfiguration.xsd">

    <input>
        <net-file value="../dataSets/Angeja_Estarreja/angeja_estarreja.net.xml"/>
        <route-files value="../results/angeja_estarreja/length-ttime/solution6/angeja_estarreja.rou.xml"/>
        <additional-files value="moreOutputInfo.xml"/>
    </input>

    <output>
        <emission-output.precision value="6"/>
        <tripinfo-output value="../results/angeja_estarreja/length-ttime/solution6/angeja_estarreja-tripinfo"/>
    </output>

    <processing>
        <collision.action value="warn"/>
        <time-to-teleport value="-1"/>
    </processing>

    <emissions>
        <device.emissions.probability value="1"/>
    </emissions>

    <gui_only>
        <gui-settings-file value="gui-settings.xml"/>
        <quit-on-end value="true"/>
        <start value="true"/>
    </gui_only>

</configuration>
-->

<meandata xmlns:xsi="http://www.w3.org/2001/XMLSchema-instance" xsi:noNamespaceSchemaLocation="http://sumo.dlr.de/xsd/meandata_file.xsd">
    <interval begin="0.00" end="19080.00" id="emissions-detector">
        <edge id=":10_0" sampledSeconds="412.90" CO_abs="41331.625156" CO2_abs="2275665.591820" HC_abs="242.177843" PMx_abs="44.521876" NOx_abs="970.242323" fuel_abs="978.208878" electricity_abs="0"
            CO_normed="445.878779" CO2_normed="24549.506368" HC_normed="2.612575" PMx_normed="0.480295" NOx_normed="10.466815" fuel_normed="10.552757" electricity_normed="0"
            traveltime="1.90" CO_perVeh="190.594172" CO2_perVeh="10493.867555" HC_perVeh="1.116764" PMx_perVeh="0.205306" NOx_perVeh="4.474117" fuel_perVeh="4.510854" electricity_perVeh="0"/>
        <edge id=":10_1" sampledSeconds="0.00" CO_abs="0" CO2_abs="0" HC_abs="0" PMx_abs="0" NOx_abs="0" fuel_abs="0" electricity_abs="0"
            CO_normed="0" CO2_normed="0" HC_normed="0" PMx_normed="0" NOx_normed="0" fuel_normed="0" electricity_normed="0"/>
        <edge id=":100_0" sampledSeconds="0.00" CO_abs="0" CO2_abs="0" HC_abs="0" PMx_abs="0" NOx_abs="0" fuel_abs="0" electricity_abs="0"
            CO_normed="0" CO2_normed="0" HC_normed="0" PMx_normed="0" NOx_normed="0" fuel_normed="0" electricity_normed="0"/>
        <edge id=":100_1" sampledSeconds="911.77" CO_abs="21988.004135" CO2_abs="2768289.759830" HC_abs="167.341524" PMx_abs="50.085537" NOx_abs="1034.147274" fuel_abs="1189.960852" electricity_abs="0"
            CO_normed="140.347768" CO2_normed="17669.784256" HC_normed="1.068128" PMx_normed="0.319692" NOx_normed="6.600884" fuel_normed="7.595430" electricity_normed="0"
            traveltime="1.37" CO_perVeh="33.064772" CO2_perVeh="4162.854897" HC_perVeh="0.251642" PMx_perVeh="0.075317" NOx_perVeh="1.555114" fuel_perVeh="1.789420" electricity_perVeh="0"/>
        <edge id=":101_0" sampledSeconds="438.01" CO_abs="11688.347092" CO2_abs="1394174.176093" HC_abs="87.139421" PMx_abs="25.624806" NOx_abs="525.502906" fuel_abs="599.291263" electricity_abs="0"
            CO_normed="269.932498" CO2_normed="32197.274338" HC_normed="2.012411" PMx_normed="0.591783" NOx_normed="12.136045" fuel_normed="13.840125" electricity_normed="0"
            traveltime="0.38" CO_perVeh="10.097214" CO2_perVeh="1204.385438" HC_perVeh="0.075277" PMx_perVeh="0.022137" NOx_perVeh="0.453966" fuel_perVeh="0.517710" electricity_perVeh="0"/>
        <edge id=":102_0" sampledSeconds="341.46" CO_abs="7954.310339" CO2_abs="1010341.632065" HC_abs="60.663956" PMx_abs="18.224879" NOx_abs="376.682737" fuel_abs="434.299595" electricity_abs="0"
            CO_normed="185.285589" CO2_normed="23534.629212" HC_normed="1.413090" PMx_normed="0.424525" NOx_normed="8.774347" fuel_normed="10.116459" electricity_normed="0"
            traveltime="0.38" CO_perVeh="8.750440" CO2_perVeh="1111.464530" HC_perVeh="0.066736" PMx_perVeh="0.020049" NOx_perVeh="0.414384" fuel_perVeh="0.477768" electricity_perVeh="0"/>
        <edge id=":103_0" sampledSeconds="434.05" CO_abs="10685.011060" CO2_abs="1320589.082532" HC_abs="80.783898" PMx_abs="24.030761" NOx_abs="494.781783" fuel_abs="567.660611" electricity_abs="0"
            CO_normed="250.439730" CO2_normed="30952.515704" HC_normed="1.893447" PMx_normed="0.563243" NOx_normed="11.596901" fuel_normed="13.305065" electricity_normed="0"
            traveltime="0.37" CO_perVeh="9.180158" CO2_perVeh="1134.600233" HC_perVeh="0.069406" PMx_perVeh="0.020646" NOx_perVeh="0.425098" fuel_perVeh="0.487713" electricity_perVeh="0"/>
        <edge id=":104_0" sampledSeconds="340.85" CO_abs="8639.445560" CO2_abs="1070346.135823" HC_abs="65.316160" PMx_abs="19.453415" NOx_abs="400.794139" fuel_abs="460.092672" electricity_abs="0"
            CO_normed="201.493704" CO2_normed="24963.176897" HC_normed="1.523338" PMx_normed="0.453703" NOx_normed="9.347532" fuel_normed="10.730524" electricity_normed="0"
            traveltime="0.37" CO_perVeh="9.499806" CO2_perVeh="1176.936743" HC_perVeh="0.071821" PMx_perVeh="0.021391" NOx_perVeh="0.440707" fuel_perVeh="0.505911" electricity_perVeh="0"/>
        <edge id=":105_0" sampledSeconds="168.61" CO_abs="4147.625794" CO2_abs="516290.327759" HC_abs="31.440514" PMx_abs="9.374478" NOx_abs="193.216745" fuel_abs="221.929520" electricity_abs="0"
            CO_normed="3557.140475" CO2_normed="442787.588130" HC_normed="26.964420" PMx_normed="8.039861" NOx_normed="165.709043" fuel_normed="190.334065" electricity_normed="0"
            traveltime="0.01" CO_perVeh="0.250816" CO2_perVeh="31.221172" HC_perVeh="0.001901" PMx_perVeh="0.000567" NOx_perVeh="0.011684" fuel_perVeh="0.013421" electricity_perVeh="0"/>
        <edge id=":106_0" sampledSeconds="134.61" CO_abs="3201.164888" CO2_abs="393118.811968" HC_abs="24.121246" PMx_abs="7.161730" NOx_abs="147.465009" fuel_abs="168.983715" electricity_abs="0"
            CO_normed="1948.365726" CO2_normed="239268.905641" HC_normed="14.681221" PMx_normed="4.358935" NOx_normed="89.753505" fuel_normed="102.850709" electricity_normed="0"
            traveltime="0.01" CO_perVeh="0.342267" CO2_perVeh="42.032032" HC_perVeh="0.002579" PMx_perVeh="0.000766" NOx_perVeh="0.015767" fuel_perVeh="0.018068" electricity_perVeh="0"/>
        <edge id=":107_0" sampledSeconds="438.60" CO_abs="10690.376472" CO2_abs="1362971.926438" HC_abs="81.797760" PMx_abs="24.577720" NOx_abs="508.147422" fuel_abs="585.879209" electricity_abs="0"
            CO_normed="246.885210" CO2_normed="31476.684752" HC_normed="1.889050" PMx_normed="0.567602" NOx_normed="11.735235" fuel_normed="13.530385" electricity_normed="0"
            traveltime="0.38" CO_perVeh="9.235097" CO2_perVeh="1177.430746" HC_perVeh="0.070663" PMx_perVeh="0.021232" NOx_perVeh="0.438973" fuel_perVeh="0.506124" electricity_perVeh="0"/>
        <edge id=":108_0" sampledSeconds="92.71" CO_abs="7875.111335" CO2_abs="586827.104070" HC_abs="49.915727" PMx_abs="11.569849" NOx_abs="245.878051" fuel_abs="252.249232" electricity_abs="0"
            CO_normed="123.513721" CO2_normed="9203.831680" HC_normed="0.782881" PMx_normed="0.181462" NOx_normed="3.856366" fuel_normed="3.956292" electricity_normed="0"
            traveltime="0.85" CO_perVeh="72.354198" CO2_perVeh="5391.594178" HC_perVeh="0.458611" PMx_perVeh="0.106300" NOx_perVeh="2.259055" fuel_perVeh="2.317591" electricity_perVeh="0"/>
        <edge id=":108_1" sampledSeconds="403.01" CO_abs="9371.263574" CO2_abs="1189933.907016" HC_abs="71.568302" PMx_abs="21.478142" NOx_abs="443.928404" fuel_abs="511.498070" electricity_abs="0"
            CO_normed="137.066894" CO2_normed="17404.328024" HC_normed="1.046779" PMx_normed="0.314146" NOx_normed="6.493029" fuel_normed="7.481323" electricity_normed="0"
            traveltime="0.60" CO_perVeh="13.921244" CO2_perVeh="1767.676294" HC_perVeh="0.106316" PMx_perVeh="0.031906" NOx_perVeh="0.659467" fuel_perVeh="0.759843" electricity_perVeh="0"/>
        <edge id=":109_0" sampledSeconds="307.71" CO_abs="150.437585" CO2_abs="21432.328336" HC_abs="1.165493" PMx_abs="0.288135" NOx_abs="7.800396" fuel_abs="9.212862" electricity_abs="0"
            CO_normed="2.261709" CO2_normed="322.217971" HC_normed="0.017522" PMx_normed="0.004332" NOx_normed="0.117273" fuel_normed="0.138508" electricity_normed="0"
            traveltime="0.86" CO_perVeh="0.418132" CO2_perVeh="59.569878" HC_perVeh="0.003239" PMx_perVeh="0.000801" NOx_perVeh="0.021681" fuel_perVeh="0.025607" electricity_perVeh="0"/>
        <edge id=":109_1" sampledSeconds="524.50" CO_abs="11827.985389" CO2_abs="1472778.010345" HC_abs="89.555111" PMx_abs="26.719464" NOx_abs="551.058580" fuel_abs="633.079690" electricity_abs="0"
            CO_normed="115.992482" CO2_normed="14442.964837" HC_normed="0.878232" PMx_normed="0.262027" NOx_normed="5.404019" fuel_normed="6.208368" electricity_normed="0"
            traveltime="0.89" CO_perVeh="20.140242" CO2_perVeh="2507.790217" HC_perVeh="0.152491" PMx_perVeh="0.045497" NOx_perVeh="0.938322" fuel_perVeh="1.077984" electricity_perVeh="0"/>
        <edge id=":11_0" sampledSeconds="295.37" CO_abs="18087.549614" CO2_abs="1315975.841350" HC_abs="113.406438" PMx_abs="23.412772" NOx_abs="539.061130" fuel_abs="565.679638" electricity_abs="0"
            CO_normed="186.999738" CO2_normed="13605.333072" HC_normed="1.172463" PMx_normed="0.242055" NOx_normed="5.573131" fuel_normed="5.848329" electricity_normed="0"
            traveltime="1.59" CO_perVeh="97.633180" CO2_perVeh="7103.389265" HC_perVeh="0.612147" PMx_perVeh="0.126378" NOx_perVeh="2.909750" fuel_perVeh="3.053432" electricity_perVeh="0"/>
        <edge id=":11_1" sampledSeconds="50.60" CO_abs="1059.771460" CO2_abs="92438.551628" HC_abs="6.926695" PMx_abs="1.184101" NOx_abs="34.709019" fuel_abs="39.735775" electricity_abs="0"
            CO_normed="11.233533" CO2_normed="979.844728" HC_normed="0.073423" PMx_normed="0.012551" NOx_normed="0.367914" fuel_normed="0.421198" electricity_normed="0"
            traveltime="1.67" CO_perVeh="35.028018" CO2_perVeh="3055.318384" HC_perVeh="0.228944" PMx_perVeh="0.039137" NOx_perVeh="1.147217" fuel_perVeh="1.313364" electricity_perVeh="0"/>
        <edge id=":110_0" sampledSeconds="94.80" CO_abs="0" CO2_abs="0" HC_abs="0" PMx_abs="0" NOx_abs="0" fuel_abs="0" electricity_abs="0"
            CO_normed="0" CO2_normed="0" HC_normed="0" PMx_normed="0" NOx_normed="0" fuel_normed="0" electricity_normed="0"
            traveltime="0.93" CO_perVeh="0" CO2_perVeh="0" HC_perVeh="0" PMx_perVeh="0" NOx_perVeh="0" fuel_perVeh="0" electricity_perVeh="0"/>
        <edge id=":110_1" sampledSeconds="443.89" CO_abs="10792.718239" CO2_abs="1295969.984977" HC_abs="80.744817" PMx_abs="23.786507" NOx_abs="487.994189" fuel_abs="557.077836" electricity_abs="0"
            CO_normed="138.528023" CO2_normed="16634.193107" HC_normed="1.036386" PMx_normed="0.305307" NOx_normed="6.263563" fuel_normed="7.150274" electricity_normed="0"
            traveltime="0.68" CO_perVeh="16.579210" CO2_perVeh="1990.801427" HC_perVeh="0.124036" PMx_perVeh="0.036540" NOx_perVeh="0.749631" fuel_perVeh="0.855754" electricity_perVeh="0"/>
        <edge id=":111_0" sampledSeconds="341.02" CO_abs="7982.680577" CO2_abs="1060914.537446" HC_abs="62.096370" PMx_abs="18.907751" NOx_abs="393.065334" fuel_abs="456.038727" electricity_abs="0"
            CO_normed="184.353262" CO2_normed="24500.924631" HC_normed="1.434063" PMx_normed="0.436659" NOx_normed="9.077512" fuel_normed="10.531829" electricity_normed="0"
            traveltime="0.38" CO_perVeh="8.871537" CO2_perVeh="1179.045417" HC_perVeh="0.069011" PMx_perVeh="0.021013" NOx_perVeh="0.436832" fuel_perVeh="0.506818" electricity_perVeh="0"/>
        <edge id=":114_0" sampledSeconds="106.60" CO_abs="11150.221357" CO2_abs="787693.956456" HC_abs="69.766452" PMx_abs="16.189414" NOx_abs="334.957372" fuel_abs="338.591822" electricity_abs="0"
            CO_normed="148.156011" CO2_normed="10466.302903" HC_normed="0.927006" PMx_normed="0.215113" NOx_normed="4.450669" fuel_normed="4.498961" electricity_normed="0"
            traveltime="0.99" CO_perVeh="103.151988" CO2_perVeh="7287.047905" HC_perVeh="0.645418" PMx_perVeh="0.149770" NOx_perVeh="3.098729" fuel_perVeh="3.132352" electricity_perVeh="0"/>
        <edge id=":114_1" sampledSeconds="416.22" CO_abs="10067.855149" CO2_abs="1268599.018327" HC_abs="76.595409" PMx_abs="22.930167" NOx_abs="473.969267" fuel_abs="545.312554" electricity_abs="0"
            CO_normed="132.931792" CO2_normed="16750.056357" HC_normed="1.011334" PMx_normed="0.302760" NOx_normed="6.258094" fuel_normed="7.200081" electricity_normed="0"
            traveltime="0.66" CO_perVeh="16.042843" CO2_perVeh="2021.476740" HC_perVeh="0.122053" PMx_perVeh="0.036539" NOx_perVeh="0.755257" fuel_perVeh="0.868940" electricity_perVeh="0"/>
        <edge id=":115_0" sampledSeconds="80.08" CO_abs="53.860498" CO2_abs="9622.429625" HC_abs="0.464379" PMx_abs="0.110971" NOx_abs="3.424012" fuel_abs="4.136294" electricity_abs="0"
            CO_normed="1.217049" CO2_normed="217.431468" HC_normed="0.010493" PMx_normed="0.002508" NOx_normed="0.077370" fuel_normed="0.093465" electricity_normed="0"
            traveltime="0.63" CO_perVeh="0.423839" CO2_perVeh="75.720750" HC_perVeh="0.003654" PMx_perVeh="0.000873" NOx_perVeh="0.026944" fuel_perVeh="0.032549" electricity_perVeh="0"/>
        <edge id=":115_1" sampledSeconds="72.17" CO_abs="1021.776908" CO2_abs="177678.224472" HC_abs="8.565673" PMx_abs="2.546150" NOx_abs="64.954387" fuel_abs="76.376063" electricity_abs="0"
            CO_normed="20.619048" CO2_normed="3585.475219" HC_normed="0.172852" PMx_normed="0.051380" NOx_normed="1.310753" fuel_normed="1.541238" electricity_normed="0"
            traveltime="0.59" CO_perVeh="8.364954" CO2_perVeh="1454.593642" HC_perVeh="0.070124" PMx_perVeh="0.020844" NOx_perVeh="0.531760" fuel_perVeh="0.625266" electricity_perVeh="0"/>
        <edge id=":116_0" sampledSeconds="75.30" CO_abs="127.709499" CO2_abs="18115.082268" HC_abs="0.985894" PMx_abs="0.231742" NOx_abs="6.635023" fuel_abs="7.786923" electricity_abs="0"
            CO_normed="3.221408" CO2_normed="456.943857" HC_normed="0.024869" PMx_normed="0.005846" NOx_normed="0.167365" fuel_normed="0.196421" electricity_normed="0"
            traveltime="0.57" CO_perVeh="0.964303" CO2_perVeh="136.782467" HC_perVeh="0.007444" PMx_perVeh="0.001750" NOx_perVeh="0.050099" fuel_perVeh="0.058797" electricity_perVeh="0"/>
        <edge id=":117_0" sampledSeconds="241.55" CO_abs="13305.034402" CO2_abs="1122494.885120" HC_abs="87.269495" PMx_abs="20.438096" NOx_abs="456.877880" fuel_abs="482.508839" electricity_abs="0"
            CO_normed="300.644772" CO2_normed="25364.250031" HC_normed="1.971969" PMx_normed="0.461826" NOx_normed="10.323757" fuel_normed="10.902923" electricity_normed="0"
            traveltime="0.60" CO_perVeh="33.298182" CO2_perVeh="2809.240344" HC_perVeh="0.218407" PMx_perVeh="0.051150" NOx_perVeh="1.143417" fuel_perVeh="1.207563" electricity_perVeh="0"/>
        <edge id=":117_1" sampledSeconds="75.60" CO_abs="4665.224040" CO2_abs="387672.414769" HC_abs="30.457592" PMx_abs="7.135346" NOx_abs="158.364489" fuel_abs="166.642444" electricity_abs="0"
            CO_normed="99.348866" CO2_normed="8255.726708" HC_normed="0.648613" PMx_normed="0.151952" NOx_normed="3.372471" fuel_normed="3.548755" electricity_normed="0"
            traveltime="0.64" CO_perVeh="39.441859" CO2_perVeh="3277.553360" HC_perVeh="0.257502" PMx_perVeh="0.060325" NOx_perVeh="1.338883" fuel_perVeh="1.408869" electricity_perVeh="0"/>
        <edge id=":118_0" sampledSeconds="897.43" CO_abs="12449.368688" CO2_abs="1951124.532255" HC_abs="100.474600" PMx_abs="28.819711" NOx_abs="722.292495" fuel_abs="838.702242" electricity_abs="0"
            CO_normed="37.770341" CO2_normed="5919.548226" HC_normed="0.304832" PMx_normed="0.087437" NOx_normed="2.191375" fuel_normed="2.544552" electricity_normed="0"
            traveltime="3.92" CO_perVeh="54.314174" CO2_perVeh="8512.376824" HC_perVeh="0.438351" PMx_perVeh="0.125735" NOx_perVeh="3.151222" fuel_perVeh="3.659095" electricity_perVeh="0"/>
        <edge id=":118_4" sampledSeconds="283.86" CO_abs="3599.847879" CO2_abs="601253.758434" HC_abs="29.642181" PMx_abs="8.538490" NOx_abs="219.836903" fuel_abs="258.452769" electricity_abs="0"
            CO_normed="10.942751" CO2_normed="1827.680125" HC_normed="0.090106" PMx_normed="0.025955" NOx_normed="0.668256" fuel_normed="0.785640" electricity_normed="0"
            traveltime="3.94" CO_perVeh="49.909661" CO2_perVeh="8336.010933" HC_perVeh="0.410970" PMx_perVeh="0.118381" NOx_perVeh="3.047902" fuel_perVeh="3.583288" electricity_perVeh="0"/>
        <edge id=":118_5" sampledSeconds="238.07" CO_abs="3720.026734" CO2_abs="578873.205554" HC_abs="29.640369" PMx_abs="8.637991" NOx_abs="214.477991" fuel_abs="248.831888" electricity_abs="0"
            CO_normed="11.420303" CO2_normed="1777.112911" HC_normed="0.090995" PMx_normed="0.026518" NOx_normed="0.658437" fuel_normed="0.763902" electricity_normed="0"
            traveltime="3.81" CO_perVeh="59.537012" CO2_perVeh="9264.551978" HC_perVeh="0.474378" PMx_perVeh="0.138246" NOx_perVeh="3.432604" fuel_perVeh="3.982420" electricity_perVeh="0"/>
        <edge id=":119_0" sampledSeconds="138.67" CO_abs="2115.299523" CO2_abs="331356.401011" HC_abs="17.055458" PMx_abs="4.916287" NOx_abs="122.817209" fuel_abs="142.435442" electricity_abs="0"
            CO_normed="45.353763" CO2_normed="7104.554053" HC_normed="0.365683" PMx_normed="0.105409" NOx_normed="2.633302" fuel_normed="3.053933" electricity_normed="0"
            traveltime="0.56" CO_perVeh="8.480114" CO2_perVeh="1328.388743" HC_perVeh="0.068374" PMx_perVeh="0.019709" NOx_perVeh="0.492367" fuel_perVeh="0.571015" electricity_perVeh="0"/>
        <edge id=":12_0" sampledSeconds="590.73" CO_abs="55428.262341" CO2_abs="3134999.831132" HC_abs="326.833439" PMx_abs="61.431540" NOx_abs="1335.940136" fuel_abs="1347.597691" electricity_abs="0"
            CO_normed="519.273223" CO2_normed="29369.880938" HC_normed="3.061901" PMx_normed="0.575514" NOx_normed="12.515600" fuel_normed="12.624812" electricity_normed="0"
            traveltime="2.13" CO_perVeh="199.445120" CO2_perVeh="11280.534348" HC_perVeh="1.176031" PMx_perVeh="0.221046" NOx_perVeh="4.807056" fuel_perVeh="4.849003" electricity_perVeh="0"/>
        <edge id=":12_1" sampledSeconds="56.11" CO_abs="1091.454645" CO2_abs="95695.868332" HC_abs="7.152447" PMx_abs="1.262714" NOx_abs="36.160035" fuel_abs="41.135910" electricity_abs="0"
            CO_normed="10.215022" CO2_normed="895.626201" HC_normed="0.066940" PMx_normed="0.011818" NOx_normed="0.338425" fuel_normed="0.384995" electricity_normed="0"
            traveltime="1.89" CO_perVeh="36.805375" CO2_perVeh="3226.998370" HC_perVeh="0.241191" PMx_perVeh="0.042580" NOx_perVeh="1.219367" fuel_perVeh="1.387160" electricity_perVeh="0"/>
        <edge id=":120_0" sampledSeconds="39.11" CO_abs="468.330420" CO2_abs="76112.203537" HC_abs="3.804651" PMx_abs="1.105232" NOx_abs="27.950864" fuel_abs="32.717292" electricity_abs="0"
            CO_normed="368.184292" CO2_normed="59836.638001" HC_normed="2.991078" PMx_normed="0.868893" NOx_normed="21.973950" fuel_normed="25.721142" electricity_normed="0"
            traveltime="0.02" CO_perVeh="0.180199" CO2_perVeh="29.285657" HC_perVeh="0.001464" PMx_perVeh="0.000425" NOx_perVeh="0.010755" fuel_perVeh="0.012589" electricity_perVeh="0"/>
        <edge id=":121_0" sampledSeconds="374.26" CO_abs="53196.588645" CO2_abs="1428132.815596" HC_abs="275.759208" PMx_abs="30.799789" NOx_abs="631.449677" fuel_abs="613.910222" electricity_abs="0"
            CO_normed="30415.430901" CO2_normed="816542.490335" HC_normed="157.666785" PMx_normed="17.609942" NOx_normed="361.034692" fuel_normed="351.006416" electricity_normed="0"
            traveltime="0.11" CO_perVeh="16.223868" CO2_perVeh="435.551208" HC_perVeh="0.084101" PMx_perVeh="0.009393" NOx_perVeh="0.192579" fuel_perVeh="0.187230" electricity_perVeh="0"/>
        <edge id=":122_0" sampledSeconds="134.57" CO_abs="1216.818740" CO2_abs="121595.631779" HC_abs="8.405619" PMx_abs="2.178929" NOx_abs="48.325813" fuel_abs="52.268312" electricity_abs="0"
            CO_normed="26.789783" CO2_normed="2677.079584" HC_normed="0.185060" PMx_normed="0.047972" NOx_normed="1.063953" fuel_normed="1.150752" electricity_normed="0"
            traveltime="0.54" CO_perVeh="4.847666" CO2_perVeh="484.423050" HC_perVeh="0.033487" PMx_perVeh="0.008681" NOx_perVeh="0.192524" fuel_perVeh="0.208231" electricity_perVeh="0"/>
        <edge id=":123_0" sampledSeconds="311.84" CO_abs="40888.692859" CO2_abs="2498436.704008" HC_abs="246.217523" PMx_abs="51.493604" NOx_abs="1073.415243" fuel_abs="1073.961485" electricity_abs="0"
            CO_normed="155.918507" CO2_normed="9527.145346" HC_normed="0.938887" PMx_normed="0.196358" NOx_normed="4.093193" fuel_normed="4.095276" electricity_normed="0"
            traveltime="4.25" CO_perVeh="556.824725" CO2_perVeh="34023.864115" HC_perVeh="3.353005" PMx_perVeh="0.701243" NOx_perVeh="14.617835" fuel_perVeh="14.625273" electricity_perVeh="0"/>
        <edge id=":123_1" sampledSeconds="0.00" CO_abs="0" CO2_abs="0" HC_abs="0" PMx_abs="0" NOx_abs="0" fuel_abs="0" electricity_abs="0"
            CO_normed="0" CO2_normed="0" HC_normed="0" PMx_normed="0" NOx_normed="0" fuel_normed="0" electricity_normed="0"/>
        <edge id=":123_2" sampledSeconds="264.89" CO_abs="35462.715961" CO2_abs="2173660.325177" HC_abs="213.732383" PMx_abs="44.950584" NOx_abs="934.703805" fuel_abs="934.354947" electricity_abs="0"
            CO_normed="136.524760" CO2_normed="8368.181793" HC_normed="0.822829" PMx_normed="0.173051" NOx_normed="3.598433" fuel_normed="3.597090" electricity_normed="0"
            traveltime="4.16" CO_perVeh="557.403181" CO2_perVeh="34165.605930" HC_perVeh="3.359447" PMx_perVeh="0.706534" NOx_perVeh="14.691680" fuel_perVeh="14.686197" electricity_perVeh="0"/>
        <edge id=":123_3" sampledSeconds="469.01" CO_abs="22590.488708" CO2_abs="2152310.963642" HC_abs="153.664047" PMx_abs="39.913514" NOx_abs="861.325095" fuel_abs="925.177574" electricity_abs="0"
            CO_normed="88.984475" CO2_normed="8478.004347" HC_normed="0.605286" PMx_normed="0.157220" NOx_normed="3.392780" fuel_normed="3.644297" electricity_normed="0"
            traveltime="2.81" CO_perVeh="135.213227" CO2_perVeh="12882.453036" HC_perVeh="0.919742" PMx_perVeh="0.238899" NOx_perVeh="5.155380" fuel_perVeh="5.537563" electricity_perVeh="0"/>
        <edge id=":123_5" sampledSeconds="0.00" CO_abs="0" CO2_abs="0" HC_abs="0" PMx_abs="0" NOx_abs="0" fuel_abs="0" electricity_abs="0"
            CO_normed="0" CO2_normed="0" HC_normed="0" PMx_normed="0" NOx_normed="0" fuel_normed="0" electricity_normed="0"/>
        <edge id=":123_6" sampledSeconds="194.69" CO_abs="9178.551222" CO2_abs="883122.806247" HC_abs="62.616293" PMx_abs="16.298862" NOx_abs="352.892691" fuel_abs="379.613132" electricity_abs="0"
            CO_normed="34.922406" CO2_normed="3360.091643" HC_normed="0.238241" PMx_normed="0.062014" NOx_normed="1.342681" fuel_normed="1.444346" electricity_normed="0"
            traveltime="2.91" CO_perVeh="137.315251" CO2_perVeh="13211.914045" HC_perVeh="0.936768" PMx_perVeh="0.243838" NOx_perVeh="5.279433" fuel_perVeh="5.679183" electricity_perVeh="0"/>
        <edge id=":124_0" sampledSeconds="118.86" CO_abs="4312.806883" CO2_abs="385624.873222" HC_abs="28.698256" PMx_abs="7.347433" NOx_abs="156.014944" fuel_abs="165.761924" electricity_abs="0"
            CO_normed="100.959944" CO2_normed="9027.222090" HC_normed="0.671807" PMx_normed="0.171999" NOx_normed="3.652206" fuel_normed="3.880377" electricity_normed="0"
            traveltime="0.46" CO_perVeh="16.756251" CO2_perVeh="1498.241692" HC_perVeh="0.111499" PMx_perVeh="0.028546" NOx_perVeh="0.606154" fuel_perVeh="0.644023" electricity_perVeh="0"/>
        <edge id=":125_0" sampledSeconds="141.00" CO_abs="5874.019064" CO2_abs="594083.831829" HC_abs="40.789484" PMx_abs="11.056095" NOx_abs="234.422519" fuel_abs="255.368780" electricity_abs="0"
            CO_normed="369.435161" CO2_normed="37363.763008" HC_normed="2.565376" PMx_normed="0.695352" NOx_normed="14.743555" fuel_normed="16.060930" electricity_normed="0"
            traveltime="0.16" CO_perVeh="6.727260" CO2_perVeh="680.378506" HC_perVeh="0.046714" PMx_perVeh="0.012662" NOx_perVeh="0.268474" fuel_perVeh="0.292463" electricity_perVeh="0"/>
        <edge id=":125_3" sampledSeconds="0.00" CO_abs="0" CO2_abs="0" HC_abs="0" PMx_abs="0" NOx_abs="0" fuel_abs="0" electricity_abs="0"
            CO_normed="0" CO2_normed="0" HC_normed="0" PMx_normed="0" NOx_normed="0" fuel_normed="0" electricity_normed="0"/>
        <edge id=":126_0" sampledSeconds="27.32" CO_abs="271.719445" CO2_abs="20077.892840" HC_abs="1.702208" PMx_abs="0.311771" NOx_abs="7.936230" fuel_abs="8.630661" electricity_abs="0"
            CO_normed="8.947263" CO2_normed="661.131181" HC_normed="0.056051" PMx_normed="0.010266" NOx_normed="0.261327" fuel_normed="0.284193" electricity_normed="0"
            traveltime="0.56" CO_perVeh="5.568637" CO2_perVeh="411.477691" HC_perVeh="0.034885" PMx_perVeh="0.006389" NOx_perVeh="0.162646" fuel_perVeh="0.176877" electricity_perVeh="0"/>
        <edge id=":126_1" sampledSeconds="80.76" CO_abs="1352.383081" CO2_abs="192061.647476" HC_abs="10.559908" PMx_abs="3.168586" NOx_abs="71.767418" fuel_abs="82.558575" electricity_abs="0"
            CO_normed="39.622146" CO2_normed="5627.025884" HC_normed="0.309384" PMx_normed="0.092833" NOx_normed="2.102643" fuel_normed="2.418803" electricity_normed="0"
            traveltime="0.35" CO_perVeh="5.851994" CO2_perVeh="831.083748" HC_perVeh="0.045695" PMx_perVeh="0.013711" NOx_perVeh="0.310550" fuel_perVeh="0.357245" electricity_perVeh="0"/>
        <edge id=":127_0" sampledSeconds="234.56" CO_abs="4777.176900" CO2_abs="645932.687703" HC_abs="36.621411" PMx_abs="10.853813" NOx_abs="242.712728" fuel_abs="277.657004" electricity_abs="0"
            CO_normed="110.460065" CO2_normed="14935.550493" HC_normed="0.846777" PMx_normed="0.250967" NOx_normed="5.612115" fuel_normed="6.420112" electricity_normed="0"
            traveltime="0.44" CO_perVeh="8.933436" CO2_perVeh="1207.909728" HC_perVeh="0.068483" PMx_perVeh="0.020297" NOx_perVeh="0.453879" fuel_perVeh="0.519225" electricity_perVeh="0"/>
        <edge id=":128_0" sampledSeconds="229.49" CO_abs="248.880157" CO2_abs="38376.808217" HC_abs="1.993046" PMx_abs="0.582346" NOx_abs="14.186705" fuel_abs="16.496486" electricity_abs="0"
            CO_normed="3.845907" CO2_normed="593.030894" HC_normed="0.030798" PMx_normed="0.008999" NOx_normed="0.219225" fuel_normed="0.254918" electricity_normed="0"
            traveltime="0.75" CO_perVeh="0.818160" CO2_perVeh="126.158538" HC_perVeh="0.006552" PMx_perVeh="0.001914" NOx_perVeh="0.046637" fuel_perVeh="0.054230" electricity_perVeh="0"/>
        <edge id=":128_1" sampledSeconds="142.02" CO_abs="133.540875" CO2_abs="20513.524569" HC_abs="1.076384" PMx_abs="0.247938" NOx_abs="7.419243" fuel_abs="8.817930" electricity_abs="0"
            CO_normed="2.131674" CO2_normed="327.451466" HC_normed="0.017182" PMx_normed="0.003958" NOx_normed="0.118431" fuel_normed="0.140758" electricity_normed="0"
            traveltime="0.85" CO_perVeh="0.800502" CO2_perVeh="122.966919" HC_perVeh="0.006452" PMx_perVeh="0.001486" NOx_perVeh="0.044474" fuel_perVeh="0.052858" electricity_perVeh="0"/>
        <edge id=":129_0" sampledSeconds="104.69" CO_abs="6176.925002" CO2_abs="524517.790261" HC_abs="40.589780" PMx_abs="10.162281" NOx_abs="214.923869" fuel_abs="225.465296" electricity_abs="0"
            CO_normed="143.883648" CO2_normed="12217.977877" HC_normed="0.945488" PMx_normed="0.236717" NOx_normed="5.006379" fuel_normed="5.251929" electricity_normed="0"
            traveltime="0.50" CO_perVeh="29.275383" CO2_perVeh="2485.939031" HC_perVeh="0.192374" PMx_perVeh="0.048164" NOx_perVeh="1.018626" fuel_perVeh="1.068587" electricity_perVeh="0"/>
        <edge id=":13_0" sampledSeconds="59.78" CO_abs="5297.129651" CO2_abs="377572.506734" HC_abs="33.145402" PMx_abs="7.323731" NOx_abs="158.314138" fuel_abs="162.300865" electricity_abs="0"
            CO_normed="37.446925" CO2_normed="2669.168063" HC_normed="0.234314" PMx_normed="0.051774" NOx_normed="1.119168" fuel_normed="1.147351" electricity_normed="0"
            traveltime="2.11" CO_perVeh="187.367990" CO2_perVeh="13355.346433" HC_perVeh="1.172406" PMx_perVeh="0.259052" NOx_perVeh="5.599826" fuel_perVeh="5.740842" electricity_perVeh="0"/>
        <edge id=":13_1" sampledSeconds="534.83" CO_abs="14105.232067" CO2_abs="1076601.767961" HC_abs="88.973588" PMx_abs="15.658474" NOx_abs="418.362211" fuel_abs="462.788097" electricity_abs="0"
            CO_normed="140.515551" CO2_normed="10725.047996" HC_normed="0.886350" PMx_normed="0.155989" NOx_normed="4.167701" fuel_normed="4.610270" electricity_normed="0"
            traveltime="1.87" CO_perVeh="49.271715" CO2_perVeh="3760.733304" HC_perVeh="0.310798" PMx_perVeh="0.054697" NOx_perVeh="1.461403" fuel_perVeh="1.616589" electricity_perVeh="0"/>
        <edge id=":132_0" sampledSeconds="41.25" CO_abs="466.779311" CO2_abs="83202.958046" HC_abs="3.917699" PMx_abs="1.148732" NOx_abs="30.243405" fuel_abs="35.765336" electricity_abs="0"
            CO_normed="880.715680" CO2_normed="156986.713295" HC_normed="7.391884" PMx_normed="2.167418" NOx_normed="57.063029" fuel_normed="67.481766" electricity_normed="0"
            traveltime="6.394880e-03" CO_perVeh="0.072364" CO2_perVeh="12.898878" HC_perVeh="0.000607" PMx_perVeh="0.000178" NOx_perVeh="0.004689" fuel_perVeh="0.005545" electricity_perVeh="0"/>
        <edge id=":133_0" sampledSeconds="45.02" CO_abs="546.298440" CO2_abs="79295.143925" HC_abs="4.290139" PMx_abs="1.021857" NOx_abs="29.057152" fuel_abs="34.085684" electricity_abs="0"