<?xml version="1.0" encoding="UTF-8"?>

<!-- generated on Mon Nov  9 21:29:30 2020 by Eclipse SUMO sumo Version 1.7.0
<configuration xmlns:xsi="http://www.w3.org/2001/XMLSchema-instance" xsi:noNamespaceSchemaLocation="http://sumo.dlr.de/xsd/sumoConfiguration.xsd">

    <input>
        <net-file value="../dataSets/Porto/6AM7AM_Routing_SaoBento/Porto.net.xml"/>
        <route-files value="../results/Porto/6AM7AM_Routing_SaoBento/cost_co-ttime/solution2/Porto.rou.xml"/>
        <additional-files value="moreOutputInfo.xml"/>
    </input>

    <output>
        <emission-output.precision value="6"/>
        <tripinfo-output value="../results/Porto/6AM7AM_Routing_SaoBento/cost_co-ttime/solution2/Porto-tripinfo"/>
    </output>

    <processing>
        <collision.action value="warn"/>
        <time-to-teleport value="-1"/>
    </processing>

    <emissions>
        <device.emissions.probability value="1"/>
    </emissions>

    <gui_only>
        <quit-on-end value="true"/>
        <start value="true"/>
    </gui_only>

</configuration>
-->

<meandata xmlns:xsi="http://www.w3.org/2001/XMLSchema-instance" xsi:noNamespaceSchemaLocation="http://sumo.dlr.de/xsd/meandata_file.xsd">
    <interval begin="0.00" end="4700.00" id="emissions-detector">
        <edge id=":1092997347_0" sampledSeconds="289.64" CO_abs="36876.903138" CO2_abs="1442628.528552" HC_abs="201.980218" PMx_abs="29.382786" NOx_abs="626.002553" fuel_abs="620.129768" electricity_abs="0"
            CO_normed="64195.769485" CO2_normed="2511345.600962" HC_normed="351.609663" PMx_normed="51.149917" NOx_normed="1089.752993" fuel_normed="1079.529577" electricity_normed="0"
            traveltime="0.08" CO_perVeh="9.729907" CO2_perVeh="380.635025" HC_perVeh="0.053292" PMx_perVeh="0.007753" NOx_perVeh="0.165170" fuel_perVeh="0.163620" electricity_perVeh="0"/>
        <edge id=":1103427051_0" sampledSeconds="10.84" CO_abs="865.679793" CO2_abs="49284.592447" HC_abs="5.114719" PMx_abs="0.979412" NOx_abs="21.105561" fuel_abs="21.185238" electricity_abs="0"
            CO_normed="2286.461669" CO2_normed="130172.071026" HC_normed="13.509163" PMx_normed="2.586856" NOx_normed="55.744694" fuel_normed="55.955141" electricity_normed="0"
            traveltime="0.03" CO_perVeh="2.371950" CO2_perVeh="135.039038" HC_perVeh="0.014014" PMx_perVeh="0.002684" NOx_perVeh="0.057829" fuel_perVeh="0.058047" electricity_perVeh="0"/>
        <edge id=":1105984386_0" sampledSeconds="22.76" CO_abs="558.932084" CO2_abs="41306.518689" HC_abs="3.492735" PMx_abs="0.596588" NOx_abs="16.052959" fuel_abs="17.756041" electricity_abs="0"
            CO_normed="44.090442" CO2_normed="3258.397074" HC_normed="0.275519" PMx_normed="0.047061" NOx_normed="1.266311" fuel_normed="1.400656" electricity_normed="0"
            traveltime="0.96" CO_perVeh="23.457947" CO2_perVeh="1733.602595" HC_perVeh="0.146587" PMx_perVeh="0.025038" NOx_perVeh="0.673730" fuel_perVeh="0.745207" electricity_perVeh="0"/>
        <edge id=":1105984390_0" sampledSeconds="23.24" CO_abs="0" CO2_abs="0" HC_abs="0" PMx_abs="0" NOx_abs="0" fuel_abs="0" electricity_abs="0"
            CO_normed="0" CO2_normed="0" HC_normed="0" PMx_normed="0" NOx_normed="0" fuel_normed="0" electricity_normed="0"
            traveltime="1.05" CO_perVeh="0" CO2_perVeh="0" HC_perVeh="0" PMx_perVeh="0" NOx_perVeh="0" fuel_perVeh="0" electricity_perVeh="0"/>
        <edge id=":1105984390_1" sampledSeconds="646.30" CO_abs="14999.153771" CO2_abs="1961370.615058" HC_abs="115.060855" PMx_abs="34.556935" NOx_abs="733.211662" fuel_abs="843.103437" electricity_abs="0"
            CO_normed="874.997222" CO2_normed="114419.377651" HC_normed="6.712241" PMx_normed="2.015929" NOx_normed="42.772958" fuel_normed="49.183652" electricity_normed="0"
            traveltime="0.64" CO_perVeh="14.769331" CO2_perVeh="1931.317735" HC_perVeh="0.113298" PMx_perVeh="0.034027" NOx_perVeh="0.721977" fuel_perVeh="0.830185" electricity_perVeh="0"/>
        <edge id=":1105984395_0" sampledSeconds="9.00" CO_abs="262.654845" CO2_abs="20811.961709" HC_abs="1.667392" PMx_abs="0.264650" NOx_abs="7.836943" fuel_abs="8.946281" electricity_abs="0"
            CO_normed="218.676559" CO2_normed="17327.257667" HC_normed="1.388208" PMx_normed="0.220338" NOx_normed="6.524744" fuel_normed="7.448338" electricity_normed="0"
            traveltime="0.09" CO_perVeh="2.663607" CO2_perVeh="211.056049" HC_perVeh="0.016909" PMx_perVeh="0.002684" NOx_perVeh="0.079475" fuel_perVeh="0.090725" electricity_perVeh="0"/>
        <edge id=":1105984398_0" sampledSeconds="23.87" CO_abs="1372.630774" CO2_abs="98404.167450" HC_abs="8.562321" PMx_abs="1.710879" NOx_abs="40.122668" fuel_abs="42.299657" electricity_abs="0"
            CO_normed="86.962511" CO2_normed="6234.359376" HC_normed="0.542463" PMx_normed="0.108392" NOx_normed="2.541957" fuel_normed="2.679879" electricity_normed="0"
            traveltime="1.12" CO_perVeh="64.535459" CO2_perVeh="4626.559598" HC_perVeh="0.402565" PMx_perVeh="0.080438" NOx_perVeh="1.886403" fuel_perVeh="1.988756" electricity_perVeh="0"/>
        <edge id=":1105984398_1" sampledSeconds="453.24" CO_abs="7525.234448" CO2_abs="888954.840732" HC_abs="54.640444" PMx_abs="12.560390" NOx_abs="335.034169" fuel_abs="382.124007" electricity_abs="0"
            CO_normed="461.489941" CO2_normed="54515.739002" HC_normed="3.350861" PMx_normed="0.770274" NOx_normed="20.546190" fuel_normed="23.434006" electricity_normed="0"
            traveltime="0.96" CO_perVeh="15.886918" CO2_perVeh="1876.719249" HC_perVeh="0.115354" PMx_perVeh="0.026517" NOx_perVeh="0.707308" fuel_perVeh="0.806722" electricity_perVeh="0"/>
        <edge id=":1106006327_0" sampledSeconds="37.48" CO_abs="5021.986863" CO2_abs="165783.051323" HC_abs="26.769390" PMx_abs="3.445489" NOx_abs="72.499965" fuel_abs="71.264225" electricity_abs="0"
            CO_normed="434.156686" CO2_normed="14332.140261" HC_normed="2.314245" PMx_normed="0.297867" NOx_normed="6.267707" fuel_normed="6.160876" electricity_normed="0"
            traveltime="2.03" CO_perVeh="272.439405" CO2_perVeh="8993.618875" HC_perVeh="1.452221" PMx_perVeh="0.186915" NOx_perVeh="3.933074" fuel_perVeh="3.866036" electricity_perVeh="0"/>
        <edge id=":1106006327_1" sampledSeconds="161.28" CO_abs="21770.306992" CO2_abs="727300.537972" HC_abs="116.266239" PMx_abs="15.157134" NOx_abs="318.210592" fuel_abs="312.640304" electricity_abs="0"
            CO_normed="1641.252831" CO2_normed="54830.832985" HC_normed="8.765255" PMx_normed="1.142689" NOx_normed="23.989741" fuel_normed="23.569800" electricity_normed="0"
            traveltime="2.29" CO_perVeh="309.057566" CO2_perVeh="10324.968514" HC_perVeh="1.650549" PMx_perVeh="0.215175" NOx_perVeh="4.517409" fuel_perVeh="4.438332" electricity_perVeh="0"/>
        <edge id=":1106006327_2" sampledSeconds="0.00" CO_abs="0" CO2_abs="0" HC_abs="0" PMx_abs="0" NOx_abs="0" fuel_abs="0" electricity_abs="0"
            CO_normed="0" CO2_normed="0" HC_normed="0" PMx_normed="0" NOx_normed="0" fuel_normed="0" electricity_normed="0"/>
        <edge id=":1106006327_3" sampledSeconds="0.00" CO_abs="0" CO2_abs="0" HC_abs="0" PMx_abs="0" NOx_abs="0" fuel_abs="0" electricity_abs="0"
            CO_normed="0" CO2_normed="0" HC_normed="0" PMx_normed="0" NOx_normed="0" fuel_normed="0" electricity_normed="0"/>
        <edge id=":1107381198_0" sampledSeconds="0.00" CO_abs="0" CO2_abs="0" HC_abs="0" PMx_abs="0" NOx_abs="0" fuel_abs="0" electricity_abs="0"
            CO_normed="0" CO2_normed="0" HC_normed="0" PMx_normed="0" NOx_normed="0" fuel_normed="0" electricity_normed="0"/>
        <edge id=":1107381198_1" sampledSeconds="36.77" CO_abs="1048.905984" CO2_abs="43844.671364" HC_abs="5.791133" PMx_abs="0.777627" NOx_abs="18.292905" fuel_abs="18.847229" electricity_abs="0"
            CO_normed="87.613670" CO2_normed="3662.284900" HC_normed="0.483725" PMx_normed="0.064954" NOx_normed="1.527981" fuel_normed="1.574283" electricity_normed="0"
            traveltime="1.51" CO_perVeh="43.186368" CO2_perVeh="1805.206701" HC_perVeh="0.238437" PMx_perVeh="0.032017" NOx_perVeh="0.753170" fuel_perVeh="0.775993" electricity_perVeh="0"/>
        <edge id=":1110338277_0" sampledSeconds="96.60" CO_abs="1561.127157" CO2_abs="185181.511020" HC_abs="11.352945" PMx_abs="2.570093" NOx_abs="69.564713" fuel_abs="79.601742" electricity_abs="0"
            CO_normed="4270.560611" CO2_normed="506575.562059" HC_normed="31.056688" PMx_normed="7.030649" NOx_normed="190.298607" fuel_normed="217.755526" electricity_normed="0"
            traveltime="0.02" CO_perVeh="0.351829" CO2_perVeh="41.734068" HC_perVeh="0.002559" PMx_perVeh="0.000579" NOx_perVeh="0.015678" fuel_perVeh="0.017940" electricity_perVeh="0"/>
        <edge id=":1110338293_0" sampledSeconds="123.09" CO_abs="6576.550008" CO2_abs="451850.153299" HC_abs="40.576982" PMx_abs="7.996090" NOx_abs="185.431165" fuel_abs="194.230651" electricity_abs="0"
            CO_normed="16791.191509" CO2_normed="1153659.965870" HC_normed="103.600804" PMx_normed="20.415550" NOx_normed="473.441272" fuel_normed="495.908046" electricity_normed="0"
            traveltime="0.03" CO_perVeh="1.508448" CO2_perVeh="103.639837" HC_perVeh="0.009307" PMx_perVeh="0.001834" NOx_perVeh="0.042532" fuel_perVeh="0.044550" electricity_perVeh="0"/>
        <edge id=":1110338295_0" sampledSeconds="0.00" CO_abs="0" CO2_abs="0" HC_abs="0" PMx_abs="0" NOx_abs="0" fuel_abs="0" electricity_abs="0"
            CO_normed="0" CO2_normed="0" HC_normed="0" PMx_normed="0" NOx_normed="0" fuel_normed="0" electricity_normed="0"/>
        <edge id=":1110673403_0" sampledSeconds="143.67" CO_abs="2303.314019" CO2_abs="282784.438290" HC_abs="16.962774" PMx_abs="3.892552" NOx_abs="105.824598" fuel_abs="121.557135" electricity_abs="0"
            CO_normed="5880.801752" CO2_normed="722002.821165" HC_normed="43.309211" PMx_normed="9.938431" NOx_normed="270.190464" fuel_normed="310.358642" electricity_normed="0"
            traveltime="0.02" CO_perVeh="0.369812" CO2_perVeh="45.402907" HC_perVeh="0.002723" PMx_perVeh="0.000625" NOx_perVeh="0.016991" fuel_perVeh="0.019517" electricity_perVeh="0"/>
        <edge id=":1110673412_0" sampledSeconds="253.68" CO_abs="44778.256089" CO2_abs="3057280.190598" HC_abs="278.712447" PMx_abs="67.148061" NOx_abs="1313.933059" fuel_abs="1314.174175" electricity_abs="0"
            CO_normed="118269.788643" CO2_normed="8074988.030925" HC_normed="736.144394" PMx_normed="177.353647" NOx_normed="3470.402796" fuel_normed="3471.039642" electricity_normed="0"
            traveltime="0.02" CO_perVeh="2.750212" CO2_perVeh="187.773463" HC_perVeh="0.017118" PMx_perVeh="0.004124" NOx_perVeh="0.080700" fuel_perVeh="0.080715" electricity_perVeh="0"/>
        <edge id=":1110673414_0" sampledSeconds="0.00" CO_abs="0" CO2_abs="0" HC_abs="0" PMx_abs="0" NOx_abs="0" fuel_abs="0" electricity_abs="0"
            CO_normed="0" CO2_normed="0" HC_normed="0" PMx_normed="0" NOx_normed="0" fuel_normed="0" electricity_normed="0"/>
        <edge id=":1110673414_1" sampledSeconds="14.26" CO_abs="1006.335752" CO2_abs="39156.538696" HC_abs="5.493393" PMx_abs="0.730116" NOx_abs="16.575122" fuel_abs="16.831975" electricity_abs="0"
            CO_normed="85.361059" CO2_normed="3321.400045" HC_normed="0.465970" PMx_normed="0.061931" NOx_normed="1.405962" fuel_normed="1.427749" electricity_normed="0"
            traveltime="1.56" CO_perVeh="109.908223" CO2_perVeh="4276.530532" HC_perVeh="0.599968" PMx_perVeh="0.079741" NOx_perVeh="1.810273" fuel_perVeh="1.838325" electricity_perVeh="0"/>
        <edge id=":1110673417_0" sampledSeconds="29.66" CO_abs="333.252168" CO2_abs="43073.391428" HC_abs="2.505947" PMx_abs="0.553859" NOx_abs="15.875898" fuel_abs="18.515485" electricity_abs="0"
            CO_normed="911.632072" CO2_normed="117829.946157" HC_normed="6.855174" PMx_normed="1.515117" NOx_normed="43.429507" fuel_normed="50.650262" electricity_normed="0"
            traveltime="0.02" CO_perVeh="0.247344" CO2_perVeh="31.969648" HC_perVeh="0.001860" PMx_perVeh="0.000411" NOx_perVeh="0.011783" fuel_perVeh="0.013742" electricity_perVeh="0"/>
        <edge id=":1110673446_0" sampledSeconds="333.87" CO_abs="3342.030097" CO2_abs="265417.623599" HC_abs="21.531268" PMx_abs="4.942863" NOx_abs="109.137565" fuel_abs="114.090766" electricity_abs="0"
            CO_normed="8532.842800" CO2_normed="677662.017699" HC_normed="54.973450" PMx_normed="12.620077" NOx_normed="278.649103" fuel_normed="291.295573" electricity_normed="0"
            traveltime="0.02" CO_perVeh="0.228130" CO2_perVeh="18.117628" HC_perVeh="0.001470" PMx_perVeh="0.000337" NOx_perVeh="0.007450" fuel_perVeh="0.007788" electricity_perVeh="0"/>
        <edge id=":1110673451_0" sampledSeconds="37.44" CO_abs="371.012870" CO2_abs="30359.247021" HC_abs="2.380106" PMx_abs="0.398484" NOx_abs="11.493233" fuel_abs="13.050273" electricity_abs="0"
            CO_normed="1052.518780" CO2_normed="86125.523464" HC_normed="6.752075" PMx_normed="1.130452" NOx_normed="32.604917" fuel_normed="37.022052" electricity_normed="0"
            traveltime="0.03" CO_perVeh="0.266065" CO2_perVeh="21.771572" HC_perVeh="0.001707" PMx_perVeh="0.000286" NOx_perVeh="0.008242" fuel_perVeh="0.009359" electricity_perVeh="0"/>
        <edge id=":1110673464_0" sampledSeconds="321.82" CO_abs="613.485094" CO2_abs="49705.887332" HC_abs="3.926651" PMx_abs="0.663994" NOx_abs="18.875822" fuel_abs="21.366639" electricity_abs="0"
            CO_normed="33.279283" CO2_normed="2696.359388" HC_normed="0.213006" PMx_normed="0.036019" NOx_normed="1.023943" fuel_normed="1.159061" electricity_normed="0"
            traveltime="1.16" CO_perVeh="2.217668" CO2_perVeh="179.680225" HC_perVeh="0.014194" PMx_perVeh="0.002400" NOx_perVeh="0.068234" fuel_perVeh="0.077238" electricity_perVeh="0"/>
        <edge id=":1110673464_1" sampledSeconds="709.81" CO_abs="15346.925675" CO2_abs="1986138.398189" HC_abs="117.332405" PMx_abs="35.136306" NOx_abs="743.773421" fuel_abs="853.749866" electricity_abs="0"
            CO_normed="815.759334" CO2_normed="105572.345349" HC_normed="6.236754" PMx_normed="1.867655" NOx_normed="39.534961" fuel_normed="45.380713" electricity_normed="0"
            traveltime="0.70" CO_perVeh="15.142995" CO2_perVeh="1959.746535" HC_perVeh="0.115773" PMx_perVeh="0.034669" NOx_perVeh="0.733890" fuel_perVeh="0.842405" electricity_perVeh="0"/>
        <edge id=":1110673479_0" sampledSeconds="133.45" CO_abs="6545.577820" CO2_abs="458042.977025" HC_abs="40.551508" PMx_abs="7.919148" NOx_abs="186.625397" fuel_abs="196.892872" electricity_abs="0"
            CO_normed="16712.113583" CO2_normed="1169471.430703" HC_normed="103.535766" PMx_normed="20.219102" NOx_normed="476.490376" fuel_normed="502.705205" electricity_normed="0"
            traveltime="0.03" CO_perVeh="1.378887" CO2_perVeh="96.491042" HC_perVeh="0.008543" PMx_perVeh="0.001668" NOx_perVeh="0.039314" fuel_perVeh="0.041477" electricity_perVeh="0"/>
        <edge id=":1110673511_0" sampledSeconds="11.81" CO_abs="186.914448" CO2_abs="21466.338620" HC_abs="1.345507" PMx_abs="0.289945" NOx_abs="8.038709" fuel_abs="9.227491" electricity_abs="0"
            CO_normed="477.228378" CO2_normed="54807.673072" HC_normed="3.435336" PMx_normed="0.740286" NOx_normed="20.524364" fuel_normed="23.559553" electricity_normed="0"
            traveltime="0.02" CO_perVeh="0.370128" CO2_perVeh="42.507601" HC_perVeh="0.002664" PMx_perVeh="0.000574" NOx_perVeh="0.015918" fuel_perVeh="0.018272" electricity_perVeh="0"/>
        <edge id=":1110673517_0" sampledSeconds="16.98" CO_abs="771.612607" CO2_abs="54988.082524" HC_abs="4.803498" PMx_abs="0.946502" NOx_abs="22.360697" fuel_abs="23.636995" electricity_abs="0"
            CO_normed="1970.074741" CO2_normed="140395.104316" HC_normed="12.264251" PMx_normed="2.416600" NOx_normed="57.091142" fuel_normed="60.349775" electricity_normed="0"
            traveltime="0.03" CO_perVeh="1.238875" CO2_perVeh="88.286994" HC_perVeh="0.007712" PMx_perVeh="0.001520" NOx_perVeh="0.035902" fuel_perVeh="0.037951" electricity_perVeh="0"/>
        <edge id=":1110673534_0" sampledSeconds="476.84" CO_abs="2891.711345" CO2_abs="243792.235662" HC_abs="18.745295" PMx_abs="3.332133" NOx_abs="92.934904" fuel_abs="104.796656" electricity_abs="0"
            CO_normed="143.083194" CO2_normed="12062.950800" HC_normed="0.927526" PMx_normed="0.164875" NOx_normed="4.598461" fuel_normed="5.185386" electricity_normed="0"
            traveltime="1.44" CO_perVeh="8.711567" CO2_perVeh="734.448295" HC_perVeh="0.056472" PMx_perVeh="0.010038" NOx_perVeh="0.279976" fuel_perVeh="0.315710" electricity_perVeh="0"/>
        <edge id=":1110673534_1" sampledSeconds="184.55" CO_abs="2996.668980" CO2_abs="380341.256881" HC_abs="22.315275" PMx_abs="5.229725" NOx_abs="142.041672" fuel_abs="163.492648" electricity_abs="0"
            CO_normed="144.178450" CO2_normed="18299.322741" HC_normed="1.073653" PMx_normed="0.251617" NOx_normed="6.834037" fuel_normed="7.866106" electricity_normed="0"
            traveltime="1.23" CO_perVeh="19.896806" CO2_perVeh="2525.329400" HC_perVeh="0.148165" PMx_perVeh="0.034723" NOx_perVeh="0.943106" fuel_perVeh="1.085532" electricity_perVeh="0"/>
        <edge id=":1110673549_0" sampledSeconds="60.00" CO_abs="125.658380" CO2_abs="11255.663375" HC_abs="0.827727" PMx_abs="0.139847" NOx_abs="4.168831" fuel_abs="4.838383" electricity_abs="0"
            CO_normed="6.023090" CO2_normed="539.509335" HC_normed="0.039675" PMx_normed="0.006703" NOx_normed="0.199821" fuel_normed="0.231915" electricity_normed="0"
            traveltime="1.25" CO_perVeh="2.617985" CO2_perVeh="234.502159" HC_perVeh="0.017245" PMx_perVeh="0.002914" NOx_perVeh="0.086854" fuel_perVeh="0.100804" electricity_perVeh="0"/>
        <edge id=":1110673549_1" sampledSeconds="638.71" CO_abs="14883.580731" CO2_abs="1904194.208261" HC_abs="113.196122" PMx_abs="33.759416" NOx_abs="714.216023" fuel_abs="818.525767" electricity_abs="0"
            CO_normed="690.084110" CO2_normed="88288.845883" HC_normed="5.248391" PMx_normed="1.565271" NOx_normed="33.114956" fuel_normed="37.951326" electricity_normed="0"
            traveltime="0.80" CO_perVeh="18.742887" CO2_perVeh="2397.951032" HC_perVeh="0.142548" PMx_perVeh="0.042513" NOx_perVeh="0.899412" fuel_perVeh="1.030769" electricity_perVeh="0"/>
        <edge id=":1110673556_0" sampledSeconds="408.48" CO_abs="50359.401305" CO2_abs="2566005.263779" HC_abs="290.359591" PMx_abs="51.809164" NOx_abs="1104.923067" fuel_abs="1103.013879" electricity_abs="0"
            CO_normed="1789.937747" CO2_normed="91204.215329" HC_normed="10.320329" PMx_normed="1.841467" NOx_normed="39.272578" fuel_normed="39.204719" electricity_normed="0"
            traveltime="2.54" CO_perVeh="312.606607" CO2_perVeh="15928.509458" HC_perVeh="1.802411" PMx_perVeh="0.321606" NOx_perVeh="6.858824" fuel_perVeh="6.846972" electricity_perVeh="0"/>
        <edge id=":1110673556_2" sampledSeconds="248.20" CO_abs="23731.597792" CO2_abs="1019051.325144" HC_abs="132.007549" PMx_abs="19.757184" NOx_abs="435.279103" fuel_abs="438.050031" electricity_abs="0"
            CO_normed="881.969629" CO2_normed="37872.389674" HC_normed="4.905976" PMx_normed="0.734263" NOx_normed="16.176869" fuel_normed="16.279849" electricity_normed="0"
            traveltime="3.01" CO_perVeh="287.859734" CO2_perVeh="12360.897295" HC_perVeh="1.601226" PMx_perVeh="0.239651" NOx_perVeh="5.279852" fuel_perVeh="5.313463" electricity_perVeh="0"/>
        <edge id=":1110673556_3" sampledSeconds="420.00" CO_abs="35480.208256" CO2_abs="1261600.485424" HC_abs="190.899879" PMx_abs="23.978316" NOx_abs="537.419538" fuel_abs="542.318147" electricity_abs="0"
            CO_normed="2999.594893" CO2_normed="106659.192793" HC_normed="16.139204" PMx_normed="2.027193" NOx_normed="45.434933" fuel_normed="45.849075" electricity_normed="0"
            traveltime="1.73" CO_perVeh="146.394094" CO2_perVeh="5205.461541" HC_perVeh="0.787668" PMx_perVeh="0.098936" NOx_perVeh="2.217435" fuel_perVeh="2.237647" electricity_perVeh="0"/>
        <edge id=":1110673556_4" sampledSeconds="190.83" CO_abs="19592.014072" CO2_abs="783687.062456" HC_abs="107.592464" PMx_abs="15.261936" NOx_abs="335.644759" fuel_abs="336.877200" electricity_abs="0"
            CO_normed="1011.911603" CO2_normed="40476.799828" HC_normed="5.557063" PMx_normed="0.788267" NOx_normed="17.335779" fuel_normed="17.399434" electricity_normed="0"
            traveltime="2.41" CO_perVeh="247.318325" CO2_perVeh="9892.815063" HC_perVeh="1.358185" PMx_perVeh="0.192658" NOx_perVeh="4.236987" fuel_perVeh="4.252544" electricity_perVeh="0"/>
        <edge id=":1110673556_5" sampledSeconds="24.93" CO_abs="2468.131171" CO2_abs="100206.771366" HC_abs="13.588952" PMx_abs="1.946088" NOx_abs="42.881188" fuel_abs="43.075049" electricity_abs="0"
            CO_normed="177.677016" CO2_normed="7213.733341" HC_normed="0.978248" PMx_normed="0.140096" NOx_normed="3.086952" fuel_normed="3.100907" electricity_normed="0"
            traveltime="1.72" CO_perVeh="170.636229" CO2_perVeh="6927.875551" HC_perVeh="0.939483" PMx_perVeh="0.134544" NOx_perVeh="2.964625" fuel_perVeh="2.978028" electricity_perVeh="0"/>
        <edge id=":1110673556_6" sampledSeconds="535.03" CO_abs="62763.327203" CO2_abs="3142115.658433" HC_abs="360.463395" PMx_abs="63.218450" NOx_abs="1352.035211" fuel_abs="1350.659870" electricity_abs="0"
            CO_normed="2287.061744" CO2_normed="114496.997493" HC_normed="13.135091" PMx_normed="2.303646" NOx_normed="49.267433" fuel_normed="49.217316" electricity_normed="0"
            traveltime="2.54" CO_perVeh="297.643090" CO2_perVeh="14900.883292" HC_perVeh="1.709429" PMx_perVeh="0.299801" NOx_perVeh="6.411769" fuel_perVeh="6.405246" electricity_perVeh="0"/>
        <edge id=":1110673561_0" sampledSeconds="99.84" CO_abs="9555.100769" CO2_abs="684784.896164" HC_abs="59.994297" PMx_abs="13.898172" NOx_abs="289.774251" fuel_abs="294.356337" electricity_abs="0"
            CO_normed="437.465666" CO2_normed="31351.828492" HC_normed="2.746747" PMx_normed="0.636307" NOx_normed="13.266871" fuel_normed="13.476654" electricity_normed="0"
            traveltime="1.18" CO_perVeh="112.759463" CO2_perVeh="8081.126427" HC_perVeh="0.707991" PMx_perVeh="0.164012" NOx_perVeh="3.419617" fuel_perVeh="3.473690" electricity_perVeh="0"/>
        <edge id=":1110673561_1" sampledSeconds="1316.12" CO_abs="119803.008377" CO2_abs="8292172.102477" HC_abs="746.168556" PMx_abs="173.429093" NOx_abs="3546.264822" fuel_abs="3564.404207" electricity_abs="0"
            CO_normed="5347.552821" CO2_normed="370131.175531" HC_normed="33.306140" PMx_normed="7.741218" NOx_normed="158.291839" fuel_normed="159.101512" electricity_normed="0"
            traveltime="1.20" CO_perVeh="108.795865" CO2_perVeh="7530.312049" HC_perVeh="0.677613" PMx_perVeh="0.157495" NOx_perVeh="3.220445" fuel_perVeh="3.236917" electricity_perVeh="0"/>
        <edge id=":1110673562_0" sampledSeconds="103.94" CO_abs="2242.574655" CO2_abs="181459.781156" HC_abs="14.334053" PMx_abs="2.355150" NOx_abs="68.522431" fuel_abs="78.002647" electricity_abs="0"
            CO_normed="6361.913915" CO2_normed="514779.521009" HC_normed="40.663979" PMx_normed="6.681276" NOx_normed="194.389874" fuel_normed="221.284104" electricity_normed="0"
            traveltime="0.03" CO_perVeh="0.571642" CO2_perVeh="46.254924" HC_perVeh="0.003654" PMx_perVeh="0.000600" NOx_perVeh="0.017467" fuel_perVeh="0.019883" electricity_perVeh="0"/>
        <edge id=":1110673564_0" sampledSeconds="28.34" CO_abs="616.150549" CO2_abs="67451.210489" HC_abs="4.348552" PMx_abs="0.975218" NOx_abs="25.654318" fuel_abs="28.994411" electricity_abs="0"
            CO_normed="4719.451016" CO2_normed="516647.569700" HC_normed="33.308058" PMx_normed="7.469758" NOx_normed="196.501156" fuel_normed="222.084850" electricity_normed="0"
            traveltime="7.790532e-03" CO_perVeh="0.169388" CO2_perVeh="18.543288" HC_perVeh="0.001195" PMx_perVeh="0.000268" NOx_perVeh="0.007053" fuel_perVeh="0.007971" electricity_perVeh="0"/>
        <edge id=":1110673588_0" sampledSeconds="11.64" CO_abs="207.268525" CO2_abs="23460.954064" HC_abs="1.484482" PMx_abs="0.334688" NOx_abs="8.880982" fuel_abs="10.084871" electricity_abs="0"
            CO_normed="635.035481" CO2_normed="71880.369898" HC_normed="4.548199" PMx_normed="1.025426" NOx_normed="27.209816" fuel_normed="30.898328" electricity_normed="0"
            traveltime="0.02" CO_perVeh="0.345448" CO2_perVeh="39.101590" HC_perVeh="0.002474" PMx_perVeh="0.000558" NOx_perVeh="0.014802" fuel_perVeh="0.016808" electricity_perVeh="0"/>
        <edge id=":1110673601_0" sampledSeconds="29.56" CO_abs="453.798661" CO2_abs="59733.976976" HC_abs="3.427655" PMx_abs="0.778235" NOx_abs="22.027760" fuel_abs="25.677168" electricity_abs="0"
            CO_normed="1241.394514" CO2_normed="163406.016044" HC_normed="9.376565" PMx_normed="2.128911" NOx_normed="60.258310" fuel_normed="70.241492" electricity_normed="0"
            traveltime="0.02" CO_perVeh="0.336815" CO2_perVeh="44.335357" HC_perVeh="0.002544" PMx_perVeh="0.000578" NOx_perVeh="0.016349" fuel_perVeh="0.019058" electricity_perVeh="0"/>
        <edge id=":1110673617_0" sampledSeconds="238.29" CO_abs="6143.848690" CO2_abs="743717.961002" HC_abs="45.826970" PMx_abs="13.415743" NOx_abs="281.687277" fuel_abs="319.690065" electricity_abs="0"
            CO_normed="15686.422188" CO2_normed="1898854.368515" HC_normed="117.005030" PMx_normed="34.252960" NOx_normed="719.201557" fuel_normed="816.229952" electricity_normed="0"
            traveltime="0.01" CO_perVeh="0.376400" CO2_perVeh="45.563519" HC_perVeh="0.002808" PMx_perVeh="0.000822" NOx_perVeh="0.017257" fuel_perVeh="0.019586" electricity_perVeh="0"/>
        <edge id=":1110673621_0" sampledSeconds="25.61" CO_abs="485.999296" CO2_abs="54290.418312" HC_abs="3.456442" PMx_abs="0.782920" NOx_abs="20.610305" fuel_abs="23.337143" electricity_abs="0"
            CO_normed="1489.019119" CO2_normed="166336.600785" HC_normed="10.589949" PMx_normed="2.398735" NOx_normed="63.146467" fuel_normed="71.501033" electricity_normed="0"
            traveltime="0.02" CO_perVeh="0.368181" CO2_perVeh="41.129105" HC_perVeh="0.002619" PMx_perVeh="0.000593" NOx_perVeh="0.015614" fuel_perVeh="0.017680" electricity_perVeh="0"/>
        <edge id=":1110673630_0" sampledSeconds="54.11" CO_abs="249.043240" CO2_abs="23052.079714" HC_abs="1.664124" PMx_abs="0.322051" NOx_abs="8.793642" fuel_abs="9.909151" electricity_abs="0"
            CO_normed="13.606029" CO2_normed="1259.408853" HC_normed="0.090916" PMx_normed="0.017595" NOx_normed="0.480425" fuel_normed="0.541369" electricity_normed="0"
            traveltime="1.26" CO_perVeh="5.813110" CO2_perVeh="538.076315" HC_perVeh="0.038844" PMx_perVeh="0.007517" NOx_perVeh="0.205259" fuel_perVeh="0.231297" electricity_perVeh="0"/>
        <edge id=":1110673630_1" sampledSeconds="7.56" CO_abs="4.721313" CO2_abs="527.645492" HC_abs="0.033087" PMx_abs="0.004342" NOx_abs="0.181082" fuel_abs="0.226817" electricity_abs="0"
            CO_normed="0.314463" CO2_normed="35.143826" HC_normed="0.002204" PMx_normed="0.000289" NOx_normed="0.012061" fuel_normed="0.015107" electricity_normed="0"
            traveltime="1.07" CO_perVeh="0.668247" CO2_perVeh="74.682131" HC_perVeh="0.004683" PMx_perVeh="0.000615" NOx_perVeh="0.025630" fuel_perVeh="0.032103" electricity_perVeh="0"/>
        <edge id=":1110673650_0" sampledSeconds="143.24" CO_abs="2223.409979" CO2_abs="282416.331521" HC_abs="16.548240" PMx_abs="3.835345" NOx_abs="105.168081" fuel_abs="121.398927" electricity_abs="0"
            CO_normed="5676.791435" CO2_normed="721062.974096" HC_normed="42.250825" PMx_normed="9.792370" NOx_normed="268.514250" fuel_normed="309.954707" electricity_normed="0"
            traveltime="0.02" CO_perVeh="0.356983" CO2_perVeh="45.343805" HC_perVeh="0.002657" PMx_perVeh="0.000616" NOx_perVeh="0.016885" fuel_perVeh="0.019491" electricity_perVeh="0"/>
        <edge id=":1110673655_0" sampledSeconds="44.99" CO_abs="746.021757" CO2_abs="82836.274711" HC_abs="5.310624" PMx_abs="1.182325" NOx_abs="31.386212" fuel_abs="35.607817" electricity_abs="0"
            CO_normed="1904.736401" CO2_normed="211496.871603" HC_normed="13.559041" PMx_normed="3.018701" NOx_normed="80.135009" fuel_normed="90.913576" electricity_normed="0"
            traveltime="0.02" CO_perVeh="0.399262" CO2_perVeh="44.333034" HC_perVeh="0.002842" PMx_perVeh="0.000633" NOx_perVeh="0.016798" fuel_perVeh="0.019057" electricity_perVeh="0"/>
        <edge id=":1110673663_0" sampledSeconds="108.20" CO_abs="1807.824453" CO2_abs="230545.260113" HC_abs="13.444064" PMx_abs="3.065367" NOx_abs="85.469404" fuel_abs="99.101817" electricity_abs="0"
            CO_normed="84.537033" CO2_normed="10780.699561" HC_normed="0.628668" PMx_normed="0.143342" NOx_normed="3.996699" fuel_normed="4.634174" electricity_normed="0"
            traveltime="1.27" CO_perVeh="21.233751" CO2_perVeh="2707.862841" HC_perVeh="0.157907" PMx_perVeh="0.036004" NOx_perVeh="1.003878" fuel_perVeh="1.163998" electricity_perVeh="0"/>
        <edge id=":1110673663_1" sampledSeconds="154.21" CO_abs="2026.564000" CO2_abs="272372.631230" HC_abs="15.336069" PMx_abs="3.588226" NOx_abs="100.422021" fuel_abs="117.081646" electricity_abs="0"
            CO_normed="94.881527" CO2_normed="12752.191027" HC_normed="0.718018" PMx_normed="0.167997" NOx_normed="4.701650" fuel_normed="5.481636" electricity_normed="0"
            traveltime="1.25" CO_perVeh="16.384859" CO2_perVeh="2202.144732" HC_perVeh="0.123993" PMx_perVeh="0.029011" NOx_perVeh="0.811916" fuel_perVeh="0.946610" electricity_perVeh="0"/>
        <edge id=":1110673666_0" sampledSeconds="191.21" CO_abs="4053.201904" CO2_abs="317739.721396" HC_abs="25.710992" PMx_abs="4.342622" NOx_abs="121.539849" fuel_abs="136.583960" electricity_abs="0"
            CO_normed="253.849565" CO2_normed="19899.845115" HC_normed="1.610264" PMx_normed="0.271976" NOx_normed="7.611967" fuel_normed="8.554170" electricity_normed="0"