<?xml version="1.0" encoding="UTF-8"?>

<!-- generated on Tue Nov 10 02:29:16 2020 by Eclipse SUMO sumo Version 1.7.0
<configuration xmlns:xsi="http://www.w3.org/2001/XMLSchema-instance" xsi:noNamespaceSchemaLocation="http://sumo.dlr.de/xsd/sumoConfiguration.xsd">

    <input>
        <net-file value="../dataSets/Porto/6AM7AM_Routing_SaoBento/Porto.net.xml"/>
        <route-files value="../results/Porto/6AM7AM_Routing_SaoBento/cost_PMx-cost_nox/solution5/Porto.rou.xml"/>
        <additional-files value="moreOutputInfo.xml"/>
    </input>

    <output>
        <emission-output.precision value="6"/>
        <tripinfo-output value="../results/Porto/6AM7AM_Routing_SaoBento/cost_PMx-cost_nox/solution5/Porto-tripinfo"/>
    </output>

    <processing>
        <collision.action value="warn"/>
        <time-to-teleport value="-1"/>
    </processing>

    <emissions>
        <device.emissions.probability value="1"/>
    </emissions>

    <gui_only>
        <quit-on-end value="true"/>
        <start value="true"/>
    </gui_only>

</configuration>
-->

<meandata xmlns:xsi="http://www.w3.org/2001/XMLSchema-instance" xsi:noNamespaceSchemaLocation="http://sumo.dlr.de/xsd/meandata_file.xsd">
    <interval begin="0.00" end="4699.00" id="emissions-detector">
        <edge id=":1092997347_0" sampledSeconds="288.15" CO_abs="37014.917014" CO2_abs="1455678.392576" HC_abs="202.938006" PMx_abs="29.727585" NOx_abs="632.175736" fuel_abs="625.739108" electricity_abs="0"
            CO_normed="64449.738460" CO2_normed="2534602.242872" HC_normed="353.352174" PMx_normed="51.761160" NOx_normed="1100.733545" fuel_normed="1089.526200" electricity_normed="0"
            traveltime="0.08" CO_perVeh="9.745547" CO2_perVeh="383.261224" HC_perVeh="0.053431" PMx_perVeh="0.007827" NOx_perVeh="0.166444" fuel_perVeh="0.164749" electricity_perVeh="0"/>
        <edge id=":1103427051_0" sampledSeconds="11.04" CO_abs="857.141567" CO2_abs="48440.496319" HC_abs="5.051993" PMx_abs="0.944612" NOx_abs="20.633541" fuel_abs="20.822431" electricity_abs="0"
            CO_normed="2264.392014" CO2_normed="127969.844464" HC_normed="13.346328" PMx_normed="2.495470" NOx_normed="54.509578" fuel_normed="55.008587" electricity_normed="0"
            traveltime="0.03" CO_perVeh="2.348555" CO2_perVeh="132.726228" HC_perVeh="0.013842" PMx_perVeh="0.002588" NOx_perVeh="0.056536" fuel_perVeh="0.057053" electricity_perVeh="0"/>
        <edge id=":1105984386_0" sampledSeconds="23.00" CO_abs="369.973291" CO2_abs="29141.545178" HC_abs="2.347869" PMx_abs="0.387346" NOx_abs="11.084127" fuel_abs="12.526832" electricity_abs="0"
            CO_normed="29.190948" CO2_normed="2299.272270" HC_normed="0.185247" PMx_normed="0.030562" NOx_normed="0.874539" fuel_normed="0.988369" electricity_normed="0"
            traveltime="0.97" CO_perVeh="15.527492" CO2_perVeh="1223.048080" HC_perVeh="0.098538" PMx_perVeh="0.016257" NOx_perVeh="0.465192" fuel_perVeh="0.525741" electricity_perVeh="0"/>
        <edge id=":1105984390_0" sampledSeconds="22.84" CO_abs="8.487217" CO2_abs="671.525804" HC_abs="0.053985" PMx_abs="0.009221" NOx_abs="0.257431" fuel_abs="0.288663" electricity_abs="0"
            CO_normed="0.517694" CO2_normed="40.960960" HC_normed="0.003293" PMx_normed="0.000562" NOx_normed="0.015702" fuel_normed="0.017608" electricity_normed="0"
            traveltime="1.04" CO_perVeh="0.384891" CO2_perVeh="30.453365" HC_perVeh="0.002448" PMx_perVeh="0.000418" NOx_perVeh="0.011674" fuel_perVeh="0.013091" electricity_perVeh="0"/>
        <edge id=":1105984390_1" sampledSeconds="645.81" CO_abs="14784.439378" CO2_abs="1890423.853549" HC_abs="112.574503" PMx_abs="33.591728" NOx_abs="708.948674" fuel_abs="812.606501" electricity_abs="0"
            CO_normed="862.655093" CO2_normed="110304.065161" HC_normed="6.568593" PMx_normed="1.960039" NOx_normed="41.366343" fuel_normed="47.414658" electricity_normed="0"
            traveltime="0.64" CO_perVeh="14.547321" CO2_perVeh="1860.104501" HC_perVeh="0.110769" PMx_perVeh="0.033053" NOx_perVeh="0.697578" fuel_perVeh="0.799574" electricity_perVeh="0"/>
        <edge id=":1105984395_0" sampledSeconds="8.92" CO_abs="235.002916" CO2_abs="18929.092514" HC_abs="1.500291" PMx_abs="0.247327" NOx_abs="7.166568" fuel_abs="8.136893" electricity_abs="0"
            CO_normed="195.696239" CO2_normed="15763.005323" HC_normed="1.249352" PMx_normed="0.205959" NOx_normed="5.967885" fuel_normed="6.775913" electricity_normed="0"
            traveltime="0.09" CO_perVeh="2.383187" CO2_perVeh="191.961697" HC_perVeh="0.015215" PMx_perVeh="0.002508" NOx_perVeh="0.072677" fuel_perVeh="0.082517" electricity_perVeh="0"/>
        <edge id=":1105984398_0" sampledSeconds="22.86" CO_abs="1771.388830" CO2_abs="120601.632021" HC_abs="10.914538" PMx_abs="2.195223" NOx_abs="49.897020" fuel_abs="51.841295" electricity_abs="0"
            CO_normed="112.249562" CO2_normed="7642.297497" HC_normed="0.691634" PMx_normed="0.139107" NOx_normed="3.161880" fuel_normed="3.285085" electricity_normed="0"
            traveltime="1.09" CO_perVeh="84.767210" CO2_perVeh="5771.213890" HC_perVeh="0.522299" PMx_perVeh="0.105049" NOx_perVeh="2.387749" fuel_perVeh="2.480789" electricity_perVeh="0"/>
        <edge id=":1105984398_1" sampledSeconds="451.92" CO_abs="7612.255949" CO2_abs="895789.799360" HC_abs="55.215398" PMx_abs="12.719890" NOx_abs="338.059271" fuel_abs="385.061993" electricity_abs="0"
            CO_normed="466.925938" CO2_normed="54946.588089" HC_normed="3.386841" PMx_normed="0.780222" NOx_normed="20.736119" fuel_normed="23.619205" electricity_normed="0"
            traveltime="0.96" CO_perVeh="16.118621" CO2_perVeh="1896.795933" HC_perVeh="0.116916" PMx_perVeh="0.026934" NOx_perVeh="0.715826" fuel_perVeh="0.815352" electricity_perVeh="0"/>
        <edge id=":1106006327_0" sampledSeconds="446.17" CO_abs="59997.556282" CO2_abs="1947955.450403" HC_abs="319.041626" PMx_abs="40.614103" NOx_abs="852.575084" fuel_abs="837.357282" electricity_abs="0"
            CO_normed="5187.963306" CO2_normed="168438.883578" HC_normed="27.587394" PMx_normed="3.511884" NOx_normed="73.721807" fuel_normed="72.405930" electricity_normed="0"
            traveltime="2.09" CO_perVeh="280.992261" CO2_perVeh="9123.044995" HC_perVeh="1.494198" PMx_perVeh="0.190212" NOx_perVeh="3.992946" fuel_perVeh="3.921675" electricity_perVeh="0"/>
        <edge id=":1106006327_1" sampledSeconds="160.35" CO_abs="21770.192584" CO2_abs="731793.264334" HC_abs="116.381609" PMx_abs="15.280971" NOx_abs="320.364991" fuel_abs="314.571405" electricity_abs="0"
            CO_normed="1641.593481" CO2_normed="55181.278133" HC_normed="8.775820" PMx_normed="1.152270" NOx_normed="24.157300" fuel_normed="23.720432" electricity_normed="0"
            traveltime="2.28" CO_perVeh="309.055942" CO2_perVeh="10388.748555" HC_perVeh="1.652187" PMx_perVeh="0.216933" NOx_perVeh="4.547994" fuel_perVeh="4.465747" electricity_perVeh="0"/>
        <edge id=":1106006327_2" sampledSeconds="0.00" CO_abs="0" CO2_abs="0" HC_abs="0" PMx_abs="0" NOx_abs="0" fuel_abs="0" electricity_abs="0"
            CO_normed="0" CO2_normed="0" HC_normed="0" PMx_normed="0" NOx_normed="0" fuel_normed="0" electricity_normed="0"/>
        <edge id=":1106006327_3" sampledSeconds="0.00" CO_abs="0" CO2_abs="0" HC_abs="0" PMx_abs="0" NOx_abs="0" fuel_abs="0" electricity_abs="0"
            CO_normed="0" CO2_normed="0" HC_normed="0" PMx_normed="0" NOx_normed="0" fuel_normed="0" electricity_normed="0"/>
        <edge id=":1107381198_0" sampledSeconds="0.00" CO_abs="0" CO2_abs="0" HC_abs="0" PMx_abs="0" NOx_abs="0" fuel_abs="0" electricity_abs="0"
            CO_normed="0" CO2_normed="0" HC_normed="0" PMx_normed="0" NOx_normed="0" fuel_normed="0" electricity_normed="0"/>
        <edge id=":1107381198_1" sampledSeconds="35.25" CO_abs="1548.299122" CO2_abs="65199.772471" HC_abs="8.558620" PMx_abs="1.149287" NOx_abs="27.145057" fuel_abs="28.027012" electricity_abs="0"
            CO_normed="129.354812" CO2_normed="5447.206009" HC_normed="0.715042" PMx_normed="0.096019" NOx_normed="2.267872" fuel_normed="2.341556" electricity_normed="0"
            traveltime="1.45" CO_perVeh="63.747768" CO2_perVeh="2684.455431" HC_perVeh="0.352382" PMx_perVeh="0.047319" NOx_perVeh="1.117637" fuel_perVeh="1.153950" electricity_perVeh="0"/>
        <edge id=":1110338277_0" sampledSeconds="96.40" CO_abs="1572.877889" CO2_abs="194729.806207" HC_abs="11.608869" PMx_abs="2.681773" NOx_abs="72.848923" fuel_abs="83.706140" electricity_abs="0"
            CO_normed="4303.621136" CO2_normed="532808.882091" HC_normed="31.763543" PMx_normed="7.337719" NOx_normed="199.325178" fuel_normed="229.032092" electricity_normed="0"
            traveltime="0.02" CO_perVeh="0.354481" CO2_perVeh="43.886407" HC_perVeh="0.002616" PMx_perVeh="0.000604" NOx_perVeh="0.016418" fuel_perVeh="0.018865" electricity_perVeh="0"/>
        <edge id=":1110338293_0" sampledSeconds="123.23" CO_abs="6529.090623" CO2_abs="442955.498964" HC_abs="40.173821" PMx_abs="7.973113" NOx_abs="182.730086" fuel_abs="190.407084" electricity_abs="0"
            CO_normed="16673.566178" CO2_normed="1131190.889033" HC_normed="102.593287" PMx_normed="20.361216" NOx_normed="466.644187" fuel_normed="486.249204" electricity_normed="0"
            traveltime="0.03" CO_perVeh="1.497563" CO2_perVeh="101.599738" HC_perVeh="0.009215" PMx_perVeh="0.001829" NOx_perVeh="0.041912" fuel_perVeh="0.043673" electricity_perVeh="0"/>
        <edge id=":1110338295_0" sampledSeconds="0.00" CO_abs="0" CO2_abs="0" HC_abs="0" PMx_abs="0" NOx_abs="0" fuel_abs="0" electricity_abs="0"
            CO_normed="0" CO2_normed="0" HC_normed="0" PMx_normed="0" NOx_normed="0" fuel_normed="0" electricity_normed="0"/>
        <edge id=":1110673403_0" sampledSeconds="143.88" CO_abs="2242.515070" CO2_abs="278772.955649" HC_abs="16.587492" PMx_abs="3.853391" NOx_abs="104.345913" fuel_abs="119.832725" electricity_abs="0"
            CO_normed="5726.788858" CO2_normed="711912.208510" HC_normed="42.360057" PMx_normed="9.840538" NOx_normed="266.471792" fuel_normed="306.021004" electricity_normed="0"
            traveltime="0.02" CO_perVeh="0.360051" CO2_perVeh="44.758837" HC_perVeh="0.002663" PMx_perVeh="0.000619" NOx_perVeh="0.016753" fuel_perVeh="0.019240" electricity_perVeh="0"/>
        <edge id=":1110673412_0" sampledSeconds="252.78" CO_abs="45416.662814" CO2_abs="3089458.143098" HC_abs="282.419240" PMx_abs="67.976658" NOx_abs="1328.529615" fuel_abs="1328.005850" electricity_abs="0"
            CO_normed="119981.497260" CO2_normed="8161714.022170" HC_normed="746.093639" PMx_normed="179.580372" NOx_normed="3509.702442" fuel_normed="3508.318762" electricity_normed="0"
            traveltime="0.02" CO_perVeh="2.794169" CO2_perVeh="190.072732" HC_perVeh="0.017375" PMx_perVeh="0.004182" NOx_perVeh="0.081735" fuel_perVeh="0.081703" electricity_perVeh="0"/>
        <edge id=":1110673414_0" sampledSeconds="0.00" CO_abs="0" CO2_abs="0" HC_abs="0" PMx_abs="0" NOx_abs="0" fuel_abs="0" electricity_abs="0"
            CO_normed="0" CO2_normed="0" HC_normed="0" PMx_normed="0" NOx_normed="0" fuel_normed="0" electricity_normed="0"/>
        <edge id=":1110673414_1" sampledSeconds="179.70" CO_abs="12138.119642" CO2_abs="464852.399750" HC_abs="66.053871" PMx_abs="8.532786" NOx_abs="195.952760" fuel_abs="199.823544" electricity_abs="0"
            CO_normed="1029.818571" CO2_normed="39438.862704" HC_normed="5.604122" PMx_normed="0.723936" NOx_normed="16.624963" fuel_normed="16.953367" electricity_normed="0"
            traveltime="1.57" CO_perVeh="106.054398" CO2_perVeh="4061.555075" HC_perVeh="0.577133" PMx_perVeh="0.074554" NOx_perVeh="1.712098" fuel_perVeh="1.745918" electricity_perVeh="0"/>
        <edge id=":1110673417_0" sampledSeconds="29.50" CO_abs="565.512726" CO2_abs="61996.765740" HC_abs="4.010560" PMx_abs="0.896197" NOx_abs="23.582192" fuel_abs="26.649779" electricity_abs="0"
            CO_normed="1547.324518" CO2_normed="169632.107639" HC_normed="10.973470" PMx_normed="2.452124" NOx_normed="64.524284" fuel_normed="72.917646" electricity_normed="0"
            traveltime="0.02" CO_perVeh="0.419731" CO2_perVeh="46.014829" HC_perVeh="0.002977" PMx_perVeh="0.000665" NOx_perVeh="0.017503" fuel_perVeh="0.019780" electricity_perVeh="0"/>
        <edge id=":1110673446_0" sampledSeconds="333.43" CO_abs="3321.831797" CO2_abs="271089.377023" HC_abs="21.549494" PMx_abs="4.916765" NOx_abs="110.504491" fuel_abs="116.528925" electricity_abs="0"
            CO_normed="8483.077582" CO2_normed="692290.386099" HC_normed="55.031693" PMx_normed="12.556113" NOx_normed="282.199168" fuel_normed="297.583974" electricity_normed="0"
            traveltime="0.02" CO_perVeh="0.226802" CO2_perVeh="18.508911" HC_perVeh="0.001471" PMx_perVeh="0.000336" NOx_perVeh="0.007545" fuel_perVeh="0.007956" electricity_perVeh="0"/>
        <edge id=":1110673451_0" sampledSeconds="37.25" CO_abs="409.822644" CO2_abs="29842.744429" HC_abs="2.553460" PMx_abs="0.446749" NOx_abs="11.707631" fuel_abs="12.828198" electricity_abs="0"
            CO_normed="1162.864849" CO2_normed="84678.284539" HC_normed="7.245400" PMx_normed="1.267642" NOx_normed="33.220206" fuel_normed="36.399794" electricity_normed="0"
            traveltime="0.03" CO_perVeh="0.293897" CO2_perVeh="21.401171" HC_perVeh="0.001831" PMx_perVeh="0.000320" NOx_perVeh="0.008396" fuel_perVeh="0.009200" electricity_perVeh="0"/>
        <edge id=":1110673464_0" sampledSeconds="323.05" CO_abs="900.992020" CO2_abs="59141.570726" HC_abs="5.476192" PMx_abs="0.964319" NOx_abs="23.791618" fuel_abs="25.422534" electricity_abs="0"
            CO_normed="48.885865" CO2_normed="3208.892836" HC_normed="0.297126" PMx_normed="0.052322" NOx_normed="1.290881" fuel_normed="1.379371" electricity_normed="0"
            traveltime="1.17" CO_perVeh="3.256967" CO2_perVeh="213.788975" HC_perVeh="0.019796" PMx_perVeh="0.003486" NOx_perVeh="0.086004" fuel_perVeh="0.091899" electricity_perVeh="0"/>
        <edge id=":1110673464_1" sampledSeconds="709.32" CO_abs="16943.061006" CO2_abs="2140092.130874" HC_abs="128.360483" PMx_abs="38.128231" NOx_abs="804.353516" fuel_abs="919.927344" electricity_abs="0"
            CO_normed="900.792890" CO2_normed="113779.899294" HC_normed="6.824399" PMx_normed="2.027121" NOx_normed="42.764169" fuel_normed="48.908754" electricity_normed="0"
            traveltime="0.70" CO_perVeh="16.724538" CO2_perVeh="2112.490296" HC_perVeh="0.126705" PMx_perVeh="0.037636" NOx_perVeh="0.793979" fuel_perVeh="0.908063" electricity_perVeh="0"/>
        <edge id=":1110673479_0" sampledSeconds="133.88" CO_abs="6828.139518" CO2_abs="468840.346996" HC_abs="42.125342" PMx_abs="8.312374" NOx_abs="192.495439" fuel_abs="201.533975" electricity_abs="0"
            CO_normed="17437.257760" CO2_normed="1197293.927209" HC_normed="107.576953" PMx_normed="21.227600" NOx_normed="491.582309" fuel_normed="514.664332" electricity_normed="0"
            traveltime="0.03" CO_perVeh="1.438418" CO2_perVeh="98.766071" HC_perVeh="0.008874" PMx_perVeh="0.001751" NOx_perVeh="0.040551" fuel_perVeh="0.042455" electricity_perVeh="0"/>
        <edge id=":1110673511_0" sampledSeconds="11.73" CO_abs="229.596447" CO2_abs="29869.868191" HC_abs="1.727591" PMx_abs="0.385371" NOx_abs="11.005678" fuel_abs="12.839829" electricity_abs="0"
            CO_normed="586.328446" CO2_normed="76279.722982" HC_normed="4.411809" PMx_normed="0.984136" NOx_normed="28.105582" fuel_normed="32.789518" electricity_normed="0"
            traveltime="0.02" CO_perVeh="0.454646" CO2_perVeh="59.148254" HC_perVeh="0.003421" PMx_perVeh="0.000763" NOx_perVeh="0.021793" fuel_perVeh="0.025425" electricity_perVeh="0"/>
        <edge id=":1110673517_0" sampledSeconds="17.17" CO_abs="780.261395" CO2_abs="55802.901577" HC_abs="4.862044" PMx_abs="0.958595" NOx_abs="22.657282" fuel_abs="23.987254" electricity_abs="0"
            CO_normed="1992.580706" CO2_normed="142505.813774" HC_normed="12.416371" PMx_normed="2.447996" NOx_normed="57.860691" fuel_normed="61.257085" electricity_normed="0"
            traveltime="0.03" CO_perVeh="1.252761" CO2_perVeh="89.595239" HC_perVeh="0.007806" PMx_perVeh="0.001539" NOx_perVeh="0.036378" fuel_perVeh="0.038513" electricity_perVeh="0"/>
        <edge id=":1110673534_0" sampledSeconds="473.79" CO_abs="2613.491345" CO2_abs="238354.672303" HC_abs="17.339495" PMx_abs="3.127484" NOx_abs="89.749185" fuel_abs="102.459307" electricity_abs="0"
            CO_normed="129.344262" CO2_normed="11796.407563" HC_normed="0.858149" PMx_normed="0.154782" NOx_normed="4.441776" fuel_normed="5.070812" electricity_normed="0"
            traveltime="1.43" CO_perVeh="7.873402" CO2_perVeh="718.067096" HC_perVeh="0.052237" PMx_perVeh="0.009422" NOx_perVeh="0.270378" fuel_perVeh="0.308669" electricity_perVeh="0"/>
        <edge id=":1110673534_1" sampledSeconds="185.45" CO_abs="3013.920857" CO2_abs="361809.800513" HC_abs="21.972258" PMx_abs="5.011541" NOx_abs="135.690632" fuel_abs="155.526807" electricity_abs="0"
            CO_normed="145.039347" CO2_normed="17411.425101" HC_normed="1.057374" PMx_normed="0.241171" NOx_normed="6.529860" fuel_normed="7.484439" electricity_normed="0"
            traveltime="1.23" CO_perVeh="20.011352" CO2_perVeh="2402.287183" HC_perVeh="0.145888" PMx_perVeh="0.033275" NOx_perVeh="0.900937" fuel_perVeh="1.032642" electricity_perVeh="0"/>
        <edge id=":1110673549_0" sampledSeconds="60.44" CO_abs="132.355905" CO2_abs="12621.422867" HC_abs="0.897056" PMx_abs="0.194000" NOx_abs="4.889167" fuel_abs="5.425410" electricity_abs="0"
            CO_normed="6.345467" CO2_normed="605.102014" HC_normed="0.043007" PMx_normed="0.009301" NOx_normed="0.234399" fuel_normed="0.260107" electricity_normed="0"
            traveltime="1.26" CO_perVeh="2.757523" CO2_perVeh="262.956594" HC_perVeh="0.018689" PMx_perVeh="0.004042" NOx_perVeh="0.101862" fuel_perVeh="0.113034" electricity_perVeh="0"/>
        <edge id=":1110673549_1" sampledSeconds="638.56" CO_abs="14097.681234" CO2_abs="1862010.361131" HC_abs="108.817378" PMx_abs="32.734244" NOx_abs="695.622613" fuel_abs="800.393045" electricity_abs="0"
            CO_normed="653.784619" CO2_normed="86351.344911" HC_normed="5.046442" PMx_normed="1.518061" NOx_normed="32.259728" fuel_normed="37.118492" electricity_normed="0"
            traveltime="0.80" CO_perVeh="17.752416" CO2_perVeh="2344.724795" HC_perVeh="0.137028" PMx_perVeh="0.041220" NOx_perVeh="0.875958" fuel_perVeh="1.007890" electricity_perVeh="0"/>
        <edge id=":1110673556_0" sampledSeconds="420.41" CO_abs="51289.545656" CO2_abs="2562236.372937" HC_abs="294.446342" PMx_abs="51.648464" NOx_abs="1103.544672" fuel_abs="1101.394703" electricity_abs="0"
            CO_normed="1823.386072" CO2_normed="91089.637402" HC_normed="10.467813" PMx_normed="1.836146" NOx_normed="39.231932" fuel_normed="39.155499" electricity_normed="0"
            traveltime="2.61" CO_perVeh="318.381033" CO2_perVeh="15905.141127" HC_perVeh="1.827782" PMx_perVeh="0.320609" NOx_perVeh="6.850279" fuel_perVeh="6.836933" electricity_perVeh="0"/>
        <edge id=":1110673556_2" sampledSeconds="247.76" CO_abs="24021.425570" CO2_abs="1036310.261767" HC_abs="133.699101" PMx_abs="19.889761" NOx_abs="441.225164" fuel_abs="445.469194" electricity_abs="0"
            CO_normed="892.930878" CO2_normed="38522.003168" HC_normed="4.969899" PMx_normed="0.739348" NOx_normed="16.401340" fuel_normed="16.559100" electricity_normed="0"
            traveltime="3.01" CO_perVeh="291.375289" CO2_perVeh="12570.244889" HC_perVeh="1.621744" PMx_perVeh="0.241259" NOx_perVeh="5.351977" fuel_perVeh="5.403456" electricity_perVeh="0"/>
        <edge id=":1110673556_3" sampledSeconds="403.86" CO_abs="34903.894879" CO2_abs="1236388.965099" HC_abs="187.696745" PMx_abs="23.559941" NOx_abs="527.087478" fuel_abs="531.480611" electricity_abs="0"
            CO_normed="2951.499745" CO2_normed="104549.985844" HC_normed="15.871779" PMx_normed="1.992246" NOx_normed="44.570916" fuel_normed="44.942402" electricity_normed="0"
            traveltime="1.74" CO_perVeh="150.648504" CO2_perVeh="5336.371443" HC_perVeh="0.810117" PMx_perVeh="0.101687" NOx_perVeh="2.274959" fuel_perVeh="2.293920" electricity_perVeh="0"/>
        <edge id=":1110673556_4" sampledSeconds="210.64" CO_abs="22027.171161" CO2_abs="889399.144930" HC_abs="121.184288" PMx_abs="17.412329" NOx_abs="381.514580" fuel_abs="382.318478" electricity_abs="0"
            CO_normed="1137.927600" CO2_normed="45946.518825" HC_normed="6.260402" PMx_normed="0.899524" NOx_normed="19.709111" fuel_normed="19.750641" electricity_normed="0"
            traveltime="2.38" CO_perVeh="249.007477" CO2_perVeh="10054.265942" HC_perVeh="1.369935" PMx_perVeh="0.196839" NOx_perVeh="4.312854" fuel_perVeh="4.321942" electricity_perVeh="0"/>
        <edge id=":1110673556_5" sampledSeconds="24.13" CO_abs="2038.448309" CO2_abs="83315.233116" HC_abs="11.216624" PMx_abs="1.514152" NOx_abs="34.978585" fuel_abs="35.814171" electricity_abs="0"
            CO_normed="146.776028" CO2_normed="5999.013532" HC_normed="0.807640" PMx_normed="0.109025" NOx_normed="2.518591" fuel_normed="2.578757" electricity_normed="0"
            traveltime="1.67" CO_perVeh="140.929760" CO2_perVeh="5760.065499" HC_perVeh="0.775470" PMx_perVeh="0.104682" NOx_perVeh="2.418273" fuel_perVeh="2.476041" electricity_perVeh="0"/>
        <edge id=":1110673556_6" sampledSeconds="312.28" CO_abs="37362.369272" CO2_abs="1894272.989171" HC_abs="215.189919" PMx_abs="38.236718" NOx_abs="815.435292" fuel_abs="814.265630" electricity_abs="0"
            CO_normed="1361.754291" CO2_normed="69040.974171" HC_normed="7.843073" PMx_normed="1.393622" NOx_normed="29.720345" fuel_normed="29.677714" electricity_normed="0"
            traveltime="2.47" CO_perVeh="295.879909" CO2_perVeh="15001.118269" HC_perVeh="1.704131" PMx_perVeh="0.302804" NOx_perVeh="6.457592" fuel_perVeh="6.448329" electricity_perVeh="0"/>
        <edge id=":1110673561_0" sampledSeconds="102.59" CO_abs="9652.346550" CO2_abs="694406.737334" HC_abs="60.620849" PMx_abs="13.991291" NOx_abs="293.255428" fuel_abs="298.492419" electricity_abs="0"
            CO_normed="442.011960" CO2_normed="31799.115535" HC_normed="2.776023" PMx_normed="0.640706" NOx_normed="13.429108" fuel_normed="13.668927" electricity_normed="0"
            traveltime="1.21" CO_perVeh="113.908188" CO2_perVeh="8194.754777" HC_perVeh="0.715392" PMx_perVeh="0.165112" NOx_perVeh="3.460733" fuel_perVeh="3.522535" electricity_perVeh="0"/>
        <edge id=":1110673561_1" sampledSeconds="1315.06" CO_abs="121669.417416" CO2_abs="8429676.274436" HC_abs="757.990853" PMx_abs="176.188708" NOx_abs="3603.789985" fuel_abs="3623.510740" electricity_abs="0"
            CO_normed="5432.018005" CO2_normed="376348.915530" HC_normed="33.841043" PMx_normed="7.866071" NOx_normed="160.893777" fuel_normed="161.774224" electricity_normed="0"
            traveltime="1.19" CO_perVeh="110.348551" CO2_perVeh="7645.327685" HC_perVeh="0.687463" PMx_perVeh="0.159795" NOx_perVeh="3.268471" fuel_perVeh="3.286357" electricity_perVeh="0"/>
        <edge id=":1110673562_0" sampledSeconds="103.84" CO_abs="2138.652248" CO2_abs="178465.302379" HC_abs="13.794559" PMx_abs="2.312282" NOx_abs="67.274177" fuel_abs="76.715393" electricity_abs="0"
            CO_normed="6068.389723" CO2_normed="506392.288797" HC_normed="39.141830" PMx_normed="6.561062" NOx_normed="190.889345" fuel_normed="217.678634" electricity_normed="0"
            traveltime="0.03" CO_perVeh="0.545152" CO2_perVeh="45.491618" HC_perVeh="0.003516" PMx_perVeh="0.000589" NOx_perVeh="0.017148" fuel_perVeh="0.019555" electricity_perVeh="0"/>
        <edge id=":1110673564_0" sampledSeconds="28.36" CO_abs="476.389582" CO2_abs="60057.876874" HC_abs="3.536889" PMx_abs="0.796097" NOx_abs="22.273205" fuel_abs="25.816391" electricity_abs="0"
            CO_normed="3649.718016" CO2_normed="460115.677264" HC_normed="27.096827" PMx_normed="6.099064" NOx_normed="170.639575" fuel_normed="197.784650" electricity_normed="0"
            traveltime="7.797753e-03" CO_perVeh="0.130966" CO2_perVeh="16.510757" HC_perVeh="0.000972" PMx_perVeh="0.000219" NOx_perVeh="0.006123" fuel_perVeh="0.007097" electricity_perVeh="0"/>
        <edge id=":1110673588_0" sampledSeconds="11.69" CO_abs="245.043323" CO2_abs="27868.773881" HC_abs="1.764373" PMx_abs="0.408839" NOx_abs="10.609973" fuel_abs="11.979590" electricity_abs="0"
            CO_normed="750.930803" CO2_normed="85403.350475" HC_normed="5.406889" PMx_normed="1.252881" NOx_normed="32.514069" fuel_normed="36.711235" electricity_normed="0"
            traveltime="0.02" CO_perVeh="0.408406" CO2_perVeh="46.447956" HC_perVeh="0.002941" PMx_perVeh="0.000681" NOx_perVeh="0.017683" fuel_perVeh="0.019966" electricity_perVeh="0"/>
        <edge id=":1110673601_0" sampledSeconds="29.39" CO_abs="613.164941" CO2_abs="66562.715134" HC_abs="4.332856" PMx_abs="0.969606" NOx_abs="25.389112" fuel_abs="28.612478" electricity_abs="0"
            CO_normed="1677.707861" CO2_normed="182125.204818" HC_normed="11.855321" PMx_normed="2.652981" NOx_normed="69.468278" fuel_normed="78.287875" electricity_normed="0"
            traveltime="0.02" CO_perVeh="0.455099" CO2_perVeh="49.403738" HC_perVeh="0.003216" PMx_perVeh="0.000720" NOx_perVeh="0.018844" fuel_perVeh="0.021237" electricity_perVeh="0"/>
        <edge id=":1110673617_0" sampledSeconds="237.85" CO_abs="6157.585001" CO2_abs="753109.476971" HC_abs="46.129484" PMx_abs="13.538129" NOx_abs="284.860482" fuel_abs="323.727074" electricity_abs="0"
            CO_normed="15724.839331" CO2_normed="1923241.907566" HC_normed="117.802469" PMx_normed="34.572791" NOx_normed="727.458137" fuel_normed="826.713106" electricity_normed="0"
            traveltime="0.01" CO_perVeh="0.377696" CO2_perVeh="46.194525" HC_perVeh="0.002830" PMx_perVeh="0.000830" NOx_perVeh="0.017473" fuel_perVeh="0.019857" electricity_perVeh="0"/>
        <edge id=":1110673621_0" sampledSeconds="26.00" CO_abs="507.400888" CO2_abs="55228.810666" HC_abs="3.561083" PMx_abs="0.808409" NOx_abs="21.055603" fuel_abs="23.740506" electricity_abs="0"
            CO_normed="1554.920788" CO2_normed="169247.685377" HC_normed="10.912875" PMx_normed="2.477355" NOx_normed="64.524511" fuel_normed="72.752350" electricity_normed="0"
            traveltime="0.02" CO_perVeh="0.384395" CO2_perVeh="41.840008" HC_perVeh="0.002698" PMx_perVeh="0.000612" NOx_perVeh="0.015951" fuel_perVeh="0.017985" electricity_perVeh="0"/>
        <edge id=":1110673630_0" sampledSeconds="53.94" CO_abs="446.917153" CO2_abs="41504.613440" HC_abs="2.980408" PMx_abs="0.533597" NOx_abs="15.546598" fuel_abs="17.841213" electricity_abs="0"
            CO_normed="24.421710" CO2_normed="2268.012352" HC_normed="0.162864" PMx_normed="0.029158" NOx_normed="0.849541" fuel_normed="0.974930" electricity_normed="0"
            traveltime="1.26" CO_perVeh="10.431837" CO2_perVeh="968.791090" HC_perVeh="0.069568" PMx_perVeh="0.012455" NOx_perVeh="0.362885" fuel_perVeh="0.416445" electricity_perVeh="0"/>
        <edge id=":1110673630_1" sampledSeconds="7.33" CO_abs="5.508954" CO2_abs="489.030982" HC_abs="0.036316" PMx_abs="0.006848" NOx_abs="0.187341" fuel_abs="0.210215" electricity_abs="0"
            CO_normed="0.367002" CO2_normed="32.578838" HC_normed="0.002419" PMx_normed="0.000456" NOx_normed="0.012481" fuel_normed="0.014004" electricity_normed="0"
            traveltime="1.04" CO_perVeh="0.779729" CO2_perVeh="69.216693" HC_perVeh="0.005140" PMx_perVeh="0.000969" NOx_perVeh="0.026516" fuel_perVeh="0.029753" electricity_perVeh="0"/>
        <edge id=":1110673650_0" sampledSeconds="143.56" CO_abs="2316.188953" CO2_abs="283322.481153" HC_abs="17.022680" PMx_abs="3.866472" NOx_abs="105.850122" fuel_abs="121.788470" electricity_abs="0"
            CO_normed="5914.932420" CO2_normed="723530.490281" HC_normed="43.471411" PMx_normed="9.873944" NOx_normed="270.313143" fuel_normed="311.015459" electricity_normed="0"
            traveltime="0.02" CO_perVeh="0.371881" CO2_perVeh="45.489450" HC_perVeh="0.002733" PMx_perVeh="0.000621" NOx_perVeh="0.016995" fuel_perVeh="0.019554" electricity_perVeh="0"/>
        <edge id=":1110673655_0" sampledSeconds="44.87" CO_abs="833.661643" CO2_abs="89471.903451" HC_abs="5.838247" PMx_abs="1.286154" NOx_abs="34.018621" fuel_abs="38.460193" electricity_abs="0"
            CO_normed="2128.950780" CO2_normed="228487.516794" HC_normed="14.909334" PMx_normed="3.284495" NOx_normed="86.874539" fuel_normed="98.217134" electricity_normed="0"
            traveltime="0.02" CO_perVeh="0.446166" CO2_perVeh="47.884348" HC_perVeh="0.003125" PMx_perVeh="0.000688" NOx_perVeh="0.018206" fuel_perVeh="0.020583" electricity_perVeh="0"/>
        <edge id=":1110673663_0" sampledSeconds="108.97" CO_abs="1918.790608" CO2_abs="213344.131965" HC_abs="13.646420" PMx_abs="3.085970" NOx_abs="81.095493" fuel_abs="91.707566" electricity_abs="0"
            CO_normed="89.745099" CO2_normed="9978.467804" HC_normed="0.638266" PMx_normed="0.144336" NOx_normed="3.792974" fuel_normed="4.289319" electricity_normed="0"
            traveltime="1.28" CO_perVeh="22.537101" CO2_perVeh="2505.827476" HC_perVeh="0.160284" PMx_perVeh="0.036246" NOx_perVeh="0.952505" fuel_perVeh="1.077149" electricity_perVeh="0"/>
        <edge id=":1110673663_1" sampledSeconds="154.96" CO_abs="2317.666185" CO2_abs="308817.906309" HC_abs="17.564783" PMx_abs="4.076223" NOx_abs="113.998783" fuel_abs="132.747964" electricity_abs="0"
            CO_normed="108.533708" CO2_normed="14461.596192" HC_normed="0.822539" PMx_normed="0.190885" NOx_normed="5.338435" fuel_normed="6.216438" electricity_normed="0"
            traveltime="1.25" CO_perVeh="18.766204" CO2_perVeh="2500.506713" HC_perVeh="0.142223" PMx_perVeh="0.033005" NOx_perVeh="0.923051" fuel_perVeh="1.074864" electricity_perVeh="0"/>
        <edge id=":1110673666_0" sampledSeconds="192.38" CO_abs="3979.697420" CO2_abs="324545.406421" HC_abs="25.498375" PMx_abs="4.242120" NOx_abs="122.720622" fuel_abs="139.509636" electricity_abs="0"