<?xml version="1.0" encoding="UTF-8"?>

<!-- generated on Tue Nov 10 04:29:14 2020 by Eclipse SUMO sumo Version 1.7.0
<configuration xmlns:xsi="http://www.w3.org/2001/XMLSchema-instance" xsi:noNamespaceSchemaLocation="http://sumo.dlr.de/xsd/sumoConfiguration.xsd">

    <input>
        <net-file value="../dataSets/Porto/8AM9AM_Routing_SaoBento/Porto.net.xml"/>
        <route-files value="../results/Porto/8AM9AM_Routing_SaoBento/cost_co2-ttime/solution4/Porto.rou.xml"/>
        <additional-files value="moreOutputInfo.xml"/>
    </input>

    <output>
        <emission-output.precision value="6"/>
        <tripinfo-output value="../results/Porto/8AM9AM_Routing_SaoBento/cost_co2-ttime/solution4/Porto-tripinfo"/>
    </output>

    <processing>
        <collision.action value="warn"/>
        <time-to-teleport value="-1"/>
    </processing>

    <emissions>
        <device.emissions.probability value="1"/>
    </emissions>

    <gui_only>
        <quit-on-end value="true"/>
        <start value="true"/>
    </gui_only>

</configuration>
-->

<meandata xmlns:xsi="http://www.w3.org/2001/XMLSchema-instance" xsi:noNamespaceSchemaLocation="http://sumo.dlr.de/xsd/meandata_file.xsd">
    <interval begin="0.00" end="8561.00" id="emissions-detector">
        <edge id=":1092997347_0" sampledSeconds="593.00" CO_abs="72394.436937" CO2_abs="3095848.567771" HC_abs="402.884293" PMx_abs="62.639360" NOx_abs="1339.681348" fuel_abs="1330.779590" electricity_abs="0"
            CO_normed="69187.959397" CO2_normed="2958727.964016" HC_normed="385.039836" PMx_normed="59.864952" NOx_normed="1280.344494" fuel_normed="1271.837010" electricity_normed="0"
            traveltime="0.07" CO_perVeh="8.301738" CO2_perVeh="355.012419" HC_perVeh="0.046200" PMx_perVeh="0.007183" NOx_perVeh="0.153626" fuel_perVeh="0.152605" electricity_perVeh="0"/>
        <edge id=":1103427051_0" sampledSeconds="19.36" CO_abs="1633.525541" CO2_abs="92457.325902" HC_abs="9.634326" PMx_abs="1.816762" NOx_abs="39.454787" fuel_abs="39.743302" electricity_abs="0"
            CO_normed="2368.677502" CO2_normed="134066.828017" HC_normed="13.970159" PMx_normed="2.634378" NOx_normed="57.211022" fuel_normed="57.629380" electricity_normed="0"
            traveltime="0.03" CO_perVeh="2.540339" CO2_perVeh="143.782843" HC_perVeh="0.014983" PMx_perVeh="0.002825" NOx_perVeh="0.061357" fuel_perVeh="0.061806" electricity_perVeh="0"/>
        <edge id=":1105984386_0" sampledSeconds="10.59" CO_abs="219.921097" CO2_abs="14847.450494" HC_abs="1.343386" PMx_abs="0.225861" NOx_abs="5.861832" fuel_abs="6.382330" electricity_abs="0"
            CO_normed="9.524138" CO2_normed="642.999536" HC_normed="0.058178" PMx_normed="0.009781" NOx_normed="0.253859" fuel_normed="0.276400" electricity_normed="0"
            traveltime="1.02" CO_perVeh="21.096956" CO2_perVeh="1424.310851" HC_perVeh="0.128871" PMx_perVeh="0.021667" NOx_perVeh="0.562324" fuel_perVeh="0.612255" electricity_perVeh="0"/>
        <edge id=":1105984390_0" sampledSeconds="10.69" CO_abs="22.196974" CO2_abs="4025.894128" HC_abs="0.190859" PMx_abs="0.036117" NOx_abs="1.376794" fuel_abs="1.730584" electricity_abs="0"
            CO_normed="0.743160" CO2_normed="134.787840" HC_normed="0.006390" PMx_normed="0.001209" NOx_normed="0.046095" fuel_normed="0.057940" electricity_normed="0"
            traveltime="1.11" CO_perVeh="2.300850" CO2_perVeh="417.308164" HC_perVeh="0.019784" PMx_perVeh="0.003744" NOx_perVeh="0.142713" fuel_perVeh="0.179385" electricity_perVeh="0"/>
        <edge id=":1105984390_1" sampledSeconds="2398.39" CO_abs="61203.578270" CO2_abs="7387378.512989" HC_abs="455.216165" PMx_abs="132.759860" NOx_abs="2804.299225" fuel_abs="3175.493270" electricity_abs="0"
            CO_normed="1960.153541" CO2_normed="236593.947017" HC_normed="14.579108" PMx_normed="4.251871" NOx_normed="89.812675" fuel_normed="101.700825" electricity_normed="0"
            traveltime="0.65" CO_perVeh="16.528534" CO2_perVeh="1995.022839" HC_perVeh="0.122935" PMx_perVeh="0.035853" NOx_perVeh="0.757324" fuel_perVeh="0.857568" electricity_perVeh="0"/>
        <edge id=":1105984395_0" sampledSeconds="4.18" CO_abs="66.497097" CO2_abs="4837.807885" HC_abs="0.412699" PMx_abs="0.064516" NOx_abs="1.846643" fuel_abs="2.079592" electricity_abs="0"
            CO_normed="30.394350" CO2_normed="2211.254829" HC_normed="0.188636" PMx_normed="0.029489" NOx_normed="0.844060" fuel_normed="0.950535" electricity_normed="0"
            traveltime="0.10" CO_perVeh="1.541379" CO2_perVeh="112.138656" HC_perVeh="0.009566" PMx_perVeh="0.001495" NOx_perVeh="0.042805" fuel_perVeh="0.048204" electricity_perVeh="0"/>
        <edge id=":1105984398_0" sampledSeconds="10.73" CO_abs="725.684241" CO2_abs="48579.369644" HC_abs="4.448164" PMx_abs="0.869595" NOx_abs="20.033806" fuel_abs="20.882147" electricity_abs="0"
            CO_normed="25.240584" CO2_normed="1689.676555" HC_normed="0.154715" PMx_normed="0.030246" NOx_normed="0.696811" fuel_normed="0.726318" electricity_normed="0"
            traveltime="1.15" CO_perVeh="77.964054" CO2_perVeh="5219.135815" HC_perVeh="0.477890" PMx_perVeh="0.093425" NOx_perVeh="2.152337" fuel_perVeh="2.243478" electricity_perVeh="0"/>
        <edge id=":1105984398_1" sampledSeconds="648.73" CO_abs="11417.325997" CO2_abs="1374137.819846" HC_abs="83.478846" PMx_abs="19.442580" NOx_abs="517.393598" fuel_abs="590.683445" electricity_abs="0"
            CO_normed="384.396980" CO2_normed="46264.285358" HC_normed="2.810554" PMx_normed="0.654590" NOx_normed="17.419537" fuel_normed="19.887050" electricity_normed="0"
            traveltime="0.95" CO_perVeh="16.755268" CO2_perVeh="2016.588385" HC_perVeh="0.122508" PMx_perVeh="0.028533" NOx_perVeh="0.759291" fuel_perVeh="0.866846" electricity_perVeh="0"/>
        <edge id=":1106006327_0" sampledSeconds="700.46" CO_abs="94846.913946" CO2_abs="3092425.818850" HC_abs="504.696517" PMx_abs="64.586386" NOx_abs="1354.128217" fuel_abs="1329.324187" electricity_abs="0"
            CO_normed="4501.606058" CO2_normed="146772.121723" HC_normed="23.953809" PMx_normed="3.065387" NOx_normed="64.269374" fuel_normed="63.092130" electricity_normed="0"
            traveltime="2.08" CO_perVeh="281.938696" CO2_perVeh="9192.439334" HC_perVeh="1.500244" PMx_perVeh="0.191987" NOx_perVeh="4.025235" fuel_perVeh="3.951504" electricity_perVeh="0"/>
        <edge id=":1106006327_1" sampledSeconds="680.59" CO_abs="92132.196060" CO2_abs="3086254.682321" HC_abs="492.256074" PMx_abs="64.383080" NOx_abs="1350.718880" fuel_abs="1326.669410" electricity_abs="0"
            CO_normed="3813.253863" CO2_normed="127736.807464" HC_normed="20.373957" PMx_normed="2.664747" NOx_normed="55.904822" fuel_normed="54.909440" electricity_normed="0"
            traveltime="2.28" CO_perVeh="309.265482" CO2_perVeh="10359.809951" HC_perVeh="1.652384" PMx_perVeh="0.216118" NOx_perVeh="4.534036" fuel_perVeh="4.453308" electricity_perVeh="0"/>
        <edge id=":1106006327_2" sampledSeconds="0.00" CO_abs="0" CO2_abs="0" HC_abs="0" PMx_abs="0" NOx_abs="0" fuel_abs="0" electricity_abs="0"
            CO_normed="0" CO2_normed="0" HC_normed="0" PMx_normed="0" NOx_normed="0" fuel_normed="0" electricity_normed="0"/>
        <edge id=":1106006327_3" sampledSeconds="0.00" CO_abs="0" CO2_abs="0" HC_abs="0" PMx_abs="0" NOx_abs="0" fuel_abs="0" electricity_abs="0"
            CO_normed="0" CO2_normed="0" HC_normed="0" PMx_normed="0" NOx_normed="0" fuel_normed="0" electricity_normed="0"/>
        <edge id=":1107381198_0" sampledSeconds="0.00" CO_abs="0" CO2_abs="0" HC_abs="0" PMx_abs="0" NOx_abs="0" fuel_abs="0" electricity_abs="0"
            CO_normed="0" CO2_normed="0" HC_normed="0" PMx_normed="0" NOx_normed="0" fuel_normed="0" electricity_normed="0"/>
        <edge id=":1107381198_1" sampledSeconds="103.95" CO_abs="4466.510960" CO2_abs="175732.487555" HC_abs="24.388943" PMx_abs="3.072367" NOx_abs="73.076357" fuel_abs="75.541289" electricity_abs="0"
            CO_normed="204.822221" CO2_normed="8058.620879" HC_normed="1.118412" PMx_normed="0.140891" NOx_normed="3.351086" fuel_normed="3.464121" electricity_normed="0"
            traveltime="1.56" CO_perVeh="66.872233" CO2_perVeh="2631.052297" HC_perVeh="0.365149" PMx_perVeh="0.045999" NOx_perVeh="1.094093" fuel_perVeh="1.130998" electricity_perVeh="0"/>
        <edge id=":1110338277_0" sampledSeconds="160.01" CO_abs="2271.880233" CO2_abs="290849.480640" HC_abs="16.917472" PMx_abs="3.864701" NOx_abs="107.788479" fuel_abs="125.024090" electricity_abs="0"
            CO_normed="3411.971581" CO2_normed="436805.667856" HC_normed="25.407120" PMx_normed="5.804113" NOx_normed="161.879671" fuel_normed="187.764582" electricity_normed="0"
            traveltime="0.02" CO_perVeh="0.307705" CO2_perVeh="39.392854" HC_perVeh="0.002291" PMx_perVeh="0.000523" NOx_perVeh="0.014599" fuel_perVeh="0.016933" electricity_perVeh="0"/>
        <edge id=":1110338293_0" sampledSeconds="6586.60" CO_abs="611666.416551" CO2_abs="10690022.663482" HC_abs="3035.222694" PMx_abs="255.190463" NOx_abs="4832.603762" fuel_abs="4595.461382" electricity_abs="0"
            CO_normed="857376.124123" CO2_normed="14984262.581683" HC_normed="4254.488066" PMx_normed="357.701852" NOx_normed="6773.886829" fuel_normed="6441.483073" electricity_normed="0"
            traveltime="0.44" CO_perVeh="40.879098" CO2_perVeh="714.439235" HC_perVeh="0.202851" PMx_perVeh="0.017055" NOx_perVeh="0.322974" fuel_perVeh="0.307125" electricity_perVeh="0"/>
        <edge id=":1110338295_0" sampledSeconds="0.00" CO_abs="0" CO2_abs="0" HC_abs="0" PMx_abs="0" NOx_abs="0" fuel_abs="0" electricity_abs="0"
            CO_normed="0" CO2_normed="0" HC_normed="0" PMx_normed="0" NOx_normed="0" fuel_normed="0" electricity_normed="0"/>
        <edge id=":1110673403_0" sampledSeconds="200.39" CO_abs="3152.477256" CO2_abs="380968.660557" HC_abs="23.067846" PMx_abs="5.269480" NOx_abs="142.809741" fuel_abs="163.762395" electricity_abs="0"
            CO_normed="4418.844420" CO2_normed="534005.831875" HC_normed="32.334324" PMx_normed="7.386258" NOx_normed="200.177187" fuel_normed="229.546635" electricity_normed="0"
            traveltime="0.02" CO_perVeh="0.364350" CO2_perVeh="44.030742" HC_perVeh="0.002666" PMx_perVeh="0.000609" NOx_perVeh="0.016505" fuel_perVeh="0.018927" electricity_perVeh="0"/>
        <edge id=":1110673412_0" sampledSeconds="939.72" CO_abs="166907.492844" CO2_abs="11388183.468775" HC_abs="1038.725605" PMx_abs="250.318742" NOx_abs="4894.223530" fuel_abs="4895.219111" electricity_abs="0"
            CO_normed="242022.553858" CO2_normed="16513322.439608" HC_normed="1506.193756" PMx_normed="362.972209" NOx_normed="7096.820267" fuel_normed="7098.263899" electricity_normed="0"
            traveltime="0.02" CO_perVeh="2.756860" CO2_perVeh="188.101933" HC_perVeh="0.017157" PMx_perVeh="0.004135" NOx_perVeh="0.080839" fuel_perVeh="0.080856" electricity_perVeh="0"/>
        <edge id=":1110673414_0" sampledSeconds="0.00" CO_abs="0" CO2_abs="0" HC_abs="0" PMx_abs="0" NOx_abs="0" fuel_abs="0" electricity_abs="0"
            CO_normed="0" CO2_normed="0" HC_normed="0" PMx_normed="0" NOx_normed="0" fuel_normed="0" electricity_normed="0"/>
        <edge id=":1110673414_1" sampledSeconds="244.16" CO_abs="16323.704452" CO2_abs="621380.087714" HC_abs="88.761503" PMx_abs="11.509131" NOx_abs="262.549268" fuel_abs="267.109172" electricity_abs="0"
            CO_normed="760.166937" CO2_normed="28936.605632" HC_normed="4.133471" PMx_normed="0.535961" NOx_normed="12.226469" fuel_normed="12.438816" electricity_normed="0"
            traveltime="1.58" CO_perVeh="105.909735" CO2_perVeh="4031.572657" HC_perVeh="0.575893" PMx_perVeh="0.074672" NOx_perVeh="1.703444" fuel_perVeh="1.733030" electricity_perVeh="0"/>
        <edge id=":1110673417_0" sampledSeconds="28.94" CO_abs="493.112955" CO2_abs="57078.063062" HC_abs="3.561107" PMx_abs="0.783950" NOx_abs="21.402673" fuel_abs="24.535482" electricity_abs="0"
            CO_normed="740.570460" CO2_normed="85721.388950" HC_normed="5.348168" PMx_normed="1.177358" NOx_normed="32.143117" fuel_normed="36.848054" electricity_normed="0"
            traveltime="0.02" CO_perVeh="0.376022" CO2_perVeh="43.524763" HC_perVeh="0.002716" PMx_perVeh="0.000598" NOx_perVeh="0.016321" fuel_perVeh="0.018709" electricity_perVeh="0"/>
        <edge id=":1110673446_0" sampledSeconds="1312.63" CO_abs="14268.951152" CO2_abs="1145385.938350" HC_abs="92.163539" PMx_abs="21.147688" NOx_abs="469.602823" fuel_abs="492.348625" electricity_abs="0"
            CO_normed="20000.866000" CO2_normed="1605493.664315" HC_normed="129.186131" PMx_normed="29.642828" NOx_normed="658.244816" fuel_normed="690.127731" electricity_normed="0"
            traveltime="0.02" CO_perVeh="0.247514" CO2_perVeh="19.868259" HC_perVeh="0.001599" PMx_perVeh="0.000367" NOx_perVeh="0.008146" fuel_perVeh="0.008540" electricity_perVeh="0"/>
        <edge id=":1110673451_0" sampledSeconds="36.76" CO_abs="360.195068" CO2_abs="25036.742710" HC_abs="2.215935" PMx_abs="0.373635" NOx_abs="9.825116" fuel_abs="10.762305" electricity_abs="0"
            CO_normed="560.985972" CO2_normed="38993.486291" HC_normed="3.451209" PMx_normed="0.581917" NOx_normed="15.302132" fuel_normed="16.761757" electricity_normed="0"
            traveltime="0.03" CO_perVeh="0.265384" CO2_perVeh="18.446544" HC_perVeh="0.001633" PMx_perVeh="0.000275" NOx_perVeh="0.007239" fuel_perVeh="0.007929" electricity_perVeh="0"/>
        <edge id=":1110673464_0" sampledSeconds="1025.27" CO_abs="2712.024829" CO2_abs="214079.343171" HC_abs="17.222029" PMx_abs="2.842683" NOx_abs="81.286877" fuel_abs="92.024509" electricity_abs="0"
            CO_normed="80.767561" CO2_normed="6375.556086" HC_normed="0.512894" PMx_normed="0.084659" NOx_normed="2.420827" fuel_normed="2.740607" electricity_normed="0"
            traveltime="1.22" CO_perVeh="3.216082" CO2_perVeh="253.868152" HC_perVeh="0.020423" PMx_perVeh="0.003371" NOx_perVeh="0.096395" fuel_perVeh="0.109128" electricity_perVeh="0"/>
        <edge id=":1110673464_1" sampledSeconds="2603.46" CO_abs="63005.602585" CO2_abs="7663858.421946" HC_abs="469.868834" PMx_abs="137.081679" NOx_abs="2907.208366" fuel_abs="3294.339575" electricity_abs="0"
            CO_normed="1838.625133" CO2_normed="223646.185942" HC_normed="13.711680" PMx_normed="4.000308" NOx_normed="84.837953" fuel_normed="96.135189" electricity_normed="0"
            traveltime="0.72" CO_perVeh="17.375356" CO2_perVeh="2113.498876" HC_perVeh="0.129578" PMx_perVeh="0.037804" NOx_perVeh="0.801735" fuel_perVeh="0.908496" electricity_perVeh="0"/>
        <edge id=":1110673479_0" sampledSeconds="134.27" CO_abs="6711.427462" CO2_abs="462344.080281" HC_abs="41.424586" PMx_abs="8.106124" NOx_abs="189.208852" fuel_abs="198.741637" electricity_abs="0"
            CO_normed="9407.444170" CO2_normed="648070.197800" HC_normed="58.065066" PMx_normed="11.362398" NOx_normed="265.215072" fuel_normed="278.577227" electricity_normed="0"
            traveltime="0.03" CO_perVeh="1.418856" CO2_perVeh="97.743719" HC_perVeh="0.008758" PMx_perVeh="0.001714" NOx_perVeh="0.040000" fuel_perVeh="0.042016" electricity_perVeh="0"/>
        <edge id=":1110673511_0" sampledSeconds="63.44" CO_abs="966.923282" CO2_abs="109707.563757" HC_abs="6.920381" PMx_abs="1.479980" NOx_abs="41.068211" fuel_abs="47.158757" electricity_abs="0"
            CO_normed="1355.341594" CO2_normed="153777.685443" HC_normed="9.700335" PMx_normed="2.074495" NOx_normed="57.565534" fuel_normed="66.102685" electricity_normed="0"
            traveltime="0.02" CO_perVeh="0.370587" CO2_perVeh="42.046974" HC_perVeh="0.002652" PMx_perVeh="0.000567" NOx_perVeh="0.015740" fuel_perVeh="0.018074" electricity_perVeh="0"/>
        <edge id=":1110673517_0" sampledSeconds="182.09" CO_abs="8274.686858" CO2_abs="593356.019524" HC_abs="51.602975" PMx_abs="10.219307" NOx_abs="241.193314" fuel_abs="255.058016" electricity_abs="0"
            CO_normed="11598.673321" CO2_normed="831710.341582" HC_normed="72.332169" PMx_normed="14.324458" NOx_normed="338.081973" fuel_normed="357.516200" electricity_normed="0"
            traveltime="0.03" CO_perVeh="1.266922" CO2_perVeh="90.847609" HC_perVeh="0.007901" PMx_perVeh="0.001565" NOx_perVeh="0.036929" fuel_perVeh="0.039051" electricity_perVeh="0"/>
        <edge id=":1110673534_0" sampledSeconds="659.59" CO_abs="5047.776611" CO2_abs="419906.591985" HC_abs="32.584333" PMx_abs="5.712947" NOx_abs="159.961383" fuel_abs="180.501355" electricity_abs="0"
            CO_normed="137.122011" CO2_normed="11406.692654" HC_normed="0.885148" PMx_normed="0.155191" NOx_normed="4.345324" fuel_normed="4.903289" electricity_normed="0"
            traveltime="1.45" CO_perVeh="11.099309" CO2_perVeh="923.312090" HC_perVeh="0.071648" PMx_perVeh="0.012562" NOx_perVeh="0.351731" fuel_perVeh="0.396896" electricity_perVeh="0"/>
        <edge id=":1110673534_1" sampledSeconds="263.52" CO_abs="4306.740416" CO2_abs="526221.367504" HC_abs="31.609186" PMx_abs="7.240092" NOx_abs="196.859188" fuel_abs="226.200449" electricity_abs="0"
            CO_normed="113.758442" CO2_normed="13899.635743" HC_normed="0.834927" PMx_normed="0.191240" NOx_normed="5.199848" fuel_normed="5.974869" electricity_normed="0"
            traveltime="1.22" CO_perVeh="19.982195" CO2_perVeh="2441.535131" HC_perVeh="0.146659" PMx_perVeh="0.033592" NOx_perVeh="0.913377" fuel_perVeh="1.049513" electricity_perVeh="0"/>
        <edge id=":1110673549_0" sampledSeconds="654.20" CO_abs="1711.244376" CO2_abs="158195.130291" HC_abs="11.430184" PMx_abs="2.359193" NOx_abs="60.767649" fuel_abs="68.001475" electricity_abs="0"
            CO_normed="45.031173" CO2_normed="4162.884287" HC_normed="0.300784" PMx_normed="0.062082" NOx_normed="1.599093" fuel_normed="1.789450" electricity_normed="0"
            traveltime="1.30" CO_perVeh="3.399835" CO2_perVeh="314.296003" HC_perVeh="0.022709" PMx_perVeh="0.004687" NOx_perVeh="0.120731" fuel_perVeh="0.135103" electricity_perVeh="0"/>
        <edge id=":1110673549_1" sampledSeconds="3198.07" CO_abs="68768.330548" CO2_abs="9202485.490790" HC_abs="532.705406" PMx_abs="160.993542" NOx_abs="3430.131045" fuel_abs="3955.727929" electricity_abs="0"
            CO_normed="1750.477134" CO2_normed="234246.495431" HC_normed="13.559856" PMx_normed="4.098042" NOx_normed="87.312952" fuel_normed="100.691863" electricity_normed="0"
            traveltime="0.81" CO_perVeh="17.344156" CO2_perVeh="2320.971668" HC_perVeh="0.134354" PMx_perVeh="0.040604" NOx_perVeh="0.865118" fuel_perVeh="0.997680" electricity_perVeh="0"/>
        <edge id=":1110673556_0" sampledSeconds="466.94" CO_abs="57684.380950" CO2_abs="2767377.517958" HC_abs="328.403633" PMx_abs="56.010836" NOx_abs="1194.109420" fuel_abs="1189.577551" electricity_abs="0"
            CO_normed="1125.612651" CO2_normed="54000.668681" HC_normed="6.408239" PMx_normed="1.092956" NOx_normed="23.301016" fuel_normed="23.212584" electricity_normed="0"
            traveltime="2.75" CO_perVeh="340.044228" CO2_perVeh="16313.441103" HC_perVeh="1.935910" PMx_perVeh="0.330179" NOx_perVeh="7.039167" fuel_perVeh="7.012452" electricity_perVeh="0"/>
        <edge id=":1110673556_2" sampledSeconds="179.03" CO_abs="18510.379357" CO2_abs="783206.805155" HC_abs="102.692260" PMx_abs="15.239515" NOx_abs="334.952137" fuel_abs="336.669903" electricity_abs="0"
            CO_normed="377.672472" CO2_normed="15979.988567" HC_normed="2.095259" PMx_normed="0.310936" NOx_normed="6.834123" fuel_normed="6.869171" electricity_normed="0"
            traveltime="3.10" CO_perVeh="320.070910" CO2_perVeh="13542.764828" HC_perVeh="1.775696" PMx_perVeh="0.263513" NOx_perVeh="5.791801" fuel_perVeh="5.821504" electricity_perVeh="0"/>
        <edge id=":1110673556_3" sampledSeconds="337.22" CO_abs="33274.449916" CO2_abs="1146042.573298" HC_abs="178.264874" PMx_abs="22.449866" NOx_abs="492.542135" fuel_abs="492.643691" electricity_abs="0"
            CO_normed="1544.403192" CO2_normed="53192.518976" HC_normed="8.274001" PMx_normed="1.041990" NOx_normed="22.860893" fuel_normed="22.865607" electricity_normed="0"
            traveltime="1.83" CO_perVeh="180.409762" CO2_perVeh="6213.694540" HC_perVeh="0.966529" PMx_perVeh="0.121720" NOx_perVeh="2.670500" fuel_perVeh="2.671050" electricity_perVeh="0"/>
        <edge id=":1110673556_4" sampledSeconds="94.37" CO_abs="10559.594006" CO2_abs="405404.366602" HC_abs="57.610785" PMx_abs="8.067181" NOx_abs="174.789432" fuel_abs="174.267982" electricity_abs="0"
            CO_normed="299.422253" CO2_normed="11495.431420" HC_normed="1.633581" PMx_normed="0.228749" NOx_normed="4.956237" fuel_normed="4.941451" electricity_normed="0"
            traveltime="2.55" CO_perVeh="285.639098" CO2_perVeh="10966.267979" HC_perVeh="1.558383" PMx_perVeh="0.218219" NOx_perVeh="4.728089" fuel_perVeh="4.713983" electricity_perVeh="0"/>
        <edge id=":1110673556_5" sampledSeconds="22.01" CO_abs="1351.398661" CO2_abs="62918.812966" HC_abs="7.619664" PMx_abs="1.137686" NOx_abs="26.346158" fuel_abs="27.046348" electricity_abs="0"
            CO_normed="53.409666" CO2_normed="2486.662794" HC_normed="0.301143" PMx_normed="0.044963" NOx_normed="1.041247" fuel_normed="1.068920" electricity_normed="0"
            traveltime="1.52" CO_perVeh="93.430031" CO2_perVeh="4349.942625" HC_perVeh="0.526792" PMx_perVeh="0.078655" NOx_perVeh="1.821463" fuel_perVeh="1.869871" electricity_perVeh="0"/>
        <edge id=":1110673556_6" sampledSeconds="212.51" CO_abs="25696.304515" CO2_abs="1305204.799958" HC_abs="148.059786" PMx_abs="26.363589" NOx_abs="562.102718" fuel_abs="561.050736" electricity_abs="0"
            CO_normed="514.062545" CO2_normed="26111.027026" HC_normed="2.961982" PMx_normed="0.527412" NOx_normed="11.245039" fuel_normed="11.223994" electricity_normed="0"
            traveltime="2.48" CO_perVeh="299.426975" CO2_perVeh="15208.938907" HC_perVeh="1.725271" PMx_perVeh="0.307203" NOx_perVeh="6.549919" fuel_perVeh="6.537661" electricity_perVeh="0"/>
        <edge id=":1110673561_0" sampledSeconds="103.22" CO_abs="9589.860896" CO2_abs="688515.511035" HC_abs="60.237974" PMx_abs="13.850485" NOx_abs="290.860003" fuel_abs="295.960096" electricity_abs="0"
            CO_normed="241.042915" CO2_normed="17305.963816" HC_normed="1.514093" PMx_normed="0.348134" NOx_normed="7.310820" fuel_normed="7.439011" electricity_normed="0"
            traveltime="1.22" CO_perVeh="113.169666" CO2_perVeh="8125.151303" HC_perVeh="0.710867" PMx_perVeh="0.163449" NOx_perVeh="3.432430" fuel_perVeh="3.492616" electricity_perVeh="0"/>
        <edge id=":1110673561_1" sampledSeconds="5182.59" CO_abs="486454.657223" CO2_abs="33707177.387287" HC_abs="3030.597464" PMx_abs="704.661804" NOx_abs="14411.163441" fuel_abs="14489.087461" electricity_abs="0"
            CO_normed="11920.736432" CO2_normed="826005.818890" HC_normed="74.265819" PMx_normed="17.267977" NOx_normed="353.150450" fuel_normed="355.060004" electricity_normed="0"
            traveltime="1.19" CO_perVeh="111.747844" CO2_perVeh="7743.176745" HC_perVeh="0.696186" PMx_perVeh="0.161874" NOx_perVeh="3.310517" fuel_perVeh="3.328418" electricity_perVeh="0"/>
        <edge id=":1110673562_0" sampledSeconds="301.40" CO_abs="6488.194639" CO2_abs="498450.791037" HC_abs="40.920901" PMx_abs="6.828823" NOx_abs="190.973671" fuel_abs="214.264692" electricity_abs="0"
            CO_normed="10105.041684" CO2_normed="776312.410601" HC_normed="63.732276" PMx_normed="10.635553" NOx_normed="297.432031" fuel_normed="333.706642" electricity_normed="0"
            traveltime="0.03" CO_perVeh="0.581611" CO2_perVeh="44.681844" HC_perVeh="0.003668" PMx_perVeh="0.000612" NOx_perVeh="0.017119" fuel_perVeh="0.019207" electricity_perVeh="0"/>
        <edge id=":1110673564_0" sampledSeconds="27.60" CO_abs="495.024142" CO2_abs="57542.400907" HC_abs="3.581551" PMx_abs="0.807700" NOx_abs="21.685348" fuel_abs="24.735053" electricity_abs="0"
            CO_normed="2081.634053" CO2_normed="241972.483664" HC_normed="15.060840" PMx_normed="3.396472" NOx_normed="91.189409" fuel_normed="104.013771" electricity_normed="0"
            traveltime="7.796546e-03" CO_perVeh="0.139818" CO2_perVeh="16.252620" HC_perVeh="0.001012" PMx_perVeh="0.000228" NOx_perVeh="0.006125" fuel_perVeh="0.006986" electricity_perVeh="0"/>
        <edge id=":1110673588_0" sampledSeconds="62.70" CO_abs="1103.751629" CO2_abs="121497.594295" HC_abs="7.826060" PMx_abs="1.683393" NOx_abs="45.807607" fuel_abs="52.226762" electricity_abs="0"
            CO_normed="1856.561553" CO2_normed="204364.602015" HC_normed="13.163796" PMx_normed="2.831545" NOx_normed="77.050524" fuel_normed="87.847842" electricity_normed="0"
            traveltime="0.02" CO_perVeh="0.356049" CO2_perVeh="39.192772" HC_perVeh="0.002525" PMx_perVeh="0.000543" NOx_perVeh="0.014777" fuel_perVeh="0.016847" electricity_perVeh="0"/>
        <edge id=":1110673601_0" sampledSeconds="28.82" CO_abs="530.562542" CO2_abs="66030.640458" HC_abs="3.921360" PMx_abs="0.882609" NOx_abs="24.536959" fuel_abs="28.383829" electricity_abs="0"
            CO_normed="796.813270" CO2_normed="99166.613399" HC_normed="5.889205" PMx_normed="1.325526" NOx_normed="36.850274" fuel_normed="42.627607" electricity_normed="0"
            traveltime="0.02" CO_perVeh="0.404579" CO2_perVeh="50.351533" HC_perVeh="0.002990" PMx_perVeh="0.000673" NOx_perVeh="0.018711" fuel_perVeh="0.021644" electricity_perVeh="0"/>
        <edge id=":1110673617_0" sampledSeconds="851.57" CO_abs="31301.262105" CO2_abs="3198378.035767" HC_abs="219.232997" PMx_abs="60.173133" NOx_abs="1251.964650" fuel_abs="1374.833092" electricity_abs="0"
            CO_normed="43875.148377" CO2_normed="4483183.790351" HC_normed="307.300078" PMx_normed="84.345006" NOx_normed="1754.885620" fuel_normed="1927.110981" electricity_normed="0"
            traveltime="0.02" CO_perVeh="0.554531" CO2_perVeh="56.662244" HC_perVeh="0.003884" PMx_perVeh="0.001066" NOx_perVeh="0.022180" fuel_perVeh="0.024356" electricity_perVeh="0"/>
        <edge id=":1110673621_0" sampledSeconds="26.24" CO_abs="729.928614" CO2_abs="64349.851692" HC_abs="4.833342" PMx_abs="1.055973" NOx_abs="25.521999" fuel_abs="27.661178" electricity_abs="0"
            CO_normed="1227.773863" CO2_normed="108239.442165" HC_normed="8.129906" PMx_normed="1.776196" NOx_normed="42.929189" fuel_normed="46.527387" electricity_normed="0"
            traveltime="0.02" CO_perVeh="0.552976" CO2_perVeh="48.749888" HC_perVeh="0.003662" PMx_perVeh="0.000800" NOx_perVeh="0.019335" fuel_perVeh="0.020955" electricity_perVeh="0"/>
        <edge id=":1110673630_0" sampledSeconds="287.44" CO_abs="1196.493446" CO2_abs="105576.039858" HC_abs="7.849081" PMx_abs="1.364328" NOx_abs="39.657045" fuel_abs="45.383051" electricity_abs="0"
            CO_normed="35.887261" CO2_normed="3166.615679" HC_normed="0.235423" PMx_normed="0.040921" NOx_normed="1.189461" fuel_normed="1.361205" electricity_normed="0"
            traveltime="1.29" CO_perVeh="5.383764" CO2_perVeh="475.051858" HC_perVeh="0.035318" PMx_perVeh="0.006139" NOx_perVeh="0.178442" fuel_perVeh="0.204206" electricity_perVeh="0"/>
        <edge id=":1110673630_1" sampledSeconds="338.95" CO_abs="1337.145087" CO2_abs="105259.314134" HC_abs="8.497601" PMx_abs="1.466293" NOx_abs="40.436589" fuel_abs="45.246843" electricity_abs="0"
            CO_normed="48.894352" CO2_normed="3848.936084" HC_normed="0.310725" PMx_normed="0.053617" NOx_normed="1.478614" fuel_normed="1.654506" electricity_normed="0"
            traveltime="1.08" CO_perVeh="4.262555" CO2_perVeh="335.545977" HC_perVeh="0.027089" PMx_perVeh="0.004674" NOx_perVeh="0.128904" fuel_perVeh="0.144238" electricity_perVeh="0"/>
        <edge id=":1110673650_0" sampledSeconds="199.80" CO_abs="3117.256332" CO2_abs="378621.123241" HC_abs="22.888912" PMx_abs="5.245870" NOx_abs="141.939778" fuel_abs="162.753271" electricity_abs="0"
            CO_normed="4369.475059" CO2_normed="530715.276123" HC_normed="32.083512" PMx_normed="7.353164" NOx_normed="198.957754" fuel_normed="228.132141" electricity_normed="0"
            traveltime="0.02" CO_perVeh="0.360279" CO2_perVeh="43.759424" HC_perVeh="0.002645" PMx_perVeh="0.000606" NOx_perVeh="0.016405" fuel_perVeh="0.018810" electricity_perVeh="0"/>
        <edge id=":1110673655_0" sampledSeconds="20.72" CO_abs="348.896340" CO2_abs="37487.634641" HC_abs="2.458661" PMx_abs="0.544919" NOx_abs="14.298938" fuel_abs="16.114343" electricity_abs="0"
            CO_normed="489.049887" CO2_normed="52546.620218" HC_normed="3.446319" PMx_normed="0.763815" NOx_normed="20.042899" fuel_normed="22.587562" electricity_normed="0"
            traveltime="0.02" CO_perVeh="0.398587" CO2_perVeh="42.826696" HC_perVeh="0.002809" PMx_perVeh="0.000623" NOx_perVeh="0.016335" fuel_perVeh="0.018409" electricity_perVeh="0"/>
        <edge id=":1110673663_0" sampledSeconds="110.60" CO_abs="1765.517639" CO2_abs="213832.265680" HC_abs="12.971162" PMx_abs="2.905959" NOx_abs="79.888316" fuel_abs="91.917571" electricity_abs="0"
            CO_normed="45.324828" CO2_normed="5489.557569" HC_normed="0.332999" PMx_normed="0.074603" NOx_normed="2.050914" fuel_normed="2.359732" electricity_normed="0"
            traveltime="1.30" CO_perVeh="20.736838" CO2_perVeh="2511.560837" HC_perVeh="0.152352" PMx_perVeh="0.034132" NOx_perVeh="0.938326" fuel_perVeh="1.079615" electricity_perVeh="0"/>
        <edge id=":1110673663_1" sampledSeconds="170.74" CO_abs="2868.748088" CO2_abs="328922.168379" HC_abs="20.574335" PMx_abs="4.642593" NOx_abs="124.165819" fuel_abs="141.389750" electricity_abs="0"
            CO_normed="73.737281" CO2_normed="8454.498453" HC_normed="0.528835" PMx_normed="0.119332" NOx_normed="3.191514" fuel_normed="3.634232" electricity_normed="0"
            traveltime="1.27" CO_perVeh="21.419433" CO2_perVeh="2455.888827" HC_perVeh="0.153618" PMx_perVeh="0.034664" NOx_perVeh="0.927081" fuel_perVeh="1.055683" electricity_perVeh="0"/>