<?xml version="1.0" encoding="UTF-8"?>

<!-- generated on Tue Nov 10 00:21:05 2020 by Eclipse SUMO sumo Version 1.7.0
<configuration xmlns:xsi="http://www.w3.org/2001/XMLSchema-instance" xsi:noNamespaceSchemaLocation="http://sumo.dlr.de/xsd/sumoConfiguration.xsd">

    <input>
        <net-file value="../dataSets/Porto/6AM7AM_Routing_SaoBento/Porto.net.xml"/>
        <route-files value="../results/Porto/6AM7AM_Routing_SaoBento/cost_nox-length/solution1/Porto.rou.xml"/>
        <additional-files value="moreOutputInfo.xml"/>
    </input>

    <output>
        <emission-output.precision value="6"/>
        <tripinfo-output value="../results/Porto/6AM7AM_Routing_SaoBento/cost_nox-length/solution1/Porto-tripinfo"/>
    </output>

    <processing>
        <collision.action value="warn"/>
        <time-to-teleport value="-1"/>
    </processing>

    <emissions>
        <device.emissions.probability value="1"/>
    </emissions>

    <gui_only>
        <quit-on-end value="true"/>
        <start value="true"/>
    </gui_only>

</configuration>
-->

<meandata xmlns:xsi="http://www.w3.org/2001/XMLSchema-instance" xsi:noNamespaceSchemaLocation="http://sumo.dlr.de/xsd/meandata_file.xsd">
    <interval begin="0.00" end="4700.00" id="emissions-detector">
        <edge id=":1092997347_0" sampledSeconds="266.32" CO_abs="34096.048399" CO2_abs="1350110.170470" HC_abs="187.155077" PMx_abs="27.538252" NOx_abs="586.015330" fuel_abs="580.359326" electricity_abs="0"
            CO_normed="59354.823131" CO2_normed="2350288.497917" HC_normed="325.801874" PMx_normed="47.938930" NOx_normed="1020.142741" fuel_normed="1010.296699" electricity_normed="0"
            traveltime="0.08" CO_perVeh="9.609327" CO2_perVeh="380.503041" HC_perVeh="0.052746" PMx_perVeh="0.007761" NOx_perVeh="0.165157" fuel_perVeh="0.163563" electricity_perVeh="0"/>
        <edge id=":1103427051_0" sampledSeconds="11.48" CO_abs="883.003300" CO2_abs="47955.024196" HC_abs="5.155744" PMx_abs="0.929687" NOx_abs="20.417190" fuel_abs="20.613783" electricity_abs="0"
            CO_normed="2332.217079" CO2_normed="126660.372051" HC_normed="13.617518" PMx_normed="2.455519" NOx_normed="53.926546" fuel_normed="54.445796" electricity_normed="0"
            traveltime="0.03" CO_perVeh="2.419416" CO2_perVeh="131.396041" HC_perVeh="0.014127" PMx_perVeh="0.002547" NOx_perVeh="0.055943" fuel_perVeh="0.056481" electricity_perVeh="0"/>
        <edge id=":1105984386_0" sampledSeconds="23.10" CO_abs="557.770449" CO2_abs="43626.451988" HC_abs="3.539435" PMx_abs="0.615476" NOx_abs="16.820950" fuel_abs="18.753287" electricity_abs="0"
            CO_normed="43.998808" CO2_normed="3441.401213" HC_normed="0.279203" PMx_normed="0.048551" NOx_normed="1.326893" fuel_normed="1.479322" electricity_normed="0"
            traveltime="0.97" CO_perVeh="23.409194" CO2_perVeh="1830.968399" HC_perVeh="0.148547" PMx_perVeh="0.025831" NOx_perVeh="0.705962" fuel_perVeh="0.787061" electricity_perVeh="0"/>
        <edge id=":1105984390_0" sampledSeconds="23.00" CO_abs="0" CO2_abs="0" HC_abs="0" PMx_abs="0" NOx_abs="0" fuel_abs="0" electricity_abs="0"
            CO_normed="0" CO2_normed="0" HC_normed="0" PMx_normed="0" NOx_normed="0" fuel_normed="0" electricity_normed="0"
            traveltime="1.04" CO_perVeh="0" CO2_perVeh="0" HC_perVeh="0" PMx_perVeh="0" NOx_perVeh="0" fuel_perVeh="0" electricity_perVeh="0"/>
        <edge id=":1105984390_1" sampledSeconds="645.55" CO_abs="14116.797734" CO2_abs="1852243.857956" HC_abs="108.510059" PMx_abs="32.653567" NOx_abs="691.909636" fuel_abs="796.194846" electricity_abs="0"
            CO_normed="823.523713" CO2_normed="108053.311219" HC_normed="6.330090" PMx_normed="1.904893" NOx_normed="40.363544" fuel_normed="46.447172" electricity_normed="0"
            traveltime="0.64" CO_perVeh="13.917014" CO2_perVeh="1826.030592" HC_perVeh="0.106974" PMx_perVeh="0.032191" NOx_perVeh="0.682118" fuel_perVeh="0.784927" electricity_perVeh="0"/>
        <edge id=":1105984395_0" sampledSeconds="8.95" CO_abs="180.929669" CO2_abs="13853.272506" HC_abs="1.140348" PMx_abs="0.191669" NOx_abs="5.323331" fuel_abs="5.954983" electricity_abs="0"
            CO_normed="150.635247" CO2_normed="11533.714390" HC_normed="0.949411" PMx_normed="0.159577" NOx_normed="4.432006" fuel_normed="4.957895" electricity_normed="0"
            traveltime="0.09" CO_perVeh="1.834825" CO2_perVeh="140.487331" HC_perVeh="0.011564" PMx_perVeh="0.001944" NOx_perVeh="0.053984" fuel_perVeh="0.060390" electricity_perVeh="0"/>
        <edge id=":1105984398_0" sampledSeconds="23.66" CO_abs="1329.662741" CO2_abs="91183.445349" HC_abs="8.204417" PMx_abs="1.638643" NOx_abs="37.596633" fuel_abs="39.195744" electricity_abs="0"
            CO_normed="84.240288" CO2_normed="5776.893217" HC_normed="0.519788" PMx_normed="0.103816" NOx_normed="2.381921" fuel_normed="2.483232" electricity_normed="0"
            traveltime="1.12" CO_perVeh="62.983226" CO2_perVeh="4319.161038" HC_perVeh="0.388625" PMx_perVeh="0.077619" NOx_perVeh="1.780871" fuel_perVeh="1.856617" electricity_perVeh="0"/>
        <edge id=":1105984398_1" sampledSeconds="452.60" CO_abs="7698.031360" CO2_abs="927670.243940" HC_abs="56.256972" PMx_abs="13.105218" NOx_abs="349.159946" fuel_abs="398.766023" electricity_abs="0"
            CO_normed="472.086825" CO2_normed="56889.986512" HC_normed="3.449996" PMx_normed="0.803686" NOx_normed="21.412463" fuel_normed="24.454588" electricity_normed="0"
            traveltime="0.96" CO_perVeh="16.264580" CO2_perVeh="1960.003298" HC_perVeh="0.118861" PMx_perVeh="0.027689" NOx_perVeh="0.737713" fuel_perVeh="0.842522" electricity_perVeh="0"/>
        <edge id=":1106006327_0" sampledSeconds="527.81" CO_abs="71261.744437" CO2_abs="2311030.642658" HC_abs="378.883149" PMx_abs="48.222097" NOx_abs="1011.686310" fuel_abs="993.430506" electricity_abs="0"
            CO_normed="6160.661831" CO2_normed="199791.323989" HC_normed="32.754895" PMx_normed="4.168857" NOx_normed="87.461474" fuel_normed="85.883239" electricity_normed="0"
            traveltime="2.10" CO_perVeh="282.870852" CO2_perVeh="9173.550426" HC_perVeh="1.503963" PMx_perVeh="0.191416" NOx_perVeh="4.015851" fuel_perVeh="3.943386" electricity_perVeh="0"/>
        <edge id=":1106006327_1" sampledSeconds="160.12" CO_abs="21517.202133" CO2_abs="721560.738360" HC_abs="114.974842" PMx_abs="15.008129" NOx_abs="315.540643" fuel_abs="310.172943" electricity_abs="0"
            CO_normed="1622.171379" CO2_normed="54398.112291" HC_normed="8.667897" PMx_normed="1.131456" NOx_normed="23.788455" fuel_normed="23.383787" electricity_normed="0"
            traveltime="2.27" CO_perVeh="305.464417" CO2_perVeh="10243.484660" HC_perVeh="1.632216" PMx_perVeh="0.213060" NOx_perVeh="4.479506" fuel_perVeh="4.403305" electricity_perVeh="0"/>
        <edge id=":1106006327_2" sampledSeconds="0.00" CO_abs="0" CO2_abs="0" HC_abs="0" PMx_abs="0" NOx_abs="0" fuel_abs="0" electricity_abs="0"
            CO_normed="0" CO2_normed="0" HC_normed="0" PMx_normed="0" NOx_normed="0" fuel_normed="0" electricity_normed="0"/>
        <edge id=":1106006327_3" sampledSeconds="0.00" CO_abs="0" CO2_abs="0" HC_abs="0" PMx_abs="0" NOx_abs="0" fuel_abs="0" electricity_abs="0"
            CO_normed="0" CO2_normed="0" HC_normed="0" PMx_normed="0" NOx_normed="0" fuel_normed="0" electricity_normed="0"/>
        <edge id=":1107381198_0" sampledSeconds="0.00" CO_abs="0" CO2_abs="0" HC_abs="0" PMx_abs="0" NOx_abs="0" fuel_abs="0" electricity_abs="0"
            CO_normed="0" CO2_normed="0" HC_normed="0" PMx_normed="0" NOx_normed="0" fuel_normed="0" electricity_normed="0"/>
        <edge id=":1107381198_1" sampledSeconds="35.29" CO_abs="1404.933647" CO2_abs="59344.033984" HC_abs="7.769118" PMx_abs="1.039100" NOx_abs="24.662036" fuel_abs="25.509849" electricity_abs="0"
            CO_normed="117.352169" CO2_normed="4956.925273" HC_normed="0.648944" PMx_normed="0.086795" NOx_normed="2.059986" fuel_normed="2.130803" electricity_normed="0"
            traveltime="1.45" CO_perVeh="57.845014" CO2_perVeh="2443.358439" HC_perVeh="0.319876" PMx_perVeh="0.042783" NOx_perVeh="1.015404" fuel_perVeh="1.050311" electricity_perVeh="0"/>
        <edge id=":1110338277_0" sampledSeconds="96.57" CO_abs="1346.538885" CO2_abs="171767.915965" HC_abs="10.026083" PMx_abs="2.271180" NOx_abs="63.638135" fuel_abs="73.835899" electricity_abs="0"
            CO_normed="3683.541024" CO2_normed="469881.836985" HC_normed="27.426976" PMx_normed="6.212954" NOx_normed="174.086084" fuel_normed="201.982703" electricity_normed="0"
            traveltime="0.02" CO_perVeh="0.303470" CO2_perVeh="38.711374" HC_perVeh="0.002260" PMx_perVeh="0.000512" NOx_perVeh="0.014342" fuel_perVeh="0.016640" electricity_perVeh="0"/>
        <edge id=":1110338293_0" sampledSeconds="123.81" CO_abs="6372.610879" CO2_abs="435782.868943" HC_abs="39.266115" PMx_abs="7.697753" NOx_abs="178.786514" fuel_abs="187.324070" electricity_abs="0"
            CO_normed="16270.495861" CO2_normed="1112637.112194" HC_normed="100.253912" PMx_normed="19.653838" NOx_normed="456.476207" fuel_normed="478.274222" electricity_normed="0"
            traveltime="0.03" CO_perVeh="1.461670" CO2_perVeh="99.954434" HC_perVeh="0.009006" PMx_perVeh="0.001766" NOx_perVeh="0.041008" fuel_perVeh="0.042966" electricity_perVeh="0"/>
        <edge id=":1110338295_0" sampledSeconds="0.00" CO_abs="0" CO2_abs="0" HC_abs="0" PMx_abs="0" NOx_abs="0" fuel_abs="0" electricity_abs="0"
            CO_normed="0" CO2_normed="0" HC_normed="0" PMx_normed="0" NOx_normed="0" fuel_normed="0" electricity_normed="0"/>
        <edge id=":1110673403_0" sampledSeconds="143.82" CO_abs="2123.005352" CO2_abs="272939.349529" HC_abs="15.890947" PMx_abs="3.664972" NOx_abs="101.358406" fuel_abs="117.325217" electricity_abs="0"
            CO_normed="5420.439197" CO2_normed="696866.424330" HC_normed="40.572630" PMx_normed="9.357375" NOx_normed="258.787421" fuel_normed="299.553746" electricity_normed="0"
            traveltime="0.02" CO_perVeh="0.340863" CO2_perVeh="43.822213" HC_perVeh="0.002551" PMx_perVeh="0.000588" NOx_perVeh="0.016274" fuel_perVeh="0.018837" electricity_perVeh="0"/>
        <edge id=":1110673412_0" sampledSeconds="251.80" CO_abs="44447.982087" CO2_abs="3036181.553771" HC_abs="276.704037" PMx_abs="66.710990" NOx_abs="1304.458403" fuel_abs="1305.104912" electricity_abs="0"
            CO_normed="117397.458189" CO2_normed="8019261.624046" HC_normed="730.839716" PMx_normed="176.199240" NOx_normed="3445.378027" fuel_normed="3447.085607" electricity_normed="0"
            traveltime="0.02" CO_perVeh="2.738840" CO2_perVeh="187.086472" HC_perVeh="0.017050" PMx_perVeh="0.004111" NOx_perVeh="0.080379" fuel_perVeh="0.080419" electricity_perVeh="0"/>
        <edge id=":1110673414_0" sampledSeconds="0.00" CO_abs="0" CO2_abs="0" HC_abs="0" PMx_abs="0" NOx_abs="0" fuel_abs="0" electricity_abs="0"
            CO_normed="0" CO2_normed="0" HC_normed="0" PMx_normed="0" NOx_normed="0" fuel_normed="0" electricity_normed="0"/>
        <edge id=":1110673414_1" sampledSeconds="136.04" CO_abs="9319.577668" CO2_abs="348807.853857" HC_abs="50.533875" PMx_abs="6.468585" NOx_abs="147.473451" fuel_abs="149.940193" electricity_abs="0"
            CO_normed="790.520478" CO2_normed="29587.150960" HC_normed="4.286467" PMx_normed="0.548689" NOx_normed="12.509235" fuel_normed="12.718473" electricity_normed="0"
            traveltime="1.62" CO_perVeh="111.038114" CO2_perVeh="4155.871382" HC_perVeh="0.602086" PMx_perVeh="0.077070" NOx_perVeh="1.757073" fuel_perVeh="1.786463" electricity_perVeh="0"/>
        <edge id=":1110673417_0" sampledSeconds="29.46" CO_abs="572.616210" CO2_abs="69815.403178" HC_abs="4.207103" PMx_abs="0.942881" NOx_abs="26.040981" fuel_abs="30.010734" electricity_abs="0"
            CO_normed="1566.427322" CO2_normed="190984.385592" HC_normed="11.508791" PMx_normed="2.579310" NOx_normed="71.236725" fuel_normed="82.096232" electricity_normed="0"
            traveltime="0.02" CO_perVeh="0.425003" CO2_perVeh="51.817927" HC_perVeh="0.003123" PMx_perVeh="0.000700" NOx_perVeh="0.019328" fuel_perVeh="0.022274" electricity_perVeh="0"/>
        <edge id=":1110673446_0" sampledSeconds="332.67" CO_abs="3792.942203" CO2_abs="307663.131843" HC_abs="24.517731" PMx_abs="5.640269" NOx_abs="125.756969" fuel_abs="132.250231" electricity_abs="0"
            CO_normed="9684.107754" CO2_normed="785522.889811" HC_normed="62.598462" PMx_normed="14.400686" NOx_normed="321.081622" fuel_normed="337.660164" electricity_normed="0"
            traveltime="0.02" CO_perVeh="0.258695" CO2_perVeh="20.983959" HC_perVeh="0.001672" PMx_perVeh="0.000385" NOx_perVeh="0.008577" fuel_perVeh="0.009020" electricity_perVeh="0"/>
        <edge id=":1110673451_0" sampledSeconds="37.38" CO_abs="309.030596" CO2_abs="22335.796362" HC_abs="1.921546" PMx_abs="0.334430" NOx_abs="8.764757" fuel_abs="9.601264" electricity_abs="0"
            CO_normed="876.682541" CO2_normed="63363.961310" HC_normed="5.451193" PMx_normed="0.948738" NOx_normed="24.864560" fuel_normed="27.237627" electricity_normed="0"
            traveltime="0.03" CO_perVeh="0.221616" CO2_perVeh="16.017703" HC_perVeh="0.001378" PMx_perVeh="0.000240" NOx_perVeh="0.006285" fuel_perVeh="0.006885" electricity_perVeh="0"/>
        <edge id=":1110673464_0" sampledSeconds="323.43" CO_abs="683.909297" CO2_abs="51866.030104" HC_abs="4.277982" PMx_abs="0.668845" NOx_abs="19.599550" fuel_abs="22.295267" electricity_abs="0"
            CO_normed="37.099534" CO2_normed="2813.539093" HC_normed="0.232065" PMx_normed="0.036282" NOx_normed="1.063203" fuel_normed="1.209435" electricity_normed="0"
            traveltime="1.17" CO_perVeh="2.472242" CO2_perVeh="187.488856" HC_perVeh="0.015464" PMx_perVeh="0.002418" NOx_perVeh="0.070850" fuel_perVeh="0.080594" electricity_perVeh="0"/>
        <edge id=":1110673464_1" sampledSeconds="708.82" CO_abs="16424.174614" CO2_abs="2100614.873207" HC_abs="124.761756" PMx_abs="37.264536" NOx_abs="787.496718" fuel_abs="902.958001" electricity_abs="0"
            CO_normed="873.020045" CO2_normed="111657.293894" HC_normed="6.631658" PMx_normed="1.980781" NOx_normed="41.859055" fuel_normed="47.996350" electricity_normed="0"
            traveltime="0.70" CO_perVeh="16.216705" CO2_perVeh="2074.079922" HC_perVeh="0.123186" PMx_perVeh="0.036794" NOx_perVeh="0.777549" fuel_perVeh="0.891552" electricity_perVeh="0"/>
        <edge id=":1110673479_0" sampledSeconds="132.61" CO_abs="7381.940178" CO2_abs="509861.786323" HC_abs="45.616775" PMx_abs="9.051572" NOx_abs="209.368747" fuel_abs="219.167248" electricity_abs="0"
            CO_normed="18847.506837" CO2_normed="1301774.773591" HC_normed="116.468361" PMx_normed="23.110395" NOx_normed="534.558502" fuel_normed="559.575952" electricity_normed="0"
            traveltime="0.03" CO_perVeh="1.555082" CO2_perVeh="107.407662" HC_perVeh="0.009610" PMx_perVeh="0.001907" NOx_perVeh="0.044106" fuel_perVeh="0.046170" electricity_perVeh="0"/>
        <edge id=":1110673511_0" sampledSeconds="11.72" CO_abs="156.449217" CO2_abs="20642.331489" HC_abs="1.185528" PMx_abs="0.270766" NOx_abs="7.630345" fuel_abs="8.873282" electricity_abs="0"
            CO_normed="399.444809" CO2_normed="52703.825077" HC_normed="3.026880" PMx_normed="0.691317" NOx_normed="19.481732" fuel_normed="22.655187" electricity_normed="0"
            traveltime="0.02" CO_perVeh="0.309800" CO2_perVeh="40.875904" HC_perVeh="0.002348" PMx_perVeh="0.000536" NOx_perVeh="0.015110" fuel_perVeh="0.017571" electricity_perVeh="0"/>
        <edge id=":1110673517_0" sampledSeconds="17.14" CO_abs="766.934095" CO2_abs="53448.422130" HC_abs="4.752855" PMx_abs="0.958625" NOx_abs="21.994413" fuel_abs="22.975116" electricity_abs="0"
            CO_normed="1958.129605" CO2_normed="136464.056503" HC_normed="12.134950" PMx_normed="2.447552" NOx_normed="56.155949" fuel_normed="58.659871" electricity_normed="0"
            traveltime="0.03" CO_perVeh="1.231363" CO2_perVeh="85.814967" HC_perVeh="0.007631" PMx_perVeh="0.001539" NOx_perVeh="0.035313" fuel_perVeh="0.036888" electricity_perVeh="0"/>
        <edge id=":1110673534_0" sampledSeconds="474.87" CO_abs="2997.865524" CO2_abs="254067.786128" HC_abs="19.462756" PMx_abs="3.466945" NOx_abs="96.842574" fuel_abs="109.213702" electricity_abs="0"
            CO_normed="148.335751" CO2_normed="12571.389714" HC_normed="0.963026" PMx_normed="0.171546" NOx_normed="4.791815" fuel_normed="5.403944" electricity_normed="0"
            traveltime="1.43" CO_perVeh="9.031367" CO2_perVeh="765.404410" HC_perVeh="0.058633" PMx_perVeh="0.010445" NOx_perVeh="0.291748" fuel_perVeh="0.329017" electricity_perVeh="0"/>
        <edge id=":1110673534_1" sampledSeconds="184.29" CO_abs="3287.550071" CO2_abs="401401.260508" HC_abs="24.039737" PMx_abs="5.528474" NOx_abs="150.140697" fuel_abs="172.545514" electricity_abs="0"
            CO_normed="158.173584" CO2_normed="19312.580694" HC_normed="1.156622" PMx_normed="0.265991" NOx_normed="7.223705" fuel_normed="8.301666" electricity_normed="0"
            traveltime="1.22" CO_perVeh="21.828152" CO2_perVeh="2665.160264" HC_perVeh="0.159615" PMx_perVeh="0.036707" NOx_perVeh="0.996880" fuel_perVeh="1.145640" electricity_perVeh="0"/>
        <edge id=":1110673549_0" sampledSeconds="58.65" CO_abs="116.917237" CO2_abs="15835.048082" HC_abs="0.890140" PMx_abs="0.227430" NOx_abs="5.918039" fuel_abs="6.806802" electricity_abs="0"
            CO_normed="5.604107" CO2_normed="759.009574" HC_normed="0.042666" PMx_normed="0.010901" NOx_normed="0.283665" fuel_normed="0.326265" electricity_normed="0"
            traveltime="1.22" CO_perVeh="2.435871" CO2_perVeh="329.909738" HC_perVeh="0.018545" PMx_perVeh="0.004738" NOx_perVeh="0.123297" fuel_perVeh="0.141814" electricity_perVeh="0"/>
        <edge id=":1110673549_1" sampledSeconds="638.69" CO_abs="14027.475115" CO2_abs="1890018.548432" HC_abs="109.016344" PMx_abs="33.019189" NOx_abs="703.695706" fuel_abs="812.432642" electricity_abs="0"
            CO_normed="650.390377" CO2_normed="87631.584853" HC_normed="5.054593" PMx_normed="1.530950" NOx_normed="32.627177" fuel_normed="37.668815" electricity_normed="0"
            traveltime="0.80" CO_perVeh="17.657874" CO2_perVeh="2379.167294" HC_perVeh="0.137230" PMx_perVeh="0.041565" NOx_perVeh="0.885817" fuel_perVeh="1.022695" electricity_perVeh="0"/>
        <edge id=":1110673556_0" sampledSeconds="416.23" CO_abs="52027.676663" CO2_abs="2616581.377036" HC_abs="299.168795" PMx_abs="53.030567" NOx_abs="1128.558348" fuel_abs="1124.754561" electricity_abs="0"
            CO_normed="1849.233707" CO2_normed="93001.855727" HC_normed="10.633437" PMx_normed="1.884880" NOx_normed="40.112653" fuel_normed="39.977454" electricity_normed="0"
            traveltime="2.58" CO_perVeh="322.962447" CO2_perVeh="16242.461308" HC_perVeh="1.857094" PMx_perVeh="0.329188" NOx_perVeh="7.005540" fuel_perVeh="6.981928" electricity_perVeh="0"/>
        <edge id=":1110673556_2" sampledSeconds="245.65" CO_abs="23327.399513" CO2_abs="1016236.589833" HC_abs="130.101114" PMx_abs="19.644728" NOx_abs="433.634652" fuel_abs="436.839893" electricity_abs="0"
            CO_normed="866.947859" CO2_normed="37767.781839" HC_normed="4.835125" PMx_normed="0.730084" NOx_normed="16.115754" fuel_normed="16.234875" electricity_normed="0"
            traveltime="2.98" CO_perVeh="282.956886" CO2_perVeh="12326.755095" HC_perVeh="1.578102" PMx_perVeh="0.238287" NOx_perVeh="5.259905" fuel_perVeh="5.298784" electricity_perVeh="0"/>
        <edge id=":1110673556_3" sampledSeconds="411.99" CO_abs="35018.961123" CO2_abs="1249287.300604" HC_abs="188.542835" PMx_abs="23.877853" NOx_abs="533.015980" fuel_abs="537.024837" electricity_abs="0"
            CO_normed="2960.599785" CO2_normed="105618.202108" HC_normed="15.939932" PMx_normed="2.018700" NOx_normed="45.062644" fuel_normed="45.401564" electricity_normed="0"
            traveltime="1.73" CO_perVeh="147.269624" CO2_perVeh="5253.784392" HC_perVeh="0.792903" PMx_perVeh="0.100417" NOx_perVeh="2.241559" fuel_perVeh="2.258418" electricity_perVeh="0"/>
        <edge id=":1110673556_4" sampledSeconds="198.50" CO_abs="20839.047931" CO2_abs="838731.994007" HC_abs="114.575500" PMx_abs="16.382281" NOx_abs="359.506821" fuel_abs="360.538737" electricity_abs="0"
            CO_normed="1076.319889" CO2_normed="43319.825805" HC_normed="5.917731" PMx_normed="0.846132" NOx_normed="18.568235" fuel_normed="18.621533" electricity_normed="0"
            traveltime="2.39" CO_perVeh="250.534554" CO2_perVeh="10083.538688" HC_perVeh="1.377468" PMx_perVeh="0.196954" NOx_perVeh="4.322121" fuel_perVeh="4.334527" electricity_perVeh="0"/>
        <edge id=":1110673556_5" sampledSeconds="24.62" CO_abs="1977.359127" CO2_abs="81366.146653" HC_abs="10.913018" PMx_abs="1.580248" NOx_abs="34.827890" fuel_abs="34.976163" electricity_abs="0"
            CO_normed="142.347082" CO2_normed="5857.425371" HC_normed="0.785612" PMx_normed="0.113760" NOx_normed="2.507207" fuel_normed="2.517881" electricity_normed="0"
            traveltime="1.70" CO_perVeh="136.706310" CO2_perVeh="5625.313843" HC_perVeh="0.754480" PMx_perVeh="0.109252" NOx_perVeh="2.407854" fuel_perVeh="2.418105" electricity_perVeh="0"/>
        <edge id=":1110673556_6" sampledSeconds="317.19" CO_abs="37787.350110" CO2_abs="1896775.623586" HC_abs="217.132757" PMx_abs="38.084710" NOx_abs="815.389983" fuel_abs="815.342015" electricity_abs="0"
            CO_normed="1376.950629" CO2_normed="69117.479249" HC_normed="7.912200" PMx_normed="1.387786" NOx_normed="29.712371" fuel_normed="29.710623" electricity_normed="0"
            traveltime="2.51" CO_perVeh="299.245416" CO2_perVeh="15020.937120" HC_perVeh="1.719517" PMx_perVeh="0.301600" NOx_perVeh="6.457233" fuel_perVeh="6.456853" electricity_perVeh="0"/>
        <edge id=":1110673561_0" sampledSeconds="98.86" CO_abs="10580.894371" CO2_abs="752840.840393" HC_abs="66.322238" PMx_abs="15.341234" NOx_abs="319.132721" fuel_abs="323.610294" electricity_abs="0"
            CO_normed="484.430056" CO2_normed="34467.665748" HC_normed="3.036462" PMx_normed="0.702375" NOx_normed="14.611003" fuel_normed="14.816002" electricity_normed="0"
            traveltime="1.17" CO_perVeh="124.864823" CO2_perVeh="8884.252624" HC_perVeh="0.782667" PMx_perVeh="0.181041" NOx_perVeh="3.766076" fuel_perVeh="3.818916" electricity_perVeh="0"/>
        <edge id=":1110673561_1" sampledSeconds="1307.06" CO_abs="123529.306736" CO2_abs="8559959.757631" HC_abs="769.476098" PMx_abs="179.045108" NOx_abs="3660.000517" fuel_abs="3679.513101" electricity_abs="0"
            CO_normed="5513.880676" CO2_normed="382084.202840" HC_normed="34.346500" PMx_normed="7.991896" NOx_normed="163.368569" fuel_normed="164.239537" electricity_normed="0"
            traveltime="1.19" CO_perVeh="112.200281" CO2_perVeh="7774.915233" HC_perVeh="0.698906" PMx_perVeh="0.162625" NOx_perVeh="3.324337" fuel_perVeh="3.342060" electricity_perVeh="0"/>
        <edge id=":1110673562_0" sampledSeconds="104.28" CO_abs="2116.014151" CO2_abs="168717.468138" HC_abs="13.477494" PMx_abs="2.245654" NOx_abs="64.112607" fuel_abs="72.525149" electricity_abs="0"
            CO_normed="6002.877024" CO2_normed="478631.115286" HC_normed="38.234024" PMx_normed="6.370649" NOx_normed="181.879737" fuel_normed="205.745103" electricity_normed="0"
            traveltime="0.03" CO_perVeh="0.539384" CO2_perVeh="43.007022" HC_perVeh="0.003435" PMx_perVeh="0.000572" NOx_perVeh="0.016343" fuel_perVeh="0.018487" electricity_perVeh="0"/>
        <edge id=":1110673564_0" sampledSeconds="28.33" CO_abs="461.694218" CO2_abs="58073.215251" HC_abs="3.415042" PMx_abs="0.780226" NOx_abs="21.597782" fuel_abs="24.963251" electricity_abs="0"
            CO_normed="3536.381242" CO2_normed="444816.116813" HC_normed="26.157772" PMx_normed="5.976202" NOx_normed="165.429818" fuel_normed="191.207876" electricity_normed="0"
            traveltime="7.787277e-03" CO_perVeh="0.126926" CO2_perVeh="15.965145" HC_perVeh="0.000939" PMx_perVeh="0.000214" NOx_perVeh="0.005938" fuel_perVeh="0.006863" electricity_perVeh="0"/>
        <edge id=":1110673588_0" sampledSeconds="11.80" CO_abs="136.934969" CO2_abs="17023.400732" HC_abs="1.017107" PMx_abs="0.237478" NOx_abs="6.381733" fuel_abs="7.317639" electricity_abs="0"
            CO_normed="419.545438" CO2_normed="52156.802244" HC_normed="3.116241" PMx_normed="0.727593" NOx_normed="19.552543" fuel_normed="22.420001" electricity_normed="0"
            traveltime="0.02" CO_perVeh="0.228225" CO2_perVeh="28.372335" HC_perVeh="0.001695" PMx_perVeh="0.000396" NOx_perVeh="0.010636" fuel_perVeh="0.012196" electricity_perVeh="0"/>
        <edge id=":1110673601_0" sampledSeconds="29.45" CO_abs="553.047059" CO2_abs="63076.052230" HC_abs="3.972501" PMx_abs="0.889944" NOx_abs="23.827766" fuel_abs="27.113735" electricity_abs="0"
            CO_normed="1512.894691" CO2_normed="172548.471146" HC_normed="10.867023" PMx_normed="2.434497" NOx_normed="65.182339" fuel_normed="74.171311" electricity_normed="0"
            traveltime="0.02" CO_perVeh="0.410479" CO2_perVeh="46.815890" HC_perVeh="0.002948" PMx_perVeh="0.000661" NOx_perVeh="0.017685" fuel_perVeh="0.020124" electricity_perVeh="0"/>
        <edge id=":1110673617_0" sampledSeconds="238.30" CO_abs="5790.694524" CO2_abs="726757.688488" HC_abs="43.763740" PMx_abs="12.962622" NOx_abs="273.651360" fuel_abs="312.399730" electricity_abs="0"
            CO_normed="14784.751976" CO2_normed="1855551.545076" HC_normed="111.737210" PMx_normed="33.096055" NOx_normed="698.684324" fuel_normed="797.616332" electricity_normed="0"
            traveltime="0.01" CO_perVeh="0.354796" CO2_perVeh="44.528425" HC_perVeh="0.002681" PMx_perVeh="0.000794" NOx_perVeh="0.016767" fuel_perVeh="0.019141" electricity_perVeh="0"/>
        <edge id=":1110673621_0" sampledSeconds="25.81" CO_abs="524.037823" CO2_abs="56791.986418" HC_abs="3.697807" PMx_abs="0.828033" NOx_abs="21.661077" fuel_abs="24.412458" electricity_abs="0"
            CO_normed="1605.562691" CO2_normed="174000.979664" HC_normed="11.329450" PMx_normed="2.536951" NOx_normed="66.365852" fuel_normed="74.795615" electricity_normed="0"
            traveltime="0.02" CO_perVeh="0.396998" CO2_perVeh="43.024232" HC_perVeh="0.002801" PMx_perVeh="0.000627" NOx_perVeh="0.016410" fuel_perVeh="0.018494" electricity_perVeh="0"/>
        <edge id=":1110673630_0" sampledSeconds="54.37" CO_abs="388.542733" CO2_abs="35683.820808" HC_abs="2.574298" PMx_abs="0.421155" NOx_abs="13.145237" fuel_abs="15.339140" electricity_abs="0"
            CO_normed="21.227332" CO2_normed="1949.521275" HC_normed="0.140642" PMx_normed="0.023009" NOx_normed="0.718166" fuel_normed="0.838026" electricity_normed="0"
            traveltime="1.27" CO_perVeh="9.069275" CO2_perVeh="832.923494" HC_perVeh="0.060089" PMx_perVeh="0.009831" NOx_perVeh="0.306833" fuel_perVeh="0.358043" electricity_perVeh="0"/>
        <edge id=":1110673630_1" sampledSeconds="7.37" CO_abs="66.281430" CO2_abs="5649.649513" HC_abs="0.432179" PMx_abs="0.082804" NOx_abs="2.189442" fuel_abs="2.428552" electricity_abs="0"
            CO_normed="4.414674" CO2_normed="376.294880" HC_normed="0.028785" PMx_normed="0.005515" NOx_normed="0.145828" fuel_normed="0.161754" electricity_normed="0"
            traveltime="1.04" CO_perVeh="9.381372" CO2_perVeh="799.642700" HC_perVeh="0.061170" PMx_perVeh="0.011720" NOx_perVeh="0.309890" fuel_perVeh="0.343734" electricity_perVeh="0"/>
        <edge id=":1110673650_0" sampledSeconds="143.26" CO_abs="2268.793729" CO2_abs="292210.184409" HC_abs="16.971561" PMx_abs="3.953056" NOx_abs="108.673392" fuel_abs="125.608893" electricity_abs="0"
            CO_normed="5792.664841" CO2_normed="746068.555938" HC_normed="43.331645" PMx_normed="10.092909" NOx_normed="277.463980" fuel_normed="320.703557" electricity_normed="0"
            traveltime="0.02" CO_perVeh="0.364762" CO2_perVeh="46.979725" HC_perVeh="0.002729" PMx_perVeh="0.000636" NOx_perVeh="0.017472" fuel_perVeh="0.020195" electricity_perVeh="0"/>
        <edge id=":1110673655_0" sampledSeconds="44.81" CO_abs="1022.812264" CO2_abs="104514.045400" HC_abs="7.066529" PMx_abs="1.529565" NOx_abs="40.038504" fuel_abs="44.926166" electricity_abs="0"
            CO_normed="2611.435568" CO2_normed="266844.371233" HC_normed="18.042202" PMx_normed="3.905274" NOx_normed="102.225967" fuel_normed="114.705105" electricity_normed="0"
            traveltime="0.02" CO_perVeh="0.547398" CO2_perVeh="55.934731" HC_perVeh="0.003782" PMx_perVeh="0.000819" NOx_perVeh="0.021428" fuel_perVeh="0.024044" electricity_perVeh="0"/>
        <edge id=":1110673663_0" sampledSeconds="108.83" CO_abs="2131.862063" CO2_abs="242353.310720" HC_abs="15.251843" PMx_abs="3.432558" NOx_abs="91.537478" fuel_abs="104.177456" electricity_abs="0"
            CO_normed="99.689598" CO2_normed="11332.864658" HC_normed="0.713203" PMx_normed="0.160512" NOx_normed="4.280453" fuel_normed="4.871520" electricity_normed="0"
            traveltime="1.28" CO_perVeh="25.039726" CO2_perVeh="2846.553966" HC_perVeh="0.179140" PMx_perVeh="0.040317" NOx_perVeh="1.075151" fuel_perVeh="1.223613" electricity_perVeh="0"/>
        <edge id=":1110673663_1" sampledSeconds="153.74" CO_abs="2820.987207" CO2_abs="326613.608624" HC_abs="20.407209" PMx_abs="4.723763" NOx_abs="123.822248" fuel_abs="140.397237" electricity_abs="0"
            CO_normed="132.075560" CO2_normed="15291.694728" HC_normed="0.955443" PMx_normed="0.221161" NOx_normed="5.797223" fuel_normed="6.573246" electricity_normed="0"
            traveltime="1.24" CO_perVeh="22.813034" CO2_perVeh="2641.290674" HC_perVeh="0.165031" PMx_perVeh="0.038201" NOx_perVeh="1.001338" fuel_perVeh="1.135378" electricity_perVeh="0"/>
        <edge id=":1110673666_0" sampledSeconds="192.74" CO_abs="3947.855718" CO2_abs="312862.023781" HC_abs="25.125891" PMx_abs="4.294838" NOx_abs="119.729890" fuel_abs="134.487169" electricity_abs="0"