<?xml version="1.0" encoding="UTF-8"?>

<!-- generated on Tue Nov 10 02:46:03 2020 by Eclipse SUMO sumo Version 1.7.0
<configuration xmlns:xsi="http://www.w3.org/2001/XMLSchema-instance" xsi:noNamespaceSchemaLocation="http://sumo.dlr.de/xsd/sumoConfiguration.xsd">

    <input>
        <net-file value="../dataSets/Porto/6AM7AM_Routing_SaoBento/Porto.net.xml"/>
        <route-files value="../results/Porto/6AM7AM_Routing_SaoBento/cost_hc-cost_nox/solution3/Porto.rou.xml"/>
        <additional-files value="moreOutputInfo.xml"/>
    </input>

    <output>
        <emission-output.precision value="6"/>
        <tripinfo-output value="../results/Porto/6AM7AM_Routing_SaoBento/cost_hc-cost_nox/solution3/Porto-tripinfo"/>
    </output>

    <processing>
        <collision.action value="warn"/>
        <time-to-teleport value="-1"/>
    </processing>

    <emissions>
        <device.emissions.probability value="1"/>
    </emissions>

    <gui_only>
        <quit-on-end value="true"/>
        <start value="true"/>
    </gui_only>

</configuration>
-->

<meandata xmlns:xsi="http://www.w3.org/2001/XMLSchema-instance" xsi:noNamespaceSchemaLocation="http://sumo.dlr.de/xsd/meandata_file.xsd">
    <interval begin="0.00" end="4789.00" id="emissions-detector">
        <edge id=":1092997347_0" sampledSeconds="270.85" CO_abs="34408.103738" CO2_abs="1346340.140342" HC_abs="188.465056" PMx_abs="27.419658" NOx_abs="584.201286" fuel_abs="578.739141" electricity_abs="0"
            CO_normed="58784.892205" CO2_normed="2300169.187547" HC_normed="321.985137" PMx_normed="46.845408" NOx_normed="998.084924" fuel_normed="988.753065" electricity_normed="0"
            traveltime="0.08" CO_perVeh="9.688191" CO2_perVeh="379.085148" HC_perVeh="0.053066" PMx_perVeh="0.007720" NOx_perVeh="0.164492" fuel_perVeh="0.162954" electricity_perVeh="0"/>
        <edge id=":1103427051_0" sampledSeconds="11.08" CO_abs="908.912466" CO2_abs="51234.051500" HC_abs="5.352644" PMx_abs="0.992326" NOx_abs="21.778087" fuel_abs="22.023270" electricity_abs="0"
            CO_normed="2356.034933" CO2_normed="132806.204879" HC_normed="13.874841" PMx_normed="2.572255" NOx_normed="56.452007" fuel_normed="57.087558" electricity_normed="0"
            traveltime="0.03" CO_perVeh="2.490406" CO2_perVeh="140.380527" HC_perVeh="0.014666" PMx_perVeh="0.002719" NOx_perVeh="0.059672" fuel_perVeh="0.060343" electricity_perVeh="0"/>
        <edge id=":1105984386_0" sampledSeconds="22.86" CO_abs="609.020472" CO2_abs="45720.899445" HC_abs="3.812934" PMx_abs="0.611027" NOx_abs="17.445339" fuel_abs="19.653677" electricity_abs="0"
            CO_normed="47.148765" CO2_normed="3539.591955" HC_normed="0.295187" PMx_normed="0.047304" NOx_normed="1.350572" fuel_normed="1.521536" electricity_normed="0"
            traveltime="0.96" CO_perVeh="25.560117" CO2_perVeh="1918.870737" HC_perVeh="0.160026" PMx_perVeh="0.025644" NOx_perVeh="0.732167" fuel_perVeh="0.824850" electricity_perVeh="0"/>
        <edge id=":1105984390_0" sampledSeconds="23.68" CO_abs="27.280688" CO2_abs="2369.009400" HC_abs="0.177729" PMx_abs="0.028711" NOx_abs="0.880237" fuel_abs="1.018348" electricity_abs="0"
            CO_normed="1.632764" CO2_normed="141.786476" HC_normed="0.010637" PMx_normed="0.001718" NOx_normed="0.052683" fuel_normed="0.060949" electricity_normed="0"
            traveltime="1.07" CO_perVeh="1.237166" CO2_perVeh="107.433413" HC_perVeh="0.008060" PMx_perVeh="0.001302" NOx_perVeh="0.039918" fuel_perVeh="0.046182" electricity_perVeh="0"/>
        <edge id=":1105984390_1" sampledSeconds="645.70" CO_abs="13675.514771" CO2_abs="1827545.771968" HC_abs="106.056496" PMx_abs="32.080769" NOx_abs="681.063822" fuel_abs="785.578368" electricity_abs="0"
            CO_normed="782.954673" CO2_normed="104631.198640" HC_normed="6.071978" PMx_normed="1.836698" NOx_normed="38.992470" fuel_normed="44.976168" electricity_normed="0"
            traveltime="0.64" CO_perVeh="13.479723" CO2_perVeh="1801.380861" HC_perVeh="0.104538" PMx_perVeh="0.031621" NOx_perVeh="0.671313" fuel_perVeh="0.774331" electricity_perVeh="0"/>
        <edge id=":1105984395_0" sampledSeconds="9.03" CO_abs="206.538366" CO2_abs="15445.182029" HC_abs="1.293245" PMx_abs="0.214414" NOx_abs="5.944431" fuel_abs="6.639285" electricity_abs="0"
            CO_normed="168.760410" CO2_normed="12620.102069" HC_normed="1.056698" PMx_normed="0.175196" NOx_normed="4.857135" fuel_normed="5.424893" electricity_normed="0"
            traveltime="0.09" CO_perVeh="2.094525" CO2_perVeh="156.631035" HC_perVeh="0.013115" PMx_perVeh="0.002174" NOx_perVeh="0.060283" fuel_perVeh="0.067330" electricity_perVeh="0"/>
        <edge id=":1105984398_0" sampledSeconds="22.98" CO_abs="1613.817902" CO2_abs="109895.458896" HC_abs="9.958573" PMx_abs="2.074785" NOx_abs="45.946258" fuel_abs="47.239072" electricity_abs="0"
            CO_normed="100.342725" CO2_normed="6832.995107" HC_normed="0.619196" PMx_normed="0.129004" NOx_normed="2.856811" fuel_normed="2.937195" electricity_normed="0"
            traveltime="1.09" CO_perVeh="76.238205" CO2_perVeh="5191.560020" HC_perVeh="0.470452" PMx_perVeh="0.098015" NOx_perVeh="2.170542" fuel_perVeh="2.231616" electricity_perVeh="0"/>
        <edge id=":1105984398_1" sampledSeconds="453.08" CO_abs="8045.330877" CO2_abs="968589.734404" HC_abs="58.810278" PMx_abs="13.686602" NOx_abs="364.680128" fuel_abs="416.355572" electricity_abs="0"
            CO_normed="484.215999" CO2_normed="58295.507466" HC_normed="3.539553" PMx_normed="0.823741" NOx_normed="21.948625" fuel_normed="25.058762" electricity_normed="0"
            traveltime="0.95" CO_perVeh="16.939292" CO2_perVeh="2039.347369" HC_perVeh="0.123824" PMx_perVeh="0.028817" NOx_perVeh="0.767827" fuel_perVeh="0.876629" electricity_perVeh="0"/>
        <edge id=":1106006327_0" sampledSeconds="605.58" CO_abs="81844.695580" CO2_abs="2663154.922827" HC_abs="435.371455" PMx_abs="55.583821" NOx_abs="1165.924949" fuel_abs="1144.796049" electricity_abs="0"
            CO_normed="6944.076226" CO2_normed="225954.176453" HC_normed="36.938894" PMx_normed="4.715984" NOx_normed="98.922376" fuel_normed="97.129704" electricity_normed="0"
            traveltime="2.09" CO_perVeh="281.906007" CO2_perVeh="9172.975293" HC_perVeh="1.499594" PMx_perVeh="0.191453" NOx_perVeh="4.015914" fuel_perVeh="3.943137" electricity_perVeh="0"/>
        <edge id=":1106006327_1" sampledSeconds="164.95" CO_abs="22233.633827" CO2_abs="731100.423005" HC_abs="118.455566" PMx_abs="15.238893" NOx_abs="319.873595" fuel_abs="314.274035" electricity_abs="0"
            CO_normed="1645.032205" CO2_normed="54092.990392" HC_normed="8.764344" PMx_normed="1.127502" NOx_normed="23.666953" fuel_normed="23.252650" electricity_normed="0"
            traveltime="2.34" CO_perVeh="315.635088" CO2_perVeh="10378.912779" HC_perVeh="1.681629" PMx_perVeh="0.216336" NOx_perVeh="4.541018" fuel_perVeh="4.461525" electricity_perVeh="0"/>
        <edge id=":1106006327_2" sampledSeconds="0.00" CO_abs="0" CO2_abs="0" HC_abs="0" PMx_abs="0" NOx_abs="0" fuel_abs="0" electricity_abs="0"
            CO_normed="0" CO2_normed="0" HC_normed="0" PMx_normed="0" NOx_normed="0" fuel_normed="0" electricity_normed="0"/>
        <edge id=":1106006327_3" sampledSeconds="0.00" CO_abs="0" CO2_abs="0" HC_abs="0" PMx_abs="0" NOx_abs="0" fuel_abs="0" electricity_abs="0"
            CO_normed="0" CO2_normed="0" HC_normed="0" PMx_normed="0" NOx_normed="0" fuel_normed="0" electricity_normed="0"/>
        <edge id=":1107381198_0" sampledSeconds="0.00" CO_abs="0" CO2_abs="0" HC_abs="0" PMx_abs="0" NOx_abs="0" fuel_abs="0" electricity_abs="0"
            CO_normed="0" CO2_normed="0" HC_normed="0" PMx_normed="0" NOx_normed="0" fuel_normed="0" electricity_normed="0"/>
        <edge id=":1107381198_1" sampledSeconds="36.79" CO_abs="1174.080801" CO2_abs="47714.263073" HC_abs="6.443218" PMx_abs="0.812631" NOx_abs="19.689378" fuel_abs="20.510705" electricity_abs="0"
            CO_normed="96.246803" CO2_normed="3911.438884" HC_normed="0.528191" PMx_normed="0.066617" NOx_normed="1.614062" fuel_normed="1.681392" electricity_normed="0"
            traveltime="1.51" CO_perVeh="48.340162" CO2_perVeh="1964.528522" HC_perVeh="0.265285" PMx_perVeh="0.033458" NOx_perVeh="0.810666" fuel_perVeh="0.844483" electricity_perVeh="0"/>
        <edge id=":1110338277_0" sampledSeconds="96.70" CO_abs="1394.906169" CO2_abs="173240.202905" HC_abs="10.325682" PMx_abs="2.362755" NOx_abs="64.690959" fuel_abs="74.468698" electricity_abs="0"
            CO_normed="3744.937958" CO2_normed="465102.116800" HC_normed="27.721605" PMx_normed="6.343344" NOx_normed="173.677364" fuel_normed="199.927894" electricity_normed="0"
            traveltime="0.02" CO_perVeh="0.314368" CO2_perVeh="39.042874" HC_perVeh="0.002327" PMx_perVeh="0.000532" NOx_perVeh="0.014579" fuel_perVeh="0.016783" electricity_perVeh="0"/>
        <edge id=":1110338293_0" sampledSeconds="124.22" CO_abs="6093.957121" CO2_abs="419450.211697" HC_abs="37.600239" PMx_abs="7.332913" NOx_abs="171.553902" fuel_abs="180.303459" electricity_abs="0"
            CO_normed="15269.886293" CO2_normed="1051034.149167" HC_normed="94.216511" PMx_normed="18.374389" NOx_normed="429.869873" fuel_normed="451.794009" electricity_normed="0"
            traveltime="0.03" CO_perVeh="1.397750" CO2_perVeh="96.207855" HC_perVeh="0.008624" PMx_perVeh="0.001682" NOx_perVeh="0.039349" fuel_perVeh="0.041356" electricity_perVeh="0"/>
        <edge id=":1110338295_0" sampledSeconds="0.00" CO_abs="0" CO2_abs="0" HC_abs="0" PMx_abs="0" NOx_abs="0" fuel_abs="0" electricity_abs="0"
            CO_normed="0" CO2_normed="0" HC_normed="0" PMx_normed="0" NOx_normed="0" fuel_normed="0" electricity_normed="0"/>
        <edge id=":1110673403_0" sampledSeconds="143.74" CO_abs="2210.213345" CO2_abs="271762.346731" HC_abs="16.255395" PMx_abs="3.727671" NOx_abs="101.634774" fuel_abs="116.819211" electricity_abs="0"
            CO_normed="5538.225128" CO2_normed="680966.414861" HC_normed="40.731831" PMx_normed="9.340583" NOx_normed="254.670556" fuel_normed="292.718842" electricity_normed="0"
            traveltime="0.02" CO_perVeh="0.354864" CO2_perVeh="43.633237" HC_perVeh="0.002610" PMx_perVeh="0.000599" NOx_perVeh="0.016318" fuel_perVeh="0.018756" electricity_perVeh="0"/>
        <edge id=":1110673412_0" sampledSeconds="253.11" CO_abs="44831.950126" CO2_abs="3058952.297805" HC_abs="278.989064" PMx_abs="67.205240" NOx_abs="1314.676937" fuel_abs="1314.892934" electricity_abs="0"
            CO_normed="116211.015511" CO2_normed="7929254.737579" HC_normed="723.180731" PMx_normed="174.205877" NOx_normed="3407.836185" fuel_normed="3408.396083" electricity_normed="0"
            traveltime="0.02" CO_perVeh="2.760506" CO2_perVeh="188.353519" HC_perVeh="0.017179" PMx_perVeh="0.004138" NOx_perVeh="0.080951" fuel_perVeh="0.080964" electricity_perVeh="0"/>
        <edge id=":1110673414_0" sampledSeconds="0.00" CO_abs="0" CO2_abs="0" HC_abs="0" PMx_abs="0" NOx_abs="0" fuel_abs="0" electricity_abs="0"
            CO_normed="0" CO2_normed="0" HC_normed="0" PMx_normed="0" NOx_normed="0" fuel_normed="0" electricity_normed="0"/>
        <edge id=":1110673414_1" sampledSeconds="133.97" CO_abs="8489.689543" CO2_abs="316783.862308" HC_abs="45.987736" PMx_abs="5.754628" NOx_abs="133.150624" fuel_abs="136.174414" electricity_abs="0"
            CO_normed="706.743336" CO2_normed="26371.386446" HC_normed="3.828353" PMx_normed="0.479057" NOx_normed="11.084424" fuel_normed="11.336146" electricity_normed="0"
            traveltime="1.60" CO_perVeh="101.150411" CO2_perVeh="3774.321516" HC_perVeh="0.547921" PMx_perVeh="0.068564" NOx_perVeh="1.586423" fuel_perVeh="1.622450" electricity_perVeh="0"/>
        <edge id=":1110673417_0" sampledSeconds="29.74" CO_abs="436.312023" CO2_abs="48846.408372" HC_abs="3.104677" PMx_abs="0.688942" NOx_abs="18.443382" fuel_abs="20.997018" electricity_abs="0"
            CO_normed="1171.377325" CO2_normed="131139.121005" HC_normed="8.335200" PMx_normed="1.849620" NOx_normed="49.515389" fuel_normed="56.371195" electricity_normed="0"
            traveltime="0.02" CO_perVeh="0.323837" CO2_perVeh="36.254458" HC_perVeh="0.002304" PMx_perVeh="0.000511" NOx_perVeh="0.013689" fuel_perVeh="0.015584" electricity_perVeh="0"/>
        <edge id=":1110673446_0" sampledSeconds="334.09" CO_abs="3691.962385" CO2_abs="294075.761280" HC_abs="23.809453" PMx_abs="5.467264" NOx_abs="120.807538" fuel_abs="126.409586" electricity_abs="0"
            CO_normed="9251.106416" CO2_normed="736878.082139" HC_normed="59.660354" PMx_normed="13.699555" NOx_normed="302.712561" fuel_normed="316.749849" electricity_normed="0"
            traveltime="0.02" CO_perVeh="0.251808" CO2_perVeh="20.057230" HC_perVeh="0.001624" PMx_perVeh="0.000373" NOx_perVeh="0.008240" fuel_perVeh="0.008622" electricity_perVeh="0"/>
        <edge id=":1110673451_0" sampledSeconds="37.22" CO_abs="487.643469" CO2_abs="33973.082829" HC_abs="2.996150" PMx_abs="0.477893" NOx_abs="13.147625" fuel_abs="14.603727" electricity_abs="0"
            CO_normed="1357.676533" CO2_normed="94586.435106" HC_normed="8.341755" PMx_normed="1.330531" NOx_normed="36.605068" fuel_normed="40.659086" electricity_normed="0"
            traveltime="0.03" CO_perVeh="0.349704" CO2_perVeh="24.363167" HC_perVeh="0.002149" PMx_perVeh="0.000343" NOx_perVeh="0.009429" fuel_perVeh="0.010473" electricity_perVeh="0"/>
        <edge id=":1110673464_0" sampledSeconds="321.90" CO_abs="592.803239" CO2_abs="45695.898896" HC_abs="3.740320" PMx_abs="0.615033" NOx_abs="17.432286" fuel_abs="19.642913" electricity_abs="0"
            CO_normed="31.559749" CO2_normed="2432.765184" HC_normed="0.199128" PMx_normed="0.032743" NOx_normed="0.928063" fuel_normed="1.045752" electricity_normed="0"
            traveltime="1.16" CO_perVeh="2.142905" CO2_perVeh="165.184646" HC_perVeh="0.013521" PMx_perVeh="0.002223" NOx_perVeh="0.063015" fuel_perVeh="0.071007" electricity_perVeh="0"/>
        <edge id=":1110673464_1" sampledSeconds="709.26" CO_abs="17253.977127" CO2_abs="2147009.472205" HC_abs="129.975598" PMx_abs="38.431426" NOx_abs="809.016127" fuel_abs="922.900646" electricity_abs="0"
            CO_normed="900.083708" CO2_normed="112002.481107" HC_normed="6.780403" PMx_normed="2.004842" NOx_normed="42.203733" fuel_normed="48.144716" electricity_normed="0"
            traveltime="0.70" CO_perVeh="17.032390" CO2_perVeh="2119.436151" HC_perVeh="0.128306" PMx_perVeh="0.037938" NOx_perVeh="0.798626" fuel_perVeh="0.911048" electricity_perVeh="0"/>
        <edge id=":1110673479_0" sampledSeconds="133.54" CO_abs="6795.915276" CO2_abs="467980.788122" HC_abs="41.954887" PMx_abs="8.277761" NOx_abs="192.041066" fuel_abs="201.164498" electricity_abs="0"
            CO_normed="17028.812551" CO2_normed="1172639.268628" HC_normed="105.128136" PMx_normed="20.741935" NOx_normed="481.205428" fuel_normed="504.066397" electricity_normed="0"
            traveltime="0.03" CO_perVeh="1.431623" CO2_perVeh="98.584535" HC_perVeh="0.008838" PMx_perVeh="0.001744" NOx_perVeh="0.040455" fuel_perVeh="0.042377" electricity_perVeh="0"/>
        <edge id=":1110673511_0" sampledSeconds="11.80" CO_abs="175.886786" CO2_abs="19936.419951" HC_abs="1.262056" PMx_abs="0.288248" NOx_abs="7.577095" fuel_abs="8.569816" electricity_abs="0"
            CO_normed="440.726963" CO2_normed="49955.531303" HC_normed="3.162388" PMx_normed="0.722275" NOx_normed="18.986249" fuel_normed="21.473752" electricity_normed="0"
            traveltime="0.02" CO_perVeh="0.348291" CO2_perVeh="39.478059" HC_perVeh="0.002499" PMx_perVeh="0.000571" NOx_perVeh="0.015004" fuel_perVeh="0.016970" electricity_perVeh="0"/>
        <edge id=":1110673517_0" sampledSeconds="17.29" CO_abs="690.502496" CO2_abs="49840.465988" HC_abs="4.315003" PMx_abs="0.863620" NOx_abs="20.289800" fuel_abs="21.424243" electricity_abs="0"
            CO_normed="1730.221331" CO2_normed="124887.365181" HC_normed="10.812285" PMx_normed="2.164010" NOx_normed="50.841010" fuel_normed="53.683632" electricity_normed="0"
            traveltime="0.03" CO_perVeh="1.108647" CO2_perVeh="80.022156" HC_perVeh="0.006928" PMx_perVeh="0.001387" NOx_perVeh="0.032577" fuel_perVeh="0.034398" electricity_perVeh="0"/>
        <edge id=":1110673534_0" sampledSeconds="475.41" CO_abs="2660.126628" CO2_abs="246160.988542" HC_abs="17.696641" PMx_abs="3.049349" NOx_abs="91.501519" fuel_abs="105.815180" electricity_abs="0"
            CO_normed="129.178137" CO2_normed="11953.798605" HC_normed="0.859365" PMx_normed="0.148079" NOx_normed="4.443396" fuel_normed="5.138480" electricity_normed="0"
            traveltime="1.43" CO_perVeh="8.013895" CO2_perVeh="741.584398" HC_perVeh="0.053313" PMx_perVeh="0.009186" NOx_perVeh="0.275657" fuel_perVeh="0.318779" electricity_perVeh="0"/>
        <edge id=":1110673534_1" sampledSeconds="184.29" CO_abs="2733.435061" CO2_abs="349528.244527" HC_abs="20.396786" PMx_abs="4.714661" NOx_abs="129.951533" fuel_abs="150.247556" electricity_abs="0"
            CO_normed="129.069421" CO2_normed="16504.291140" HC_normed="0.963111" PMx_normed="0.222620" NOx_normed="6.136151" fuel_normed="7.094504" electricity_normed="0"
            traveltime="1.22" CO_perVeh="18.149027" CO2_perVeh="2320.742060" HC_perVeh="0.135427" PMx_perVeh="0.031304" NOx_perVeh="0.862832" fuel_perVeh="0.997590" electricity_perVeh="0"/>
        <edge id=":1110673549_0" sampledSeconds="59.67" CO_abs="80.280662" CO2_abs="10809.451583" HC_abs="0.584785" PMx_abs="0.134066" NOx_abs="3.899774" fuel_abs="4.646545" electricity_abs="0"
            CO_normed="3.776520" CO2_normed="508.492497" HC_normed="0.027509" PMx_normed="0.006307" NOx_normed="0.183451" fuel_normed="0.218580" electricity_normed="0"
            traveltime="1.24" CO_perVeh="1.672579" CO2_perVeh="225.205716" HC_perVeh="0.012184" PMx_perVeh="0.002793" NOx_perVeh="0.081248" fuel_perVeh="0.096807" electricity_perVeh="0"/>
        <edge id=":1110673549_1" sampledSeconds="639.84" CO_abs="13385.196003" CO2_abs="1758903.268397" HC_abs="102.660319" PMx_abs="30.862534" NOx_abs="657.233436" fuel_abs="756.072040" electricity_abs="0"
            CO_normed="609.077219" CO2_normed="80036.774224" HC_normed="4.671434" PMx_normed="1.404362" NOx_normed="29.906616" fuel_normed="34.404147" electricity_normed="0"
            traveltime="0.81" CO_perVeh="16.859297" CO2_perVeh="2215.423177" HC_perVeh="0.129306" PMx_perVeh="0.038873" NOx_perVeh="0.827817" fuel_perVeh="0.952309" electricity_perVeh="0"/>
        <edge id=":1110673556_0" sampledSeconds="416.42" CO_abs="51148.770780" CO2_abs="2570353.502916" HC_abs="294.015008" PMx_abs="51.856910" NOx_abs="1106.962018" fuel_abs="1104.883616" electricity_abs="0"
            CO_normed="1784.208444" CO2_normed="89660.931306" HC_normed="10.256044" PMx_normed="1.808910" NOx_normed="38.613850" fuel_normed="38.541350" electricity_normed="0"
            traveltime="2.58" CO_perVeh="317.506628" CO2_perVeh="15955.501206" HC_perVeh="1.825102" PMx_perVeh="0.321902" NOx_perVeh="6.871480" fuel_perVeh="6.858579" electricity_perVeh="0"/>
        <edge id=":1110673556_2" sampledSeconds="249.09" CO_abs="24417.958496" CO2_abs="1052157.927532" HC_abs="135.893082" PMx_abs="20.287180" NOx_abs="448.615168" fuel_abs="452.281363" electricity_abs="0"
            CO_normed="890.612986" CO2_normed="38376.079372" HC_normed="4.956522" PMx_normed="0.739948" NOx_normed="16.362649" fuel_normed="16.496369" electricity_normed="0"
            traveltime="3.02" CO_perVeh="296.185157" CO2_perVeh="12762.474037" HC_perVeh="1.648357" PMx_perVeh="0.246080" NOx_perVeh="5.441616" fuel_perVeh="5.486086" electricity_perVeh="0"/>
        <edge id=":1110673556_3" sampledSeconds="380.35" CO_abs="32831.476384" CO2_abs="1174018.355601" HC_abs="176.855335" PMx_abs="22.560992" NOx_abs="501.712632" fuel_abs="504.669100" electricity_abs="0"
            CO_normed="2724.080133" CO2_normed="97410.181633" HC_normed="14.673970" PMx_normed="1.871922" NOx_normed="41.627900" fuel_normed="41.873203" electricity_normed="0"
            traveltime="1.74" CO_perVeh="150.622493" CO2_perVeh="5386.098670" HC_perVeh="0.811367" PMx_perVeh="0.103504" NOx_perVeh="2.301730" fuel_perVeh="2.315294" electricity_perVeh="0"/>
        <edge id=":1110673556_4" sampledSeconds="163.57" CO_abs="16795.462803" CO2_abs="665486.853260" HC_abs="92.106045" PMx_abs="13.090334" NOx_abs="285.889329" fuel_abs="286.067369" electricity_abs="0"
            CO_normed="851.350682" CO2_normed="33733.079752" HC_normed="4.668793" PMx_normed="0.663540" NOx_normed="14.491537" fuel_normed="14.500562" electricity_normed="0"
            traveltime="2.43" CO_perVeh="249.430905" CO2_perVeh="9883.204184" HC_perVeh="1.367875" PMx_perVeh="0.194406" NOx_perVeh="4.245768" fuel_perVeh="4.248412" electricity_perVeh="0"/>
        <edge id=":1110673556_5" sampledSeconds="23.24" CO_abs="2002.835672" CO2_abs="84745.303924" HC_abs="11.104479" PMx_abs="1.615577" NOx_abs="36.059938" fuel_abs="36.428732" electricity_abs="0"
            CO_normed="141.501601" CO2_normed="5987.309069" HC_normed="0.784538" PMx_normed="0.114142" NOx_normed="2.547657" fuel_normed="2.573713" electricity_normed="0"
            traveltime="1.61" CO_perVeh="138.467651" CO2_perVeh="5858.934592" HC_perVeh="0.767717" PMx_perVeh="0.111694" NOx_perVeh="2.493033" fuel_perVeh="2.518530" electricity_perVeh="0"/>
        <edge id=":1110673556_6" sampledSeconds="306.64" CO_abs="37243.377529" CO2_abs="1911417.180155" HC_abs="215.081800" PMx_abs="38.610083" NOx_abs="822.654744" fuel_abs="821.634775" electricity_abs="0"
            CO_normed="1331.907337" CO2_normed="68356.597497" HC_normed="7.691811" PMx_normed="1.380784" NOx_normed="29.419993" fuel_normed="29.383516" electricity_normed="0"
            traveltime="2.43" CO_perVeh="294.937590" CO2_perVeh="15136.886470" HC_perVeh="1.703275" PMx_perVeh="0.305761" NOx_perVeh="6.514764" fuel_perVeh="6.506686" electricity_perVeh="0"/>
        <edge id=":1110673561_0" sampledSeconds="100.13" CO_abs="9864.245835" CO2_abs="704526.992271" HC_abs="61.875757" PMx_abs="14.298808" NOx_abs="298.316191" fuel_abs="302.842531" electricity_abs="0"
            CO_normed="443.226389" CO2_normed="31656.242160" HC_normed="2.780240" PMx_normed="0.642483" NOx_normed="13.404127" fuel_normed="13.607508" electricity_normed="0"
            traveltime="1.18" CO_perVeh="116.407675" CO2_perVeh="8314.102323" HC_perVeh="0.730194" PMx_perVeh="0.168740" NOx_perVeh="3.520421" fuel_perVeh="3.573836" electricity_perVeh="0"/>
        <edge id=":1110673561_1" sampledSeconds="1316.29" CO_abs="121801.034888" CO2_abs="8452409.968224" HC_abs="759.122001" PMx_abs="176.509261" NOx_abs="3612.352743" fuel_abs="3633.282942" electricity_abs="0"
            CO_normed="5335.699449" CO2_normed="370272.052718" HC_normed="33.254618" PMx_normed="7.732285" NOx_normed="158.245195" fuel_normed="159.162078" electricity_normed="0"
            traveltime="1.19" CO_perVeh="110.412949" CO2_perVeh="7662.131204" HC_perVeh="0.688146" PMx_perVeh="0.160006" NOx_perVeh="3.274607" fuel_perVeh="3.293580" electricity_perVeh="0"/>
        <edge id=":1110673562_0" sampledSeconds="104.13" CO_abs="2082.137432" CO2_abs="167244.370823" HC_abs="13.288890" PMx_abs="2.217905" NOx_abs="63.480320" fuel_abs="71.891922" electricity_abs="0"
            CO_normed="5796.999880" CO2_normed="465634.776426" HC_normed="36.998371" PMx_normed="6.174997" NOx_normed="176.739250" fuel_normed="200.158480" electricity_normed="0"
            traveltime="0.03" CO_perVeh="0.530746" CO2_perVeh="42.631351" HC_perVeh="0.003387" PMx_perVeh="0.000565" NOx_perVeh="0.016181" fuel_perVeh="0.018326" electricity_perVeh="0"/>
        <edge id=":1110673564_0" sampledSeconds="28.52" CO_abs="435.611469" CO2_abs="52811.735068" HC_abs="3.202496" PMx_abs="0.728907" NOx_abs="19.802598" fuel_abs="22.701544" electricity_abs="0"
            CO_normed="3274.590289" CO2_normed="396997.799630" HC_normed="24.073889" PMx_normed="5.479360" NOx_normed="148.860627" fuel_normed="170.652660" electricity_normed="0"
            traveltime="7.840707e-03" CO_perVeh="0.119756" CO2_perVeh="14.518690" HC_perVeh="0.000880" PMx_perVeh="0.000200" NOx_perVeh="0.005444" fuel_perVeh="0.006241" electricity_perVeh="0"/>
        <edge id=":1110673588_0" sampledSeconds="11.73" CO_abs="134.757258" CO2_abs="21846.305845" HC_abs="1.108374" PMx_abs="0.264017" NOx_abs="7.877993" fuel_abs="9.390833" electricity_abs="0"
            CO_normed="405.200357" CO2_normed="65689.455871" HC_normed="3.332758" PMx_normed="0.793871" NOx_normed="23.688264" fuel_normed="28.237210" electricity_normed="0"
            traveltime="0.02" CO_perVeh="0.224595" CO2_perVeh="36.410510" HC_perVeh="0.001847" PMx_perVeh="0.000440" NOx_perVeh="0.013130" fuel_perVeh="0.015651" electricity_perVeh="0"/>
        <edge id=":1110673601_0" sampledSeconds="29.70" CO_abs="331.524558" CO2_abs="48627.367334" HC_abs="2.587127" PMx_abs="0.588819" NOx_abs="17.603124" fuel_abs="20.902931" electricity_abs="0"
            CO_normed="890.051912" CO2_normed="130551.056292" HC_normed="6.945723" PMx_normed="1.580817" NOx_normed="47.259527" fuel_normed="56.118598" electricity_normed="0"
            traveltime="0.02" CO_perVeh="0.246062" CO2_perVeh="36.091883" HC_perVeh="0.001920" PMx_perVeh="0.000437" NOx_perVeh="0.013065" fuel_perVeh="0.015514" electricity_perVeh="0"/>
        <edge id=":1110673617_0" sampledSeconds="238.26" CO_abs="5928.648783" CO2_abs="728410.380821" HC_abs="44.464272" PMx_abs="13.078758" NOx_abs="275.152977" fuel_abs="313.110092" electricity_abs="0"
            CO_normed="14855.666192" CO2_normed="1825208.722040" HC_normed="111.416009" PMx_normed="32.771997" NOx_normed="689.462460" fuel_normed="784.573211" electricity_normed="0"
            traveltime="0.01" CO_perVeh="0.363296" CO2_perVeh="44.635622" HC_perVeh="0.002725" PMx_perVeh="0.000801" NOx_perVeh="0.016861" fuel_perVeh="0.019187" electricity_perVeh="0"/>
        <edge id=":1110673621_0" sampledSeconds="25.72" CO_abs="604.820377" CO2_abs="64161.833938" HC_abs="4.229508" PMx_abs="0.940010" NOx_abs="24.518352" fuel_abs="27.580442" electricity_abs="0"
            CO_normed="1818.628823" CO2_normed="192927.627627" HC_normed="12.717668" PMx_normed="2.826508" NOx_normed="73.724008" fuel_normed="82.931378" electricity_normed="0"
            traveltime="0.02" CO_perVeh="0.458197" CO2_perVeh="48.607450" HC_perVeh="0.003204" PMx_perVeh="0.000712" NOx_perVeh="0.018575" fuel_perVeh="0.020894" electricity_perVeh="0"/>
        <edge id=":1110673630_0" sampledSeconds="54.24" CO_abs="319.095740" CO2_abs="29951.932841" HC_abs="2.136902" PMx_abs="0.392811" NOx_abs="11.264485" fuel_abs="12.875152" electricity_abs="0"
            CO_normed="17.109238" CO2_normed="1605.959184" HC_normed="0.114576" PMx_normed="0.021062" NOx_normed="0.603978" fuel_normed="0.690338" electricity_normed="0"
            traveltime="1.27" CO_perVeh="7.448259" CO2_perVeh="699.131091" HC_perVeh="0.049879" PMx_perVeh="0.009169" NOx_perVeh="0.262933" fuel_perVeh="0.300529" electricity_perVeh="0"/>
        <edge id=":1110673630_1" sampledSeconds="7.43" CO_abs="45.096989" CO2_abs="2916.104450" HC_abs="0.273457" PMx_abs="0.049809" NOx_abs="1.189842" fuel_abs="1.253510" electricity_abs="0"
            CO_normed="2.947863" CO2_normed="190.617557" HC_normed="0.017875" PMx_normed="0.003256" NOx_normed="0.077777" fuel_normed="0.081938" electricity_normed="0"
            traveltime="1.05" CO_perVeh="6.382958" CO2_perVeh="412.740938" HC_perVeh="0.038705" PMx_perVeh="0.007050" NOx_perVeh="0.168408" fuel_perVeh="0.177420" electricity_perVeh="0"/>
        <edge id=":1110673650_0" sampledSeconds="143.30" CO_abs="2229.590550" CO2_abs="285410.243398" HC_abs="16.655072" PMx_abs="3.874877" NOx_abs="106.257820" fuel_abs="122.685875" electricity_abs="0"
            CO_normed="5586.779410" CO2_normed="715164.527202" HC_normed="41.733319" PMx_normed="9.709442" NOx_normed="266.254716" fuel_normed="307.419189" electricity_normed="0"
            traveltime="0.02" CO_perVeh="0.358009" CO2_perVeh="45.828763" HC_perVeh="0.002674" PMx_perVeh="0.000622" NOx_perVeh="0.017062" fuel_perVeh="0.019700" electricity_perVeh="0"/>
        <edge id=":1110673655_0" sampledSeconds="45.05" CO_abs="801.133597" CO2_abs="86415.835756" HC_abs="5.626993" PMx_abs="1.222750" NOx_abs="32.737477" fuel_abs="37.146546" electricity_abs="0"
            CO_normed="2007.434363" CO2_normed="216535.817304" HC_normed="14.099794" PMx_normed="3.063895" NOx_normed="82.031683" fuel_normed="93.079673" electricity_normed="0"
            traveltime="0.02" CO_perVeh="0.428761" CO2_perVeh="46.249102" HC_perVeh="0.003012" PMx_perVeh="0.000654" NOx_perVeh="0.017521" fuel_perVeh="0.019881" electricity_perVeh="0"/>
        <edge id=":1110673663_0" sampledSeconds="108.86" CO_abs="1656.307043" CO2_abs="204776.633351" HC_abs="12.209478" PMx_abs="2.746223" NOx_abs="76.184857" fuel_abs="88.024958" electricity_abs="0"
            CO_normed="76.012430" CO2_normed="9397.756000" HC_normed="0.560326" PMx_normed="0.126032" NOx_normed="3.496330" fuel_normed="4.039704" electricity_normed="0"
            traveltime="1.28" CO_perVeh="19.454108" CO2_perVeh="2405.198163" HC_perVeh="0.143406" PMx_perVeh="0.032256" NOx_perVeh="0.894827" fuel_perVeh="1.033895" electricity_perVeh="0"/>
        <edge id=":1110673663_1" sampledSeconds="154.84" CO_abs="2020.742306" CO2_abs="260331.471033" HC_abs="15.157707" PMx_abs="3.514419" NOx_abs="96.752385" fuel_abs="111.905593" electricity_abs="0"
            CO_normed="92.850725" CO2_normed="11961.923945" HC_normed="0.696479" PMx_normed="0.161483" NOx_normed="4.445658" fuel_normed="5.141930" electricity_normed="0"
            traveltime="1.25" CO_perVeh="16.357939" CO2_perVeh="2107.387143" HC_perVeh="0.122702" PMx_perVeh="0.028449" NOx_perVeh="0.783212" fuel_perVeh="0.905877" electricity_perVeh="0"/>
        <edge id=":1110673666_0" sampledSeconds="192.07" CO_abs="4125.483921" CO2_abs="339258.020315" HC_abs="26.498554" PMx_abs="4.413222" NOx_abs="128.058914" fuel_abs="145.834037" electricity_abs="0"