<?xml version="1.0" encoding="UTF-8"?>

<!-- generated on Tue Nov 10 01:53:21 2020 by Eclipse SUMO sumo Version 1.7.0
<configuration xmlns:xsi="http://www.w3.org/2001/XMLSchema-instance" xsi:noNamespaceSchemaLocation="http://sumo.dlr.de/xsd/sumoConfiguration.xsd">

    <input>
        <net-file value="../dataSets/Porto/6AM7AM_Routing_SaoBento/Porto.net.xml"/>
        <route-files value="../results/Porto/6AM7AM_Routing_SaoBento/cost_co2-cost_hc/solution4/Porto.rou.xml"/>
        <additional-files value="moreOutputInfo.xml"/>
    </input>

    <output>
        <emission-output.precision value="6"/>
        <tripinfo-output value="../results/Porto/6AM7AM_Routing_SaoBento/cost_co2-cost_hc/solution4/Porto-tripinfo"/>
    </output>

    <processing>
        <collision.action value="warn"/>
        <time-to-teleport value="-1"/>
    </processing>

    <emissions>
        <device.emissions.probability value="1"/>
    </emissions>

    <gui_only>
        <quit-on-end value="true"/>
        <start value="true"/>
    </gui_only>

</configuration>
-->

<meandata xmlns:xsi="http://www.w3.org/2001/XMLSchema-instance" xsi:noNamespaceSchemaLocation="http://sumo.dlr.de/xsd/meandata_file.xsd">
    <interval begin="0.00" end="4699.00" id="emissions-detector">
        <edge id=":1092997347_0" sampledSeconds="272.81" CO_abs="34775.399066" CO2_abs="1356535.175555" HC_abs="190.386003" PMx_abs="27.684499" NOx_abs="588.995663" fuel_abs="583.121593" electricity_abs="0"
            CO_normed="60550.328231" CO2_normed="2361975.774342" HC_normed="331.496842" PMx_normed="48.203774" NOx_normed="1025.549144" fuel_normed="1015.321314" electricity_normed="0"
            traveltime="0.08" CO_perVeh="9.775348" CO2_perVeh="381.321380" HC_perVeh="0.053517" PMx_perVeh="0.007782" NOx_perVeh="0.165566" fuel_perVeh="0.163915" electricity_perVeh="0"/>
        <edge id=":1103427051_0" sampledSeconds="10.93" CO_abs="919.156820" CO2_abs="51288.928210" HC_abs="5.407709" PMx_abs="1.032555" NOx_abs="22.064806" fuel_abs="22.046806" electricity_abs="0"
            CO_normed="2428.223579" CO2_normed="135494.816619" HC_normed="14.286056" PMx_normed="2.727798" NOx_normed="58.290688" fuel_normed="58.243134" electricity_normed="0"
            traveltime="0.03" CO_perVeh="2.518476" CO2_perVeh="140.530888" HC_perVeh="0.014817" PMx_perVeh="0.002829" NOx_perVeh="0.060457" fuel_perVeh="0.060408" electricity_perVeh="0"/>
        <edge id=":1105984386_0" sampledSeconds="22.86" CO_abs="451.078995" CO2_abs="37501.784899" HC_abs="2.900374" PMx_abs="0.455268" NOx_abs="13.951806" fuel_abs="16.120627" electricity_abs="0"
            CO_normed="35.590200" CO2_normed="2958.896433" HC_normed="0.228840" PMx_normed="0.035921" NOx_normed="1.100800" fuel_normed="1.271920" electricity_normed="0"
            traveltime="0.96" CO_perVeh="18.931436" CO2_perVeh="1573.920865" HC_perVeh="0.121726" PMx_perVeh="0.019107" NOx_perVeh="0.585546" fuel_perVeh="0.676570" electricity_perVeh="0"/>
        <edge id=":1105984390_0" sampledSeconds="23.84" CO_abs="64.020701" CO2_abs="4875.413439" HC_abs="0.401599" PMx_abs="0.060832" NOx_abs="1.831500" fuel_abs="2.095761" electricity_abs="0"
            CO_normed="3.905061" CO2_normed="297.384868" HC_normed="0.024496" PMx_normed="0.003711" NOx_normed="0.111716" fuel_normed="0.127835" electricity_normed="0"
            traveltime="1.08" CO_perVeh="2.903307" CO2_perVeh="221.097605" HC_perVeh="0.018212" PMx_perVeh="0.002759" NOx_perVeh="0.083058" fuel_perVeh="0.095042" electricity_perVeh="0"/>
        <edge id=":1105984390_1" sampledSeconds="646.05" CO_abs="14323.807260" CO2_abs="1886441.387913" HC_abs="110.502203" PMx_abs="33.244476" NOx_abs="704.831426" fuel_abs="810.894792" electricity_abs="0"
            CO_normed="835.777737" CO2_normed="110071.692856" HC_normed="6.447677" PMx_normed="1.939777" NOx_normed="41.126106" fuel_normed="47.314782" electricity_normed="0"
            traveltime="0.64" CO_perVeh="14.095583" CO2_perVeh="1856.384302" HC_perVeh="0.108742" PMx_perVeh="0.032715" NOx_perVeh="0.693601" fuel_perVeh="0.797975" electricity_perVeh="0"/>
        <edge id=":1105984395_0" sampledSeconds="9.11" CO_abs="194.138651" CO2_abs="14765.899205" HC_abs="1.224784" PMx_abs="0.222194" NOx_abs="5.787948" fuel_abs="6.347259" electricity_abs="0"
            CO_normed="161.666946" CO2_normed="12296.149305" HC_normed="1.019927" PMx_normed="0.185030" NOx_normed="4.819854" fuel_normed="5.285614" electricity_normed="0"
            traveltime="0.09" CO_perVeh="1.968958" CO2_perVeh="149.756057" HC_perVeh="0.012422" PMx_perVeh="0.002253" NOx_perVeh="0.058701" fuel_perVeh="0.064374" electricity_perVeh="0"/>
        <edge id=":1105984398_0" sampledSeconds="24.20" CO_abs="1227.127659" CO2_abs="92262.248154" HC_abs="7.738592" PMx_abs="1.502474" NOx_abs="36.902064" fuel_abs="39.659624" electricity_abs="0"
            CO_normed="77.760761" CO2_normed="5846.484299" HC_normed="0.490380" PMx_normed="0.095209" NOx_normed="2.338414" fuel_normed="2.513155" electricity_normed="0"
            traveltime="1.12" CO_perVeh="56.848292" CO2_perVeh="4274.169191" HC_perVeh="0.358500" PMx_perVeh="0.069604" NOx_perVeh="1.709536" fuel_perVeh="1.837284" electricity_perVeh="0"/>
        <edge id=":1105984398_1" sampledSeconds="452.45" CO_abs="7313.568797" CO2_abs="874458.950436" HC_abs="53.230054" PMx_abs="12.375695" NOx_abs="329.386700" fuel_abs="375.892740" electricity_abs="0"
            CO_normed="448.604854" CO2_normed="53638.181395" HC_normed="3.265063" PMx_normed="0.759109" NOx_normed="20.204154" fuel_normed="23.056775" electricity_normed="0"
            traveltime="0.96" CO_perVeh="15.442755" CO2_perVeh="1846.438526" HC_perVeh="0.112396" PMx_perVeh="0.026132" NOx_perVeh="0.695507" fuel_perVeh="0.793705" electricity_perVeh="0"/>
        <edge id=":1106006327_0" sampledSeconds="526.74" CO_abs="71073.852386" CO2_abs="2307365.447865" HC_abs="377.940858" PMx_abs="48.131634" NOx_abs="1009.994973" fuel_abs="991.854925" electricity_abs="0"
            CO_normed="6145.725943" CO2_normed="199516.913985" HC_normed="32.680386" PMx_normed="4.161922" NOx_normed="87.333838" fuel_normed="85.765276" electricity_normed="0"
            traveltime="2.09" CO_perVeh="282.125021" CO2_perVeh="9159.001572" HC_perVeh="1.500222" PMx_perVeh="0.191057" NOx_perVeh="4.009138" fuel_perVeh="3.937131" electricity_perVeh="0"/>
        <edge id=":1106006327_1" sampledSeconds="161.12" CO_abs="21832.367445" CO2_abs="730920.367006" HC_abs="116.639802" PMx_abs="15.254089" NOx_abs="319.925417" fuel_abs="314.196266" electricity_abs="0"
            CO_normed="1646.281811" CO2_normed="55115.456824" HC_normed="8.795289" PMx_normed="1.150243" NOx_normed="24.124154" fuel_normed="23.692144" electricity_normed="0"
            traveltime="2.29" CO_perVeh="309.938594" CO2_perVeh="10376.356652" HC_perVeh="1.655852" PMx_perVeh="0.216551" NOx_perVeh="4.541754" fuel_perVeh="4.460421" electricity_perVeh="0"/>
        <edge id=":1106006327_2" sampledSeconds="0.00" CO_abs="0" CO2_abs="0" HC_abs="0" PMx_abs="0" NOx_abs="0" fuel_abs="0" electricity_abs="0"
            CO_normed="0" CO2_normed="0" HC_normed="0" PMx_normed="0" NOx_normed="0" fuel_normed="0" electricity_normed="0"/>
        <edge id=":1106006327_3" sampledSeconds="0.00" CO_abs="0" CO2_abs="0" HC_abs="0" PMx_abs="0" NOx_abs="0" fuel_abs="0" electricity_abs="0"
            CO_normed="0" CO2_normed="0" HC_normed="0" PMx_normed="0" NOx_normed="0" fuel_normed="0" electricity_normed="0"/>
        <edge id=":1107381198_0" sampledSeconds="0.00" CO_abs="0" CO2_abs="0" HC_abs="0" PMx_abs="0" NOx_abs="0" fuel_abs="0" electricity_abs="0"
            CO_normed="0" CO2_normed="0" HC_normed="0" PMx_normed="0" NOx_normed="0" fuel_normed="0" electricity_normed="0"/>
        <edge id=":1107381198_1" sampledSeconds="35.61" CO_abs="1344.641962" CO2_abs="57185.321378" HC_abs="7.438114" PMx_abs="0.965550" NOx_abs="23.530597" fuel_abs="24.581944" electricity_abs="0"
            CO_normed="112.339990" CO2_normed="4777.627504" HC_normed="0.621428" PMx_normed="0.080668" NOx_normed="1.965897" fuel_normed="2.053733" electricity_normed="0"
            traveltime="1.47" CO_perVeh="55.362638" CO2_perVeh="2354.478255" HC_perVeh="0.306248" PMx_perVeh="0.039754" NOx_perVeh="0.968820" fuel_perVeh="1.012107" electricity_perVeh="0"/>
        <edge id=":1110338277_0" sampledSeconds="96.86" CO_abs="1337.686837" CO2_abs="171577.805027" HC_abs="9.979183" PMx_abs="2.273264" NOx_abs="63.579859" fuel_abs="73.754166" electricity_abs="0"
            CO_normed="3660.104439" CO2_normed="469461.662131" HC_normed="27.304487" PMx_normed="6.219979" NOx_normed="173.963680" fuel_normed="201.802053" electricity_normed="0"
            traveltime="0.02" CO_perVeh="0.301472" CO2_perVeh="38.668222" HC_perVeh="0.002249" PMx_perVeh="0.000512" NOx_perVeh="0.014329" fuel_perVeh="0.016622" electricity_perVeh="0"/>
        <edge id=":1110338293_0" sampledSeconds="123.28" CO_abs="6334.370842" CO2_abs="439413.099725" HC_abs="39.170291" PMx_abs="7.703021" NOx_abs="179.796929" fuel_abs="188.884570" electricity_abs="0"
            CO_normed="16176.303492" CO2_normed="1122144.540689" HC_normed="100.030537" PMx_normed="19.671473" NOx_normed="459.153682" fuel_normed="482.361108" electricity_normed="0"
            traveltime="0.03" CO_perVeh="1.452901" CO2_perVeh="100.787233" HC_perVeh="0.008984" PMx_perVeh="0.001767" NOx_perVeh="0.041240" fuel_perVeh="0.043324" electricity_perVeh="0"/>
        <edge id=":1110338295_0" sampledSeconds="0.00" CO_abs="0" CO2_abs="0" HC_abs="0" PMx_abs="0" NOx_abs="0" fuel_abs="0" electricity_abs="0"
            CO_normed="0" CO2_normed="0" HC_normed="0" PMx_normed="0" NOx_normed="0" fuel_normed="0" electricity_normed="0"/>
        <edge id=":1110673403_0" sampledSeconds="143.52" CO_abs="2070.441783" CO2_abs="265621.274525" HC_abs="15.461922" PMx_abs="3.545688" NOx_abs="98.552182" fuel_abs="114.179510" electricity_abs="0"
            CO_normed="5287.359310" CO2_normed="678326.302256" HC_normed="39.485648" PMx_normed="9.054748" NOx_normed="251.676141" fuel_normed="291.584193" electricity_normed="0"
            traveltime="0.02" CO_perVeh="0.332425" CO2_perVeh="42.647544" HC_perVeh="0.002483" PMx_perVeh="0.000569" NOx_perVeh="0.015823" fuel_perVeh="0.018332" electricity_perVeh="0"/>
        <edge id=":1110673412_0" sampledSeconds="252.54" CO_abs="45057.402651" CO2_abs="3069232.275139" HC_abs="280.287273" PMx_abs="67.484264" NOx_abs="1319.506240" fuel_abs="1319.311768" electricity_abs="0"
            CO_normed="119032.405679" CO2_normed="8108281.432220" HC_normed="740.461420" PMx_normed="178.279567" NOx_normed="3485.864538" fuel_normed="3485.350784" electricity_normed="0"
            traveltime="0.02" CO_perVeh="2.775443" CO2_perVeh="189.058367" HC_perVeh="0.017265" PMx_perVeh="0.004157" NOx_perVeh="0.081279" fuel_perVeh="0.081267" electricity_perVeh="0"/>
        <edge id=":1110673414_0" sampledSeconds="0.00" CO_abs="0" CO2_abs="0" HC_abs="0" PMx_abs="0" NOx_abs="0" fuel_abs="0" electricity_abs="0"
            CO_normed="0" CO2_normed="0" HC_normed="0" PMx_normed="0" NOx_normed="0" fuel_normed="0" electricity_normed="0"/>
        <edge id=":1110673414_1" sampledSeconds="129.93" CO_abs="8585.262868" CO2_abs="330160.174952" HC_abs="46.727494" PMx_abs="5.928068" NOx_abs="138.295032" fuel_abs="141.924312" electricity_abs="0"
            CO_normed="728.388202" CO2_normed="28011.346865" HC_normed="3.964439" PMx_normed="0.502947" NOx_normed="11.733184" fuel_normed="12.041098" electricity_normed="0"
            traveltime="1.55" CO_perVeh="102.289120" CO2_perVeh="3933.693600" HC_perVeh="0.556735" PMx_perVeh="0.070630" NOx_perVeh="1.647716" fuel_perVeh="1.690957" electricity_perVeh="0"/>
        <edge id=":1110673417_0" sampledSeconds="29.56" CO_abs="556.747606" CO2_abs="60385.968522" HC_abs="3.931216" PMx_abs="0.869760" NOx_abs="22.969705" fuel_abs="25.957373" electricity_abs="0"
            CO_normed="1523.341883" CO2_normed="165224.733742" HC_normed="10.756375" PMx_normed="2.379790" NOx_normed="62.848431" fuel_normed="71.023124" electricity_normed="0"
            traveltime="0.02" CO_perVeh="0.413226" CO2_perVeh="44.819274" HC_perVeh="0.002918" PMx_perVeh="0.000646" NOx_perVeh="0.017048" fuel_perVeh="0.019266" electricity_perVeh="0"/>
        <edge id=":1110673446_0" sampledSeconds="333.90" CO_abs="3304.343358" CO2_abs="267386.560974" HC_abs="21.391222" PMx_abs="4.895712" NOx_abs="109.345843" fuel_abs="114.937202" electricity_abs="0"
            CO_normed="8438.416747" CO2_normed="682834.375759" HC_normed="54.627509" PMx_normed="12.502351" NOx_normed="279.240290" fuel_normed="293.519136" electricity_normed="0"
            traveltime="0.02" CO_perVeh="0.225494" CO2_perVeh="18.246879" HC_perVeh="0.001460" PMx_perVeh="0.000334" NOx_perVeh="0.007462" fuel_perVeh="0.007843" electricity_perVeh="0"/>
        <edge id=":1110673451_0" sampledSeconds="37.58" CO_abs="465.362890" CO2_abs="36174.392420" HC_abs="2.943959" PMx_abs="0.489394" NOx_abs="13.800248" fuel_abs="15.549977" electricity_abs="0"
            CO_normed="1320.459361" CO2_normed="102644.229042" HC_normed="8.353433" PMx_normed="1.388647" NOx_normed="39.157971" fuel_normed="44.122798" electricity_normed="0"
            traveltime="0.03" CO_perVeh="0.333726" CO2_perVeh="25.941795" HC_perVeh="0.002111" PMx_perVeh="0.000351" NOx_perVeh="0.009897" fuel_perVeh="0.011151" electricity_perVeh="0"/>
        <edge id=":1110673464_0" sampledSeconds="320.38" CO_abs="724.591878" CO2_abs="62604.334483" HC_abs="4.725598" PMx_abs="0.816839" NOx_abs="23.564959" fuel_abs="26.911181" electricity_abs="0"
            CO_normed="39.314777" CO2_normed="3396.774857" HC_normed="0.256401" PMx_normed="0.044320" NOx_normed="1.278583" fuel_normed="1.460142" electricity_normed="0"
            traveltime="1.16" CO_perVeh="2.619304" CO2_perVeh="226.306409" HC_perVeh="0.017082" PMx_perVeh="0.002953" NOx_perVeh="0.085184" fuel_perVeh="0.097280" electricity_perVeh="0"/>
        <edge id=":1110673464_1" sampledSeconds="710.08" CO_abs="16372.205685" CO2_abs="2100426.708688" HC_abs="124.908978" PMx_abs="37.269717" NOx_abs="787.782395" fuel_abs="902.877104" electricity_abs="0"
            CO_normed="870.442860" CO2_normed="111671.051887" HC_normed="6.640897" PMx_normed="1.981478" NOx_normed="41.883151" fuel_normed="48.002263" electricity_normed="0"
            traveltime="0.70" CO_perVeh="16.160019" CO2_perVeh="2073.204763" HC_perVeh="0.123290" PMx_perVeh="0.036787" NOx_perVeh="0.777573" fuel_perVeh="0.891176" electricity_perVeh="0"/>
        <edge id=":1110673479_0" sampledSeconds="134.18" CO_abs="6777.384231" CO2_abs="464043.055457" HC_abs="41.799031" PMx_abs="8.323093" NOx_abs="191.149177" fuel_abs="199.471698" electricity_abs="0"
            CO_normed="17307.642217" CO2_normed="1185042.916680" HC_normed="106.743642" PMx_normed="21.254972" NOx_normed="488.144312" fuel_normed="509.397825" electricity_normed="0"
            traveltime="0.03" CO_perVeh="1.427719" CO2_perVeh="97.755015" HC_perVeh="0.008805" PMx_perVeh="0.001753" NOx_perVeh="0.040267" fuel_perVeh="0.042021" electricity_perVeh="0"/>
        <edge id=":1110673511_0" sampledSeconds="11.53" CO_abs="164.223616" CO2_abs="21131.446248" HC_abs="1.236165" PMx_abs="0.286221" NOx_abs="7.856592" fuel_abs="9.083523" electricity_abs="0"
            CO_normed="419.383570" CO2_normed="53964.110443" HC_normed="3.156837" PMx_normed="0.730934" NOx_normed="20.063654" fuel_normed="23.196910" electricity_normed="0"
            traveltime="0.02" CO_perVeh="0.325195" CO2_perVeh="41.844448" HC_perVeh="0.002448" PMx_perVeh="0.000567" NOx_perVeh="0.015558" fuel_perVeh="0.017987" electricity_perVeh="0"/>
        <edge id=":1110673517_0" sampledSeconds="17.18" CO_abs="655.451686" CO2_abs="48749.767449" HC_abs="4.126884" PMx_abs="0.824612" NOx_abs="19.690932" fuel_abs="20.955416" electricity_abs="0"
            CO_normed="1673.849804" CO2_normed="124493.979439" HC_normed="10.538967" PMx_normed="2.105840" NOx_normed="50.285418" fuel_normed="53.514575" electricity_normed="0"
            traveltime="0.03" CO_perVeh="1.052371" CO2_perVeh="78.270967" HC_perVeh="0.006626" PMx_perVeh="0.001324" NOx_perVeh="0.031615" fuel_perVeh="0.033645" electricity_perVeh="0"/>
        <edge id=":1110673534_0" sampledSeconds="475.41" CO_abs="3165.863579" CO2_abs="274090.307245" HC_abs="20.685167" PMx_abs="3.718961" NOx_abs="104.244471" fuel_abs="117.820576" electricity_abs="0"
            CO_normed="156.681708" CO2_normed="13564.999344" HC_normed="1.023729" PMx_normed="0.184055" NOx_normed="5.159162" fuel_normed="5.831056" electricity_normed="0"
            traveltime="1.43" CO_perVeh="9.537478" CO2_perVeh="825.724241" HC_perVeh="0.062316" PMx_perVeh="0.011204" NOx_perVeh="0.314047" fuel_perVeh="0.354946" electricity_perVeh="0"/>
        <edge id=":1110673534_1" sampledSeconds="184.03" CO_abs="2897.870917" CO2_abs="383837.277235" HC_abs="21.991929" PMx_abs="5.064787" NOx_abs="141.918078" fuel_abs="164.995678" electricity_abs="0"
            CO_normed="139.454659" CO2_normed="18471.456533" HC_normed="1.058321" PMx_normed="0.243733" NOx_normed="6.829544" fuel_normed="7.940111" electricity_normed="0"
            traveltime="1.22" CO_perVeh="19.240823" CO2_perVeh="2548.541720" HC_perVeh="0.146019" PMx_perVeh="0.033628" NOx_perVeh="0.942285" fuel_perVeh="1.095512" electricity_perVeh="0"/>
        <edge id=":1110673549_0" sampledSeconds="60.39" CO_abs="69.331960" CO2_abs="11010.375202" HC_abs="0.553151" PMx_abs="0.114492" NOx_abs="3.853857" fuel_abs="4.732938" electricity_abs="0"
            CO_normed="3.323944" CO2_normed="527.864432" HC_normed="0.026519" PMx_normed="0.005489" NOx_normed="0.184763" fuel_normed="0.226909" electricity_normed="0"
            traveltime="1.26" CO_perVeh="1.444472" CO2_perVeh="229.391789" HC_perVeh="0.011524" PMx_perVeh="0.002385" NOx_perVeh="0.080292" fuel_perVeh="0.098607" electricity_perVeh="0"/>
        <edge id=":1110673549_1" sampledSeconds="638.27" CO_abs="13346.740555" CO2_abs="1787602.691760" HC_abs="103.632498" PMx_abs="31.344236" NOx_abs="666.328242" fuel_abs="768.408661" electricity_abs="0"
            CO_normed="618.959497" CO2_normed="82900.664692" HC_normed="4.805991" PMx_normed="1.453599" NOx_normed="30.901192" fuel_normed="35.635205" electricity_normed="0"
            traveltime="0.80" CO_perVeh="16.813237" CO2_perVeh="2251.889745" HC_perVeh="0.130549" PMx_perVeh="0.039485" NOx_perVeh="0.839391" fuel_perVeh="0.967984" electricity_perVeh="0"/>
        <edge id=":1110673556_0" sampledSeconds="412.24" CO_abs="51426.731312" CO2_abs="2596764.535529" HC_abs="295.979395" PMx_abs="52.661720" NOx_abs="1119.833405" fuel_abs="1116.235976" electricity_abs="0"
            CO_normed="1828.263137" CO2_normed="92317.142344" HC_normed="10.522314" PMx_normed="1.872168" NOx_normed="39.811010" fuel_normed="39.683119" electricity_normed="0"
            traveltime="2.56" CO_perVeh="319.232072" CO2_perVeh="16119.448018" HC_perVeh="1.837296" PMx_perVeh="0.326898" NOx_perVeh="6.951380" fuel_perVeh="6.929049" electricity_perVeh="0"/>
        <edge id=":1110673556_2" sampledSeconds="249.05" CO_abs="24074.392140" CO2_abs="1035358.390347" HC_abs="133.943623" PMx_abs="20.023633" NOx_abs="441.894512" fuel_abs="445.059844" electricity_abs="0"
            CO_normed="894.899766" CO2_normed="38486.619948" HC_normed="4.978988" PMx_normed="0.744324" NOx_normed="16.426221" fuel_normed="16.543884" electricity_normed="0"
            traveltime="3.02" CO_perVeh="292.019087" CO2_perVeh="12558.755791" HC_perVeh="1.624718" PMx_perVeh="0.242884" NOx_perVeh="5.360120" fuel_perVeh="5.398515" electricity_perVeh="0"/>
        <edge id=":1110673556_3" sampledSeconds="367.54" CO_abs="32384.557487" CO2_abs="1153584.393752" HC_abs="174.324676" PMx_abs="22.088127" NOx_abs="492.473847" fuel_abs="495.885488" electricity_abs="0"
            CO_normed="2738.462670" CO2_normed="97547.968675" HC_normed="14.741026" PMx_normed="1.867789" NOx_normed="41.643961" fuel_normed="41.932452" electricity_normed="0"
            traveltime="1.75" CO_perVeh="153.954859" CO2_perVeh="5484.092921" HC_perVeh="0.828732" PMx_perVeh="0.105006" NOx_perVeh="2.341200" fuel_perVeh="2.357419" electricity_perVeh="0"/>
        <edge id=":1110673556_4" sampledSeconds="175.93" CO_abs="18431.675497" CO2_abs="745551.041098" HC_abs="101.435318" PMx_abs="14.591961" NOx_abs="319.746803" fuel_abs="320.483694" electricity_abs="0"
            CO_normed="952.183651" CO2_normed="38515.300065" HC_normed="5.240167" PMx_normed="0.753823" NOx_normed="16.518177" fuel_normed="16.556245" electricity_normed="0"
            traveltime="2.38" CO_perVeh="249.290227" CO2_perVeh="10083.651265" HC_perVeh="1.371923" PMx_perVeh="0.197358" NOx_perVeh="4.324607" fuel_perVeh="4.334574" electricity_perVeh="0"/>
        <edge id=":1110673556_5" sampledSeconds="24.95" CO_abs="1732.148657" CO2_abs="66471.108374" HC_abs="9.428743" PMx_abs="1.214564" NOx_abs="27.952577" fuel_abs="28.573578" electricity_abs="0"
            CO_normed="124.721289" CO2_normed="4786.172513" HC_normed="0.678905" PMx_normed="0.087453" NOx_normed="2.012692" fuel_normed="2.057406" electricity_normed="0"
            traveltime="1.72" CO_perVeh="119.753487" CO2_perVeh="4595.533418" HC_perVeh="0.651864" PMx_perVeh="0.083970" NOx_perVeh="1.932524" fuel_perVeh="1.975457" electricity_perVeh="0"/>
        <edge id=":1110673556_6" sampledSeconds="311.82" CO_abs="36997.537582" CO2_abs="1881428.569922" HC_abs="213.182439" PMx_abs="37.731477" NOx_abs="808.194558" fuel_abs="808.744666" electricity_abs="0"
            CO_normed="1348.457192" CO2_normed="68572.830866" HC_normed="7.769906" PMx_normed="1.375207" NOx_normed="29.456440" fuel_normed="29.476490" electricity_normed="0"
            traveltime="2.47" CO_perVeh="292.990736" CO2_perVeh="14899.400801" HC_perVeh="1.688233" PMx_perVeh="0.298803" NOx_perVeh="6.400251" fuel_perVeh="6.404607" electricity_perVeh="0"/>
        <edge id=":1110673561_0" sampledSeconds="99.63" CO_abs="9947.430412" CO2_abs="708720.627137" HC_abs="62.370852" PMx_abs="14.421707" NOx_abs="300.351137" fuel_abs="304.645138" electricity_abs="0"
            CO_normed="455.524798" CO2_normed="32454.594537" HC_normed="2.856162" PMx_normed="0.660416" NOx_normed="13.754044" fuel_normed="13.950680" electricity_normed="0"
            traveltime="1.18" CO_perVeh="117.389334" CO2_perVeh="8363.591284" HC_perVeh="0.736037" PMx_perVeh="0.170190" NOx_perVeh="3.544435" fuel_perVeh="3.595108" electricity_perVeh="0"/>
        <edge id=":1110673561_1" sampledSeconds="1314.28" CO_abs="119847.730177" CO2_abs="8325646.583009" HC_abs="747.144856" PMx_abs="173.724917" NOx_abs="3557.403820" fuel_abs="3578.793574" electricity_abs="0"
            CO_normed="5350.687478" CO2_normed="371704.435686" HC_normed="33.356816" PMx_normed="7.756073" NOx_normed="158.822833" fuel_normed="159.777794" electricity_normed="0"
            traveltime="1.19" CO_perVeh="108.873440" CO2_perVeh="7563.278672" HC_perVeh="0.678730" PMx_perVeh="0.157817" NOx_perVeh="3.231657" fuel_perVeh="3.251088" electricity_perVeh="0"/>
        <edge id=":1110673562_0" sampledSeconds="103.81" CO_abs="2382.898725" CO2_abs="188605.139269" HC_abs="15.155998" PMx_abs="2.567241" NOx_abs="72.044008" fuel_abs="81.074021" electricity_abs="0"
            CO_normed="6761.434986" CO2_normed="535163.905141" HC_normed="43.004888" PMx_normed="7.284503" NOx_normed="204.423660" fuel_normed="230.046168" electricity_normed="0"
            traveltime="0.03" CO_perVeh="0.607412" CO2_perVeh="48.076309" HC_perVeh="0.003863" PMx_perVeh="0.000654" NOx_perVeh="0.018364" fuel_perVeh="0.020666" electricity_perVeh="0"/>
        <edge id=":1110673564_0" sampledSeconds="28.58" CO_abs="591.636976" CO2_abs="62842.778624" HC_abs="4.140127" PMx_abs="0.919987" NOx_abs="24.016380" fuel_abs="27.013437" electricity_abs="0"
            CO_normed="4532.651867" CO2_normed="481451.379119" HC_normed="31.718360" PMx_normed="7.048206" NOx_normed="183.994397" fuel_normed="206.955462" electricity_normed="0"
            traveltime="7.857753e-03" CO_perVeh="0.162649" CO2_perVeh="17.276365" HC_perVeh="0.001138" PMx_perVeh="0.000253" NOx_perVeh="0.006602" fuel_perVeh="0.007426" electricity_perVeh="0"/>
        <edge id=":1110673588_0" sampledSeconds="11.50" CO_abs="160.167943" CO2_abs="21080.651675" HC_abs="1.198394" PMx_abs="0.285394" NOx_abs="7.820278" fuel_abs="9.061684" electricity_abs="0"
            CO_normed="490.831746" CO2_normed="64601.273489" HC_normed="3.672458" PMx_normed="0.874585" NOx_normed="23.965100" fuel_normed="27.769366" electricity_normed="0"
            traveltime="0.02" CO_perVeh="0.266947" CO2_perVeh="35.134419" HC_perVeh="0.001997" PMx_perVeh="0.000476" NOx_perVeh="0.013034" fuel_perVeh="0.015103" electricity_perVeh="0"/>
        <edge id=":1110673601_0" sampledSeconds="29.92" CO_abs="426.290120" CO2_abs="48876.248927" HC_abs="3.058199" PMx_abs="0.646543" NOx_abs="18.230667" fuel_abs="21.009897" electricity_abs="0"
            CO_normed="1166.391355" CO2_normed="133732.478138" HC_normed="8.367673" PMx_normed="1.769036" NOx_normed="49.881739" fuel_normed="57.486114" electricity_normed="0"
            traveltime="0.02" CO_perVeh="0.316398" CO2_perVeh="36.276606" HC_perVeh="0.002270" PMx_perVeh="0.000480" NOx_perVeh="0.013531" fuel_perVeh="0.015594" electricity_perVeh="0"/>
        <edge id=":1110673617_0" sampledSeconds="238.39" CO_abs="5771.259219" CO2_abs="727070.752287" HC_abs="43.588095" PMx_abs="12.936778" NOx_abs="273.465813" fuel_abs="312.534324" electricity_abs="0"
            CO_normed="14738.265723" CO2_normed="1856745.909224" HC_normed="111.312437" PMx_normed="33.037100" NOx_normed="698.359174" fuel_normed="798.129792" electricity_normed="0"
            traveltime="0.01" CO_perVeh="0.353760" CO2_perVeh="44.567100" HC_perVeh="0.002672" PMx_perVeh="0.000793" NOx_perVeh="0.016763" fuel_perVeh="0.019157" electricity_perVeh="0"/>
        <edge id=":1110673621_0" sampledSeconds="25.78" CO_abs="405.761079" CO2_abs="48187.553369" HC_abs="2.946168" PMx_abs="0.646280" NOx_abs="17.982777" fuel_abs="20.713833" electricity_abs="0"
            CO_normed="1243.447444" CO2_normed="147669.880508" HC_normed="9.028477" PMx_normed="1.980513" NOx_normed="55.107894" fuel_normed="63.477165" electricity_normed="0"
            traveltime="0.02" CO_perVeh="0.307395" CO2_perVeh="36.505722" HC_perVeh="0.002232" PMx_perVeh="0.000490" NOx_perVeh="0.013623" fuel_perVeh="0.015692" electricity_perVeh="0"/>
        <edge id=":1110673630_0" sampledSeconds="53.89" CO_abs="239.054669" CO2_abs="19599.535131" HC_abs="1.538237" PMx_abs="0.276201" NOx_abs="7.533969" fuel_abs="8.425058" electricity_abs="0"
            CO_normed="13.063101" CO2_normed="1071.013174" HC_normed="0.084057" PMx_normed="0.015093" NOx_normed="0.411692" fuel_normed="0.460386" electricity_normed="0"
            traveltime="1.26" CO_perVeh="5.579959" CO2_perVeh="457.487817" HC_perVeh="0.035905" PMx_perVeh="0.006447" NOx_perVeh="0.175856" fuel_perVeh="0.196656" electricity_perVeh="0"/>
        <edge id=":1110673630_1" sampledSeconds="7.29" CO_abs="0" CO2_abs="0" HC_abs="0" PMx_abs="0" NOx_abs="0" fuel_abs="0" electricity_abs="0"
            CO_normed="0" CO2_normed="0" HC_normed="0" PMx_normed="0" NOx_normed="0" fuel_normed="0" electricity_normed="0"
            traveltime="1.03" CO_perVeh="0" CO2_perVeh="0" HC_perVeh="0" PMx_perVeh="0" NOx_perVeh="0" fuel_perVeh="0" electricity_perVeh="0"/>
        <edge id=":1110673650_0" sampledSeconds="143.34" CO_abs="2297.078049" CO2_abs="289832.236195" HC_abs="17.132439" PMx_abs="4.036079" NOx_abs="108.547746" fuel_abs="124.586588" electricity_abs="0"
            CO_normed="5866.128236" CO2_normed="740154.678514" HC_normed="43.751705" PMx_normed="10.307076" NOx_normed="277.202161" fuel_normed="318.161109" electricity_normed="0"
            traveltime="0.02" CO_perVeh="0.368811" CO2_perVeh="46.534477" HC_perVeh="0.002751" PMx_perVeh="0.000648" NOx_perVeh="0.017428" fuel_perVeh="0.020003" electricity_perVeh="0"/>
        <edge id=":1110673655_0" sampledSeconds="44.69" CO_abs="641.627308" CO2_abs="82338.241178" HC_abs="4.787907" PMx_abs="1.086063" NOx_abs="30.480300" fuel_abs="35.393795" electricity_abs="0"
            CO_normed="1638.546009" CO2_normed="210270.034929" HC_normed="12.227044" PMx_normed="2.773518" NOx_normed="77.838603" fuel_normed="90.386366" electricity_normed="0"
            traveltime="0.02" CO_perVeh="0.343392" CO2_perVeh="44.066492" HC_perVeh="0.002562" PMx_perVeh="0.000581" NOx_perVeh="0.016313" fuel_perVeh="0.018942" electricity_perVeh="0"/>
        <edge id=":1110673663_0" sampledSeconds="107.77" CO_abs="1994.752711" CO2_abs="234914.025081" HC_abs="14.460796" PMx_abs="3.312689" NOx_abs="88.516097" fuel_abs="100.979594" electricity_abs="0"
            CO_normed="93.297976" CO2_normed="10987.328381" HC_normed="0.676356" PMx_normed="0.154940" NOx_normed="4.140048" fuel_normed="4.722987" electricity_normed="0"
            traveltime="1.27" CO_perVeh="23.429312" CO2_perVeh="2759.176046" HC_perVeh="0.169849" PMx_perVeh="0.038909" NOx_perVeh="1.039663" fuel_perVeh="1.186053" electricity_perVeh="0"/>
        <edge id=":1110673663_1" sampledSeconds="154.21" CO_abs="2233.535225" CO2_abs="298163.912935" HC_abs="16.932120" PMx_abs="3.995194" NOx_abs="110.377084" fuel_abs="128.168165" electricity_abs="0"
            CO_normed="104.593950" CO2_normed="13962.681632" HC_normed="0.792912" PMx_normed="0.187090" NOx_normed="5.168835" fuel_normed="6.001971" electricity_normed="0"
            traveltime="1.25" CO_perVeh="18.069605" CO2_perVeh="2412.186798" HC_perVeh="0.136983" PMx_perVeh="0.032322" NOx_perVeh="0.892966" fuel_perVeh="1.036898" electricity_perVeh="0"/>
        <edge id=":1110673666_0" sampledSeconds="191.16" CO_abs="4141.677285" CO2_abs="325743.820672" HC_abs="26.301581" PMx_abs="4.473978" NOx_abs="124.722923" fuel_abs="140.024569" electricity_abs="0"