<?xml version="1.0" encoding="UTF-8"?>

<!-- generated on Wed Sep 30 01:47:10 2020 by Eclipse SUMO Version 1.1.0
<configuration xmlns:xsi="http://www.w3.org/2001/XMLSchema-instance" xsi:noNamespaceSchemaLocation="http://sumo.dlr.de/xsd/sumoConfiguration.xsd">

    <input>
        <net-file value="../dataSets/Angeja_Estarreja/angeja_estarreja.net.xml"/>
        <route-files value="../results/angeja_estarreja/cost_co2-ttime/solution13/angeja_estarreja.rou.xml"/>
        <additional-files value="moreOutputInfo.xml"/>
    </input>

    <output>
        <emission-output.precision value="6"/>
        <tripinfo-output value="../results/angeja_estarreja/cost_co2-ttime/solution13/angeja_estarreja-tripinfo"/>
    </output>

    <processing>
        <collision.action value="warn"/>
        <time-to-teleport value="-1"/>
    </processing>

    <emissions>
        <device.emissions.probability value="1"/>
    </emissions>

    <gui_only>
        <quit-on-end value="true"/>
        <start value="true"/>
    </gui_only>

</configuration>
-->

<meandata xmlns:xsi="http://www.w3.org/2001/XMLSchema-instance" xsi:noNamespaceSchemaLocation="http://sumo.dlr.de/xsd/meandata_file.xsd">
    <interval begin="0.00" end="19079.00" id="emissions-detector">
        <edge id=":10_0" sampledSeconds="394.51" CO_abs="39901.182544" CO2_abs="2204987.606124" HC_abs="234.032988" PMx_abs="43.341676" NOx_abs="941.322330" fuel_abs="947.827085" electricity_abs="0"
            CO_normed="430.469960" CO2_normed="23788.290641" HC_normed="2.524842" PMx_normed="0.467587" NOx_normed="10.155363" fuel_normed="10.225539" electricity_normed="0"
            traveltime="1.89" CO_perVeh="191.336112" CO2_perVeh="10573.464980" HC_perVeh="1.122246" PMx_perVeh="0.207834" NOx_perVeh="4.513875" fuel_perVeh="4.545067" electricity_perVeh="0"/>
        <edge id=":10_1" sampledSeconds="0.00" CO_abs="0" CO2_abs="0" HC_abs="0" PMx_abs="0" NOx_abs="0" fuel_abs="0" electricity_abs="0"
            CO_normed="0" CO2_normed="0" HC_normed="0" PMx_normed="0" NOx_normed="0" fuel_normed="0" electricity_normed="0"/>
        <edge id=":100_0" sampledSeconds="0.00" CO_abs="0" CO2_abs="0" HC_abs="0" PMx_abs="0" NOx_abs="0" fuel_abs="0" electricity_abs="0"
            CO_normed="0" CO2_normed="0" HC_normed="0" PMx_normed="0" NOx_normed="0" fuel_normed="0" electricity_normed="0"/>
        <edge id=":100_1" sampledSeconds="912.42" CO_abs="20695.535048" CO2_abs="2682915.485892" HC_abs="159.381352" PMx_abs="48.149889" NOx_abs="997.675274" fuel_abs="1153.262655" electricity_abs="0"
            CO_normed="132.104959" CO2_normed="17125.744295" HC_normed="1.017372" PMx_normed="0.307353" NOx_normed="6.368420" fuel_normed="7.361574" electricity_normed="0"
            traveltime="1.37" CO_perVeh="31.117575" CO2_perVeh="4034.001747" HC_perVeh="0.239644" PMx_perVeh="0.072398" NOx_perVeh="1.500093" fuel_perVeh="1.734033" electricity_perVeh="0"/>
        <edge id=":101_0" sampledSeconds="438.54" CO_abs="10927.536724" CO2_abs="1335413.467663" HC_abs="82.268186" PMx_abs="24.374209" NOx_abs="501.461203" fuel_abs="574.032861" electricity_abs="0"
            CO_normed="252.375453" CO2_normed="30841.861887" HC_normed="1.900014" PMx_normed="0.562931" NOx_normed="11.581430" fuel_normed="13.257499" electricity_normed="0"
            traveltime="0.38" CO_perVeh="9.439973" CO2_perVeh="1153.623817" HC_perVeh="0.071069" PMx_perVeh="0.021056" NOx_perVeh="0.433197" fuel_perVeh="0.495890" electricity_perVeh="0"/>
        <edge id=":102_0" sampledSeconds="341.55" CO_abs="8181.332187" CO2_abs="992478.586482" HC_abs="61.367685" PMx_abs="18.148225" NOx_abs="372.999709" fuel_abs="426.620901" electricity_abs="0"
            CO_normed="190.583764" CO2_normed="23119.743906" HC_normed="1.429557" PMx_normed="0.422762" NOx_normed="8.689011" fuel_normed="9.938115" electricity_normed="0"
            traveltime="0.38" CO_perVeh="9.000182" CO2_perVeh="1091.813386" HC_perVeh="0.067510" PMx_perVeh="0.019965" NOx_perVeh="0.410332" fuel_perVeh="0.469320" electricity_perVeh="0"/>
        <edge id=":103_0" sampledSeconds="434.23" CO_abs="10690.374294" CO2_abs="1337944.515005" HC_abs="81.211354" PMx_abs="24.254494" NOx_abs="500.342878" fuel_abs="575.120973" electricity_abs="0"
            CO_normed="250.578568" CO2_normed="31360.943198" HC_normed="1.903565" PMx_normed="0.568517" NOx_normed="11.727859" fuel_normed="13.480631" electricity_normed="0"
            traveltime="0.37" CO_perVeh="9.184758" CO2_perVeh="1149.510475" HC_perVeh="0.069774" PMx_perVeh="0.020839" NOx_perVeh="0.429875" fuel_perVeh="0.494122" electricity_perVeh="0"/>
        <edge id=":104_0" sampledSeconds="340.94" CO_abs="8695.315091" CO2_abs="1069727.982395" HC_abs="65.595795" PMx_abs="19.485141" NOx_abs="401.129137" fuel_abs="459.826920" electricity_abs="0"
            CO_normed="202.807352" CO2_normed="24950.067653" HC_normed="1.529940" PMx_normed="0.454467" NOx_normed="9.355836" fuel_normed="10.724888" electricity_normed="0"
            traveltime="0.37" CO_perVeh="9.561240" CO2_perVeh="1176.257031" HC_perVeh="0.072128" PMx_perVeh="0.021426" NOx_perVeh="0.441076" fuel_perVeh="0.505619" electricity_perVeh="0"/>
        <edge id=":105_0" sampledSeconds="168.59" CO_abs="4321.507354" CO2_abs="528158.650705" HC_abs="32.540752" PMx_abs="9.641270" NOx_abs="198.319307" fuel_abs="227.031125" electricity_abs="0"
            CO_normed="3706.461287" CO2_normed="452989.994363" HC_normed="27.909483" PMx_normed="8.269104" NOx_normed="170.094084" fuel_normed="194.719575" electricity_normed="0"
            traveltime="0.01" CO_perVeh="0.261331" CO2_perVeh="31.938875" HC_perVeh="0.001968" PMx_perVeh="0.000583" NOx_perVeh="0.011993" fuel_perVeh="0.013729" electricity_perVeh="0"/>
        <edge id=":106_0" sampledSeconds="134.44" CO_abs="3022.526269" CO2_abs="388377.195564" HC_abs="23.173719" PMx_abs="6.985992" NOx_abs="144.544900" fuel_abs="166.945585" electricity_abs="0"
            CO_normed="1839.735052" CO2_normed="236395.344997" HC_normed="14.105255" PMx_normed="4.252196" NOx_normed="87.980813" fuel_normed="101.615542" electricity_normed="0"
            traveltime="0.01" CO_perVeh="0.323168" CO2_perVeh="41.525284" HC_perVeh="0.002478" PMx_perVeh="0.000747" NOx_perVeh="0.015455" fuel_perVeh="0.017850" electricity_perVeh="0"/>
        <edge id=":107_0" sampledSeconds="438.53" CO_abs="11218.727852" CO2_abs="1389491.859780" HC_abs="84.854150" PMx_abs="25.254750" NOx_abs="520.607783" fuel_abs="597.278749" electricity_abs="0"
            CO_normed="259.100618" CO2_normed="32090.822108" HC_normed="1.959738" PMx_normed="0.583268" NOx_normed="12.023627" fuel_normed="13.794371" electricity_normed="0"
            traveltime="0.38" CO_perVeh="9.691529" CO2_perVeh="1200.341085" HC_perVeh="0.073303" PMx_perVeh="0.021817" NOx_perVeh="0.449738" fuel_perVeh="0.515972" electricity_perVeh="0"/>
        <edge id=":108_0" sampledSeconds="94.65" CO_abs="7885.861317" CO2_abs="580748.234963" HC_abs="49.872087" PMx_abs="11.575454" NOx_abs="244.259907" fuel_abs="249.636095" electricity_abs="0"
            CO_normed="123.688807" CO2_normed="9108.967739" HC_normed="0.782238" PMx_normed="0.181560" NOx_normed="3.831188" fuel_normed="3.915513" electricity_normed="0"
            traveltime="0.85" CO_perVeh="71.184831" CO2_perVeh="5242.352500" HC_perVeh="0.450190" PMx_perVeh="0.104490" NOx_perVeh="2.204908" fuel_perVeh="2.253438" electricity_perVeh="0"/>
        <edge id=":108_1" sampledSeconds="403.01" CO_abs="9487.083452" CO2_abs="1179650.501007" HC_abs="71.881359" PMx_abs="21.416339" NOx_abs="441.792358" fuel_abs="507.077596" electricity_abs="0"
            CO_normed="138.768183" CO2_normed="17254.824204" HC_normed="1.051413" PMx_normed="0.313258" NOx_normed="6.462125" fuel_normed="7.417057" electricity_normed="0"
            traveltime="0.60" CO_perVeh="14.093297" CO2_perVeh="1752.400039" HC_perVeh="0.106782" PMx_perVeh="0.031815" NOx_perVeh="0.656293" fuel_perVeh="0.753276" electricity_perVeh="0"/>
        <edge id=":109_0" sampledSeconds="306.23" CO_abs="60.164526" CO2_abs="13096.085156" HC_abs="0.572150" PMx_abs="0.144871" NOx_abs="4.597241" fuel_abs="5.629479" electricity_abs="0"
            CO_normed="0.904573" CO2_normed="196.899520" HC_normed="0.008602" PMx_normed="0.002178" NOx_normed="0.069119" fuel_normed="0.084639" electricity_normed="0"
            traveltime="0.85" CO_perVeh="0.167224" CO2_perVeh="36.399767" HC_perVeh="0.001590" PMx_perVeh="0.000403" NOx_perVeh="0.012778" fuel_perVeh="0.015647" electricity_perVeh="0"/>
        <edge id=":109_1" sampledSeconds="524.24" CO_abs="12195.659908" CO2_abs="1568000.421490" HC_abs="93.642223" PMx_abs="28.212792" NOx_abs="583.788452" fuel_abs="674.011620" electricity_abs="0"
            CO_normed="119.604393" CO2_normed="15377.580180" HC_normed="0.918361" PMx_normed="0.276686" NOx_normed="5.725288" fuel_normed="6.610118" electricity_normed="0"
            traveltime="0.89" CO_perVeh="20.766304" CO2_perVeh="2669.931306" HC_perVeh="0.159450" PMx_perVeh="0.048040" NOx_perVeh="0.994053" fuel_perVeh="1.147681" electricity_perVeh="0"/>
        <edge id=":11_0" sampledSeconds="281.43" CO_abs="16761.636724" CO2_abs="1216087.269916" HC_abs="105.005019" PMx_abs="21.606694" NOx_abs="497.984183" fuel_abs="522.742054" electricity_abs="0"
            CO_normed="173.300752" CO2_normed="12573.285185" HC_normed="1.085661" PMx_normed="0.223394" NOx_normed="5.148724" fuel_normed="5.404698" electricity_normed="0"
            traveltime="1.60" CO_perVeh="94.999960" CO2_perVeh="6892.420086" HC_perVeh="0.595137" PMx_perVeh="0.122460" NOx_perVeh="2.822426" fuel_perVeh="2.962746" electricity_perVeh="0"/>
        <edge id=":11_1" sampledSeconds="50.51" CO_abs="1202.332746" CO2_abs="102900.778950" HC_abs="7.826466" PMx_abs="1.389560" NOx_abs="39.116822" fuel_abs="44.232992" electricity_abs="0"
            CO_normed="12.745344" CO2_normed="1090.801064" HC_normed="0.082965" PMx_normed="0.014730" NOx_normed="0.414658" fuel_normed="0.468892" electricity_normed="0"
            traveltime="1.66" CO_perVeh="39.544573" CO2_perVeh="3384.393691" HC_perVeh="0.257411" PMx_perVeh="0.045702" NOx_perVeh="1.286547" fuel_perVeh="1.454818" electricity_perVeh="0"/>
        <edge id=":110_0" sampledSeconds="95.33" CO_abs="0" CO2_abs="0" HC_abs="0" PMx_abs="0" NOx_abs="0" fuel_abs="0" electricity_abs="0"
            CO_normed="0" CO2_normed="0" HC_normed="0" PMx_normed="0" NOx_normed="0" fuel_normed="0" electricity_normed="0"
            traveltime="0.93" CO_perVeh="0" CO2_perVeh="0" HC_perVeh="0" PMx_perVeh="0" NOx_perVeh="0" fuel_perVeh="0" electricity_perVeh="0"/>
        <edge id=":110_1" sampledSeconds="443.75" CO_abs="10805.522345" CO2_abs="1364116.349528" HC_abs="82.246397" PMx_abs="24.651621" NOx_abs="509.204152" fuel_abs="586.371104" electricity_abs="0"
            CO_normed="138.699637" CO2_normed="17509.791398" HC_normed="1.055714" PMx_normed="0.316428" NOx_normed="6.536142" fuel_normed="7.526657" electricity_normed="0"
            traveltime="0.68" CO_perVeh="16.598867" CO2_perVeh="2095.482748" HC_perVeh="0.126343" PMx_perVeh="0.037869" NOx_perVeh="0.782212" fuel_perVeh="0.900752" electricity_perVeh="0"/>
        <edge id=":111_0" sampledSeconds="340.52" CO_abs="8216.871772" CO2_abs="1045781.960145" HC_abs="62.881440" PMx_abs="18.880099" NOx_abs="389.960263" fuel_abs="449.533765" electricity_abs="0"
            CO_normed="189.771655" CO2_normed="24152.716413" HC_normed="1.452270" PMx_normed="0.436043" NOx_normed="9.006275" fuel_normed="10.382147" electricity_normed="0"
            traveltime="0.38" CO_perVeh="9.131822" CO2_perVeh="1162.230021" HC_perVeh="0.069883" PMx_perVeh="0.020982" NOx_perVeh="0.433382" fuel_perVeh="0.499589" electricity_perVeh="0"/>
        <edge id=":114_0" sampledSeconds="106.73" CO_abs="11117.336905" CO2_abs="789649.926223" HC_abs="69.657848" PMx_abs="16.169688" NOx_abs="335.310836" fuel_abs="339.432649" electricity_abs="0"
            CO_normed="147.726808" CO2_normed="10492.842342" HC_normed="0.925611" PMx_normed="0.214862" NOx_normed="4.455599" fuel_normed="4.510370" electricity_normed="0"
            traveltime="0.99" CO_perVeh="102.847770" CO2_perVeh="7305.142807" HC_perVeh="0.644413" PMx_perVeh="0.149588" NOx_perVeh="3.101999" fuel_perVeh="3.140131" electricity_perVeh="0"/>
        <edge id=":114_1" sampledSeconds="416.02" CO_abs="10558.060860" CO2_abs="1302239.349343" HC_abs="79.718131" PMx_abs="23.696872" NOx_abs="488.203657" fuel_abs="559.772883" electricity_abs="0"
            CO_normed="139.411572" CO2_normed="17195.130576" HC_normed="1.052620" PMx_normed="0.312900" NOx_normed="6.446377" fuel_normed="7.391397" electricity_normed="0"
            traveltime="0.66" CO_perVeh="16.823983" CO2_perVeh="2075.082958" HC_perVeh="0.127029" PMx_perVeh="0.037760" NOx_perVeh="0.777939" fuel_perVeh="0.891983" electricity_perVeh="0"/>
        <edge id=":115_0" sampledSeconds="79.78" CO_abs="124.600657" CO2_abs="14090.483906" HC_abs="0.891372" PMx_abs="0.189478" NOx_abs="5.280336" fuel_abs="6.056918" electricity_abs="0"
            CO_normed="2.815663" CO2_normed="318.409726" HC_normed="0.020143" PMx_normed="0.004282" NOx_normed="0.119322" fuel_normed="0.136871" electricity_normed="0"
            traveltime="0.63" CO_perVeh="0.980507" CO2_perVeh="110.880728" HC_perVeh="0.007014" PMx_perVeh="0.001491" NOx_perVeh="0.041552" fuel_perVeh="0.047663" electricity_perVeh="0"/>
        <edge id=":115_1" sampledSeconds="72.71" CO_abs="859.665579" CO2_abs="143624.283873" HC_abs="7.061193" PMx_abs="2.038119" NOx_abs="52.625950" fuel_abs="61.737802" electricity_abs="0"
            CO_normed="17.348615" CO2_normed="2898.432282" HC_normed="0.142500" PMx_normed="0.041131" NOx_normed="1.062026" fuel_normed="1.245909" electricity_normed="0"
            traveltime="0.60" CO_perVeh="7.037802" CO2_perVeh="1175.805143" HC_perVeh="0.057808" PMx_perVeh="0.016685" NOx_perVeh="0.430831" fuel_perVeh="0.505427" electricity_perVeh="0"/>
        <edge id=":116_0" sampledSeconds="75.22" CO_abs="142.256481" CO2_abs="17450.071255" HC_abs="1.050986" PMx_abs="0.238856" NOx_abs="6.527105" fuel_abs="7.501054" electricity_abs="0"
            CO_normed="3.588536" CO2_normed="440.192359" HC_normed="0.026512" PMx_normed="0.006025" NOx_normed="0.164652" fuel_normed="0.189220" electricity_normed="0"
            traveltime="0.57" CO_perVeh="1.074143" CO2_perVeh="131.761135" HC_perVeh="0.007936" PMx_perVeh="0.001804" NOx_perVeh="0.049285" fuel_perVeh="0.056639" electricity_perVeh="0"/>
        <edge id=":117_0" sampledSeconds="239.07" CO_abs="12687.529548" CO2_abs="1067673.953933" HC_abs="83.127766" PMx_abs="19.451262" NOx_abs="434.711846" fuel_abs="458.943844" electricity_abs="0"
            CO_normed="286.706464" CO2_normed="24126.763408" HC_normed="1.878480" PMx_normed="0.439550" NOx_normed="9.823401" fuel_normed="10.370984" electricity_normed="0"
            traveltime="0.60" CO_perVeh="32.053493" CO2_perVeh="2697.347762" HC_perVeh="0.210012" PMx_perVeh="0.049141" NOx_perVeh="1.098246" fuel_perVeh="1.159466" electricity_perVeh="0"/>
        <edge id=":117_1" sampledSeconds="76.04" CO_abs="4613.091527" CO2_abs="381109.643097" HC_abs="30.081236" PMx_abs="7.025801" NOx_abs="155.846062" fuel_abs="163.821411" electricity_abs="0"
            CO_normed="98.243820" CO2_normed="8116.393766" HC_normed="0.640632" PMx_normed="0.149627" NOx_normed="3.319013" fuel_normed="3.488862" electricity_normed="0"
            traveltime="0.64" CO_perVeh="39.001108" CO2_perVeh="3222.068798" HC_perVeh="0.254320" PMx_perVeh="0.059399" NOx_perVeh="1.317591" fuel_perVeh="1.385018" electricity_perVeh="0"/>
        <edge id=":118_0" sampledSeconds="897.90" CO_abs="12798.958132" CO2_abs="2016792.972219" HC_abs="103.892364" PMx_abs="29.819523" NOx_abs="746.761409" fuel_abs="866.930167" electricity_abs="0"
            CO_normed="38.833001" CO2_normed="6119.101474" HC_normed="0.315217" PMx_normed="0.090475" NOx_normed="2.265730" fuel_normed="2.630331" electricity_normed="0"
            traveltime="3.92" CO_perVeh="55.825187" CO2_perVeh="8796.641387" HC_perVeh="0.453147" PMx_perVeh="0.130064" NOx_perVeh="3.257148" fuel_perVeh="3.781287" electricity_perVeh="0"/>
        <edge id=":118_4" sampledSeconds="283.33" CO_abs="3813.670135" CO2_abs="625493.240928" HC_abs="31.334423" PMx_abs="9.016831" NOx_abs="229.848403" fuel_abs="268.872121" electricity_abs="0"
            CO_normed="11.593332" CO2_normed="1901.462516" HC_normed="0.095255" PMx_normed="0.027411" NOx_normed="0.698726" fuel_normed="0.817355" electricity_normed="0"
            traveltime="3.93" CO_perVeh="52.874174" CO2_perVeh="8672.076343" HC_perVeh="0.434432" PMx_perVeh="0.125013" NOx_perVeh="3.186706" fuel_perVeh="3.727745" electricity_perVeh="0"/>
        <edge id=":118_5" sampledSeconds="238.37" CO_abs="3729.065852" CO2_abs="557494.070945" HC_abs="29.346434" PMx_abs="8.432804" NOx_abs="207.720006" fuel_abs="239.641877" electricity_abs="0"
            CO_normed="11.448653" CO2_normed="1711.569701" HC_normed="0.090097" PMx_normed="0.025890" NOx_normed="0.637724" fuel_normed="0.735728" electricity_normed="0"
            traveltime="3.82" CO_perVeh="59.681678" CO2_perVeh="8922.390513" HC_perVeh="0.469674" PMx_perVeh="0.134962" NOx_perVeh="3.324446" fuel_perVeh="3.835338" electricity_perVeh="0"/>
        <edge id=":119_0" sampledSeconds="139.30" CO_abs="2118.366902" CO2_abs="327341.837858" HC_abs="17.123589" PMx_abs="4.871471" NOx_abs="121.660049" fuel_abs="140.709764" electricity_abs="0"
            CO_normed="45.421911" CO2_normed="7018.846377" HC_normed="0.367163" PMx_normed="0.104454" NOx_normed="2.608628" fuel_normed="3.017091" electricity_normed="0"
            traveltime="0.56" CO_perVeh="8.492382" CO2_perVeh="1312.290180" HC_perVeh="0.068647" PMx_perVeh="0.019529" NOx_perVeh="0.487726" fuel_perVeh="0.564095" electricity_perVeh="0"/>
        <edge id=":12_0" sampledSeconds="600.73" CO_abs="53932.823835" CO2_abs="3060331.082748" HC_abs="318.166965" PMx_abs="59.499251" NOx_abs="1301.012254" fuel_abs="1315.501476" electricity_abs="0"
            CO_normed="505.289864" CO2_normed="28671.858180" HC_normed="2.980866" PMx_normed="0.557441" NOx_normed="12.189021" fuel_normed="12.324768" electricity_normed="0"
            traveltime="2.12" CO_perVeh="190.626857" CO2_perVeh="10816.813455" HC_perVeh="1.124569" PMx_perVeh="0.210302" NOx_perVeh="4.598459" fuel_perVeh="4.649671" electricity_perVeh="0"/>
        <edge id=":12_1" sampledSeconds="55.88" CO_abs="922.148935" CO2_abs="84732.819532" HC_abs="6.122266" PMx_abs="1.059565" NOx_abs="31.592303" fuel_abs="36.423380" electricity_abs="0"
            CO_normed="8.630927" CO2_normed="793.063611" HC_normed="0.057302" PMx_normed="0.009917" NOx_normed="0.295691" fuel_normed="0.340908" electricity_normed="0"
            traveltime="1.88" CO_perVeh="31.096150" CO2_perVeh="2857.309049" HC_perVeh="0.206451" PMx_perVeh="0.035730" NOx_perVeh="1.065337" fuel_perVeh="1.228247" electricity_perVeh="0"/>
        <edge id=":120_0" sampledSeconds="39.00" CO_abs="628.111922" CO2_abs="99431.260210" HC_abs="5.112871" PMx_abs="1.465118" NOx_abs="36.765422" fuel_abs="42.741112" electricity_abs="0"
            CO_normed="493.824563" CO2_normed="78173.326860" HC_normed="4.019764" PMx_normed="1.151883" NOx_normed="28.905148" fuel_normed="33.603265" electricity_normed="0"
            traveltime="0.02" CO_perVeh="0.241678" CO2_perVeh="38.258120" HC_perVeh="0.001967" PMx_perVeh="0.000564" NOx_perVeh="0.014146" fuel_perVeh="0.016445" electricity_perVeh="0"/>
        <edge id=":121_0" sampledSeconds="372.15" CO_abs="53090.902188" CO2_abs="1424289.657936" HC_abs="275.197337" PMx_abs="30.769626" NOx_abs="630.053075" fuel_abs="612.258122" electricity_abs="0"
            CO_normed="30356.595126" CO2_normed="814387.827418" HC_normed="157.353780" PMx_normed="17.593618" NOx_normed="360.255059" fuel_normed="350.080168" electricity_normed="0"
            traveltime="0.11" CO_perVeh="16.381903" CO2_perVeh="439.483499" HC_perVeh="0.084916" PMx_perVeh="0.009494" NOx_perVeh="0.194411" fuel_perVeh="0.188920" electricity_perVeh="0"/>
        <edge id=":122_0" sampledSeconds="134.72" CO_abs="1001.866442" CO2_abs="97657.807430" HC_abs="6.819856" PMx_abs="1.760440" NOx_abs="38.888580" fuel_abs="41.978549" electricity_abs="0"
            CO_normed="22.058496" CO2_normed="2150.171199" HC_normed="0.150156" PMx_normed="0.038760" NOx_normed="0.856226" fuel_normed="0.924259" electricity_normed="0"
            traveltime="0.54" CO_perVeh="3.994247" CO2_perVeh="389.342740" HC_perVeh="0.027189" PMx_perVeh="0.007019" NOx_perVeh="0.155041" fuel_perVeh="0.167360" electricity_perVeh="0"/>
        <edge id=":123_0" sampledSeconds="310.55" CO_abs="40364.054295" CO2_abs="2478397.198774" HC_abs="243.342063" PMx_abs="51.005335" NOx_abs="1064.089041" fuel_abs="1065.347407" electricity_abs="0"
            CO_normed="153.926000" CO2_normed="9451.225197" HC_normed="0.927971" PMx_normed="0.194506" NOx_normed="4.057842" fuel_normed="4.062641" electricity_normed="0"
            traveltime="4.23" CO_perVeh="549.680165" CO2_perVeh="33750.964905" HC_perVeh="3.313847" PMx_perVeh="0.694594" NOx_perVeh="14.490830" fuel_perVeh="14.507966" electricity_perVeh="0"/>
        <edge id=":123_1" sampledSeconds="0.00" CO_abs="0" CO2_abs="0" HC_abs="0" PMx_abs="0" NOx_abs="0" fuel_abs="0" electricity_abs="0"
            CO_normed="0" CO2_normed="0" HC_normed="0" PMx_normed="0" NOx_normed="0" fuel_normed="0" electricity_normed="0"/>
        <edge id=":123_2" sampledSeconds="258.96" CO_abs="34712.759150" CO2_abs="2157908.369878" HC_abs="209.959336" PMx_abs="44.627268" NOx_abs="927.252596" fuel_abs="927.583563" electricity_abs="0"
            CO_normed="133.644572" CO2_normed="8307.975168" HC_normed="0.808346" PMx_normed="0.171816" NOx_normed="3.569935" fuel_normed="3.571209" electricity_normed="0"
            traveltime="4.07" CO_perVeh="545.615355" CO2_perVeh="33918.016602" HC_perVeh="3.300142" PMx_perVeh="0.701452" NOx_perVeh="14.574562" fuel_perVeh="14.579764" electricity_perVeh="0"/>
        <edge id=":123_3" sampledSeconds="469.14" CO_abs="23004.673732" CO2_abs="2159462.406961" HC_abs="156.161439" PMx_abs="40.418839" NOx_abs="867.317628" fuel_abs="928.251363" electricity_abs="0"
            CO_normed="90.620709" CO2_normed="8506.619893" HC_normed="0.615156" PMx_normed="0.159219" NOx_normed="3.416564" fuel_normed="3.656596" electricity_normed="0"
            traveltime="2.81" CO_perVeh="137.692292" CO2_perVeh="12925.257322" HC_perVeh="0.934689" PMx_perVeh="0.241923" NOx_perVeh="5.191247" fuel_perVeh="5.555960" electricity_perVeh="0"/>
        <edge id=":123_5" sampledSeconds="0.00" CO_abs="0" CO2_abs="0" HC_abs="0" PMx_abs="0" NOx_abs="0" fuel_abs="0" electricity_abs="0"
            CO_normed="0" CO2_normed="0" HC_normed="0" PMx_normed="0" NOx_normed="0" fuel_normed="0" electricity_normed="0"/>
        <edge id=":123_6" sampledSeconds="195.02" CO_abs="9157.485226" CO2_abs="876069.567112" HC_abs="62.241969" PMx_abs="16.184686" NOx_abs="350.293920" fuel_abs="376.581261" electricity_abs="0"
            CO_normed="34.844081" CO2_normed="3333.430299" HC_normed="0.236830" PMx_normed="0.061582" NOx_normed="1.332863" fuel_normed="1.432886" electricity_normed="0"
            traveltime="2.92" CO_perVeh="137.000094" CO2_perVeh="13106.394418" HC_perVeh="0.931168" PMx_perVeh="0.242130" NOx_perVeh="5.240554" fuel_perVeh="5.633825" electricity_perVeh="0"/>
        <edge id=":124_0" sampledSeconds="118.28" CO_abs="4633.342770" CO2_abs="406351.663879" HC_abs="30.731976" PMx_abs="7.826884" NOx_abs="165.217262" fuel_abs="174.671326" electricity_abs="0"
            CO_normed="108.469161" CO2_normed="9512.921070" HC_normed="0.719453" PMx_normed="0.183232" NOx_normed="3.867829" fuel_normed="4.089154" electricity_normed="0"
            traveltime="0.46" CO_perVeh="18.009584" CO2_perVeh="1579.469670" HC_perVeh="0.119454" PMx_perVeh="0.030423" NOx_perVeh="0.642192" fuel_perVeh="0.678939" electricity_perVeh="0"/>
        <edge id=":125_0" sampledSeconds="141.26" CO_abs="5475.200668" CO2_abs="553681.742952" HC_abs="38.005082" PMx_abs="10.299424" NOx_abs="218.391712" fuel_abs="238.001828" electricity_abs="0"
            CO_normed="344.370292" CO2_normed="34824.576316" HC_normed="2.390382" PMx_normed="0.647796" NOx_normed="13.736048" fuel_normed="14.969453" electricity_normed="0"
            traveltime="0.16" CO_perVeh="6.270510" CO2_perVeh="634.107741" HC_perVeh="0.043526" PMx_perVeh="0.011795" NOx_perVeh="0.250115" fuel_perVeh="0.272573" electricity_perVeh="0"/>
        <edge id=":125_3" sampledSeconds="0.00" CO_abs="0" CO2_abs="0" HC_abs="0" PMx_abs="0" NOx_abs="0" fuel_abs="0" electricity_abs="0"
            CO_normed="0" CO2_normed="0" HC_normed="0" PMx_normed="0" NOx_normed="0" fuel_normed="0" electricity_normed="0"/>
        <edge id=":126_0" sampledSeconds="27.18" CO_abs="110.296717" CO2_abs="8577.404564" HC_abs="0.697294" PMx_abs="0.113644" NOx_abs="3.262132" fuel_abs="3.687099" electricity_abs="0"
            CO_normed="3.632075" CO2_normed="282.454284" HC_normed="0.022962" PMx_normed="0.003742" NOx_normed="0.107422" fuel_normed="0.121416" electricity_normed="0"
            traveltime="0.56" CO_perVeh="2.280656" CO2_perVeh="177.358924" HC_perVeh="0.014418" PMx_perVeh="0.002350" NOx_perVeh="0.067453" fuel_perVeh="0.076240" electricity_perVeh="0"/>
        <edge id=":126_1" sampledSeconds="80.83" CO_abs="1294.665196" CO2_abs="210984.088972" HC_abs="10.588294" PMx_abs="3.331339" NOx_abs="77.270118" fuel_abs="90.692576" electricity_abs="0"
            CO_normed="37.933114" CO2_normed="6181.739934" HC_normed="0.310232" PMx_normed="0.097607" NOx_normed="2.263980" fuel_normed="2.657252" electricity_normed="0"
            traveltime="0.35" CO_perVeh="5.602239" CO2_perVeh="912.964404" HC_perVeh="0.045817" PMx_perVeh="0.014415" NOx_perVeh="0.334361" fuel_perVeh="0.392442" electricity_perVeh="0"/>
        <edge id=":127_0" sampledSeconds="234.52" CO_abs="4957.847087" CO2_abs="638050.860914" HC_abs="37.356999" PMx_abs="10.900551" NOx_abs="241.526766" fuel_abs="274.268847" electricity_abs="0"
            CO_normed="114.643612" CO2_normed="14754.076570" HC_normed="0.863831" PMx_normed="0.252061" NOx_normed="5.584985" fuel_normed="6.342102" electricity_normed="0"
            traveltime="0.44" CO_perVeh="9.271294" CO2_perVeh="1193.170522" HC_perVeh="0.069858" PMx_perVeh="0.020384" NOx_perVeh="0.451661" fuel_perVeh="0.512889" electricity_perVeh="0"/>
        <edge id=":128_0" sampledSeconds="229.61" CO_abs="360.972854" CO2_abs="52008.407778" HC_abs="2.850345" PMx_abs="0.764420" NOx_abs="19.356033" fuel_abs="22.356143" electricity_abs="0"
            CO_normed="5.578350" CO2_normed="803.720021" HC_normed="0.044048" PMx_normed="0.011813" NOx_normed="0.299121" fuel_normed="0.345484" electricity_normed="0"
            traveltime="0.75" CO_perVeh="1.186643" CO2_perVeh="170.969743" HC_perVeh="0.009370" PMx_perVeh="0.002513" NOx_perVeh="0.063630" fuel_perVeh="0.073492" electricity_perVeh="0"/>
        <edge id=":128_1" sampledSeconds="142.93" CO_abs="153.032995" CO2_abs="22293.269761" HC_abs="1.203883" PMx_abs="0.275941" NOx_abs="8.111064" fuel_abs="9.582965" electricity_abs="0"
            CO_normed="2.442950" CO2_normed="355.879677" HC_normed="0.019218" PMx_normed="0.004405" NOx_normed="0.129481" fuel_normed="0.152978" electricity_normed="0"
            traveltime="0.86" CO_perVeh="0.917346" CO2_perVeh="133.635480" HC_perVeh="0.007217" PMx_perVeh="0.001654" NOx_perVeh="0.048621" fuel_perVeh="0.057444" electricity_perVeh="0"/>
        <edge id=":129_0" sampledSeconds="104.81" CO_abs="6155.289723" CO2_abs="534978.892145" HC_abs="40.813576" PMx_abs="10.226746" NOx_abs="218.152058" fuel_abs="229.962149" electricity_abs="0"
            CO_normed="143.387196" CO2_normed="12462.309162" HC_normed="0.950750" PMx_normed="0.238232" NOx_normed="5.081842" fuel_normed="5.356958" electricity_normed="0"
            traveltime="0.50" CO_perVeh="29.172843" CO2_perVeh="2535.519163" HC_perVeh="0.193435" PMx_perVeh="0.048469" NOx_perVeh="1.033926" fuel_perVeh="1.089900" electricity_perVeh="0"/>
        <edge id=":13_0" sampledSeconds="60.14" CO_abs="5085.701638" CO2_abs="365537.523842" HC_abs="31.887084" PMx_abs="7.040494" NOx_abs="152.920328" fuel_abs="157.127628" electricity_abs="0"
            CO_normed="35.954164" CO2_normed="2584.224768" HC_normed="0.225431" PMx_normed="0.049774" NOx_normed="1.081094" fuel_normed="1.110838" electricity_normed="0"
            traveltime="2.13" CO_perVeh="179.889441" CO2_perVeh="12929.649745" HC_perVeh="1.127897" PMx_perVeh="0.249034" NOx_perVeh="5.409038" fuel_perVeh="5.557857" electricity_perVeh="0"/>
        <edge id=":13_1" sampledSeconds="543.44" CO_abs="12684.482486" CO2_abs="970973.523765" HC_abs="79.970931" PMx_abs="13.575854" NOx_abs="373.862043" fuel_abs="417.383529" electricity_abs="0"
            CO_normed="126.368745" CO2_normed="9673.292184" HC_normed="0.796708" PMx_normed="0.135249" NOx_normed="3.724588" fuel_normed="4.158170" electricity_normed="0"
            traveltime="1.90" CO_perVeh="44.284545" CO2_perVeh="3389.899473" HC_perVeh="0.279198" PMx_perVeh="0.047397" NOx_perVeh="1.305241" fuel_perVeh="1.457185" electricity_perVeh="0"/>
        <edge id=":132_0" sampledSeconds="41.07" CO_abs="568.515567" CO2_abs="91563.208912" HC_abs="4.634724" PMx_abs="1.320096" NOx_abs="33.796973" fuel_abs="39.359003" electricity_abs="0"
            CO_normed="1072.727103" CO2_normed="172769.826554" HC_normed="8.745221" PMx_normed="2.490877" NOx_normed="63.771216" fuel_normed="74.266162" electricity_normed="0"
            traveltime="6.367448e-03" CO_perVeh="0.088135" CO2_perVeh="14.194746" HC_perVeh="0.000719" PMx_perVeh="0.000205" NOx_perVeh="0.005239" fuel_perVeh="0.006102" electricity_perVeh="0"/>
        <edge id=":133_0" sampledSeconds="44.85" CO_abs="681.168608" CO2_abs="92200.026199" HC_abs="5.174621" PMx_abs="1.232870" NOx_abs="34.107921" fuel_abs="39.632919" electricity_abs="0"