<?xml version="1.0" encoding="UTF-8"?>

<!-- generated on Tue Nov 10 02:32:25 2020 by Eclipse SUMO sumo Version 1.7.0
<configuration xmlns:xsi="http://www.w3.org/2001/XMLSchema-instance" xsi:noNamespaceSchemaLocation="http://sumo.dlr.de/xsd/sumoConfiguration.xsd">

    <input>
        <net-file value="../dataSets/Porto/6AM7AM_Routing_SaoBento/Porto.net.xml"/>
        <route-files value="../results/Porto/6AM7AM_Routing_SaoBento/cost_PMx-cost_nox/solution8/Porto.rou.xml"/>
        <additional-files value="moreOutputInfo.xml"/>
    </input>

    <output>
        <emission-output.precision value="6"/>
        <tripinfo-output value="../results/Porto/6AM7AM_Routing_SaoBento/cost_PMx-cost_nox/solution8/Porto-tripinfo"/>
    </output>

    <processing>
        <collision.action value="warn"/>
        <time-to-teleport value="-1"/>
    </processing>

    <emissions>
        <device.emissions.probability value="1"/>
    </emissions>

    <gui_only>
        <quit-on-end value="true"/>
        <start value="true"/>
    </gui_only>

</configuration>
-->

<meandata xmlns:xsi="http://www.w3.org/2001/XMLSchema-instance" xsi:noNamespaceSchemaLocation="http://sumo.dlr.de/xsd/meandata_file.xsd">
    <interval begin="0.00" end="4790.00" id="emissions-detector">
        <edge id=":1092997347_0" sampledSeconds="287.36" CO_abs="36994.661737" CO2_abs="1461500.210936" HC_abs="202.999066" PMx_abs="29.898504" NOx_abs="635.002841" fuel_abs="628.241460" electricity_abs="0"
            CO_normed="63190.729860" CO2_normed="2496394.362958" HC_normed="346.743517" PMx_normed="51.069754" NOx_normed="1084.650895" fuel_normed="1073.101754" electricity_normed="0"
            traveltime="0.08" CO_perVeh="9.754073" CO2_perVeh="385.341522" HC_perVeh="0.053523" PMx_perVeh="0.007883" NOx_perVeh="0.167426" fuel_perVeh="0.165643" electricity_perVeh="0"/>
        <edge id=":1103427051_0" sampledSeconds="11.23" CO_abs="843.834815" CO2_abs="46560.909077" HC_abs="4.946174" PMx_abs="0.908832" NOx_abs="19.851847" fuel_abs="20.014494" electricity_abs="0"
            CO_normed="2186.887434" CO2_normed="120667.534863" HC_normed="12.818536" PMx_normed="2.355334" NOx_normed="51.448168" fuel_normed="51.869684" electricity_normed="0"
            traveltime="0.03" CO_perVeh="2.312095" CO2_perVeh="127.576187" HC_perVeh="0.013552" PMx_perVeh="0.002490" NOx_perVeh="0.054394" fuel_perVeh="0.054839" electricity_perVeh="0"/>
        <edge id=":1105984386_0" sampledSeconds="23.06" CO_abs="602.389654" CO2_abs="44906.841273" HC_abs="3.769229" PMx_abs="0.626644" NOx_abs="17.304739" fuel_abs="19.303707" electricity_abs="0"
            CO_normed="46.625689" CO2_normed="3475.843911" HC_normed="0.291743" PMx_normed="0.048503" NOx_normed="1.339408" fuel_normed="1.494130" electricity_normed="0"
            traveltime="0.97" CO_perVeh="25.281827" CO2_perVeh="1884.705346" HC_perVeh="0.158192" PMx_perVeh="0.026300" NOx_perVeh="0.726266" fuel_perVeh="0.810162" electricity_perVeh="0"/>
        <edge id=":1105984390_0" sampledSeconds="23.22" CO_abs="28.557188" CO2_abs="1824.149170" HC_abs="0.170636" PMx_abs="0.020804" NOx_abs="0.677089" fuel_abs="0.784141" electricity_abs="0"
            CO_normed="1.708806" CO2_normed="109.153508" HC_normed="0.010211" PMx_normed="0.001245" NOx_normed="0.040516" fuel_normed="0.046921" electricity_normed="0"
            traveltime="1.05" CO_perVeh="1.295054" CO2_perVeh="82.724269" HC_perVeh="0.007738" PMx_perVeh="0.000943" NOx_perVeh="0.030706" fuel_perVeh="0.035560" electricity_perVeh="0"/>
        <edge id=":1105984390_1" sampledSeconds="645.81" CO_abs="14545.696264" CO2_abs="1880364.956659" HC_abs="111.264266" PMx_abs="33.320273" NOx_abs="704.058993" fuel_abs="808.282706" electricity_abs="0"
            CO_normed="832.600708" CO2_normed="107632.743450" HC_normed="6.368805" PMx_normed="1.907264" NOx_normed="40.300581" fuel_normed="46.266383" electricity_normed="0"
            traveltime="0.64" CO_perVeh="14.321223" CO2_perVeh="1851.346660" HC_perVeh="0.109547" PMx_perVeh="0.032806" NOx_perVeh="0.693194" fuel_perVeh="0.795809" electricity_perVeh="0"/>
        <edge id=":1105984395_0" sampledSeconds="9.03" CO_abs="240.788011" CO2_abs="18299.476065" HC_abs="1.513919" PMx_abs="0.250907" NOx_abs="7.022144" fuel_abs="7.866237" electricity_abs="0"
            CO_normed="196.704375" CO2_normed="14949.195297" HC_normed="1.236750" PMx_normed="0.204971" NOx_normed="5.736525" fuel_normed="6.426081" electricity_normed="0"
            traveltime="0.09" CO_perVeh="2.441854" CO2_perVeh="185.576697" HC_perVeh="0.015353" PMx_perVeh="0.002544" NOx_perVeh="0.071212" fuel_perVeh="0.079772" electricity_perVeh="0"/>
        <edge id=":1105984398_0" sampledSeconds="23.09" CO_abs="1426.013113" CO2_abs="102253.749842" HC_abs="8.892826" PMx_abs="1.761445" NOx_abs="41.577985" fuel_abs="43.954450" electricity_abs="0"
            CO_normed="88.647033" CO2_normed="6356.527495" HC_normed="0.552816" PMx_normed="0.109499" NOx_normed="2.584664" fuel_normed="2.732395" electricity_normed="0"
            traveltime="1.10" CO_perVeh="67.860320" CO2_perVeh="4865.994630" HC_perVeh="0.423187" PMx_perVeh="0.083823" NOx_perVeh="1.978590" fuel_perVeh="2.091680" electricity_perVeh="0"/>
        <edge id=":1105984398_1" sampledSeconds="451.33" CO_abs="7640.872406" CO2_abs="944182.750627" HC_abs="56.315965" PMx_abs="13.132346" NOx_abs="353.781047" fuel_abs="405.864219" electricity_abs="0"
            CO_normed="459.777269" CO2_normed="56814.686025" HC_normed="3.388723" PMx_normed="0.790218" NOx_normed="21.288208" fuel_normed="24.422230" electricity_normed="0"
            traveltime="0.95" CO_perVeh="16.145067" CO2_perVeh="1995.046196" HC_perVeh="0.118995" PMx_perVeh="0.027748" NOx_perVeh="0.747535" fuel_perVeh="0.857586" electricity_perVeh="0"/>
        <edge id=":1106006327_0" sampledSeconds="529.98" CO_abs="71296.827877" CO2_abs="2303771.545090" HC_abs="378.859160" PMx_abs="48.045286" NOx_abs="1008.350033" fuel_abs="990.310336" electricity_abs="0"
            CO_normed="6047.884286" CO2_normed="195421.649748" HC_normed="32.137424" PMx_normed="4.075530" NOx_normed="85.535142" fuel_normed="84.004892" electricity_normed="0"
            traveltime="2.10" CO_perVeh="283.010114" CO2_perVeh="9144.735708" HC_perVeh="1.503867" PMx_perVeh="0.190714" NOx_perVeh="4.002608" fuel_perVeh="3.931000" electricity_perVeh="0"/>
        <edge id=":1106006327_1" sampledSeconds="160.32" CO_abs="21822.003236" CO2_abs="734262.180308" HC_abs="116.679326" PMx_abs="15.347099" NOx_abs="321.531969" fuel_abs="315.632662" electricity_abs="0"
            CO_normed="1614.239222" CO2_normed="54315.582190" HC_normed="8.631121" PMx_normed="1.135271" NOx_normed="23.784687" fuel_normed="23.348297" electricity_normed="0"
            traveltime="2.28" CO_perVeh="309.791461" CO2_perVeh="10423.797999" HC_perVeh="1.656413" PMx_perVeh="0.217872" NOx_perVeh="4.564561" fuel_perVeh="4.480812" electricity_perVeh="0"/>
        <edge id=":1106006327_2" sampledSeconds="0.00" CO_abs="0" CO2_abs="0" HC_abs="0" PMx_abs="0" NOx_abs="0" fuel_abs="0" electricity_abs="0"
            CO_normed="0" CO2_normed="0" HC_normed="0" PMx_normed="0" NOx_normed="0" fuel_normed="0" electricity_normed="0"/>
        <edge id=":1106006327_3" sampledSeconds="0.00" CO_abs="0" CO2_abs="0" HC_abs="0" PMx_abs="0" NOx_abs="0" fuel_abs="0" electricity_abs="0"
            CO_normed="0" CO2_normed="0" HC_normed="0" PMx_normed="0" NOx_normed="0" fuel_normed="0" electricity_normed="0"/>
        <edge id=":1107381198_0" sampledSeconds="0.00" CO_abs="0" CO2_abs="0" HC_abs="0" PMx_abs="0" NOx_abs="0" fuel_abs="0" electricity_abs="0"
            CO_normed="0" CO2_normed="0" HC_normed="0" PMx_normed="0" NOx_normed="0" fuel_normed="0" electricity_normed="0"/>
        <edge id=":1107381198_1" sampledSeconds="36.24" CO_abs="1548.521772" CO2_abs="63070.483379" HC_abs="8.505245" PMx_abs="1.094331" NOx_abs="26.160005" fuel_abs="27.111776" electricity_abs="0"
            CO_normed="126.915588" CO2_normed="5169.205660" HC_normed="0.697083" PMx_normed="0.089690" NOx_normed="2.144053" fuel_normed="2.222059" electricity_normed="0"
            traveltime="1.49" CO_perVeh="63.756935" CO2_perVeh="2596.786694" HC_perVeh="0.350185" PMx_perVeh="0.045057" NOx_perVeh="1.077080" fuel_perVeh="1.116267" electricity_perVeh="0"/>
        <edge id=":1110338277_0" sampledSeconds="96.28" CO_abs="1503.838813" CO2_abs="189882.621782" HC_abs="11.189169" PMx_abs="2.559291" NOx_abs="70.668353" fuel_abs="81.622603" electricity_abs="0"
            CO_normed="4036.549154" CO2_normed="509675.990468" HC_normed="30.033558" PMx_normed="6.869555" NOx_normed="189.685410" fuel_normed="219.088406" electricity_normed="0"
            traveltime="0.02" CO_perVeh="0.339841" CO2_perVeh="42.910170" HC_perVeh="0.002529" PMx_perVeh="0.000578" NOx_perVeh="0.015970" fuel_perVeh="0.018445" electricity_perVeh="0"/>
        <edge id=":1110338293_0" sampledSeconds="123.88" CO_abs="6158.238221" CO2_abs="425130.885012" HC_abs="38.028191" PMx_abs="7.437722" NOx_abs="173.898936" fuel_abs="182.745312" electricity_abs="0"
            CO_normed="15427.736670" CO2_normed="1065046.058486" HC_normed="95.268955" PMx_normed="18.633125" NOx_normed="435.654955" fuel_normed="457.817065" electricity_normed="0"
            traveltime="0.03" CO_perVeh="1.412494" CO2_perVeh="97.510811" HC_perVeh="0.008722" PMx_perVeh="0.001706" NOx_perVeh="0.039887" fuel_perVeh="0.041916" electricity_perVeh="0"/>
        <edge id=":1110338295_0" sampledSeconds="0.00" CO_abs="0" CO2_abs="0" HC_abs="0" PMx_abs="0" NOx_abs="0" fuel_abs="0" electricity_abs="0"
            CO_normed="0" CO2_normed="0" HC_normed="0" PMx_normed="0" NOx_normed="0" fuel_normed="0" electricity_normed="0"/>
        <edge id=":1110673403_0" sampledSeconds="143.74" CO_abs="2238.538464" CO2_abs="281800.897803" HC_abs="16.653231" PMx_abs="3.835915" NOx_abs="105.100649" fuel_abs="121.134380" electricity_abs="0"
            CO_normed="5608.029555" CO2_normed="705973.021635" HC_normed="41.719994" PMx_normed="9.609808" NOx_normed="263.300164" fuel_normed="303.468175" electricity_normed="0"
            traveltime="0.02" CO_perVeh="0.359412" CO2_perVeh="45.244993" HC_perVeh="0.002674" PMx_perVeh="0.000616" NOx_perVeh="0.016875" fuel_perVeh="0.019449" electricity_perVeh="0"/>
        <edge id=":1110673412_0" sampledSeconds="252.82" CO_abs="44580.586390" CO2_abs="3037670.516406" HC_abs="277.350174" PMx_abs="66.812424" NOx_abs="1305.988432" fuel_abs="1305.744887" electricity_abs="0"
            CO_normed="115535.318553" CO2_normed="7872445.366829" HC_normed="718.782396" PMx_normed="173.151485" NOx_normed="3384.607555" fuel_normed="3383.976384" electricity_normed="0"
            traveltime="0.02" CO_perVeh="2.743670" CO2_perVeh="186.950590" HC_perVeh="0.017069" PMx_perVeh="0.004112" NOx_perVeh="0.080376" fuel_perVeh="0.080361" electricity_perVeh="0"/>
        <edge id=":1110673414_0" sampledSeconds="0.00" CO_abs="0" CO2_abs="0" HC_abs="0" PMx_abs="0" NOx_abs="0" fuel_abs="0" electricity_abs="0"
            CO_normed="0" CO2_normed="0" HC_normed="0" PMx_normed="0" NOx_normed="0" fuel_normed="0" electricity_normed="0"/>
        <edge id=":1110673414_1" sampledSeconds="183.98" CO_abs="12597.994291" CO2_abs="468011.511214" HC_abs="68.202572" PMx_abs="8.556605" NOx_abs="197.095508" fuel_abs="201.181906" electricity_abs="0"
            CO_normed="1048.529477" CO2_normed="38952.539098" HC_normed="5.676491" PMx_normed="0.712165" NOx_normed="16.404234" fuel_normed="16.744345" electricity_normed="0"
            traveltime="1.61" CO_perVeh="110.072461" CO2_perVeh="4089.157181" HC_perVeh="0.595906" PMx_perVeh="0.074762" NOx_perVeh="1.722083" fuel_perVeh="1.757787" electricity_perVeh="0"/>
        <edge id=":1110673417_0" sampledSeconds="29.74" CO_abs="550.949311" CO2_abs="60112.821697" HC_abs="3.885414" PMx_abs="0.879753" NOx_abs="22.927415" fuel_abs="25.839935" electricity_abs="0"
            CO_normed="1478.837995" CO2_normed="161352.638016" HC_normed="10.429087" PMx_normed="2.361401" NOx_normed="61.540928" fuel_normed="69.358609" electricity_normed="0"
            traveltime="0.02" CO_perVeh="0.408922" CO2_perVeh="44.616541" HC_perVeh="0.002884" PMx_perVeh="0.000653" NOx_perVeh="0.017017" fuel_perVeh="0.019179" electricity_perVeh="0"/>
        <edge id=":1110673446_0" sampledSeconds="333.93" CO_abs="3326.465624" CO2_abs="272679.953079" HC_abs="21.591428" PMx_abs="4.995788" NOx_abs="111.367909" fuel_abs="117.212557" electricity_abs="0"
            CO_normed="8333.525572" CO2_normed="683123.055731" HC_normed="54.091260" PMx_normed="12.515545" NOx_normed="279.001025" fuel_normed="293.643149" electricity_normed="0"
            traveltime="0.02" CO_perVeh="0.227091" CO2_perVeh="18.615326" HC_perVeh="0.001474" PMx_perVeh="0.000341" NOx_perVeh="0.007603" fuel_perVeh="0.008002" electricity_perVeh="0"/>
        <edge id=":1110673451_0" sampledSeconds="37.35" CO_abs="381.087913" CO2_abs="28565.701465" HC_abs="2.386704" PMx_abs="0.390943" NOx_abs="10.956193" fuel_abs="12.279296" electricity_abs="0"
            CO_normed="1060.787509" CO2_normed="79514.826626" HC_normed="6.643574" PMx_normed="1.088221" NOx_normed="30.497405" fuel_normed="34.180364" electricity_normed="0"
            traveltime="0.03" CO_perVeh="0.273290" CO2_perVeh="20.485364" HC_perVeh="0.001712" PMx_perVeh="0.000280" NOx_perVeh="0.007857" fuel_perVeh="0.008806" electricity_perVeh="0"/>
        <edge id=":1110673464_0" sampledSeconds="321.22" CO_abs="464.270292" CO2_abs="35014.731614" HC_abs="2.915945" PMx_abs="0.494993" NOx_abs="13.513766" fuel_abs="15.051461" electricity_abs="0"
            CO_normed="24.711732" CO2_normed="1863.730414" HC_normed="0.155207" PMx_normed="0.026347" NOx_normed="0.719298" fuel_normed="0.801145" electricity_normed="0"
            traveltime="1.16" CO_perVeh="1.678276" CO2_perVeh="126.573635" HC_perVeh="0.010541" PMx_perVeh="0.001789" NOx_perVeh="0.048850" fuel_perVeh="0.054409" electricity_perVeh="0"/>
        <edge id=":1110673464_1" sampledSeconds="709.36" CO_abs="16992.320283" CO2_abs="2111022.113682" HC_abs="127.871261" PMx_abs="37.788482" NOx_abs="795.800929" fuel_abs="907.431313" electricity_abs="0"
            CO_normed="886.248865" CO2_normed="110102.147361" HC_normed="6.669234" PMx_normed="1.970890" NOx_normed="41.505672" fuel_normed="47.327849" electricity_normed="0"
            traveltime="0.70" CO_perVeh="16.773074" CO2_perVeh="2083.784320" HC_perVeh="0.126221" PMx_perVeh="0.037301" NOx_perVeh="0.785533" fuel_perVeh="0.895723" electricity_perVeh="0"/>
        <edge id=":1110673479_0" sampledSeconds="133.49" CO_abs="6994.542205" CO2_abs="482499.814112" HC_abs="43.218547" PMx_abs="8.617445" NOx_abs="198.450060" fuel_abs="207.405465" electricity_abs="0"
            CO_normed="17522.861473" CO2_normed="1208767.801533" HC_normed="108.271934" PMx_normed="21.588588" NOx_normed="497.160903" fuel_normed="519.596154" electricity_normed="0"
            traveltime="0.03" CO_perVeh="1.473473" CO2_perVeh="101.643579" HC_perVeh="0.009104" PMx_perVeh="0.001815" NOx_perVeh="0.041806" fuel_perVeh="0.043692" electricity_perVeh="0"/>
        <edge id=":1110673511_0" sampledSeconds="11.88" CO_abs="186.896526" CO2_abs="21698.552997" HC_abs="1.352705" PMx_abs="0.302029" NOx_abs="8.174027" fuel_abs="9.327296" electricity_abs="0"
            CO_normed="468.216766" CO2_normed="54359.631726" HC_normed="3.388821" PMx_normed="0.756649" NOx_normed="20.477729" fuel_normed="23.366922" electricity_normed="0"
            traveltime="0.02" CO_perVeh="0.370092" CO2_perVeh="42.967432" HC_perVeh="0.002679" PMx_perVeh="0.000598" NOx_perVeh="0.016186" fuel_perVeh="0.018470" electricity_perVeh="0"/>
        <edge id=":1110673517_0" sampledSeconds="17.39" CO_abs="773.579258" CO2_abs="55652.264736" HC_abs="4.830346" PMx_abs="0.965987" NOx_abs="22.647505" fuel_abs="23.922483" electricity_abs="0"
            CO_normed="1937.985614" CO2_normed="139421.122511" HC_normed="12.101077" PMx_normed="2.420010" NOx_normed="56.736965" fuel_normed="59.931065" electricity_normed="0"
            traveltime="0.03" CO_perVeh="1.242033" CO2_perVeh="89.353382" HC_perVeh="0.007755" PMx_perVeh="0.001551" NOx_perVeh="0.036362" fuel_perVeh="0.038409" electricity_perVeh="0"/>
        <edge id=":1110673534_0" sampledSeconds="476.32" CO_abs="2659.220185" CO2_abs="247818.320297" HC_abs="17.733812" PMx_abs="3.130040" NOx_abs="92.509800" fuel_abs="106.527493" electricity_abs="0"
            CO_normed="129.107161" CO2_normed="12031.767748" HC_normed="0.860990" PMx_normed="0.151966" NOx_normed="4.491421" fuel_normed="5.171991" electricity_normed="0"
            traveltime="1.43" CO_perVeh="8.011165" CO2_perVeh="746.577274" HC_perVeh="0.053425" PMx_perVeh="0.009430" NOx_perVeh="0.278695" fuel_perVeh="0.320925" electricity_perVeh="0"/>
        <edge id=":1110673534_1" sampledSeconds="184.80" CO_abs="2665.566627" CO2_abs="327087.965726" HC_abs="19.618554" PMx_abs="4.503449" NOx_abs="122.351823" fuel_abs="140.601362" electricity_abs="0"
            CO_normed="125.838481" CO2_normed="15441.464586" HC_normed="0.926170" PMx_normed="0.212603" NOx_normed="5.776096" fuel_normed="6.637636" electricity_normed="0"
            traveltime="1.23" CO_perVeh="17.698405" CO2_perVeh="2171.746665" HC_perVeh="0.130260" PMx_perVeh="0.029901" NOx_perVeh="0.812372" fuel_perVeh="0.933543" electricity_perVeh="0"/>
        <edge id=":1110673549_0" sampledSeconds="59.77" CO_abs="2.979619" CO2_abs="216.916379" HC_abs="0.018415" PMx_abs="0.002475" NOx_abs="0.080087" fuel_abs="0.093245" electricity_abs="0"
            CO_normed="0.140136" CO2_normed="10.201935" HC_normed="0.000866" PMx_normed="0.000116" NOx_normed="0.003767" fuel_normed="0.004385" electricity_normed="0"
            traveltime="1.25" CO_perVeh="0.062078" CO2_perVeh="4.519268" HC_perVeh="0.000384" PMx_perVeh="0.000052" NOx_perVeh="0.001669" fuel_perVeh="0.001943" electricity_perVeh="0"/>
        <edge id=":1110673549_1" sampledSeconds="638.86" CO_abs="13973.241555" CO2_abs="1810439.783119" HC_abs="106.850898" PMx_abs="31.978980" NOx_abs="677.762724" fuel_abs="778.225131" electricity_abs="0"
            CO_normed="635.702781" CO2_normed="82364.682516" HC_normed="4.861106" PMx_normed="1.454861" NOx_normed="30.834338" fuel_normed="35.404804" electricity_normed="0"
            traveltime="0.80" CO_perVeh="17.590422" CO2_perVeh="2279.098919" HC_perVeh="0.134511" PMx_perVeh="0.040257" NOx_perVeh="0.853212" fuel_perVeh="0.979680" electricity_perVeh="0"/>
        <edge id=":1110673556_0" sampledSeconds="415.63" CO_abs="51088.899208" CO2_abs="2573680.083369" HC_abs="293.835464" PMx_abs="51.950101" NOx_abs="1108.671568" fuel_abs="1106.313411" electricity_abs="0"
            CO_normed="1781.747910" CO2_normed="89758.228910" HC_normed="10.247642" PMx_normed="1.811783" NOx_normed="38.665410" fuel_normed="38.583169" electricity_normed="0"
            traveltime="2.58" CO_perVeh="317.135305" CO2_perVeh="15976.167657" HC_perVeh="1.823989" PMx_perVeh="0.322481" NOx_perVeh="6.882100" fuel_perVeh="6.867461" electricity_perVeh="0"/>
        <edge id=":1110673556_2" sampledSeconds="246.99" CO_abs="24134.058130" CO2_abs="1044574.152747" HC_abs="134.425212" PMx_abs="20.139728" NOx_abs="445.381543" fuel_abs="449.021305" electricity_abs="0"
            CO_normed="880.074323" CO2_normed="38091.517180" HC_normed="4.901960" PMx_normed="0.734417" NOx_normed="16.241316" fuel_normed="16.374044" electricity_normed="0"
            traveltime="3.00" CO_perVeh="292.741500" CO2_perVeh="12670.484303" HC_perVeh="1.630552" PMx_perVeh="0.244291" NOx_perVeh="5.402393" fuel_perVeh="5.446542" electricity_perVeh="0"/>
        <edge id=":1110673556_3" sampledSeconds="418.57" CO_abs="34906.829927" CO2_abs="1244400.322911" HC_abs="187.911858" PMx_abs="23.758204" NOx_abs="530.813824" fuel_abs="534.924152" electricity_abs="0"
            CO_normed="2895.670887" CO2_normed="103228.330787" HC_normed="15.588093" PMx_normed="1.970845" NOx_normed="44.033278" fuel_normed="44.374247" electricity_normed="0"
            traveltime="1.74" CO_perVeh="144.939862" CO2_perVeh="5166.989123" HC_perVeh="0.780246" PMx_perVeh="0.098649" NOx_perVeh="2.204041" fuel_perVeh="2.221108" electricity_perVeh="0"/>
        <edge id=":1110673556_4" sampledSeconds="196.61" CO_abs="21386.498005" CO2_abs="850565.436884" HC_abs="117.364053" PMx_abs="16.752062" NOx_abs="365.540132" fuel_abs="365.625479" electricity_abs="0"
            CO_normed="1083.840841" CO2_normed="43105.587371" HC_normed="5.947863" PMx_normed="0.848973" NOx_normed="18.525114" fuel_normed="18.529440" electricity_normed="0"
            traveltime="2.44" CO_perVeh="265.545107" CO2_perVeh="10561.032024" HC_perVeh="1.457249" PMx_perVeh="0.208002" NOx_perVeh="4.538723" fuel_perVeh="4.539783" electricity_perVeh="0"/>
        <edge id=":1110673556_5" sampledSeconds="25.02" CO_abs="2171.859193" CO2_abs="86496.736703" HC_abs="11.913529" PMx_abs="1.661851" NOx_abs="36.901349" fuel_abs="37.181693" electricity_abs="0"
            CO_normed="153.411185" CO2_normed="6109.773104" HC_normed="0.841523" PMx_normed="0.117386" NOx_normed="2.606559" fuel_normed="2.626362" electricity_normed="0"
            traveltime="1.73" CO_perVeh="150.153228" CO2_perVeh="5980.021303" HC_perVeh="0.823651" PMx_perVeh="0.114893" NOx_perVeh="2.551204" fuel_perVeh="2.570586" electricity_perVeh="0"/>
        <edge id=":1110673556_6" sampledSeconds="305.70" CO_abs="36747.396916" CO2_abs="1888046.147260" HC_abs="212.268206" PMx_abs="38.139271" NOx_abs="812.629203" fuel_abs="811.588549" electricity_abs="0"
            CO_normed="1313.895593" CO2_normed="67506.700350" HC_normed="7.589606" PMx_normed="1.363662" NOx_normed="29.055389" fuel_normed="29.018181" electricity_normed="0"
            traveltime="2.42" CO_perVeh="291.009823" CO2_perVeh="14951.806690" HC_perVeh="1.680993" PMx_perVeh="0.302032" NOx_perVeh="6.435370" fuel_perVeh="6.427128" electricity_perVeh="0"/>
        <edge id=":1110673561_0" sampledSeconds="99.28" CO_abs="10163.752782" CO2_abs="721984.311705" HC_abs="63.678446" PMx_abs="14.721556" NOx_abs="306.048662" fuel_abs="310.346554" electricity_abs="0"
            CO_normed="456.588679" CO2_normed="32433.872647" HC_normed="2.860642" PMx_normed="0.661340" NOx_normed="13.748697" fuel_normed="13.941772" electricity_normed="0"
            traveltime="1.17" CO_perVeh="119.942148" CO2_perVeh="8520.115636" HC_perVeh="0.751467" PMx_perVeh="0.173729" NOx_perVeh="3.611671" fuel_perVeh="3.662391" electricity_perVeh="0"/>
        <edge id=":1110673561_1" sampledSeconds="1317.63" CO_abs="121116.696041" CO2_abs="8379962.515186" HC_abs="754.193897" PMx_abs="175.332496" NOx_abs="3583.965028" fuel_abs="3602.141012" electricity_abs="0"
            CO_normed="5304.613167" CO2_normed="367021.731544" HC_normed="33.031836" PMx_normed="7.679132" NOx_normed="156.968847" fuel_normed="157.764910" electricity_normed="0"
            traveltime="1.19" CO_perVeh="109.811573" CO2_perVeh="7597.770540" HC_perVeh="0.683797" PMx_perVeh="0.158967" NOx_perVeh="3.249435" fuel_perVeh="3.265914" electricity_perVeh="0"/>
        <edge id=":1110673562_0" sampledSeconds="103.97" CO_abs="2421.629988" CO2_abs="186884.895698" HC_abs="15.295868" PMx_abs="2.572009" NOx_abs="71.622648" fuel_abs="80.334558" electricity_abs="0"
            CO_normed="6740.793286" CO2_normed="520208.477935" HC_normed="42.577226" PMx_normed="7.159385" NOx_normed="199.367148" fuel_normed="223.617419" electricity_normed="0"
            traveltime="0.03" CO_perVeh="0.617285" CO2_perVeh="47.637811" HC_perVeh="0.003899" PMx_perVeh="0.000656" NOx_perVeh="0.018257" fuel_perVeh="0.020478" electricity_perVeh="0"/>
        <edge id=":1110673564_0" sampledSeconds="28.59" CO_abs="545.701827" CO2_abs="59675.996980" HC_abs="3.849994" PMx_abs="0.861523" NOx_abs="22.699647" fuel_abs="25.652178" electricity_abs="0"
            CO_normed="4101.308093" CO2_normed="448504.361436" HC_normed="28.935238" PMx_normed="6.474914" NOx_normed="170.602775" fuel_normed="192.792989" electricity_normed="0"
            traveltime="7.860240e-03" CO_perVeh="0.150021" CO2_perVeh="16.405772" HC_perVeh="0.001058" PMx_perVeh="0.000237" NOx_perVeh="0.006240" fuel_perVeh="0.007052" electricity_perVeh="0"/>
        <edge id=":1110673588_0" sampledSeconds="11.63" CO_abs="202.416343" CO2_abs="24343.211317" HC_abs="1.477933" PMx_abs="0.328843" NOx_abs="9.085297" fuel_abs="10.464134" electricity_abs="0"
            CO_normed="608.516771" CO2_normed="73182.096653" HC_normed="4.443055" PMx_normed="0.988588" NOx_normed="27.312792" fuel_normed="31.457940" electricity_normed="0"
            traveltime="0.02" CO_perVeh="0.337361" CO2_perVeh="40.572019" HC_perVeh="0.002463" PMx_perVeh="0.000548" NOx_perVeh="0.015142" fuel_perVeh="0.017440" electricity_perVeh="0"/>
        <edge id=":1110673601_0" sampledSeconds="29.57" CO_abs="642.991909" CO2_abs="74025.295112" HC_abs="4.626261" PMx_abs="1.062256" NOx_abs="28.021890" fuel_abs="31.820324" electricity_abs="0"
            CO_normed="1725.895372" CO2_normed="198695.990459" HC_normed="12.417641" PMx_normed="2.851269" NOx_normed="75.215333" fuel_normed="85.410950" electricity_normed="0"
            traveltime="0.02" CO_perVeh="0.477237" CO2_perVeh="54.942565" HC_perVeh="0.003434" PMx_perVeh="0.000788" NOx_perVeh="0.020798" fuel_perVeh="0.023617" electricity_perVeh="0"/>
        <edge id=":1110673617_0" sampledSeconds="238.33" CO_abs="5793.115601" CO2_abs="713684.658925" HC_abs="43.488004" PMx_abs="12.804206" NOx_abs="269.546414" fuel_abs="306.780181" electricity_abs="0"
            CO_normed="14513.024471" CO2_normed="1787936.515052" HC_normed="108.946982" PMx_normed="32.077343" NOx_normed="675.272853" fuel_normed="768.551602" electricity_normed="0"
            traveltime="0.01" CO_perVeh="0.354921" CO2_perVeh="43.724619" HC_perVeh="0.002664" PMx_perVeh="0.000784" NOx_perVeh="0.016514" fuel_perVeh="0.018795" electricity_perVeh="0"/>
        <edge id=":1110673621_0" sampledSeconds="25.63" CO_abs="528.306682" CO2_abs="57968.523907" HC_abs="3.727892" PMx_abs="0.848496" NOx_abs="22.078374" fuel_abs="24.918192" electricity_abs="0"
            CO_normed="1588.228855" CO2_normed="174268.631369" HC_normed="11.207024" PMx_normed="2.550802" NOx_normed="66.373399" fuel_normed="74.910641" electricity_normed="0"
            traveltime="0.02" CO_perVeh="0.400232" CO2_perVeh="43.915548" HC_perVeh="0.002824" PMx_perVeh="0.000643" NOx_perVeh="0.016726" fuel_perVeh="0.018877" electricity_perVeh="0"/>
        <edge id=":1110673630_0" sampledSeconds="54.20" CO_abs="100.798669" CO2_abs="14920.107720" HC_abs="0.793367" PMx_abs="0.146961" NOx_abs="5.208796" fuel_abs="6.413599" electricity_abs="0"
            CO_normed="5.403483" CO2_normed="799.817555" HC_normed="0.042530" PMx_normed="0.007878" NOx_normed="0.279226" fuel_normed="0.343812" electricity_normed="0"
            traveltime="1.27" CO_perVeh="2.352819" CO2_perVeh="348.261705" HC_perVeh="0.018519" PMx_perVeh="0.003430" NOx_perVeh="0.121583" fuel_perVeh="0.149705" electricity_perVeh="0"/>
        <edge id=":1110673630_1" sampledSeconds="7.35" CO_abs="32.296434" CO2_abs="2972.445604" HC_abs="0.213792" PMx_abs="0.033485" NOx_abs="1.086349" fuel_abs="1.277745" electricity_abs="0"
            CO_normed="2.110686" CO2_normed="194.259856" HC_normed="0.013972" PMx_normed="0.002188" NOx_normed="0.070997" fuel_normed="0.083505" electricity_normed="0"
            traveltime="1.04" CO_perVeh="4.571188" CO2_perVeh="420.715378" HC_perVeh="0.030260" PMx_perVeh="0.004739" NOx_perVeh="0.153760" fuel_perVeh="0.180850" electricity_perVeh="0"/>
        <edge id=":1110673650_0" sampledSeconds="143.33" CO_abs="2414.995910" CO2_abs="292518.236078" HC_abs="17.693661" PMx_abs="4.075230" NOx_abs="109.828214" fuel_abs="125.741232" electricity_abs="0"
            CO_normed="6050.094138" CO2_normed="732822.303328" HC_normed="44.326499" PMx_normed="10.209345" NOx_normed="275.143751" fuel_normed="315.009349" electricity_normed="0"
            traveltime="0.02" CO_perVeh="0.387744" CO2_perVeh="46.965732" HC_perVeh="0.002841" PMx_perVeh="0.000654" NOx_perVeh="0.017634" fuel_perVeh="0.020189" electricity_perVeh="0"/>
        <edge id=":1110673655_0" sampledSeconds="45.07" CO_abs="682.218661" CO2_abs="80830.932076" HC_abs="4.961734" PMx_abs="1.092019" NOx_abs="30.185234" fuel_abs="34.745864" electricity_abs="0"
            CO_normed="1709.107294" CO2_normed="202499.203531" HC_normed="12.430230" PMx_normed="2.735748" NOx_normed="75.620628" fuel_normed="87.046006" electricity_normed="0"
            traveltime="0.02" CO_perVeh="0.365116" CO2_perVeh="43.259798" HC_perVeh="0.002655" PMx_perVeh="0.000584" NOx_perVeh="0.016155" fuel_perVeh="0.018596" electricity_perVeh="0"/>
        <edge id=":1110673663_0" sampledSeconds="108.20" CO_abs="1957.520184" CO2_abs="223775.889055" HC_abs="14.052786" PMx_abs="3.247767" NOx_abs="84.953647" fuel_abs="96.191686" electricity_abs="0"
            CO_normed="89.817164" CO2_normed="10267.539473" HC_normed="0.644786" PMx_normed="0.149018" NOx_normed="3.897940" fuel_normed="4.413576" electricity_normed="0"
            traveltime="1.27" CO_perVeh="22.991998" CO2_perVeh="2628.353384" HC_perVeh="0.165057" PMx_perVeh="0.038147" NOx_perVeh="0.997821" fuel_perVeh="1.129817" electricity_perVeh="0"/>
        <edge id=":1110673663_1" sampledSeconds="154.37" CO_abs="2376.992070" CO2_abs="300808.543620" HC_abs="17.635061" PMx_abs="4.099117" NOx_abs="112.086502" fuel_abs="129.304949" electricity_abs="0"
            CO_normed="109.197179" CO2_normed="13818.912121" HC_normed="0.810141" PMx_normed="0.188310" NOx_normed="5.149167" fuel_normed="5.940169" electricity_normed="0"
            traveltime="1.25" CO_perVeh="19.299899" CO2_perVeh="2442.403774" HC_perVeh="0.143187" PMx_perVeh="0.033283" NOx_perVeh="0.910082" fuel_perVeh="1.049887" electricity_perVeh="0"/>
        <edge id=":1110673666_0" sampledSeconds="191.32" CO_abs="3919.492792" CO2_abs="317334.587426" HC_abs="25.081727" PMx_abs="4.248530" NOx_abs="120.681474" fuel_abs="136.409848" electricity_abs="0"