<?xml version="1.0" encoding="UTF-8"?>

<!-- generated on Mon Nov  9 22:32:40 2020 by Eclipse SUMO sumo Version 1.7.0
<configuration xmlns:xsi="http://www.w3.org/2001/XMLSchema-instance" xsi:noNamespaceSchemaLocation="http://sumo.dlr.de/xsd/sumoConfiguration.xsd">

    <input>
        <net-file value="../dataSets/Porto/6AM7AM_Routing_SaoBento/Porto.net.xml"/>
        <route-files value="../results/Porto/6AM7AM_Routing_SaoBento/cost_co-length/solution4/Porto.rou.xml"/>
        <additional-files value="moreOutputInfo.xml"/>
    </input>

    <output>
        <emission-output.precision value="6"/>
        <tripinfo-output value="../results/Porto/6AM7AM_Routing_SaoBento/cost_co-length/solution4/Porto-tripinfo"/>
    </output>

    <processing>
        <collision.action value="warn"/>
        <time-to-teleport value="-1"/>
    </processing>

    <emissions>
        <device.emissions.probability value="1"/>
    </emissions>

    <gui_only>
        <quit-on-end value="true"/>
        <start value="true"/>
    </gui_only>

</configuration>
-->

<meandata xmlns:xsi="http://www.w3.org/2001/XMLSchema-instance" xsi:noNamespaceSchemaLocation="http://sumo.dlr.de/xsd/meandata_file.xsd">
    <interval begin="0.00" end="4699.00" id="emissions-detector">
        <edge id=":1092997347_0" sampledSeconds="269.48" CO_abs="34632.954422" CO2_abs="1366779.624807" HC_abs="189.997760" PMx_abs="27.922452" NOx_abs="593.598674" fuel_abs="587.524895" electricity_abs="0"
            CO_normed="60302.306061" CO2_normed="2379813.233620" HC_normed="330.820840" PMx_normed="48.618095" NOx_normed="1033.563826" fuel_normed="1022.988267" electricity_normed="0"
            traveltime="0.08" CO_perVeh="9.722275" CO2_perVeh="383.686812" HC_perVeh="0.053337" PMx_perVeh="0.007838" NOx_perVeh="0.166637" fuel_perVeh="0.164932" electricity_perVeh="0"/>
        <edge id=":1103427051_0" sampledSeconds="10.97" CO_abs="913.458885" CO2_abs="50740.665644" HC_abs="5.366475" PMx_abs="1.010892" NOx_abs="21.763278" fuel_abs="21.811152" electricity_abs="0"
            CO_normed="2413.170804" CO2_normed="134046.419501" HC_normed="14.177126" PMx_normed="2.670569" NOx_normed="57.494112" fuel_normed="57.620584" electricity_normed="0"
            traveltime="0.03" CO_perVeh="2.502864" CO2_perVeh="139.028657" HC_perVeh="0.014704" PMx_perVeh="0.002770" NOx_perVeh="0.059631" fuel_perVeh="0.059762" electricity_perVeh="0"/>
        <edge id=":1105984386_0" sampledSeconds="22.93" CO_abs="513.276896" CO2_abs="40576.521983" HC_abs="3.263424" PMx_abs="0.553011" NOx_abs="15.515672" fuel_abs="17.442268" electricity_abs="0"
            CO_normed="40.497624" CO2_normed="3201.493649" HC_normed="0.257485" PMx_normed="0.043633" NOx_normed="1.224189" fuel_normed="1.376198" electricity_normed="0"
            traveltime="0.96" CO_perVeh="21.541834" CO2_perVeh="1702.965199" HC_perVeh="0.136963" PMx_perVeh="0.023209" NOx_perVeh="0.651181" fuel_perVeh="0.732038" electricity_perVeh="0"/>
        <edge id=":1105984390_0" sampledSeconds="23.80" CO_abs="56.318678" CO2_abs="4095.931096" HC_abs="0.350815" PMx_abs="0.061519" NOx_abs="1.608879" fuel_abs="1.760676" electricity_abs="0"
            CO_normed="3.435262" CO2_normed="249.838900" HC_normed="0.021399" PMx_normed="0.003752" NOx_normed="0.098137" fuel_normed="0.107396" electricity_normed="0"
            traveltime="1.08" CO_perVeh="2.554024" CO2_perVeh="185.748464" HC_perVeh="0.015909" PMx_perVeh="0.002790" NOx_perVeh="0.072962" fuel_perVeh="0.079846" electricity_perVeh="0"/>
        <edge id=":1105984390_1" sampledSeconds="645.57" CO_abs="14050.636009" CO2_abs="1828299.216646" HC_abs="107.527840" PMx_abs="32.295813" NOx_abs="683.484762" fuel_abs="785.902109" electricity_abs="0"
            CO_normed="819.838507" CO2_normed="106679.163801" HC_normed="6.274126" PMx_normed="1.884424" NOx_normed="39.880552" fuel_normed="45.856487" electricity_normed="0"
            traveltime="0.64" CO_perVeh="13.835203" CO2_perVeh="1800.266665" HC_perVeh="0.105879" PMx_perVeh="0.031801" NOx_perVeh="0.673005" fuel_perVeh="0.773852" electricity_perVeh="0"/>
        <edge id=":1105984395_0" sampledSeconds="8.94" CO_abs="175.229334" CO2_abs="13899.809778" HC_abs="1.114335" PMx_abs="0.184723" NOx_abs="5.282169" fuel_abs="5.974994" electricity_abs="0"
            CO_normed="145.920409" CO2_normed="11574.922324" HC_normed="0.927951" PMx_normed="0.153826" NOx_normed="4.398671" fuel_normed="4.975615" electricity_normed="0"
            traveltime="0.09" CO_perVeh="1.777017" CO2_perVeh="140.959270" HC_perVeh="0.011301" PMx_perVeh="0.001873" NOx_perVeh="0.053567" fuel_perVeh="0.060593" electricity_perVeh="0"/>
        <edge id=":1105984398_0" sampledSeconds="23.39" CO_abs="1258.088148" CO2_abs="96369.324876" HC_abs="7.977783" PMx_abs="1.575156" NOx_abs="38.540949" fuel_abs="41.425057" electricity_abs="0"
            CO_normed="79.722668" CO2_normed="6106.741989" HC_normed="0.505537" PMx_normed="0.099815" NOx_normed="2.442267" fuel_normed="2.625028" electricity_normed="0"
            traveltime="1.09" CO_perVeh="58.692216" CO2_perVeh="4495.813118" HC_perVeh="0.372179" PMx_perVeh="0.073484" NOx_perVeh="1.798009" fuel_perVeh="1.932558" electricity_perVeh="0"/>
        <edge id=":1105984398_1" sampledSeconds="453.05" CO_abs="7662.087290" CO2_abs="910681.437911" HC_abs="55.807015" PMx_abs="12.976524" NOx_abs="343.793369" fuel_abs="391.463161" electricity_abs="0"
            CO_normed="469.982528" CO2_normed="55860.021944" HC_normed="3.423130" PMx_normed="0.795963" NOx_normed="21.087841" fuel_normed="24.011844" electricity_normed="0"
            traveltime="0.96" CO_perVeh="16.180717" CO2_perVeh="1923.167653" HC_perVeh="0.117853" PMx_perVeh="0.027404" NOx_perVeh="0.726019" fuel_perVeh="0.826688" electricity_perVeh="0"/>
        <edge id=":1106006327_0" sampledSeconds="288.99" CO_abs="38828.419471" CO2_abs="1260299.758863" HC_abs="206.465457" PMx_abs="26.281240" NOx_abs="551.626552" fuel_abs="541.758379" electricity_abs="0"
            CO_normed="3357.477003" CO2_normed="108977.586891" HC_normed="17.852981" PMx_normed="2.272528" NOx_normed="47.698915" fuel_normed="46.845618" electricity_normed="0"
            traveltime="2.09" CO_perVeh="280.855414" CO2_perVeh="9116.055077" HC_perVeh="1.493415" PMx_perVeh="0.190099" NOx_perVeh="3.990049" fuel_perVeh="3.918670" electricity_perVeh="0"/>
        <edge id=":1106006327_1" sampledSeconds="160.33" CO_abs="21742.417614" CO2_abs="730633.609212" HC_abs="116.226290" PMx_abs="15.250241" NOx_abs="319.818256" fuel_abs="314.072926" electricity_abs="0"
            CO_normed="1639.499094" CO2_normed="55093.833693" HC_normed="8.764108" PMx_normed="1.149953" NOx_normed="24.116073" fuel_normed="23.682844" electricity_normed="0"
            traveltime="2.28" CO_perVeh="308.661641" CO2_perVeh="10372.285756" HC_perVeh="1.649982" PMx_perVeh="0.216497" NOx_perVeh="4.540232" fuel_perVeh="4.458670" electricity_perVeh="0"/>
        <edge id=":1106006327_2" sampledSeconds="0.00" CO_abs="0" CO2_abs="0" HC_abs="0" PMx_abs="0" NOx_abs="0" fuel_abs="0" electricity_abs="0"
            CO_normed="0" CO2_normed="0" HC_normed="0" PMx_normed="0" NOx_normed="0" fuel_normed="0" electricity_normed="0"/>
        <edge id=":1106006327_3" sampledSeconds="0.00" CO_abs="0" CO2_abs="0" HC_abs="0" PMx_abs="0" NOx_abs="0" fuel_abs="0" electricity_abs="0"
            CO_normed="0" CO2_normed="0" HC_normed="0" PMx_normed="0" NOx_normed="0" fuel_normed="0" electricity_normed="0"/>
        <edge id=":1107381198_0" sampledSeconds="0.00" CO_abs="0" CO2_abs="0" HC_abs="0" PMx_abs="0" NOx_abs="0" fuel_abs="0" electricity_abs="0"
            CO_normed="0" CO2_normed="0" HC_normed="0" PMx_normed="0" NOx_normed="0" fuel_normed="0" electricity_normed="0"/>
        <edge id=":1107381198_1" sampledSeconds="36.30" CO_abs="1701.361322" CO2_abs="69863.268136" HC_abs="9.349981" PMx_abs="1.168844" NOx_abs="28.689742" fuel_abs="30.031810" electricity_abs="0"
            CO_normed="142.142607" CO2_normed="5836.824264" HC_normed="0.781157" PMx_normed="0.097653" NOx_normed="2.396925" fuel_normed="2.509049" electricity_normed="0"
            traveltime="1.49" CO_perVeh="70.049763" CO2_perVeh="2876.464479" HC_perVeh="0.384965" PMx_perVeh="0.048125" NOx_perVeh="1.181236" fuel_perVeh="1.236493" electricity_perVeh="0"/>
        <edge id=":1110338277_0" sampledSeconds="96.91" CO_abs="1417.166766" CO2_abs="182875.854189" HC_abs="10.637282" PMx_abs="2.413776" NOx_abs="67.744267" fuel_abs="78.610739" electricity_abs="0"
            CO_normed="3877.573007" CO2_normed="500374.756848" HC_normed="29.105141" PMx_normed="6.604439" NOx_normed="185.358103" fuel_normed="215.090337" electricity_normed="0"
            traveltime="0.02" CO_perVeh="0.319647" CO2_perVeh="41.248359" HC_perVeh="0.002399" PMx_perVeh="0.000544" NOx_perVeh="0.015280" fuel_perVeh="0.017731" electricity_perVeh="0"/>
        <edge id=":1110338293_0" sampledSeconds="123.31" CO_abs="6461.818436" CO2_abs="444840.126681" HC_abs="39.879174" PMx_abs="7.828666" NOx_abs="182.266138" fuel_abs="191.217403" electricity_abs="0"
            CO_normed="16501.770851" CO2_normed="1136003.728488" HC_normed="101.840837" PMx_normed="19.992336" NOx_normed="465.459387" fuel_normed="488.318543" electricity_normed="0"
            traveltime="0.03" CO_perVeh="1.482125" CO2_perVeh="102.031452" HC_perVeh="0.009147" PMx_perVeh="0.001796" NOx_perVeh="0.041806" fuel_perVeh="0.043859" electricity_perVeh="0"/>
        <edge id=":1110338295_0" sampledSeconds="0.00" CO_abs="0" CO2_abs="0" HC_abs="0" PMx_abs="0" NOx_abs="0" fuel_abs="0" electricity_abs="0"
            CO_normed="0" CO2_normed="0" HC_normed="0" PMx_normed="0" NOx_normed="0" fuel_normed="0" electricity_normed="0"/>
        <edge id=":1110673403_0" sampledSeconds="143.36" CO_abs="2280.259742" CO2_abs="282389.688344" HC_abs="16.806997" PMx_abs="3.858146" NOx_abs="105.440787" fuel_abs="121.387474" electricity_abs="0"
            CO_normed="5823.178741" CO2_normed="721148.384791" HC_normed="42.920614" PMx_normed="9.852681" NOx_normed="269.267811" fuel_normed="309.991420" electricity_normed="0"
            traveltime="0.02" CO_perVeh="0.366112" CO2_perVeh="45.339694" HC_perVeh="0.002698" PMx_perVeh="0.000619" NOx_perVeh="0.016929" fuel_perVeh="0.019490" electricity_perVeh="0"/>
        <edge id=":1110673412_0" sampledSeconds="253.33" CO_abs="44501.703599" CO2_abs="3040067.399747" HC_abs="277.019729" PMx_abs="66.755073" NOx_abs="1306.226677" fuel_abs="1306.775266" electricity_abs="0"
            CO_normed="117564.362891" CO2_normed="8031233.820173" HC_normed="731.829240" PMx_normed="176.353194" NOx_normed="3450.782660" fuel_normed="3452.231918" electricity_normed="0"
            traveltime="0.02" CO_perVeh="2.738541" CO2_perVeh="187.079312" HC_perVeh="0.017047" PMx_perVeh="0.004108" NOx_perVeh="0.080382" fuel_perVeh="0.080416" electricity_perVeh="0"/>
        <edge id=":1110673414_0" sampledSeconds="0.00" CO_abs="0" CO2_abs="0" HC_abs="0" PMx_abs="0" NOx_abs="0" fuel_abs="0" electricity_abs="0"
            CO_normed="0" CO2_normed="0" HC_normed="0" PMx_normed="0" NOx_normed="0" fuel_normed="0" electricity_normed="0"/>
        <edge id=":1110673414_1" sampledSeconds="132.94" CO_abs="8651.854916" CO2_abs="331532.727933" HC_abs="47.101612" PMx_abs="6.160163" NOx_abs="140.205544" fuel_abs="142.514035" electricity_abs="0"
            CO_normed="734.037984" CO2_normed="28127.796578" HC_normed="3.996180" PMx_normed="0.522639" NOx_normed="11.895275" fuel_normed="12.091131" electricity_normed="0"
            traveltime="1.58" CO_perVeh="103.082531" CO2_perVeh="3950.046884" HC_perVeh="0.561192" PMx_perVeh="0.073395" NOx_perVeh="1.670479" fuel_perVeh="1.697984" electricity_perVeh="0"/>
        <edge id=":1110673417_0" sampledSeconds="29.85" CO_abs="548.527420" CO2_abs="66353.622429" HC_abs="4.005466" PMx_abs="0.903315" NOx_abs="24.799962" fuel_abs="28.522648" electricity_abs="0"
            CO_normed="1500.850265" CO2_normed="181553.096970" HC_normed="10.959534" PMx_normed="2.471601" NOx_normed="67.856278" fuel_normed="78.042086" electricity_normed="0"
            traveltime="0.02" CO_perVeh="0.407124" CO2_perVeh="49.248547" HC_perVeh="0.002973" PMx_perVeh="0.000670" NOx_perVeh="0.018407" fuel_perVeh="0.021170" electricity_perVeh="0"/>
        <edge id=":1110673446_0" sampledSeconds="335.16" CO_abs="3514.005465" CO2_abs="277282.493305" HC_abs="22.574489" PMx_abs="5.099025" NOx_abs="113.706393" fuel_abs="119.191030" electricity_abs="0"
            CO_normed="8973.838175" CO2_normed="708105.962899" HC_normed="57.649258" PMx_normed="13.021557" NOx_normed="290.375978" fuel_normed="304.382287" electricity_normed="0"
            traveltime="0.02" CO_perVeh="0.239672" CO2_perVeh="18.911961" HC_perVeh="0.001540" PMx_perVeh="0.000348" NOx_perVeh="0.007755" fuel_perVeh="0.008129" electricity_perVeh="0"/>
        <edge id=":1110673451_0" sampledSeconds="37.23" CO_abs="357.875159" CO2_abs="26457.963406" HC_abs="2.234941" PMx_abs="0.373898" NOx_abs="10.232313" fuel_abs="11.373246" electricity_abs="0"
            CO_normed="1015.464734" CO2_normed="75074.025412" HC_normed="6.341607" PMx_normed="1.060930" NOx_normed="29.034016" fuel_normed="32.271393" electricity_normed="0"
            traveltime="0.03" CO_perVeh="0.256644" CO2_perVeh="18.973838" HC_perVeh="0.001603" PMx_perVeh="0.000268" NOx_perVeh="0.007338" fuel_perVeh="0.008156" electricity_perVeh="0"/>
        <edge id=":1110673464_0" sampledSeconds="322.64" CO_abs="804.522050" CO2_abs="68382.887304" HC_abs="5.236354" PMx_abs="0.970912" NOx_abs="26.223636" fuel_abs="29.395050" electricity_abs="0"
            CO_normed="43.651614" CO2_normed="3710.306549" HC_normed="0.284113" PMx_normed="0.052680" NOx_normed="1.422837" fuel_normed="1.594911" electricity_normed="0"
            traveltime="1.17" CO_perVeh="2.908241" CO2_perVeh="247.195116" HC_perVeh="0.018929" PMx_perVeh="0.003510" NOx_perVeh="0.094795" fuel_perVeh="0.106259" electricity_perVeh="0"/>
        <edge id=":1110673464_1" sampledSeconds="708.42" CO_abs="16052.603284" CO2_abs="2098811.874084" HC_abs="123.375576" PMx_abs="37.038272" NOx_abs="785.007537" fuel_abs="902.183093" electricity_abs="0"
            CO_normed="853.450914" CO2_normed="111585.197770" HC_normed="6.559372" PMx_normed="1.969173" NOx_normed="41.735623" fuel_normed="47.965366" electricity_normed="0"
            traveltime="0.70" CO_perVeh="15.844398" CO2_perVeh="2071.589843" HC_perVeh="0.121775" PMx_perVeh="0.036558" NOx_perVeh="0.774826" fuel_perVeh="0.890482" electricity_perVeh="0"/>
        <edge id=":1110673479_0" sampledSeconds="134.55" CO_abs="6413.534956" CO2_abs="444905.728393" HC_abs="39.662168" PMx_abs="7.810452" NOx_abs="182.105180" fuel_abs="191.245597" electricity_abs="0"
            CO_normed="16378.467646" CO2_normed="1136171.257866" HC_normed="101.286660" PMx_normed="19.945824" NOx_normed="465.048343" fuel_normed="488.390542" electricity_normed="0"
            traveltime="0.03" CO_perVeh="1.351071" CO2_perVeh="93.723558" HC_perVeh="0.008355" PMx_perVeh="0.001645" NOx_perVeh="0.038362" fuel_perVeh="0.040288" electricity_perVeh="0"/>
        <edge id=":1110673511_0" sampledSeconds="11.82" CO_abs="163.599589" CO2_abs="20828.510229" HC_abs="1.221731" PMx_abs="0.278145" NOx_abs="7.734408" fuel_abs="8.953309" electricity_abs="0"
            CO_normed="417.789970" CO2_normed="53190.492178" HC_normed="3.119977" PMx_normed="0.710309" NOx_normed="19.751627" fuel_normed="22.864377" electricity_normed="0"
            traveltime="0.02" CO_perVeh="0.323960" CO2_perVeh="41.244575" HC_perVeh="0.002419" PMx_perVeh="0.000551" NOx_perVeh="0.015316" fuel_perVeh="0.017729" electricity_perVeh="0"/>
        <edge id=":1110673517_0" sampledSeconds="16.97" CO_abs="816.521263" CO2_abs="57375.282785" HC_abs="5.074342" PMx_abs="1.042461" NOx_abs="23.678426" fuel_abs="24.663076" electricity_abs="0"
            CO_normed="2085.178796" CO2_normed="146521.258441" HC_normed="12.958524" PMx_normed="2.662170" NOx_normed="60.468422" fuel_normed="62.982956" electricity_normed="0"
            traveltime="0.03" CO_perVeh="1.310979" CO2_perVeh="92.119801" HC_perVeh="0.008147" PMx_perVeh="0.001674" NOx_perVeh="0.038017" fuel_perVeh="0.039598" electricity_perVeh="0"/>
        <edge id=":1110673534_0" sampledSeconds="473.98" CO_abs="2972.481058" CO2_abs="263948.426898" HC_abs="19.556408" PMx_abs="3.475961" NOx_abs="99.587733" fuel_abs="113.461091" electricity_abs="0"
            CO_normed="147.111016" CO2_normed="13063.067694" HC_normed="0.967866" PMx_normed="0.172029" NOx_normed="4.928695" fuel_normed="5.615301" electricity_normed="0"
            traveltime="1.43" CO_perVeh="8.954894" CO2_perVeh="795.170821" HC_perVeh="0.058916" PMx_perVeh="0.010472" NOx_perVeh="0.300018" fuel_perVeh="0.341813" electricity_perVeh="0"/>
        <edge id=":1110673534_1" sampledSeconds="183.61" CO_abs="3173.296196" CO2_abs="376740.967931" HC_abs="23.155536" PMx_abs="5.323028" NOx_abs="142.008076" fuel_abs="161.944972" electricity_abs="0"
            CO_normed="152.708990" CO2_normed="18129.959819" HC_normed="1.114317" PMx_normed="0.256161" NOx_normed="6.833875" fuel_normed="7.793301" electricity_normed="0"
            traveltime="1.22" CO_perVeh="21.069548" CO2_perVeh="2501.424774" HC_perVeh="0.153744" PMx_perVeh="0.035343" NOx_perVeh="0.942883" fuel_perVeh="1.075256" electricity_perVeh="0"/>
        <edge id=":1110673549_0" sampledSeconds="59.69" CO_abs="59.448119" CO2_abs="7112.493991" HC_abs="0.434388" PMx_abs="0.095081" NOx_abs="2.657256" fuel_abs="3.057366" electricity_abs="0"
            CO_normed="2.850089" CO2_normed="340.990432" HC_normed="0.020826" PMx_normed="0.004558" NOx_normed="0.127395" fuel_normed="0.146578" electricity_normed="0"
            traveltime="1.24" CO_perVeh="1.238551" CO2_perVeh="148.182754" HC_perVeh="0.009050" PMx_perVeh="0.001981" NOx_perVeh="0.055362" fuel_perVeh="0.063698" electricity_perVeh="0"/>
        <edge id=":1110673549_1" sampledSeconds="638.38" CO_abs="13806.153116" CO2_abs="1815125.192510" HC_abs="106.134367" PMx_abs="31.897030" NOx_abs="678.230743" fuel_abs="780.239266" electricity_abs="0"
            CO_normed="640.264906" CO2_normed="84177.029746" HC_normed="4.922016" PMx_normed="1.479235" NOx_normed="31.453175" fuel_normed="36.183853" electricity_normed="0"
            traveltime="0.80" CO_perVeh="17.389487" CO2_perVeh="2286.233974" HC_perVeh="0.133681" PMx_perVeh="0.040176" NOx_perVeh="0.854263" fuel_perVeh="0.982747" electricity_perVeh="0"/>
        <edge id=":1110673556_0" sampledSeconds="415.25" CO_abs="51191.480653" CO2_abs="2581441.805040" HC_abs="294.487220" PMx_abs="52.086231" NOx_abs="1111.719162" fuel_abs="1109.649843" electricity_abs="0"
            CO_normed="1819.899780" CO2_normed="91772.406511" HC_normed="10.469266" PMx_normed="1.851709" NOx_normed="39.522542" fuel_normed="39.448976" electricity_normed="0"
            traveltime="2.58" CO_perVeh="317.771948" CO2_perVeh="16024.341973" HC_perVeh="1.828034" PMx_perVeh="0.323326" NOx_perVeh="6.901015" fuel_perVeh="6.888169" electricity_perVeh="0"/>
        <edge id=":1110673556_2" sampledSeconds="247.90" CO_abs="23684.710697" CO2_abs="1021937.930434" HC_abs="131.834971" PMx_abs="19.647715" NOx_abs="435.342506" fuel_abs="439.291035" electricity_abs="0"
            CO_normed="880.414422" CO2_normed="37987.751010" HC_normed="4.900605" PMx_normed="0.730350" NOx_normed="16.182668" fuel_normed="16.329444" electricity_normed="0"
            traveltime="3.01" CO_perVeh="287.291002" CO2_perVeh="12395.911264" HC_perVeh="1.599133" PMx_perVeh="0.238323" NOx_perVeh="5.280621" fuel_perVeh="5.328516" electricity_perVeh="0"/>
        <edge id=":1110673556_3" sampledSeconds="401.71" CO_abs="33744.837109" CO2_abs="1212790.685119" HC_abs="181.916497" PMx_abs="23.268316" NOx_abs="517.988218" fuel_abs="521.335874" electricity_abs="0"
            CO_normed="2853.488944" CO2_normed="102554.497444" HC_normed="15.382997" PMx_normed="1.967586" NOx_normed="43.801475" fuel_normed="44.084556" electricity_normed="0"
            traveltime="1.72" CO_perVeh="144.693967" CO2_perVeh="5200.306497" HC_perVeh="0.780037" PMx_perVeh="0.099772" NOx_perVeh="2.221074" fuel_perVeh="2.235428" electricity_perVeh="0"/>
        <edge id=":1110673556_4" sampledSeconds="209.20" CO_abs="21716.264831" CO2_abs="872110.845776" HC_abs="119.345245" PMx_abs="17.002476" NOx_abs="373.639414" fuel_abs="374.887112" electricity_abs="0"
            CO_normed="1121.866123" CO2_normed="45053.402200" HC_normed="6.165397" PMx_normed="0.878351" NOx_normed="19.302279" fuel_normed="19.366735" electricity_normed="0"
            traveltime="2.40" CO_perVeh="249.212406" CO2_perVeh="10008.205530" HC_perVeh="1.369587" PMx_perVeh="0.195118" NOx_perVeh="4.287827" fuel_perVeh="4.302145" electricity_perVeh="0"/>
        <edge id=":1110673556_5" sampledSeconds="23.94" CO_abs="1532.842551" CO2_abs="62511.188535" HC_abs="8.430030" PMx_abs="1.130534" NOx_abs="26.214175" fuel_abs="26.871284" electricity_abs="0"
            CO_normed="110.370491" CO2_normed="4501.043230" HC_normed="0.606994" PMx_normed="0.081403" NOx_normed="1.887520" fuel_normed="1.934835" electricity_normed="0"
            traveltime="1.66" CO_perVeh="105.974300" CO2_perVeh="4321.761183" HC_perVeh="0.582817" PMx_perVeh="0.078160" NOx_perVeh="1.812338" fuel_perVeh="1.857768" electricity_perVeh="0"/>
        <edge id=":1110673556_6" sampledSeconds="309.89" CO_abs="37698.203842" CO2_abs="1922663.528001" HC_abs="217.431540" PMx_abs="38.957478" NOx_abs="828.601099" fuel_abs="826.469072" electricity_abs="0"
            CO_normed="1373.994526" CO2_normed="70075.730233" HC_normed="7.924774" PMx_normed="1.419892" NOx_normed="30.200202" fuel_normed="30.122496" electricity_normed="0"
            traveltime="2.45" CO_perVeh="298.539449" CO2_perVeh="15225.948498" HC_perVeh="1.721883" PMx_perVeh="0.308512" NOx_perVeh="6.561854" fuel_perVeh="6.544970" electricity_perVeh="0"/>
        <edge id=":1110673561_0" sampledSeconds="100.84" CO_abs="9247.910489" CO2_abs="679019.642037" HC_abs="58.442726" PMx_abs="13.534866" NOx_abs="285.514935" fuel_abs="291.878340" electricity_abs="0"
            CO_normed="423.491534" CO2_normed="31094.491004" HC_normed="2.676280" PMx_normed="0.619805" NOx_normed="13.074646" fuel_normed="13.366047" electricity_normed="0"
            traveltime="1.19" CO_perVeh="109.134320" CO2_perVeh="8013.090832" HC_perVeh="0.689681" PMx_perVeh="0.159725" NOx_perVeh="3.369353" fuel_perVeh="3.444448" electricity_perVeh="0"/>
        <edge id=":1110673561_1" sampledSeconds="1316.35" CO_abs="123701.367805" CO2_abs="8533741.613961" HC_abs="769.756089" PMx_abs="178.697648" NOx_abs="3651.763062" fuel_abs="3668.243202" electricity_abs="0"
            CO_normed="5522.735881" CO2_normed="380994.986910" HC_normed="34.366310" PMx_normed="7.978084" NOx_normed="163.035569" fuel_normed="163.771337" electricity_normed="0"
            traveltime="1.19" CO_perVeh="112.276204" CO2_perVeh="7745.557982" HC_perVeh="0.698661" PMx_perVeh="0.162193" NOx_perVeh="3.314483" fuel_perVeh="3.329441" electricity_perVeh="0"/>
        <edge id=":1110673562_0" sampledSeconds="104.04" CO_abs="2347.554189" CO2_abs="190842.096273" HC_abs="15.028787" PMx_abs="2.491863" NOx_abs="72.139377" fuel_abs="82.035717" electricity_abs="0"
            CO_normed="6661.145462" CO2_normed="541511.232951" HC_normed="42.643931" PMx_normed="7.070619" NOx_normed="204.694267" fuel_normed="232.774964" electricity_normed="0"
            traveltime="0.03" CO_perVeh="0.598402" CO2_perVeh="48.646519" HC_perVeh="0.003831" PMx_perVeh="0.000635" NOx_perVeh="0.018389" fuel_perVeh="0.020911" electricity_perVeh="0"/>
        <edge id=":1110673564_0" sampledSeconds="28.59" CO_abs="511.041619" CO2_abs="60300.093926" HC_abs="3.711290" PMx_abs="0.811067" NOx_abs="22.541058" fuel_abs="25.920511" electricity_abs="0"
            CO_normed="3915.194361" CO2_normed="461971.351639" HC_normed="28.432948" PMx_normed="6.213750" NOx_normed="172.691654" fuel_normed="198.582339" electricity_normed="0"
            traveltime="7.858541e-03" CO_perVeh="0.140493" CO2_perVeh="16.577345" HC_perVeh="0.001020" PMx_perVeh="0.000223" NOx_perVeh="0.006197" fuel_perVeh="0.007126" electricity_perVeh="0"/>
        <edge id=":1110673588_0" sampledSeconds="11.61" CO_abs="276.683972" CO2_abs="31816.205186" HC_abs="1.997344" PMx_abs="0.451717" NOx_abs="12.026516" fuel_abs="13.676440" electricity_abs="0"
            CO_normed="847.892998" CO2_normed="97500.181884" HC_normed="6.120825" PMx_normed="1.384279" NOx_normed="36.855039" fuel_normed="41.911203" electricity_normed="0"
            traveltime="0.02" CO_perVeh="0.461140" CO2_perVeh="53.027009" HC_perVeh="0.003329" PMx_perVeh="0.000753" NOx_perVeh="0.020044" fuel_perVeh="0.022794" electricity_perVeh="0"/>
        <edge id=":1110673601_0" sampledSeconds="29.75" CO_abs="495.712434" CO2_abs="61085.388647" HC_abs="3.635791" PMx_abs="0.808019" NOx_abs="22.668043" fuel_abs="26.258083" electricity_abs="0"
            CO_normed="1356.340833" CO2_normed="167138.448248" HC_normed="9.948050" PMx_normed="2.210856" NOx_normed="62.023042" fuel_normed="71.845908" electricity_normed="0"
            traveltime="0.02" CO_perVeh="0.367924" CO2_perVeh="45.338393" HC_perVeh="0.002699" PMx_perVeh="0.000600" NOx_perVeh="0.016825" fuel_perVeh="0.019489" electricity_perVeh="0"/>
        <edge id=":1110673617_0" sampledSeconds="238.47" CO_abs="5587.206048" CO2_abs="709321.556132" HC_abs="42.367554" PMx_abs="12.616503" NOx_abs="266.225005" fuel_abs="304.904792" electricity_abs="0"
            CO_normed="14268.242726" CO2_normed="1811419.168670" HC_normed="108.195497" PMx_normed="32.219204" NOx_normed="679.868070" fuel_normed="778.645989" electricity_normed="0"
            traveltime="0.01" CO_perVeh="0.342180" CO2_perVeh="43.441322" HC_perVeh="0.002595" PMx_perVeh="0.000773" NOx_perVeh="0.016305" fuel_perVeh="0.018673" electricity_perVeh="0"/>
        <edge id=":1110673621_0" sampledSeconds="25.76" CO_abs="547.927338" CO2_abs="63473.890965" HC_abs="3.962083" PMx_abs="0.879640" NOx_abs="23.862184" fuel_abs="27.284769" electricity_abs="0"
            CO_normed="1679.113358" CO2_normed="194514.583932" HC_normed="12.141731" PMx_normed="2.695639" NOx_normed="73.125229" fuel_normed="83.613677" electricity_normed="0"
            traveltime="0.02" CO_perVeh="0.415096" CO2_perVeh="48.086281" HC_perVeh="0.003002" PMx_perVeh="0.000666" NOx_perVeh="0.018077" fuel_perVeh="0.020670" electricity_perVeh="0"/>
        <edge id=":1110673630_0" sampledSeconds="54.36" CO_abs="276.907320" CO2_abs="23139.848754" HC_abs="1.792998" PMx_abs="0.330986" NOx_abs="8.922410" fuel_abs="9.946886" electricity_abs="0"
            CO_normed="15.131552" CO2_normed="1264.472993" HC_normed="0.097978" PMx_normed="0.018087" NOx_normed="0.487564" fuel_normed="0.543546" electricity_normed="0"
            traveltime="1.27" CO_perVeh="6.463507" CO2_perVeh="540.124999" HC_perVeh="0.041852" PMx_perVeh="0.007726" NOx_perVeh="0.208265" fuel_perVeh="0.232178" electricity_perVeh="0"/>
        <edge id=":1110673630_1" sampledSeconds="7.40" CO_abs="0" CO2_abs="0" HC_abs="0" PMx_abs="0" NOx_abs="0" fuel_abs="0" electricity_abs="0"
            CO_normed="0" CO2_normed="0" HC_normed="0" PMx_normed="0" NOx_normed="0" fuel_normed="0" electricity_normed="0"
            traveltime="1.05" CO_perVeh="0" CO2_perVeh="0" HC_perVeh="0" PMx_perVeh="0" NOx_perVeh="0" fuel_perVeh="0" electricity_perVeh="0"/>
        <edge id=":1110673650_0" sampledSeconds="142.43" CO_abs="2600.554879" CO2_abs="319759.979394" HC_abs="19.164262" PMx_abs="4.402533" NOx_abs="119.644555" fuel_abs="137.451362" electricity_abs="0"
            CO_normed="6641.127591" CO2_normed="816582.198921" HC_normed="48.940444" PMx_normed="11.242902" NOx_normed="305.540467" fuel_normed="351.014332" electricity_normed="0"
            traveltime="0.02" CO_perVeh="0.418398" CO2_perVeh="51.445580" HC_perVeh="0.003083" PMx_perVeh="0.000708" NOx_perVeh="0.019249" fuel_perVeh="0.022114" electricity_perVeh="0"/>
        <edge id=":1110673655_0" sampledSeconds="44.93" CO_abs="770.576937" CO2_abs="84255.905488" HC_abs="5.452381" PMx_abs="1.181474" NOx_abs="31.853817" fuel_abs="36.218092" electricity_abs="0"
            CO_normed="1967.849168" CO2_normed="215167.241083" HC_normed="13.923936" PMx_normed="3.017171" NOx_normed="81.346203" fuel_normed="92.491404" electricity_normed="0"
            traveltime="0.02" CO_perVeh="0.412404" CO2_perVeh="45.092805" HC_perVeh="0.002918" PMx_perVeh="0.000632" NOx_perVeh="0.017048" fuel_perVeh="0.019384" electricity_perVeh="0"/>
        <edge id=":1110673663_0" sampledSeconds="108.76" CO_abs="2102.563546" CO2_abs="229179.862289" HC_abs="14.858641" PMx_abs="3.306042" NOx_abs="87.144369" fuel_abs="98.514715" electricity_abs="0"
            CO_normed="98.340472" CO2_normed="10719.131837" HC_normed="0.694964" PMx_normed="0.154629" NOx_normed="4.075890" fuel_normed="4.607701" electricity_normed="0"
            traveltime="1.28" CO_perVeh="24.695601" CO2_perVeh="2691.825599" HC_perVeh="0.174522" PMx_perVeh="0.038831" NOx_perVeh="1.023552" fuel_perVeh="1.157102" electricity_perVeh="0"/>
        <edge id=":1110673663_1" sampledSeconds="155.17" CO_abs="2710.542983" CO2_abs="314098.548667" HC_abs="19.575983" PMx_abs="4.566267" NOx_abs="119.173623" fuel_abs="135.017507" electricity_abs="0"
            CO_normed="126.931688" CO2_normed="14708.882751" HC_normed="0.916721" PMx_normed="0.213833" NOx_normed="5.580767" fuel_normed="6.322718" electricity_normed="0"
            traveltime="1.26" CO_perVeh="21.940703" CO2_perVeh="2542.495318" HC_perVeh="0.158459" PMx_perVeh="0.036962" NOx_perVeh="0.964660" fuel_perVeh="1.092910" electricity_perVeh="0"/>
        <edge id=":1110673666_0" sampledSeconds="191.65" CO_abs="4539.702762" CO2_abs="361495.796128" HC_abs="28.918827" PMx_abs="4.889174" NOx_abs="137.862612" fuel_abs="155.393023" electricity_abs="0"