<?xml version="1.0" encoding="UTF-8"?>

<!-- generated on Mon Nov  9 23:07:15 2020 by Eclipse SUMO sumo Version 1.7.0
<configuration xmlns:xsi="http://www.w3.org/2001/XMLSchema-instance" xsi:noNamespaceSchemaLocation="http://sumo.dlr.de/xsd/sumoConfiguration.xsd">

    <input>
        <net-file value="../dataSets/Porto/6AM7AM_Routing_SaoBento/Porto.net.xml"/>
        <route-files value="../results/Porto/6AM7AM_Routing_SaoBento/cost_co2-length/solution7/Porto.rou.xml"/>
        <additional-files value="moreOutputInfo.xml"/>
    </input>

    <output>
        <emission-output.precision value="6"/>
        <tripinfo-output value="../results/Porto/6AM7AM_Routing_SaoBento/cost_co2-length/solution7/Porto-tripinfo"/>
    </output>

    <processing>
        <collision.action value="warn"/>
        <time-to-teleport value="-1"/>
    </processing>

    <emissions>
        <device.emissions.probability value="1"/>
    </emissions>

    <gui_only>
        <quit-on-end value="true"/>
        <start value="true"/>
    </gui_only>

</configuration>
-->

<meandata xmlns:xsi="http://www.w3.org/2001/XMLSchema-instance" xsi:noNamespaceSchemaLocation="http://sumo.dlr.de/xsd/meandata_file.xsd">
    <interval begin="0.00" end="4791.00" id="emissions-detector">
        <edge id=":1092997347_0" sampledSeconds="270.75" CO_abs="34296.702367" CO2_abs="1340385.132518" HC_abs="187.816895" PMx_abs="27.293828" NOx_abs="581.466676" fuel_abs="576.179370" electricity_abs="0"
            CO_normed="58570.107077" CO2_normed="2289039.333725" HC_normed="320.743829" PMx_normed="46.610967" NOx_normed="992.998251" fuel_normed="983.968867" electricity_normed="0"
            traveltime="0.08" CO_perVeh="9.662442" CO2_perVeh="377.627954" HC_perVeh="0.052914" PMx_perVeh="0.007690" NOx_perVeh="0.163817" fuel_perVeh="0.162328" electricity_perVeh="0"/>
        <edge id=":1103427051_0" sampledSeconds="11.18" CO_abs="794.666326" CO2_abs="44383.337823" HC_abs="4.671521" PMx_abs="0.868677" NOx_abs="18.931519" fuel_abs="19.078440" electricity_abs="0"
            CO_normed="2059.032217" CO2_normed="115000.119595" HC_normed="12.104216" PMx_normed="2.250798" NOx_normed="49.052798" fuel_normed="49.433482" electricity_normed="0"
            traveltime="0.03" CO_perVeh="2.177374" CO2_perVeh="121.609675" HC_perVeh="0.012800" PMx_perVeh="0.002380" NOx_perVeh="0.051872" fuel_perVeh="0.052275" electricity_perVeh="0"/>
        <edge id=":1105984386_0" sampledSeconds="22.94" CO_abs="476.549258" CO2_abs="38383.545047" HC_abs="3.044846" PMx_abs="0.514083" NOx_abs="14.606251" fuel_abs="16.499600" electricity_abs="0"
            CO_normed="36.877791" CO2_normed="2970.312775" HC_normed="0.235626" PMx_normed="0.039782" NOx_normed="1.130306" fuel_normed="1.276822" electricity_normed="0"
            traveltime="0.96" CO_perVeh="20.000403" CO2_perVeh="1610.927656" HC_perVeh="0.127790" PMx_perVeh="0.021576" NOx_perVeh="0.613013" fuel_perVeh="0.692475" electricity_perVeh="0"/>
        <edge id=":1105984390_0" sampledSeconds="23.19" CO_abs="16.370636" CO2_abs="1560.885617" HC_abs="0.109413" PMx_abs="0.016483" NOx_abs="0.561892" fuel_abs="0.670969" electricity_abs="0"
            CO_normed="0.979382" CO2_normed="93.380838" HC_normed="0.006546" PMx_normed="0.000986" NOx_normed="0.033616" fuel_normed="0.040141" electricity_normed="0"
            traveltime="1.05" CO_perVeh="0.742400" CO2_perVeh="70.785396" HC_perVeh="0.004962" PMx_perVeh="0.000748" NOx_perVeh="0.025482" fuel_perVeh="0.030428" electricity_perVeh="0"/>
        <edge id=":1105984390_1" sampledSeconds="645.60" CO_abs="13986.996691" CO2_abs="1870432.003550" HC_abs="108.263448" PMx_abs="32.772985" NOx_abs="696.589283" fuel_abs="804.013246" electricity_abs="0"
            CO_normed="800.453441" CO2_normed="107041.830825" HC_normed="6.195744" PMx_normed="1.875546" NOx_normed="39.864690" fuel_normed="46.012392" electricity_normed="0"
            traveltime="0.64" CO_perVeh="13.771434" CO2_perVeh="1841.605608" HC_perVeh="0.106595" PMx_perVeh="0.032268" NOx_perVeh="0.685854" fuel_perVeh="0.791622" electricity_perVeh="0"/>
        <edge id=":1105984395_0" sampledSeconds="8.94" CO_abs="224.951890" CO2_abs="17023.031366" HC_abs="1.413537" PMx_abs="0.237860" NOx_abs="6.559813" fuel_abs="7.317537" electricity_abs="0"
            CO_normed="183.729185" CO2_normed="13903.540361" HC_normed="1.154505" PMx_normed="0.194272" NOx_normed="5.357719" fuel_normed="5.976589" electricity_normed="0"
            traveltime="0.09" CO_perVeh="2.281258" CO2_perVeh="172.632152" HC_perVeh="0.014335" PMx_perVeh="0.002412" NOx_perVeh="0.066524" fuel_perVeh="0.074208" electricity_perVeh="0"/>
        <edge id=":1105984398_0" sampledSeconds="22.97" CO_abs="1514.161226" CO2_abs="104292.977982" HC_abs="9.360130" PMx_abs="1.904600" NOx_abs="43.167819" fuel_abs="44.830905" electricity_abs="0"
            CO_normed="94.107048" CO2_normed="6481.941356" HC_normed="0.581744" PMx_normed="0.118373" NOx_normed="2.682935" fuel_normed="2.786298" electricity_normed="0"
            traveltime="1.11" CO_perVeh="73.364868" CO2_perVeh="5053.253544" HC_perVeh="0.453522" PMx_perVeh="0.092283" NOx_perVeh="2.091588" fuel_perVeh="2.172169" electricity_perVeh="0"/>
        <edge id=":1105984398_1" sampledSeconds="453.17" CO_abs="7925.467682" CO2_abs="925907.262127" HC_abs="57.333938" PMx_abs="13.317994" NOx_abs="350.442460" fuel_abs="398.008002" electricity_abs="0"
            CO_normed="476.802793" CO2_normed="55703.358657" HC_normed="3.449258" PMx_normed="0.801222" NOx_normed="21.082913" fuel_normed="23.944496" electricity_normed="0"
            traveltime="0.95" CO_perVeh="16.683766" CO2_perVeh="1949.111527" HC_perVeh="0.120693" PMx_perVeh="0.028035" NOx_perVeh="0.737710" fuel_perVeh="0.837840" electricity_perVeh="0"/>
        <edge id=":1106006327_0" sampledSeconds="198.41" CO_abs="26763.481338" CO2_abs="870970.042797" HC_abs="142.367644" PMx_abs="18.164020" NOx_abs="381.226541" fuel_abs="374.399215" electricity_abs="0"
            CO_normed="2269.787568" CO2_normed="73866.211573" HC_normed="12.074076" PMx_normed="1.540475" NOx_normed="32.331491" fuel_normed="31.752472" electricity_normed="0"
            traveltime="2.08" CO_perVeh="281.013065" CO2_perVeh="9145.071910" HC_perVeh="1.494842" PMx_perVeh="0.190720" NOx_perVeh="4.002829" fuel_perVeh="3.931143" electricity_perVeh="0"/>
        <edge id=":1106006327_1" sampledSeconds="161.97" CO_abs="21881.405461" CO2_abs="728893.470340" HC_abs="116.809382" PMx_abs="15.197717" NOx_abs="318.939230" fuel_abs="313.325093" electricity_abs="0"
            CO_normed="1618.295534" CO2_normed="53907.188454" HC_normed="8.638938" PMx_normed="1.123986" NOx_normed="23.587970" fuel_normed="23.172762" electricity_normed="0"
            traveltime="2.30" CO_perVeh="310.634752" CO2_perVeh="10347.582242" HC_perVeh="1.658260" PMx_perVeh="0.215751" NOx_perVeh="4.527753" fuel_perVeh="4.448054" electricity_perVeh="0"/>
        <edge id=":1106006327_2" sampledSeconds="0.00" CO_abs="0" CO2_abs="0" HC_abs="0" PMx_abs="0" NOx_abs="0" fuel_abs="0" electricity_abs="0"
            CO_normed="0" CO2_normed="0" HC_normed="0" PMx_normed="0" NOx_normed="0" fuel_normed="0" electricity_normed="0"/>
        <edge id=":1106006327_3" sampledSeconds="0.00" CO_abs="0" CO2_abs="0" HC_abs="0" PMx_abs="0" NOx_abs="0" fuel_abs="0" electricity_abs="0"
            CO_normed="0" CO2_normed="0" HC_normed="0" PMx_normed="0" NOx_normed="0" fuel_normed="0" electricity_normed="0"/>
        <edge id=":1107381198_0" sampledSeconds="0.00" CO_abs="0" CO2_abs="0" HC_abs="0" PMx_abs="0" NOx_abs="0" fuel_abs="0" electricity_abs="0"
            CO_normed="0" CO2_normed="0" HC_normed="0" PMx_normed="0" NOx_normed="0" fuel_normed="0" electricity_normed="0"/>
        <edge id=":1107381198_1" sampledSeconds="35.56" CO_abs="1117.623805" CO2_abs="47388.634092" HC_abs="6.184607" PMx_abs="0.829767" NOx_abs="19.695308" fuel_abs="20.370652" electricity_abs="0"
            CO_normed="91.580421" CO2_normed="3883.123339" HC_normed="0.506780" PMx_normed="0.067993" NOx_normed="1.613875" fuel_normed="1.669214" electricity_normed="0"
            traveltime="1.46" CO_perVeh="46.015671" CO2_perVeh="1951.121474" HC_perVeh="0.254637" PMx_perVeh="0.034164" NOx_perVeh="0.810910" fuel_perVeh="0.838716" electricity_perVeh="0"/>
        <edge id=":1110338277_0" sampledSeconds="96.71" CO_abs="1465.356940" CO2_abs="185732.570786" HC_abs="10.911656" PMx_abs="2.470595" NOx_abs="68.931264" fuel_abs="79.838712" electricity_abs="0"
            CO_normed="3932.436551" CO2_normed="498432.518436" HC_normed="29.282554" PMx_normed="6.630097" NOx_normed="184.984160" fuel_normed="214.255423" electricity_normed="0"
            traveltime="0.02" CO_perVeh="0.331144" CO2_perVeh="41.972199" HC_perVeh="0.002466" PMx_perVeh="0.000558" NOx_perVeh="0.015577" fuel_perVeh="0.018042" electricity_perVeh="0"/>
        <edge id=":1110338293_0" sampledSeconds="122.96" CO_abs="6431.302851" CO2_abs="443517.106746" HC_abs="39.712139" PMx_abs="7.801587" NOx_abs="181.645670" fuel_abs="190.648696" electricity_abs="0"
            CO_normed="16108.460490" CO2_normed="1110875.658725" HC_normed="99.466848" PMx_normed="19.540607" NOx_normed="454.967239" fuel_normed="477.517085" electricity_normed="0"
            traveltime="0.03" CO_perVeh="1.475126" CO2_perVeh="101.727996" HC_perVeh="0.009109" PMx_perVeh="0.001789" NOx_perVeh="0.041663" fuel_perVeh="0.043728" electricity_perVeh="0"/>
        <edge id=":1110338295_0" sampledSeconds="0.00" CO_abs="0" CO2_abs="0" HC_abs="0" PMx_abs="0" NOx_abs="0" fuel_abs="0" electricity_abs="0"
            CO_normed="0" CO2_normed="0" HC_normed="0" PMx_normed="0" NOx_normed="0" fuel_normed="0" electricity_normed="0"/>
        <edge id=":1110673403_0" sampledSeconds="143.81" CO_abs="2309.828728" CO2_abs="280613.200383" HC_abs="16.919021" PMx_abs="3.874862" NOx_abs="105.149416" fuel_abs="120.623802" electricity_abs="0"
            CO_normed="5785.419482" CO2_normed="702850.846293" HC_normed="42.377009" PMx_normed="9.705352" NOx_normed="263.367354" fuel_normed="302.125992" electricity_normed="0"
            traveltime="0.02" CO_perVeh="0.370858" CO2_perVeh="45.054300" HC_perVeh="0.002716" PMx_perVeh="0.000622" NOx_perVeh="0.016882" fuel_perVeh="0.019367" electricity_perVeh="0"/>
        <edge id=":1110673412_0" sampledSeconds="253.35" CO_abs="44553.277106" CO2_abs="3048815.020616" HC_abs="277.471045" PMx_abs="66.877006" NOx_abs="1309.463108" fuel_abs="1310.535489" electricity_abs="0"
            CO_normed="115440.443348" CO2_normed="7899678.329494" HC_normed="718.945554" PMx_normed="173.282679" NOx_normed="3392.904216" fuel_normed="3395.682824" electricity_normed="0"
            traveltime="0.02" CO_perVeh="2.741815" CO2_perVeh="187.624521" HC_perVeh="0.017076" PMx_perVeh="0.004116" NOx_perVeh="0.080585" fuel_perVeh="0.080651" electricity_perVeh="0"/>
        <edge id=":1110673414_0" sampledSeconds="0.00" CO_abs="0" CO2_abs="0" HC_abs="0" PMx_abs="0" NOx_abs="0" fuel_abs="0" electricity_abs="0"
            CO_normed="0" CO2_normed="0" HC_normed="0" PMx_normed="0" NOx_normed="0" fuel_normed="0" electricity_normed="0"/>
        <edge id=":1110673414_1" sampledSeconds="14.60" CO_abs="993.263387" CO2_abs="36551.268956" HC_abs="5.371665" PMx_abs="0.682275" NOx_abs="15.482410" fuel_abs="15.712109" electricity_abs="0"
            CO_normed="82.651931" CO2_normed="3041.522536" HC_normed="0.446990" PMx_normed="0.056774" NOx_normed="1.288330" fuel_normed="1.307444" electricity_normed="0"
            traveltime="1.59" CO_perVeh="108.480508" CO2_perVeh="3991.992727" HC_perVeh="0.586673" PMx_perVeh="0.074515" NOx_perVeh="1.690931" fuel_perVeh="1.716018" electricity_perVeh="0"/>
        <edge id=":1110673417_0" sampledSeconds="29.71" CO_abs="393.348247" CO2_abs="50066.564701" HC_abs="2.937851" PMx_abs="0.652382" NOx_abs="18.519406" fuel_abs="21.521553" electricity_abs="0"
            CO_normed="1055.590609" CO2_normed="134358.792470" HC_normed="7.884025" PMx_normed="1.750735" NOx_normed="49.698736" fuel_normed="57.755309" electricity_normed="0"
            traveltime="0.02" CO_perVeh="0.291948" CO2_perVeh="37.160075" HC_perVeh="0.002181" PMx_perVeh="0.000484" NOx_perVeh="0.013745" fuel_perVeh="0.015974" electricity_perVeh="0"/>
        <edge id=":1110673446_0" sampledSeconds="334.26" CO_abs="3412.715346" CO2_abs="270320.443382" HC_abs="21.934858" PMx_abs="5.007869" NOx_abs="111.047941" fuel_abs="116.198297" electricity_abs="0"
            CO_normed="8547.815519" CO2_normed="677070.615860" HC_normed="54.940157" PMx_normed="12.543190" NOx_normed="278.141367" fuel_normed="291.041446" electricity_normed="0"
            traveltime="0.02" CO_perVeh="0.232969" CO2_perVeh="18.453439" HC_perVeh="0.001497" PMx_perVeh="0.000342" NOx_perVeh="0.007581" fuel_perVeh="0.007932" electricity_perVeh="0"/>
        <edge id=":1110673451_0" sampledSeconds="37.33" CO_abs="401.236536" CO2_abs="29942.705896" HC_abs="2.514128" PMx_abs="0.432041" NOx_abs="11.625694" fuel_abs="12.871185" electricity_abs="0"
            CO_normed="1116.639633" CO2_normed="83330.427595" HC_normed="6.996807" PMx_normed="1.202368" NOx_normed="32.354258" fuel_normed="35.820455" electricity_normed="0"
            traveltime="0.03" CO_perVeh="0.287739" CO2_perVeh="21.472857" HC_perVeh="0.001803" PMx_perVeh="0.000310" NOx_perVeh="0.008337" fuel_perVeh="0.009230" electricity_perVeh="0"/>
        <edge id=":1110673464_0" sampledSeconds="323.65" CO_abs="524.874840" CO2_abs="42847.011957" HC_abs="3.358426" PMx_abs="0.527750" NOx_abs="15.975446" fuel_abs="18.418340" electricity_abs="0"
            CO_normed="27.931701" CO2_normed="2280.143468" HC_normed="0.178722" PMx_normed="0.028085" NOx_normed="0.850148" fuel_normed="0.980149" electricity_normed="0"
            traveltime="1.17" CO_perVeh="1.897353" CO2_perVeh="154.886295" HC_perVeh="0.012140" PMx_perVeh="0.001908" NOx_perVeh="0.057749" fuel_perVeh="0.066580" electricity_perVeh="0"/>
        <edge id=":1110673464_1" sampledSeconds="710.21" CO_abs="16348.946629" CO2_abs="2028466.956536" HC_abs="122.773964" PMx_abs="36.277044" NOx_abs="764.626435" fuel_abs="871.944666" electricity_abs="0"
            CO_normed="852.515189" CO2_normed="105774.330854" HC_normed="6.402044" PMx_normed="1.891665" NOx_normed="39.871416" fuel_normed="45.467521" electricity_normed="0"
            traveltime="0.70" CO_perVeh="16.140084" CO2_perVeh="2002.552685" HC_perVeh="0.121205" PMx_perVeh="0.035814" NOx_perVeh="0.754858" fuel_perVeh="0.860805" electricity_perVeh="0"/>
        <edge id=":1110673479_0" sampledSeconds="133.26" CO_abs="7239.431263" CO2_abs="500338.466932" HC_abs="44.731021" PMx_abs="8.816227" NOx_abs="205.029675" fuel_abs="215.073687" electricity_abs="0"
            CO_normed="18132.576740" CO2_normed="1253195.909662" HC_normed="112.037622" PMx_normed="22.081972" NOx_normed="513.537069" fuel_normed="538.694270" electricity_normed="0"
            traveltime="0.03" CO_perVeh="1.525054" CO2_perVeh="105.400983" HC_perVeh="0.009423" PMx_perVeh="0.001857" NOx_perVeh="0.043191" fuel_perVeh="0.045307" electricity_perVeh="0"/>
        <edge id=":1110673511_0" sampledSeconds="11.74" CO_abs="227.618951" CO2_abs="28010.390661" HC_abs="1.675921" PMx_abs="0.393751" NOx_abs="10.527133" fuel_abs="12.040476" electricity_abs="0"
            CO_normed="570.116347" CO2_normed="70157.522007" HC_normed="4.197673" PMx_normed="0.986227" NOx_normed="26.367272" fuel_normed="30.157735" electricity_normed="0"
            traveltime="0.02" CO_perVeh="0.450731" CO2_perVeh="55.466120" HC_perVeh="0.003319" PMx_perVeh="0.000780" NOx_perVeh="0.020846" fuel_perVeh="0.023843" electricity_perVeh="0"/>
        <edge id=":1110673517_0" sampledSeconds="17.14" CO_abs="773.395770" CO2_abs="55472.701720" HC_abs="4.823601" PMx_abs="0.955017" NOx_abs="22.530597" fuel_abs="23.845310" electricity_abs="0"
            CO_normed="1937.121528" CO2_normed="138942.271057" HC_normed="12.081655" PMx_normed="2.392028" NOx_normed="56.432304" fuel_normed="59.725261" electricity_normed="0"
            traveltime="0.03" CO_perVeh="1.241738" CO2_perVeh="89.065082" HC_perVeh="0.007745" PMx_perVeh="0.001533" NOx_perVeh="0.036174" fuel_perVeh="0.038285" electricity_perVeh="0"/>
        <edge id=":1110673534_0" sampledSeconds="474.95" CO_abs="2474.595449" CO2_abs="215285.645787" HC_abs="16.186041" PMx_abs="2.883240" NOx_abs="81.597550" fuel_abs="92.542831" electricity_abs="0"
            CO_normed="120.118412" CO2_normed="10450.100032" HC_normed="0.785681" PMx_normed="0.139954" NOx_normed="3.960796" fuel_normed="4.492087" electricity_normed="0"
            traveltime="1.43" CO_perVeh="7.454964" CO2_perVeh="648.569365" HC_perVeh="0.048762" PMx_perVeh="0.008686" NOx_perVeh="0.245821" fuel_perVeh="0.278794" electricity_perVeh="0"/>
        <edge id=":1110673534_1" sampledSeconds="183.90" CO_abs="2728.911511" CO2_abs="336036.422392" HC_abs="20.166296" PMx_abs="4.622772" NOx_abs="125.696771" fuel_abs="144.447933" electricity_abs="0"
            CO_normed="128.802034" CO2_normed="15860.600233" HC_normed="0.951830" PMx_normed="0.218190" NOx_normed="5.932768" fuel_normed="6.817805" electricity_normed="0"
            traveltime="1.22" CO_perVeh="18.118993" CO2_perVeh="2231.161205" HC_perVeh="0.133897" PMx_perVeh="0.030694" NOx_perVeh="0.834581" fuel_perVeh="0.959082" electricity_perVeh="0"/>
        <edge id=":1110673549_0" sampledSeconds="59.69" CO_abs="20.481683" CO2_abs="1833.890634" HC_abs="0.133869" PMx_abs="0.017847" NOx_abs="0.652436" fuel_abs="0.788327" electricity_abs="0"
            CO_normed="0.963086" CO2_normed="86.232899" HC_normed="0.006295" PMx_normed="0.000839" NOx_normed="0.030679" fuel_normed="0.037069" electricity_normed="0"
            traveltime="1.24" CO_perVeh="0.426718" CO2_perVeh="38.207549" HC_perVeh="0.002789" PMx_perVeh="0.000372" NOx_perVeh="0.013593" fuel_perVeh="0.016424" electricity_perVeh="0"/>
        <edge id=":1110673549_1" sampledSeconds="639.90" CO_abs="13482.545947" CO2_abs="1860443.714679" HC_abs="105.684814" PMx_abs="32.247335" NOx_abs="690.381038" fuel_abs="799.719930" electricity_abs="0"
            CO_normed="613.250902" CO2_normed="84621.909786" HC_normed="4.807053" PMx_normed="1.466764" NOx_normed="31.401843" fuel_normed="36.375101" electricity_normed="0"
            traveltime="0.81" CO_perVeh="16.975416" CO2_perVeh="2342.421504" HC_perVeh="0.133064" PMx_perVeh="0.040602" NOx_perVeh="0.869235" fuel_perVeh="1.006900" electricity_perVeh="0"/>
        <edge id=":1110673556_0" sampledSeconds="417.19" CO_abs="51831.706064" CO2_abs="2607444.193099" HC_abs="298.027230" PMx_abs="52.680863" NOx_abs="1123.586854" fuel_abs="1120.827118" electricity_abs="0"
            CO_normed="1807.276325" CO2_normed="90916.786600" HC_normed="10.391662" PMx_normed="1.836885" NOx_normed="39.177408" fuel_normed="39.081182" electricity_normed="0"
            traveltime="2.59" CO_perVeh="321.745957" CO2_perVeh="16185.742125" HC_perVeh="1.850008" PMx_perVeh="0.327017" NOx_perVeh="6.974679" fuel_perVeh="6.957548" electricity_perVeh="0"/>
        <edge id=":1110673556_2" sampledSeconds="247.47" CO_abs="23778.865141" CO2_abs="1028675.098646" HC_abs="132.400626" PMx_abs="19.658759" NOx_abs="437.463249" fuel_abs="442.187206" electricity_abs="0"
            CO_normed="866.940839" CO2_normed="37503.911488" HC_normed="4.827123" PMx_normed="0.716728" NOx_normed="15.949237" fuel_normed="16.121465" electricity_normed="0"
            traveltime="3.00" CO_perVeh="288.433595" CO2_perVeh="12477.654215" HC_perVeh="1.605997" PMx_perVeh="0.238457" NOx_perVeh="5.306355" fuel_perVeh="5.363656" electricity_perVeh="0"/>
        <edge id=":1110673556_3" sampledSeconds="411.55" CO_abs="34972.829778" CO2_abs="1246258.929614" HC_abs="188.270940" PMx_abs="23.872212" NOx_abs="532.076516" fuel_abs="535.722998" electricity_abs="0"
            CO_normed="2900.540316" CO2_normed="103360.931682" HC_normed="15.614620" PMx_normed="1.979889" NOx_normed="44.128811" fuel_normed="44.431239" electricity_normed="0"
            traveltime="1.74" CO_perVeh="148.024497" CO2_perVeh="5274.862023" HC_perVeh="0.796867" PMx_perVeh="0.101040" NOx_perVeh="2.252044" fuel_perVeh="2.267478" electricity_perVeh="0"/>
        <edge id=":1110673556_4" sampledSeconds="201.34" CO_abs="20776.737631" CO2_abs="839708.245382" HC_abs="114.310186" PMx_abs="16.366176" NOx_abs="359.721677" fuel_abs="360.958367" electricity_abs="0"
            CO_normed="1052.719177" CO2_normed="42546.476196" HC_normed="5.791887" PMx_normed="0.829244" NOx_normed="18.226437" fuel_normed="18.289098" electricity_normed="0"
            traveltime="2.38" CO_perVeh="245.881495" CO2_perVeh="9937.494637" HC_perVeh="1.352799" PMx_perVeh="0.193685" NOx_perVeh="4.257112" fuel_perVeh="4.271748" electricity_perVeh="0"/>
        <edge id=":1110673556_5" sampledSeconds="24.62" CO_abs="1781.599527" CO2_abs="71296.506574" HC_abs="9.767967" PMx_abs="1.301649" NOx_abs="29.972950" fuel_abs="30.647783" electricity_abs="0"
            CO_normed="125.818583" CO2_normed="5035.040318" HC_normed="0.689825" PMx_normed="0.091924" NOx_normed="2.116724" fuel_normed="2.164381" electricity_normed="0"
            traveltime="1.70" CO_perVeh="123.172313" CO2_perVeh="4929.141195" HC_perVeh="0.675316" PMx_perVeh="0.089991" NOx_perVeh="2.072204" fuel_perVeh="2.118859" electricity_perVeh="0"/>
        <edge id=":1110673556_6" sampledSeconds="492.00" CO_abs="58391.041050" CO2_abs="2848820.372226" HC_abs="333.532569" PMx_abs="57.328954" NOx_abs="1226.460801" fuel_abs="1224.586085" electricity_abs="0"
            CO_normed="2087.323855" CO2_normed="101837.723999" HC_normed="11.922899" PMx_normed="2.049357" NOx_normed="43.842700" fuel_normed="43.775684" electricity_normed="0"
            traveltime="2.64" CO_perVeh="313.343668" CO2_perVeh="15287.616216" HC_perVeh="1.789835" PMx_perVeh="0.307644" NOx_perVeh="6.581553" fuel_perVeh="6.571493" electricity_perVeh="0"/>
        <edge id=":1110673561_0" sampledSeconds="101.70" CO_abs="9746.479056" CO2_abs="680483.508491" HC_abs="60.809705" PMx_abs="14.040481" NOx_abs="289.854220" fuel_abs="292.507200" electricity_abs="0"
            CO_normed="437.752004" CO2_normed="30563.141597" HC_normed="2.731199" PMx_normed="0.630612" NOx_normed="13.018472" fuel_normed="13.137628" electricity_normed="0"
            traveltime="1.20" CO_perVeh="115.017913" CO2_perVeh="8030.365877" HC_perVeh="0.717614" PMx_perVeh="0.165691" NOx_perVeh="3.420561" fuel_perVeh="3.451869" electricity_perVeh="0"/>
        <edge id=":1110673561_1" sampledSeconds="1320.37" CO_abs="119734.233688" CO2_abs="8300116.270825" HC_abs="745.888049" PMx_abs="173.258721" NOx_abs="3547.736594" fuel_abs="3567.819334" electricity_abs="0"
            CO_normed="5242.970153" CO2_normed="363448.786003" HC_normed="32.661242" PMx_normed="7.586722" NOx_normed="155.349698" fuel_normed="156.229089" electricity_normed="0"
            traveltime="1.20" CO_perVeh="108.568358" CO2_perVeh="7526.084762" HC_perVeh="0.676330" PMx_perVeh="0.157101" NOx_perVeh="3.216891" fuel_perVeh="3.235101" electricity_perVeh="0"/>
        <edge id=":1110673562_0" sampledSeconds="104.36" CO_abs="2115.960367" CO2_abs="170373.158190" HC_abs="13.519452" PMx_abs="2.284990" NOx_abs="64.818863" fuel_abs="73.236825" electricity_abs="0"
            CO_normed="5888.709017" CO2_normed="474147.799875" HC_normed="37.624580" PMx_normed="6.359117" NOx_normed="180.390630" fuel_normed="203.817785" electricity_normed="0"
            traveltime="0.03" CO_perVeh="0.539368" CO2_perVeh="43.428894" HC_perVeh="0.003446" PMx_perVeh="0.000582" NOx_perVeh="0.016523" fuel_perVeh="0.018668" electricity_perVeh="0"/>
        <edge id=":1110673564_0" sampledSeconds="28.47" CO_abs="519.831731" CO2_abs="57075.875039" HC_abs="3.681283" PMx_abs="0.827946" NOx_abs="21.714587" fuel_abs="24.534492" electricity_abs="0"
            CO_normed="3906.061851" CO2_normed="428873.200040" HC_normed="27.661490" PMx_normed="6.221264" NOx_normed="163.165340" fuel_normed="184.354355" electricity_normed="0"
            traveltime="7.827651e-03" CO_perVeh="0.142909" CO2_perVeh="15.690962" HC_perVeh="0.001012" PMx_perVeh="0.000228" NOx_perVeh="0.005970" fuel_perVeh="0.006745" electricity_perVeh="0"/>
        <edge id=":1110673588_0" sampledSeconds="11.49" CO_abs="217.438618" CO2_abs="24351.179583" HC_abs="1.553053" PMx_abs="0.361913" NOx_abs="9.296545" fuel_abs="10.467522" electricity_abs="0"
            CO_normed="653.541243" CO2_normed="73190.771445" HC_normed="4.667911" PMx_normed="1.087779" NOx_normed="27.942025" fuel_normed="31.461557" electricity_normed="0"
            traveltime="0.02" CO_perVeh="0.362398" CO2_perVeh="40.585299" HC_perVeh="0.002588" PMx_perVeh="0.000603" NOx_perVeh="0.015494" fuel_perVeh="0.017446" electricity_perVeh="0"/>
        <edge id=":1110673601_0" sampledSeconds="29.64" CO_abs="447.709545" CO2_abs="50359.149927" HC_abs="3.188109" PMx_abs="0.724668" NOx_abs="19.096013" fuel_abs="21.647258" electricity_abs="0"
            CO_normed="1201.474761" CO2_normed="135143.975115" HC_normed="8.555620" PMx_normed="1.944721" NOx_normed="51.246121" fuel_normed="58.092650" electricity_normed="0"
            traveltime="0.02" CO_perVeh="0.332296" CO2_perVeh="37.377235" HC_perVeh="0.002366" PMx_perVeh="0.000538" NOx_perVeh="0.014173" fuel_perVeh="0.016067" electricity_perVeh="0"/>
        <edge id=":1110673617_0" sampledSeconds="238.47" CO_abs="5080.727234" CO2_abs="672432.271383" HC_abs="39.234798" PMx_abs="11.813422" NOx_abs="251.170976" fuel_abs="289.047861" electricity_abs="0"
            CO_normed="12725.678734" CO2_normed="1684238.625880" HC_normed="98.271254" PMx_normed="29.589034" NOx_normed="629.107015" fuel_normed="723.977110" electricity_normed="0"
            traveltime="0.01" CO_perVeh="0.311293" CO2_perVeh="41.199571" HC_perVeh="0.002404" PMx_perVeh="0.000724" NOx_perVeh="0.015389" fuel_perVeh="0.017710" electricity_perVeh="0"/>
        <edge id=":1110673621_0" sampledSeconds="25.62" CO_abs="429.985091" CO2_abs="50502.661159" HC_abs="3.117761" PMx_abs="0.707669" NOx_abs="19.007559" fuel_abs="21.708964" electricity_abs="0"
            CO_normed="1292.378482" CO2_normed="151792.594592" HC_normed="9.370854" PMx_normed="2.126997" NOx_normed="57.129796" fuel_normed="65.249234" electricity_normed="0"
            traveltime="0.02" CO_perVeh="0.325746" CO2_perVeh="38.259592" HC_perVeh="0.002362" PMx_perVeh="0.000536" NOx_perVeh="0.014400" fuel_perVeh="0.016446" electricity_perVeh="0"/>
        <edge id=":1110673630_0" sampledSeconds="54.54" CO_abs="231.096165" CO2_abs="22129.731208" HC_abs="1.551130" PMx_abs="0.263557" NOx_abs="8.146054" fuel_abs="9.512734" electricity_abs="0"
            CO_normed="12.385714" CO2_normed="1186.053980" HC_normed="0.083134" PMx_normed="0.014125" NOx_normed="0.436592" fuel_normed="0.509840" electricity_normed="0"
            traveltime="1.27" CO_perVeh="5.394193" CO2_perVeh="516.547069" HC_perVeh="0.036206" PMx_perVeh="0.006152" NOx_perVeh="0.190143" fuel_perVeh="0.222044" electricity_perVeh="0"/>
        <edge id=":1110673630_1" sampledSeconds="7.53" CO_abs="28.335855" CO2_abs="3006.339663" HC_abs="0.197133" PMx_abs="0.035720" NOx_abs="1.102483" fuel_abs="1.292310" electricity_abs="0"
            CO_normed="1.851462" CO2_normed="196.433944" HC_normed="0.012881" PMx_normed="0.002334" NOx_normed="0.072036" fuel_normed="0.084439" electricity_normed="0"
            traveltime="1.07" CO_perVeh="4.010613" CO2_perVeh="425.512691" HC_perVeh="0.027902" PMx_perVeh="0.005056" NOx_perVeh="0.156044" fuel_perVeh="0.182912" electricity_perVeh="0"/>
        <edge id=":1110673650_0" sampledSeconds="143.00" CO_abs="2324.118779" CO2_abs="280772.531050" HC_abs="17.035169" PMx_abs="3.951659" NOx_abs="105.652342" fuel_abs="120.692199" electricity_abs="0"
            CO_normed="5821.211719" CO2_normed="703249.921227" HC_normed="42.667926" PMx_normed="9.897706" NOx_normed="264.627032" fuel_normed="302.297306" electricity_normed="0"
            traveltime="0.02" CO_perVeh="0.373981" CO2_perVeh="45.179962" HC_perVeh="0.002741" PMx_perVeh="0.000636" NOx_perVeh="0.017001" fuel_perVeh="0.019421" electricity_perVeh="0"/>
        <edge id=":1110673655_0" sampledSeconds="45.14" CO_abs="776.176532" CO2_abs="89991.723246" HC_abs="5.598399" PMx_abs="1.239987" NOx_abs="33.795302" fuel_abs="38.683681" electricity_abs="0"
            CO_normed="1944.086493" CO2_normed="225401.936745" HC_normed="14.022288" PMx_normed="3.105791" NOx_normed="84.646969" fuel_normed="96.890873" electricity_normed="0"
            traveltime="0.02" CO_perVeh="0.415401" CO2_perVeh="48.162616" HC_perVeh="0.002996" PMx_perVeh="0.000664" NOx_perVeh="0.018087" fuel_perVeh="0.020703" electricity_perVeh="0"/>
        <edge id=":1110673663_0" sampledSeconds="107.94" CO_abs="1630.709598" CO2_abs="196752.124520" HC_abs="11.906973" PMx_abs="2.710062" NOx_abs="73.605320" fuel_abs="84.575483" electricity_abs="0"
            CO_normed="74.806452" CO2_normed="9025.720135" HC_normed="0.546215" PMx_normed="0.124320" NOx_normed="3.376538" fuel_normed="3.879778" electricity_normed="0"
            traveltime="1.27" CO_perVeh="19.153454" CO2_perVeh="2310.946521" HC_perVeh="0.139853" PMx_perVeh="0.031831" NOx_perVeh="0.864529" fuel_perVeh="0.993379" electricity_perVeh="0"/>
        <edge id=":1110673663_1" sampledSeconds="153.71" CO_abs="2519.113937" CO2_abs="312551.524670" HC_abs="18.524299" PMx_abs="4.257246" NOx_abs="116.589144" fuel_abs="134.352790" electricity_abs="0"
            CO_normed="115.701993" CO2_normed="14355.378652" HC_normed="0.850814" PMx_normed="0.195534" NOx_normed="5.354897" fuel_normed="6.170775" electricity_normed="0"
            traveltime="1.24" CO_perVeh="20.391824" CO2_perVeh="2530.054546" HC_perVeh="0.149951" PMx_perVeh="0.034462" NOx_perVeh="0.943770" fuel_perVeh="1.087564" electricity_perVeh="0"/>
        <edge id=":1110673666_0" sampledSeconds="191.59" CO_abs="4108.460422" CO2_abs="330417.950932" HC_abs="26.248304" PMx_abs="4.492208" NOx_abs="126.080710" fuel_abs="142.033799" electricity_abs="0"