<?xml version="1.0" encoding="UTF-8"?>

<!-- generated on Tue Nov 10 02:43:57 2020 by Eclipse SUMO sumo Version 1.7.0
<configuration xmlns:xsi="http://www.w3.org/2001/XMLSchema-instance" xsi:noNamespaceSchemaLocation="http://sumo.dlr.de/xsd/sumoConfiguration.xsd">

    <input>
        <net-file value="../dataSets/Porto/6AM7AM_Routing_SaoBento/Porto.net.xml"/>
        <route-files value="../results/Porto/6AM7AM_Routing_SaoBento/cost_hc-cost_nox/solution1/Porto.rou.xml"/>
        <additional-files value="moreOutputInfo.xml"/>
    </input>

    <output>
        <emission-output.precision value="6"/>
        <tripinfo-output value="../results/Porto/6AM7AM_Routing_SaoBento/cost_hc-cost_nox/solution1/Porto-tripinfo"/>
    </output>

    <processing>
        <collision.action value="warn"/>
        <time-to-teleport value="-1"/>
    </processing>

    <emissions>
        <device.emissions.probability value="1"/>
    </emissions>

    <gui_only>
        <quit-on-end value="true"/>
        <start value="true"/>
    </gui_only>

</configuration>
-->

<meandata xmlns:xsi="http://www.w3.org/2001/XMLSchema-instance" xsi:noNamespaceSchemaLocation="http://sumo.dlr.de/xsd/meandata_file.xsd">
    <interval begin="0.00" end="4700.00" id="emissions-detector">
        <edge id=":1092997347_0" sampledSeconds="269.65" CO_abs="34630.691532" CO2_abs="1364110.877806" HC_abs="189.930508" PMx_abs="27.913542" NOx_abs="592.779746" fuel_abs="586.377687" electricity_abs="0"
            CO_normed="60285.536516" CO2_normed="2374661.102564" HC_normed="330.633380" PMx_normed="48.592240" NOx_normed="1031.918320" fuel_normed="1020.773536" electricity_normed="0"
            traveltime="0.08" CO_perVeh="9.767479" CO2_perVeh="384.743232" HC_perVeh="0.053569" PMx_perVeh="0.007873" NOx_perVeh="0.167192" fuel_perVeh="0.165386" electricity_perVeh="0"/>
        <edge id=":1103427051_0" sampledSeconds="11.07" CO_abs="865.932035" CO2_abs="48761.015017" HC_abs="5.098274" PMx_abs="0.944260" NOx_abs="20.726065" fuel_abs="20.960221" electricity_abs="0"
            CO_normed="2287.127900" CO2_normed="128789.181264" HC_normed="13.465728" PMx_normed="2.494011" NOx_normed="54.742358" fuel_normed="55.360818" electricity_normed="0"
            traveltime="0.03" CO_perVeh="2.372641" CO2_perVeh="133.604444" HC_perVeh="0.013969" PMx_perVeh="0.002587" NOx_perVeh="0.056789" fuel_perVeh="0.057431" electricity_perVeh="0"/>
        <edge id=":1105984386_0" sampledSeconds="23.07" CO_abs="533.038953" CO2_abs="42989.495723" HC_abs="3.400138" PMx_abs="0.539917" NOx_abs="16.128683" fuel_abs="18.479574" electricity_abs="0"
            CO_normed="42.047905" CO2_normed="3391.155961" HC_normed="0.268214" PMx_normed="0.042590" NOx_normed="1.272285" fuel_normed="1.457731" electricity_normed="0"
            traveltime="0.97" CO_perVeh="22.371232" CO2_perVeh="1804.235838" HC_perVeh="0.142701" PMx_perVeh="0.022660" NOx_perVeh="0.676908" fuel_perVeh="0.775573" electricity_perVeh="0"/>
        <edge id=":1105984390_0" sampledSeconds="23.35" CO_abs="8.733997" CO2_abs="1039.491708" HC_abs="0.062740" PMx_abs="0.009169" NOx_abs="0.360480" fuel_abs="0.446841" electricity_abs="0"
            CO_normed="0.532633" CO2_normed="63.392230" HC_normed="0.003826" PMx_normed="0.000559" NOx_normed="0.021983" fuel_normed="0.027250" electricity_normed="0"
            traveltime="1.06" CO_perVeh="0.396082" CO2_perVeh="47.140439" HC_perVeh="0.002845" PMx_perVeh="0.000416" NOx_perVeh="0.016348" fuel_perVeh="0.020264" electricity_perVeh="0"/>
        <edge id=":1105984390_1" sampledSeconds="644.80" CO_abs="14733.245988" CO2_abs="1922226.115920" HC_abs="112.905482" PMx_abs="33.911412" NOx_abs="718.886995" fuel_abs="826.276964" electricity_abs="0"
            CO_normed="859.485109" CO2_normed="112135.826957" HC_normed="6.586504" PMx_normed="1.978271" NOx_normed="41.937307" fuel_normed="48.202056" electricity_normed="0"
            traveltime="0.64" CO_perVeh="14.514712" CO2_perVeh="1893.714353" HC_perVeh="0.111231" PMx_perVeh="0.033408" NOx_perVeh="0.708224" fuel_perVeh="0.814021" electricity_perVeh="0"/>
        <edge id=":1105984395_0" sampledSeconds="8.96" CO_abs="199.924999" CO2_abs="15394.851953" HC_abs="1.262630" PMx_abs="0.215395" NOx_abs="5.926485" fuel_abs="6.617644" electricity_abs="0"
            CO_normed="166.450046" CO2_normed="12817.175539" HC_normed="1.051218" PMx_normed="0.179329" NOx_normed="4.934169" fuel_normed="5.509601" electricity_normed="0"
            traveltime="0.09" CO_perVeh="2.027458" CO2_perVeh="156.120633" HC_perVeh="0.012804" PMx_perVeh="0.002184" NOx_perVeh="0.060101" fuel_perVeh="0.067110" electricity_perVeh="0"/>
        <edge id=":1105984398_0" sampledSeconds="24.30" CO_abs="1392.293473" CO2_abs="96763.064969" HC_abs="8.625158" PMx_abs="1.754606" NOx_abs="39.971970" fuel_abs="41.594139" electricity_abs="0"
            CO_normed="88.208234" CO2_normed="6130.387940" HC_normed="0.546444" PMx_normed="0.111162" NOx_normed="2.532409" fuel_normed="2.635181" electricity_normed="0"
            traveltime="1.12" CO_perVeh="64.035397" CO2_perVeh="4450.398840" HC_perVeh="0.396695" PMx_perVeh="0.080699" NOx_perVeh="1.838421" fuel_perVeh="1.913029" electricity_perVeh="0"/>
        <edge id=":1105984398_1" sampledSeconds="448.77" CO_abs="7368.953762" CO2_abs="893865.936472" HC_abs="54.002399" PMx_abs="12.560521" NOx_abs="336.045354" fuel_abs="384.235049" electricity_abs="0"
            CO_normed="451.905925" CO2_normed="54816.915171" HC_normed="3.311733" PMx_normed="0.770282" NOx_normed="20.608202" fuel_normed="23.563467" electricity_normed="0"
            traveltime="0.95" CO_perVeh="15.617906" CO2_perVeh="1894.477053" HC_perVeh="0.114454" PMx_perVeh="0.026621" NOx_perVeh="0.712221" fuel_perVeh="0.814355" electricity_perVeh="0"/>
        <edge id=":1106006327_0" sampledSeconds="287.92" CO_abs="38888.189626" CO2_abs="1266561.189640" HC_abs="206.892064" PMx_abs="26.426940" NOx_abs="554.458748" fuel_abs="544.449810" electricity_abs="0"
            CO_normed="3361.929846" CO2_normed="109495.708244" HC_normed="17.886063" PMx_normed="2.284640" NOx_normed="47.933613" fuel_normed="47.068328" electricity_normed="0"
            traveltime="2.08" CO_perVeh="281.287746" CO2_perVeh="9161.345530" HC_perVeh="1.496501" PMx_perVeh="0.191152" NOx_perVeh="4.010535" fuel_perVeh="3.938138" electricity_perVeh="0"/>
        <edge id=":1106006327_1" sampledSeconds="162.37" CO_abs="22024.190044" CO2_abs="733456.382087" HC_abs="117.571905" PMx_abs="15.317664" NOx_abs="321.079906" fuel_abs="315.286493" electricity_abs="0"
            CO_normed="1660.392950" CO2_normed="55294.919072" HC_normed="8.863689" PMx_normed="1.154791" NOx_normed="24.206058" fuel_normed="23.769295" electricity_normed="0"
            traveltime="2.31" CO_perVeh="312.661763" CO2_perVeh="10412.358655" HC_perVeh="1.669085" PMx_perVeh="0.217454" NOx_perVeh="4.558143" fuel_perVeh="4.475898" electricity_perVeh="0"/>
        <edge id=":1106006327_2" sampledSeconds="0.00" CO_abs="0" CO2_abs="0" HC_abs="0" PMx_abs="0" NOx_abs="0" fuel_abs="0" electricity_abs="0"
            CO_normed="0" CO2_normed="0" HC_normed="0" PMx_normed="0" NOx_normed="0" fuel_normed="0" electricity_normed="0"/>
        <edge id=":1106006327_3" sampledSeconds="0.00" CO_abs="0" CO2_abs="0" HC_abs="0" PMx_abs="0" NOx_abs="0" fuel_abs="0" electricity_abs="0"
            CO_normed="0" CO2_normed="0" HC_normed="0" PMx_normed="0" NOx_normed="0" fuel_normed="0" electricity_normed="0"/>
        <edge id=":1107381198_0" sampledSeconds="0.00" CO_abs="0" CO2_abs="0" HC_abs="0" PMx_abs="0" NOx_abs="0" fuel_abs="0" electricity_abs="0"
            CO_normed="0" CO2_normed="0" HC_normed="0" PMx_normed="0" NOx_normed="0" fuel_normed="0" electricity_normed="0"/>
        <edge id=":1107381198_1" sampledSeconds="35.41" CO_abs="1413.972137" CO2_abs="59821.006517" HC_abs="7.823989" PMx_abs="1.061065" NOx_abs="24.948628" fuel_abs="25.714860" electricity_abs="0"
            CO_normed="118.107142" CO2_normed="4996.766131" HC_normed="0.653527" PMx_normed="0.088629" NOx_normed="2.083924" fuel_normed="2.147927" electricity_normed="0"
            traveltime="1.46" CO_perVeh="58.217154" CO2_perVeh="2462.996721" HC_perVeh="0.322135" PMx_perVeh="0.043687" NOx_perVeh="1.027204" fuel_perVeh="1.058752" electricity_perVeh="0"/>
        <edge id=":1110338277_0" sampledSeconds="97.01" CO_abs="1500.072883" CO2_abs="179719.838598" HC_abs="10.933167" PMx_abs="2.441081" NOx_abs="67.158687" fuel_abs="77.254067" electricity_abs="0"
            CO_normed="4103.542841" CO2_normed="491634.816833" HC_normed="29.908359" PMx_normed="6.677729" NOx_normed="183.716773" fuel_normed="211.333315" electricity_normed="0"
            traveltime="0.02" CO_perVeh="0.338069" CO2_perVeh="40.503179" HC_perVeh="0.002464" PMx_perVeh="0.000550" NOx_perVeh="0.015135" fuel_perVeh="0.017411" electricity_perVeh="0"/>
        <edge id=":1110338293_0" sampledSeconds="124.00" CO_abs="6014.118670" CO2_abs="418480.633827" HC_abs="37.199340" PMx_abs="7.224790" NOx_abs="170.502329" fuel_abs="179.886769" electricity_abs="0"
            CO_normed="15355.196603" CO2_normed="1068461.192750" HC_normed="94.977038" PMx_normed="18.446273" NOx_normed="435.325096" fuel_normed="459.285369" electricity_normed="0"
            traveltime="0.03" CO_perVeh="1.379445" CO2_perVeh="95.985971" HC_perVeh="0.008532" PMx_perVeh="0.001657" NOx_perVeh="0.039108" fuel_perVeh="0.041260" electricity_perVeh="0"/>
        <edge id=":1110338295_0" sampledSeconds="0.00" CO_abs="0" CO2_abs="0" HC_abs="0" PMx_abs="0" NOx_abs="0" fuel_abs="0" electricity_abs="0"
            CO_normed="0" CO2_normed="0" HC_normed="0" PMx_normed="0" NOx_normed="0" fuel_normed="0" electricity_normed="0"/>
        <edge id=":1110673403_0" sampledSeconds="143.61" CO_abs="2305.525695" CO2_abs="291510.211798" HC_abs="17.189818" PMx_abs="3.983079" NOx_abs="108.803586" fuel_abs="125.307978" electricity_abs="0"
            CO_normed="5886.448582" CO2_normed="744281.391826" HC_normed="43.888897" PMx_normed="10.169563" NOx_normed="277.796390" fuel_normed="319.935262" electricity_normed="0"
            traveltime="0.02" CO_perVeh="0.370167" CO2_perVeh="46.803887" HC_perVeh="0.002760" PMx_perVeh="0.000640" NOx_perVeh="0.017469" fuel_perVeh="0.020119" electricity_perVeh="0"/>
        <edge id=":1110673412_0" sampledSeconds="252.40" CO_abs="45672.294880" CO2_abs="3107771.809763" HC_abs="284.035594" PMx_abs="68.377774" NOx_abs="1336.552993" fuel_abs="1335.877969" electricity_abs="0"
            CO_normed="120631.153022" CO2_normed="8208348.140241" HC_normed="750.204062" PMx_normed="180.601605" NOx_normed="3530.147303" fuel_normed="3528.364408" electricity_normed="0"
            traveltime="0.02" CO_perVeh="2.810453" CO2_perVeh="191.237317" HC_perVeh="0.017478" PMx_perVeh="0.004208" NOx_perVeh="0.082245" fuel_perVeh="0.082203" electricity_perVeh="0"/>
        <edge id=":1110673414_0" sampledSeconds="0.00" CO_abs="0" CO2_abs="0" HC_abs="0" PMx_abs="0" NOx_abs="0" fuel_abs="0" electricity_abs="0"
            CO_normed="0" CO2_normed="0" HC_normed="0" PMx_normed="0" NOx_normed="0" fuel_normed="0" electricity_normed="0"/>
        <edge id=":1110673414_1" sampledSeconds="132.00" CO_abs="8676.030604" CO2_abs="333099.208379" HC_abs="47.222217" PMx_abs="6.055004" NOx_abs="140.033049" fuel_abs="143.187596" electricity_abs="0"
            CO_normed="735.932475" CO2_normed="28254.686510" HC_normed="4.005560" PMx_normed="0.513607" NOx_normed="11.878113" fuel_normed="12.145693" electricity_normed="0"
            traveltime="1.57" CO_perVeh="103.370572" CO2_perVeh="3968.710716" HC_perVeh="0.562629" PMx_perVeh="0.072142" NOx_perVeh="1.668424" fuel_perVeh="1.706009" electricity_perVeh="0"/>
        <edge id=":1110673417_0" sampledSeconds="29.96" CO_abs="476.286780" CO2_abs="54777.119985" HC_abs="3.428825" PMx_abs="0.758254" NOx_abs="20.591581" fuel_abs="23.546394" electricity_abs="0"
            CO_normed="1302.912164" CO2_normed="149846.224882" HC_normed="9.379764" PMx_normed="2.074251" NOx_normed="56.329552" fuel_normed="64.412627" electricity_normed="0"
            traveltime="0.02" CO_perVeh="0.353506" CO2_perVeh="40.656312" HC_perVeh="0.002545" PMx_perVeh="0.000563" NOx_perVeh="0.015283" fuel_perVeh="0.017476" electricity_perVeh="0"/>
        <edge id=":1110673446_0" sampledSeconds="333.95" CO_abs="3309.957630" CO2_abs="277173.279762" HC_abs="21.600394" PMx_abs="5.000414" NOx_abs="112.592337" fuel_abs="119.144098" electricity_abs="0"
            CO_normed="8450.955652" CO2_normed="707676.458966" HC_normed="55.149943" PMx_normed="12.767016" NOx_normed="287.469798" fuel_normed="304.197698" electricity_normed="0"
            traveltime="0.02" CO_perVeh="0.225753" CO2_perVeh="18.904408" HC_perVeh="0.001473" PMx_perVeh="0.000341" NOx_perVeh="0.007679" fuel_perVeh="0.008126" electricity_perVeh="0"/>
        <edge id=":1110673451_0" sampledSeconds="37.69" CO_abs="424.001303" CO2_abs="29553.706725" HC_abs="2.612498" PMx_abs="0.452179" NOx_abs="11.672502" fuel_abs="12.703951" electricity_abs="0"
            CO_normed="1202.840575" CO2_normed="83840.302765" HC_normed="7.411342" PMx_normed="1.282777" NOx_normed="33.113481" fuel_normed="36.039577" electricity_normed="0"
            traveltime="0.03" CO_perVeh="0.304065" CO2_perVeh="21.193893" HC_perVeh="0.001874" PMx_perVeh="0.000324" NOx_perVeh="0.008371" fuel_perVeh="0.009110" electricity_perVeh="0"/>
        <edge id=":1110673464_0" sampledSeconds="323.63" CO_abs="777.572267" CO2_abs="56818.321180" HC_abs="4.845784" PMx_abs="0.829755" NOx_abs="22.132942" fuel_abs="24.423947" electricity_abs="0"
            CO_normed="42.180401" CO2_normed="3082.182452" HC_normed="0.262866" PMx_normed="0.045011" NOx_normed="1.200630" fuel_normed="1.324908" electricity_normed="0"
            traveltime="1.17" CO_perVeh="2.810821" CO2_perVeh="205.390735" HC_perVeh="0.017517" PMx_perVeh="0.002999" NOx_perVeh="0.080008" fuel_perVeh="0.088289" electricity_perVeh="0"/>
        <edge id=":1110673464_1" sampledSeconds="709.14" CO_abs="16288.361037" CO2_abs="2118887.826070" HC_abs="124.992464" PMx_abs="37.433364" NOx_abs="793.426829" fuel_abs="910.812779" electricity_abs="0"
            CO_normed="865.800932" CO2_normed="112628.584964" HC_normed="6.643921" PMx_normed="1.989755" NOx_normed="42.174267" fuel_normed="48.413867" electricity_normed="0"
            traveltime="0.70" CO_perVeh="16.080356" CO2_perVeh="2091.829224" HC_perVeh="0.123396" PMx_perVeh="0.036955" NOx_perVeh="0.783295" fuel_perVeh="0.899182" electricity_perVeh="0"/>
        <edge id=":1110673479_0" sampledSeconds="133.45" CO_abs="7221.342897" CO2_abs="495860.847762" HC_abs="44.544235" PMx_abs="8.756100" NOx_abs="203.403142" fuel_abs="213.148956" electricity_abs="0"
            CO_normed="18437.471226" CO2_normed="1266027.696414" HC_normed="113.729961" PMx_normed="22.356000" NOx_normed="519.327172" fuel_normed="544.210101" electricity_normed="0"
            traveltime="0.03" CO_perVeh="1.521244" CO2_perVeh="104.457731" HC_perVeh="0.009384" PMx_perVeh="0.001845" NOx_perVeh="0.042849" fuel_perVeh="0.044902" electricity_perVeh="0"/>
        <edge id=":1110673511_0" sampledSeconds="11.63" CO_abs="202.598985" CO2_abs="24427.932006" HC_abs="1.470190" PMx_abs="0.335973" NOx_abs="9.142807" fuel_abs="10.500541" electricity_abs="0"
            CO_normed="517.274004" CO2_normed="62369.188101" HC_normed="3.753677" PMx_normed="0.857804" NOx_normed="23.343337" fuel_normed="26.809893" electricity_normed="0"
            traveltime="0.02" CO_perVeh="0.401186" CO2_perVeh="48.372143" HC_perVeh="0.002911" PMx_perVeh="0.000665" NOx_perVeh="0.018105" fuel_perVeh="0.020793" electricity_perVeh="0"/>
        <edge id=":1110673517_0" sampledSeconds="17.17" CO_abs="662.420239" CO2_abs="50482.701100" HC_abs="4.194171" PMx_abs="0.823385" NOx_abs="20.170834" fuel_abs="21.700364" electricity_abs="0"
            CO_normed="1691.285716" CO2_normed="128892.002809" HC_normed="10.708522" PMx_normed="2.102258" NOx_normed="51.500001" fuel_normed="55.405184" electricity_normed="0"
            traveltime="0.03" CO_perVeh="1.063559" CO2_perVeh="81.053307" HC_perVeh="0.006734" PMx_perVeh="0.001322" NOx_perVeh="0.032386" fuel_perVeh="0.034841" electricity_perVeh="0"/>
        <edge id=":1110673534_0" sampledSeconds="475.45" CO_abs="2858.663587" CO2_abs="263340.142349" HC_abs="19.042784" PMx_abs="3.530560" NOx_abs="99.553117" fuel_abs="113.199448" electricity_abs="0"
            CO_normed="141.447976" CO2_normed="13030.190121" HC_normed="0.942246" PMx_normed="0.174694" NOx_normed="4.925934" fuel_normed="5.601160" electricity_normed="0"
            traveltime="1.43" CO_perVeh="8.612008" CO2_perVeh="793.338303" HC_perVeh="0.057368" PMx_perVeh="0.010636" NOx_perVeh="0.299914" fuel_perVeh="0.341025" electricity_perVeh="0"/>
        <edge id=":1110673534_1" sampledSeconds="184.64" CO_abs="2789.943044" CO2_abs="341962.552808" HC_abs="20.570693" PMx_abs="4.739579" NOx_abs="128.103128" fuel_abs="146.995285" electricity_abs="0"
            CO_normed="134.232265" CO2_normed="16452.811800" HC_normed="0.989716" PMx_normed="0.228035" NOx_normed="6.163414" fuel_normed="7.072370" electricity_normed="0"
            traveltime="1.23" CO_perVeh="18.524264" CO2_perVeh="2270.513981" HC_perVeh="0.136582" PMx_perVeh="0.031469" NOx_perVeh="0.850561" fuel_perVeh="0.975998" electricity_perVeh="0"/>
        <edge id=":1110673549_0" sampledSeconds="59.92" CO_abs="69.719310" CO2_abs="6833.524461" HC_abs="0.475995" PMx_abs="0.100902" NOx_abs="2.627959" fuel_abs="2.937444" electricity_abs="0"
            CO_normed="3.341804" CO2_normed="327.546242" HC_normed="0.022816" PMx_normed="0.004836" NOx_normed="0.125964" fuel_normed="0.140798" electricity_normed="0"
            traveltime="1.25" CO_perVeh="1.452542" CO2_perVeh="142.370661" HC_perVeh="0.009917" PMx_perVeh="0.002102" NOx_perVeh="0.054751" fuel_perVeh="0.061199" electricity_perVeh="0"/>
        <edge id=":1110673549_1" sampledSeconds="638.74" CO_abs="14751.230381" CO2_abs="1921906.486444" HC_abs="113.058849" PMx_abs="33.883161" NOx_abs="719.346301" fuel_abs="826.139564" electricity_abs="0"
            CO_normed="683.947625" CO2_normed="89110.083860" HC_normed="5.242026" PMx_normed="1.571008" NOx_normed="33.352824" fuel_normed="38.304343" electricity_normed="0"
            traveltime="0.80" CO_perVeh="18.572522" CO2_perVeh="2419.774472" HC_perVeh="0.142347" PMx_perVeh="0.042661" NOx_perVeh="0.905692" fuel_perVeh="1.040150" electricity_perVeh="0"/>
        <edge id=":1110673556_0" sampledSeconds="412.46" CO_abs="51646.128636" CO2_abs="2612793.192021" HC_abs="297.356814" PMx_abs="52.964288" NOx_abs="1126.718054" fuel_abs="1123.125935" electricity_abs="0"
            CO_normed="1835.672243" CO2_normed="92867.211248" HC_normed="10.569033" PMx_normed="1.882524" NOx_normed="40.047243" fuel_normed="39.919567" electricity_normed="0"
            traveltime="2.56" CO_perVeh="320.593983" CO2_perVeh="16218.946102" HC_perVeh="1.845846" PMx_perVeh="0.328776" NOx_perVeh="6.994116" fuel_perVeh="6.971818" electricity_perVeh="0"/>
        <edge id=":1110673556_2" sampledSeconds="251.21" CO_abs="24337.167936" CO2_abs="1038487.538990" HC_abs="135.202233" PMx_abs="20.059918" NOx_abs="443.136676" fuel_abs="446.405135" electricity_abs="0"
            CO_normed="904.475255" CO2_normed="38594.724110" HC_normed="5.024704" PMx_normed="0.745514" NOx_normed="16.468891" fuel_normed="16.590361" electricity_normed="0"
            traveltime="3.05" CO_perVeh="295.205183" CO2_perVeh="12596.654844" HC_perVeh="1.639977" PMx_perVeh="0.243323" NOx_perVeh="5.375163" fuel_perVeh="5.414809" electricity_perVeh="0"/>
        <edge id=":1110673556_3" sampledSeconds="361.26" CO_abs="31244.318431" CO2_abs="1114422.563097" HC_abs="168.233100" PMx_abs="21.394101" NOx_abs="476.090926" fuel_abs="479.051072" electricity_abs="0"
            CO_normed="2641.481057" CO2_normed="94216.364359" HC_normed="14.222891" PMx_normed="1.808716" NOx_normed="40.250043" fuel_normed="40.500302" electricity_normed="0"
            traveltime="1.74" CO_perVeh="150.718536" CO2_perVeh="5375.829760" HC_perVeh="0.811535" PMx_perVeh="0.103202" NOx_perVeh="2.296601" fuel_perVeh="2.310880" electricity_perVeh="0"/>
        <edge id=":1110673556_4" sampledSeconds="184.32" CO_abs="18954.142425" CO2_abs="759985.265209" HC_abs="104.142800" PMx_abs="14.849327" NOx_abs="325.813933" fuel_abs="326.688587" electricity_abs="0"
            CO_normed="978.966051" CO2_normed="39252.621264" HC_normed="5.378891" PMx_normed="0.766956" NOx_normed="16.828025" fuel_normed="16.873200" electricity_normed="0"
            traveltime="2.41" CO_perVeh="247.516759" CO2_perVeh="9924.431583" HC_perVeh="1.359971" PMx_perVeh="0.193913" NOx_perVeh="4.254712" fuel_perVeh="4.266133" electricity_perVeh="0"/>
        <edge id=":1110673556_5" sampledSeconds="24.04" CO_abs="1450.097067" CO2_abs="60969.896300" HC_abs="8.029698" PMx_abs="1.158114" NOx_abs="25.917382" fuel_abs="26.208617" electricity_abs="0"
            CO_normed="104.390286" CO2_normed="4389.130273" HC_normed="0.578046" PMx_normed="0.083371" NOx_normed="1.865753" fuel_normed="1.886719" electricity_normed="0"
            traveltime="1.66" CO_perVeh="100.253624" CO2_perVeh="4215.202707" HC_perVeh="0.555140" PMx_perVeh="0.080067" NOx_perVeh="1.791819" fuel_perVeh="1.811954" electricity_perVeh="0"/>
        <edge id=":1110673556_6" sampledSeconds="311.51" CO_abs="37737.241461" CO2_abs="1918024.465770" HC_abs="217.466681" PMx_abs="38.718216" NOx_abs="825.674475" fuel_abs="824.475274" electricity_abs="0"
            CO_normed="1375.124696" CO2_normed="69891.775581" HC_normed="7.924368" PMx_normed="1.410871" NOx_normed="30.087132" fuel_normed="30.043434" electricity_normed="0"
            traveltime="2.47" CO_perVeh="298.848595" CO2_perVeh="15189.210857" HC_perVeh="1.722161" PMx_perVeh="0.306617" NOx_perVeh="6.538678" fuel_perVeh="6.529181" electricity_perVeh="0"/>
        <edge id=":1110673561_0" sampledSeconds="100.54" CO_abs="10148.159670" CO2_abs="716572.222359" HC_abs="63.477948" PMx_abs="14.632813" NOx_abs="304.188269" fuel_abs="308.020144" electricity_abs="0"
            CO_normed="464.617960" CO2_normed="32807.162576" HC_normed="2.906241" PMx_normed="0.669941" NOx_normed="13.926794" fuel_normed="14.102231" electricity_normed="0"
            traveltime="1.19" CO_perVeh="119.758134" CO2_perVeh="8456.247729" HC_perVeh="0.749101" PMx_perVeh="0.172681" NOx_perVeh="3.589717" fuel_perVeh="3.634937" electricity_perVeh="0"/>
        <edge id=":1110673561_1" sampledSeconds="1312.93" CO_abs="121201.087366" CO2_abs="8415904.398033" HC_abs="755.384171" PMx_abs="175.704370" NOx_abs="3596.313814" fuel_abs="3617.590956" electricity_abs="0"
            CO_normed="5409.957776" CO2_normed="375654.116859" HC_normed="33.717490" PMx_normed="7.842778" NOx_normed="160.525836" fuel_normed="161.475567" electricity_normed="0"
            traveltime="1.19" CO_perVeh="110.067749" CO2_perVeh="7642.832840" HC_perVeh="0.685996" PMx_perVeh="0.159564" NOx_perVeh="3.265962" fuel_perVeh="3.285285" electricity_perVeh="0"/>
        <edge id=":1110673562_0" sampledSeconds="104.03" CO_abs="2225.912845" CO2_abs="182821.297126" HC_abs="14.290934" PMx_abs="2.371701" NOx_abs="68.962394" fuel_abs="78.587891" electricity_abs="0"
            CO_normed="6314.646368" CO2_normed="518641.977664" HC_normed="40.541658" PMx_normed="6.728230" NOx_normed="195.637996" fuel_normed="222.944371" electricity_normed="0"
            traveltime="0.03" CO_perVeh="0.567395" CO2_perVeh="46.601981" HC_perVeh="0.003643" PMx_perVeh="0.000605" NOx_perVeh="0.017579" fuel_perVeh="0.020032" electricity_perVeh="0"/>
        <edge id=":1110673564_0" sampledSeconds="28.72" CO_abs="493.839181" CO2_abs="59193.762289" HC_abs="3.598463" PMx_abs="0.801179" NOx_abs="22.109077" fuel_abs="25.444934" electricity_abs="0"
            CO_normed="3782.597986" CO2_normed="453399.030298" HC_normed="27.562694" PMx_normed="6.136692" NOx_normed="169.346122" fuel_normed="194.897368" electricity_normed="0"
            traveltime="7.896488e-03" CO_perVeh="0.135763" CO2_perVeh="16.273199" HC_perVeh="0.000989" PMx_perVeh="0.000220" NOx_perVeh="0.006078" fuel_perVeh="0.006995" electricity_perVeh="0"/>
        <edge id=":1110673588_0" sampledSeconds="11.62" CO_abs="165.705329" CO2_abs="21222.769756" HC_abs="1.236696" PMx_abs="0.288286" NOx_abs="7.899706" fuel_abs="9.122777" electricity_abs="0"
            CO_normed="507.692922" CO2_normed="65022.954146" HC_normed="3.789025" PMx_normed="0.883258" NOx_normed="24.203356" fuel_normed="27.950636" electricity_normed="0"
            traveltime="0.02" CO_perVeh="0.276176" CO2_perVeh="35.371283" HC_perVeh="0.002061" PMx_perVeh="0.000480" NOx_perVeh="0.013166" fuel_perVeh="0.015205" electricity_perVeh="0"/>
        <edge id=":1110673601_0" sampledSeconds="29.68" CO_abs="525.058758" CO2_abs="62527.052386" HC_abs="3.818390" PMx_abs="0.841597" NOx_abs="23.340200" fuel_abs="26.877786" electricity_abs="0"
            CO_normed="1436.330950" CO2_normed="171046.647866" HC_normed="10.445443" PMx_normed="2.302241" NOx_normed="63.848572" fuel_normed="73.525858" electricity_normed="0"
            traveltime="0.02" CO_perVeh="0.389721" CO2_perVeh="46.410186" HC_perVeh="0.002834" PMx_perVeh="0.000625" NOx_perVeh="0.017324" fuel_perVeh="0.019950" electricity_perVeh="0"/>
        <edge id=":1110673617_0" sampledSeconds="238.34" CO_abs="5724.218693" CO2_abs="709421.225332" HC_abs="43.106535" PMx_abs="12.719624" NOx_abs="267.553665" fuel_abs="304.947551" electricity_abs="0"
            CO_normed="14615.026451" CO2_normed="1811288.234890" HC_normed="110.059237" PMx_normed="32.475636" NOx_normed="683.115740" fuel_normed="778.589491" electricity_normed="0"
            traveltime="0.01" CO_perVeh="0.350756" CO2_perVeh="43.470389" HC_perVeh="0.002641" PMx_perVeh="0.000779" NOx_perVeh="0.016395" fuel_perVeh="0.018686" electricity_perVeh="0"/>
        <edge id=":1110673621_0" sampledSeconds="26.10" CO_abs="493.039471" CO2_abs="55320.897978" HC_abs="3.499549" PMx_abs="0.754857" NOx_abs="20.767945" fuel_abs="23.780161" electricity_abs="0"
            CO_normed="1510.589017" CO2_normed="169493.815081" HC_normed="10.722021" PMx_normed="2.312752" NOx_normed="63.629449" fuel_normed="72.858365" electricity_normed="0"
            traveltime="0.02" CO_perVeh="0.373525" CO2_perVeh="41.910902" HC_perVeh="0.002651" PMx_perVeh="0.000572" NOx_perVeh="0.015734" fuel_perVeh="0.018016" electricity_perVeh="0"/>
        <edge id=":1110673630_0" sampledSeconds="54.49" CO_abs="226.107965" CO2_abs="20912.938828" HC_abs="1.505729" PMx_abs="0.268638" NOx_abs="7.840372" fuel_abs="8.989656" electricity_abs="0"
            CO_normed="12.353001" CO2_normed="1142.540744" HC_normed="0.082263" PMx_normed="0.014677" NOx_normed="0.428345" fuel_normed="0.491134" electricity_normed="0"
            traveltime="1.27" CO_perVeh="5.277760" CO2_perVeh="488.144983" HC_perVeh="0.035146" PMx_perVeh="0.006270" NOx_perVeh="0.183008" fuel_perVeh="0.209834" electricity_perVeh="0"/>
        <edge id=":1110673630_1" sampledSeconds="7.54" CO_abs="19.267795" CO2_abs="1804.583056" HC_abs="0.126942" PMx_abs="0.013464" NOx_abs="0.614642" fuel_abs="0.775734" electricity_abs="0"
            CO_normed="1.283331" CO2_normed="120.194246" HC_normed="0.008455" PMx_normed="0.000897" NOx_normed="0.040938" fuel_normed="0.051668" electricity_normed="0"
            traveltime="1.07" CO_perVeh="2.727134" CO2_perVeh="255.417910" HC_perVeh="0.017967" PMx_perVeh="0.001906" NOx_perVeh="0.086995" fuel_perVeh="0.109796" electricity_perVeh="0"/>
        <edge id=":1110673650_0" sampledSeconds="142.74" CO_abs="2350.223634" CO2_abs="303651.225815" HC_abs="17.613831" PMx_abs="4.105075" NOx_abs="112.919568" fuel_abs="130.526916" electricity_abs="0"
            CO_normed="6000.570980" CO2_normed="775279.725484" HC_normed="44.971483" PMx_normed="10.481043" NOx_normed="288.305280" fuel_normed="333.260210" electricity_normed="0"
            traveltime="0.02" CO_perVeh="0.379183" CO2_perVeh="48.990786" HC_perVeh="0.002842" PMx_perVeh="0.000662" NOx_perVeh="0.018218" fuel_perVeh="0.021059" electricity_perVeh="0"/>
        <edge id=":1110673655_0" sampledSeconds="44.66" CO_abs="833.254559" CO2_abs="92624.587337" HC_abs="5.916972" PMx_abs="1.284237" NOx_abs="34.901041" fuel_abs="39.815450" electricity_abs="0"
            CO_normed="2127.458449" CO2_normed="236488.308095" HC_normed="15.107161" PMx_normed="3.278902" NOx_normed="89.109040" fuel_normed="101.656467" electricity_normed="0"
            traveltime="0.02" CO_perVeh="0.445948" CO2_perVeh="49.571628" HC_perVeh="0.003167" PMx_perVeh="0.000687" NOx_perVeh="0.018679" fuel_perVeh="0.021309" electricity_perVeh="0"/>
        <edge id=":1110673663_0" sampledSeconds="108.82" CO_abs="1905.482827" CO2_abs="219244.190195" HC_abs="13.646147" PMx_abs="3.118173" NOx_abs="82.749405" fuel_abs="94.243786" electricity_abs="0"
            CO_normed="89.103709" CO2_normed="10252.241767" HC_normed="0.638118" PMx_normed="0.145811" NOx_normed="3.869507" fuel_normed="4.407004" electricity_normed="0"
            traveltime="1.28" CO_perVeh="22.380795" CO2_perVeh="2575.126443" HC_perVeh="0.160280" PMx_perVeh="0.036624" NOx_perVeh="0.971931" fuel_perVeh="1.106938" electricity_perVeh="0"/>
        <edge id=":1110673663_1" sampledSeconds="154.88" CO_abs="2751.565698" CO2_abs="338095.443504" HC_abs="20.297411" PMx_abs="4.691273" NOx_abs="126.674029" fuel_abs="145.332963" electricity_abs="0"
            CO_normed="128.825320" CO2_normed="15829.261778" HC_normed="0.950303" PMx_normed="0.219640" NOx_normed="5.930741" fuel_normed="6.804332" electricity_normed="0"
            traveltime="1.25" CO_perVeh="22.247996" CO2_perVeh="2733.696752" HC_perVeh="0.164116" PMx_perVeh="0.037932" NOx_perVeh="1.024233" fuel_perVeh="1.175101" electricity_perVeh="0"/>
        <edge id=":1110673666_0" sampledSeconds="191.80" CO_abs="4628.008948" CO2_abs="359742.712258" HC_abs="29.316533" PMx_abs="5.077027" NOx_abs="138.683041" fuel_abs="154.639198" electricity_abs="0"