<?xml version="1.0" encoding="UTF-8"?>

<!-- generated on Tue Nov 10 13:01:07 2020 by Eclipse SUMO sumo Version 1.7.0
<configuration xmlns:xsi="http://www.w3.org/2001/XMLSchema-instance" xsi:noNamespaceSchemaLocation="http://sumo.dlr.de/xsd/sumoConfiguration.xsd">

    <input>
        <net-file value="../dataSets/Porto/8AM9AM_Routing_SaoBento/Porto.net.xml"/>
        <route-files value="../results/Porto/8AM9AM_Routing_SaoBento/inputdata/cost_hc-length/solution5/Porto.rou.xml"/>
        <additional-files value="moreOutputInfo.xml"/>
    </input>

    <output>
        <emission-output.precision value="6"/>
        <tripinfo-output value="../results/Porto/8AM9AM_Routing_SaoBento/inputdata/cost_hc-length/solution5/Porto-tripinfo"/>
    </output>

    <processing>
        <collision.action value="warn"/>
        <time-to-teleport value="-1"/>
    </processing>

    <emissions>
        <device.emissions.probability value="1"/>
    </emissions>

    <gui_only>
        <quit-on-end value="true"/>
        <start value="true"/>
    </gui_only>

</configuration>
-->

<meandata xmlns:xsi="http://www.w3.org/2001/XMLSchema-instance" xsi:noNamespaceSchemaLocation="http://sumo.dlr.de/xsd/meandata_file.xsd">
    <interval begin="0.00" end="8471.00" id="emissions-detector">
        <edge id=":1092997347_0" sampledSeconds="603.45" CO_abs="73606.974297" CO2_abs="3118521.107717" HC_abs="408.937122" PMx_abs="63.193030" NOx_abs="1350.254666" fuel_abs="1340.526017" electricity_abs="0"
            CO_normed="71094.189660" CO2_normed="3012061.468481" HC_normed="394.976883" PMx_normed="61.035755" NOx_normed="1304.159860" fuel_normed="1294.763327" electricity_normed="0"
            traveltime="0.07" CO_perVeh="8.419234" CO2_perVeh="356.699342" HC_perVeh="0.046775" PMx_perVeh="0.007228" NOx_perVeh="0.154443" fuel_perVeh="0.153331" electricity_perVeh="0"/>
        <edge id=":1103427051_0" sampledSeconds="19.41" CO_abs="1594.041330" CO2_abs="90480.809421" HC_abs="9.409661" PMx_abs="1.787922" NOx_abs="38.675674" fuel_abs="38.893666" electricity_abs="0"
            CO_normed="2335.981497" CO2_normed="132594.740643" HC_normed="13.789350" PMx_normed="2.620103" NOx_normed="56.677113" fuel_normed="56.996567" electricity_normed="0"
            traveltime="0.03" CO_perVeh="2.478936" CO2_perVeh="140.709109" HC_perVeh="0.014633" PMx_perVeh="0.002780" NOx_perVeh="0.060146" fuel_perVeh="0.060485" electricity_perVeh="0"/>
        <edge id=":1105984386_0" sampledSeconds="10.81" CO_abs="163.989364" CO2_abs="12022.559949" HC_abs="1.021498" PMx_abs="0.168673" NOx_abs="4.643226" fuel_abs="5.168032" electricity_abs="0"
            CO_normed="7.177352" CO2_normed="526.193574" HC_normed="0.044708" PMx_normed="0.007382" NOx_normed="0.203221" fuel_normed="0.226190" electricity_normed="0"
            traveltime="1.04" CO_perVeh="15.731444" CO2_perVeh="1153.320066" HC_perVeh="0.097992" PMx_perVeh="0.016181" NOx_perVeh="0.445423" fuel_perVeh="0.495768" electricity_perVeh="0"/>
        <edge id=":1105984390_0" sampledSeconds="10.30" CO_abs="0" CO2_abs="0" HC_abs="0" PMx_abs="0" NOx_abs="0" fuel_abs="0" electricity_abs="0"
            CO_normed="0" CO2_normed="0" HC_normed="0" PMx_normed="0" NOx_normed="0" fuel_normed="0" electricity_normed="0"
            traveltime="1.07" CO_perVeh="0" CO2_perVeh="0" HC_perVeh="0" PMx_perVeh="0" NOx_perVeh="0" fuel_perVeh="0" electricity_perVeh="0"/>
        <edge id=":1105984390_1" sampledSeconds="2397.76" CO_abs="63294.186798" CO2_abs="7497686.804754" HC_abs="467.097567" PMx_abs="135.505605" NOx_abs="2853.376243" fuel_abs="3222.909254" electricity_abs="0"
            CO_normed="2048.645987" CO2_normed="242677.989293" HC_normed="15.118569" PMx_normed="4.385916" NOx_normed="92.355366" fuel_normed="104.316059" electricity_normed="0"
            traveltime="0.65" CO_perVeh="17.092918" CO2_perVeh="2024.788583" HC_perVeh="0.126142" PMx_perVeh="0.036594" NOx_perVeh="0.770569" fuel_perVeh="0.870363" electricity_perVeh="0"/>
        <edge id=":1105984395_0" sampledSeconds="4.07" CO_abs="143.030013" CO2_abs="10596.652096" HC_abs="0.892210" PMx_abs="0.141599" NOx_abs="4.043100" fuel_abs="4.555100" electricity_abs="0"
            CO_normed="66.070436" CO2_normed="4894.954595" HC_normed="0.412142" PMx_normed="0.065409" NOx_normed="1.867646" fuel_normed="2.104156" electricity_normed="0"
            traveltime="0.09" CO_perVeh="3.315385" CO2_perVeh="245.626604" HC_perVeh="0.020681" PMx_perVeh="0.003282" NOx_perVeh="0.093718" fuel_perVeh="0.105586" electricity_perVeh="0"/>
        <edge id=":1105984398_0" sampledSeconds="10.10" CO_abs="640.930071" CO2_abs="43527.528071" HC_abs="3.940835" PMx_abs="0.763815" NOx_abs="17.836878" fuel_abs="18.710598" electricity_abs="0"
            CO_normed="22.529532" CO2_normed="1530.049645" HC_normed="0.138526" PMx_normed="0.026849" NOx_normed="0.626990" fuel_normed="0.657702" electricity_normed="0"
            traveltime="1.16" CO_perVeh="73.651450" CO2_perVeh="5001.896020" HC_perVeh="0.452855" PMx_perVeh="0.087773" NOx_perVeh="2.049696" fuel_perVeh="2.150098" electricity_perVeh="0"/>
        <edge id=":1105984398_1" sampledSeconds="646.35" CO_abs="11327.325397" CO2_abs="1376006.024426" HC_abs="82.986907" PMx_abs="19.430161" NOx_abs="517.707471" fuel_abs="591.486467" electricity_abs="0"
            CO_normed="385.418678" CO2_normed="46819.386218" HC_normed="2.823677" PMx_normed="0.661122" NOx_normed="17.615291" fuel_normed="20.125663" electricity_normed="0"
            traveltime="0.95" CO_perVeh="16.650592" CO2_perVeh="2022.658864" HC_perVeh="0.121987" PMx_perVeh="0.028561" NOx_perVeh="0.761004" fuel_perVeh="0.869455" electricity_perVeh="0"/>
        <edge id=":1106006327_0" sampledSeconds="68.33" CO_abs="9167.534719" CO2_abs="294331.637385" HC_abs="48.666423" PMx_abs="6.128421" NOx_abs="128.766236" fuel_abs="126.522881" electricity_abs="0"
            CO_normed="439.730572" CO2_normed="14117.930629" HC_normed="2.334337" PMx_normed="0.293956" NOx_normed="6.176410" fuel_normed="6.068805" electricity_normed="0"
            traveltime="2.12" CO_perVeh="284.190048" CO2_perVeh="9124.167479" HC_perVeh="1.508640" PMx_perVeh="0.189979" NOx_perVeh="3.991704" fuel_perVeh="3.922161" electricity_perVeh="0"/>
        <edge id=":1106006327_1" sampledSeconds="681.50" CO_abs="92326.160040" CO2_abs="3090359.810378" HC_abs="493.238653" PMx_abs="64.491043" NOx_abs="1352.626737" fuel_abs="1328.434087" electricity_abs="0"
            CO_normed="3861.880972" CO2_normed="129265.657140" HC_normed="20.631519" PMx_normed="2.697575" NOx_normed="56.578585" fuel_normed="55.566638" electricity_normed="0"
            traveltime="2.29" CO_perVeh="309.916572" CO2_perVeh="10373.589872" HC_perVeh="1.655683" PMx_perVeh="0.216481" NOx_perVeh="4.540441" fuel_perVeh="4.459232" electricity_perVeh="0"/>
        <edge id=":1106006327_2" sampledSeconds="0.00" CO_abs="0" CO2_abs="0" HC_abs="0" PMx_abs="0" NOx_abs="0" fuel_abs="0" electricity_abs="0"
            CO_normed="0" CO2_normed="0" HC_normed="0" PMx_normed="0" NOx_normed="0" fuel_normed="0" electricity_normed="0"/>
        <edge id=":1106006327_3" sampledSeconds="0.00" CO_abs="0" CO2_abs="0" HC_abs="0" PMx_abs="0" NOx_abs="0" fuel_abs="0" electricity_abs="0"
            CO_normed="0" CO2_normed="0" HC_normed="0" PMx_normed="0" NOx_normed="0" fuel_normed="0" electricity_normed="0"/>
        <edge id=":1107381198_0" sampledSeconds="0.00" CO_abs="0" CO2_abs="0" HC_abs="0" PMx_abs="0" NOx_abs="0" fuel_abs="0" electricity_abs="0"
            CO_normed="0" CO2_normed="0" HC_normed="0" PMx_normed="0" NOx_normed="0" fuel_normed="0" electricity_normed="0"/>
        <edge id=":1107381198_1" sampledSeconds="103.66" CO_abs="5095.834283" CO2_abs="196375.465702" HC_abs="27.707731" PMx_abs="3.332439" NOx_abs="81.009355" fuel_abs="84.415231" electricity_abs="0"
            CO_normed="236.164045" CO2_normed="9100.928687" HC_normed="1.284102" PMx_normed="0.154440" NOx_normed="3.754340" fuel_normed="3.912184" electricity_normed="0"
            traveltime="1.55" CO_perVeh="76.294410" CO2_perVeh="2940.117262" HC_perVeh="0.414838" PMx_perVeh="0.049893" NOx_perVeh="1.212865" fuel_perVeh="1.263858" electricity_perVeh="0"/>
        <edge id=":1110338277_0" sampledSeconds="160.89" CO_abs="2298.787838" CO2_abs="294634.612316" HC_abs="17.171982" PMx_abs="3.899978" NOx_abs="109.195576" fuel_abs="126.651181" electricity_abs="0"
            CO_normed="3489.061933" CO2_normed="447191.512361" HC_normed="26.063348" PMx_normed="5.919322" NOx_normed="165.735229" fuel_normed="192.229055" electricity_normed="0"
            traveltime="0.02" CO_perVeh="0.311349" CO2_perVeh="39.905429" HC_perVeh="0.002326" PMx_perVeh="0.000528" NOx_perVeh="0.014789" fuel_perVeh="0.017154" electricity_perVeh="0"/>
        <edge id=":1110338293_0" sampledSeconds="6936.20" CO_abs="675730.444196" CO2_abs="11739493.244541" HC_abs="3351.558935" PMx_abs="281.225504" NOx_abs="5312.665177" fuel_abs="5046.613186" electricity_abs="0"
            CO_normed="957238.263528" CO2_normed="16630140.353499" HC_normed="4747.811029" PMx_normed="398.383432" NOx_normed="7525.909824" fuel_normed="7149.021158" electricity_normed="0"
            traveltime="0.46" CO_perVeh="45.154559" CO2_perVeh="784.472034" HC_perVeh="0.223962" PMx_perVeh="0.018792" NOx_perVeh="0.355010" fuel_perVeh="0.337231" electricity_perVeh="0"/>
        <edge id=":1110338295_0" sampledSeconds="0.00" CO_abs="0" CO2_abs="0" HC_abs="0" PMx_abs="0" NOx_abs="0" fuel_abs="0" electricity_abs="0"
            CO_normed="0" CO2_normed="0" HC_normed="0" PMx_normed="0" NOx_normed="0" fuel_normed="0" electricity_normed="0"/>
        <edge id=":1110673403_0" sampledSeconds="200.42" CO_abs="3039.462308" CO2_abs="376339.382096" HC_abs="22.410929" PMx_abs="5.174033" NOx_abs="140.727877" fuel_abs="161.772455" electricity_abs="0"
            CO_normed="4305.695632" CO2_normed="533121.542338" HC_normed="31.747273" PMx_normed="7.329523" NOx_normed="199.354801" fuel_normed="229.166505" electricity_normed="0"
            traveltime="0.02" CO_perVeh="0.351288" CO2_perVeh="43.495710" HC_perVeh="0.002590" PMx_perVeh="0.000598" NOx_perVeh="0.016265" fuel_perVeh="0.018697" electricity_perVeh="0"/>
        <edge id=":1110673412_0" sampledSeconds="939.58" CO_abs="166170.625611" CO2_abs="11342620.943424" HC_abs="1034.248404" PMx_abs="249.292221" NOx_abs="4874.044165" fuel_abs="4875.634048" electricity_abs="0"
            CO_normed="243514.079353" CO2_normed="16621998.541201" HC_normed="1515.635192" PMx_normed="365.324290" NOx_normed="7142.648547" fuel_normed="7144.978435" electricity_normed="0"
            traveltime="0.02" CO_perVeh="2.743704" CO2_perVeh="187.282153" HC_perVeh="0.017077" PMx_perVeh="0.004116" NOx_perVeh="0.080477" fuel_perVeh="0.080503" electricity_perVeh="0"/>
        <edge id=":1110673414_0" sampledSeconds="0.00" CO_abs="0" CO2_abs="0" HC_abs="0" PMx_abs="0" NOx_abs="0" fuel_abs="0" electricity_abs="0"
            CO_normed="0" CO2_normed="0" HC_normed="0" PMx_normed="0" NOx_normed="0" fuel_normed="0" electricity_normed="0"/>
        <edge id=":1110673414_1" sampledSeconds="7.54" CO_abs="618.203337" CO2_abs="23641.835912" HC_abs="3.372752" PMx_abs="0.482313" NOx_abs="10.274719" fuel_abs="10.162713" electricity_abs="0"
            CO_normed="29.094535" CO2_normed="1112.656905" HC_normed="0.158732" PMx_normed="0.022699" NOx_normed="0.483560" fuel_normed="0.478288" electricity_normed="0"
            traveltime="1.65" CO_perVeh="135.035707" CO2_perVeh="5164.145580" HC_perVeh="0.736719" PMx_perVeh="0.105353" NOx_perVeh="2.244333" fuel_perVeh="2.219867" electricity_perVeh="0"/>
        <edge id=":1110673417_0" sampledSeconds="29.01" CO_abs="460.527761" CO2_abs="53175.645066" HC_abs="3.301634" PMx_abs="0.734203" NOx_abs="19.969955" fuel_abs="22.857985" electricity_abs="0"
            CO_normed="698.981374" CO2_normed="80709.109330" HC_normed="5.011165" PMx_normed="1.114361" NOx_normed="30.310065" fuel_normed="34.693469" electricity_normed="0"
            traveltime="0.02" CO_perVeh="0.351186" CO2_perVeh="40.550256" HC_perVeh="0.002518" PMx_perVeh="0.000560" NOx_perVeh="0.015229" fuel_perVeh="0.017431" electricity_perVeh="0"/>
        <edge id=":1110673446_0" sampledSeconds="1312.22" CO_abs="13505.019642" CO2_abs="1089756.109555" HC_abs="87.296760" PMx_abs="20.057945" NOx_abs="446.272294" fuel_abs="468.435962" electricity_abs="0"
            CO_normed="19131.181172" CO2_normed="1543746.111989" HC_normed="123.664398" PMx_normed="28.414041" NOx_normed="632.188351" fuel_normed="663.585355" electricity_normed="0"
            traveltime="0.02" CO_perVeh="0.234284" CO2_perVeh="18.904988" HC_perVeh="0.001514" PMx_perVeh="0.000348" NOx_perVeh="0.007742" fuel_perVeh="0.008126" electricity_perVeh="0"/>
        <edge id=":1110673451_0" sampledSeconds="36.71" CO_abs="435.140037" CO2_abs="31688.193682" HC_abs="2.704169" PMx_abs="0.436513" NOx_abs="12.174466" fuel_abs="13.621541" electricity_abs="0"
            CO_normed="684.909357" CO2_normed="49877.139546" HC_normed="4.256355" PMx_normed="0.687070" NOx_normed="19.162579" fuel_normed="21.440273" electricity_normed="0"
            traveltime="0.03" CO_perVeh="0.320608" CO2_perVeh="23.347656" HC_perVeh="0.001992" PMx_perVeh="0.000322" NOx_perVeh="0.008970" fuel_perVeh="0.010036" electricity_perVeh="0"/>
        <edge id=":1110673464_0" sampledSeconds="1033.00" CO_abs="3661.822910" CO2_abs="273660.087837" HC_abs="22.931714" PMx_abs="3.845028" NOx_abs="105.429352" fuel_abs="117.635816" electricity_abs="0"
            CO_normed="110.212400" CO2_normed="8236.535684" HC_normed="0.690192" PMx_normed="0.115726" NOx_normed="3.173180" fuel_normed="3.540566" electricity_normed="0"
            traveltime="1.22" CO_perVeh="4.342412" CO2_perVeh="324.522733" HC_perVeh="0.027194" PMx_perVeh="0.004560" NOx_perVeh="0.125025" fuel_perVeh="0.139500" electricity_perVeh="0"/>
        <edge id=":1110673464_1" sampledSeconds="2610.95" CO_abs="64432.164921" CO2_abs="7715627.500673" HC_abs="477.342966" PMx_abs="138.396433" NOx_abs="2936.008567" fuel_abs="3316.592247" electricity_abs="0"
            CO_normed="1900.231714" CO2_normed="227549.083471" HC_normed="14.077786" PMx_normed="4.081584" NOx_normed="86.588687" fuel_normed="97.812851" electricity_normed="0"
            traveltime="0.72" CO_perVeh="17.765475" CO2_perVeh="2127.381384" HC_perVeh="0.131615" PMx_perVeh="0.038159" NOx_perVeh="0.809527" fuel_perVeh="0.914463" electricity_perVeh="0"/>
        <edge id=":1110673479_0" sampledSeconds="134.78" CO_abs="6483.846268" CO2_abs="443542.466370" HC_abs="39.946750" PMx_abs="7.788566" NOx_abs="181.638356" fuel_abs="190.659655" electricity_abs="0"
            CO_normed="9185.002386" CO2_normed="628321.283961" HC_normed="56.588478" PMx_normed="11.033265" NOx_normed="257.308496" fuel_normed="270.088049" electricity_normed="0"
            traveltime="0.03" CO_perVeh="1.370744" CO2_perVeh="93.768888" HC_perVeh="0.008445" PMx_perVeh="0.001647" NOx_perVeh="0.038400" fuel_perVeh="0.040307" electricity_perVeh="0"/>
        <edge id=":1110673511_0" sampledSeconds="63.07" CO_abs="1366.454616" CO2_abs="144469.813343" HC_abs="9.546426" PMx_abs="2.076130" NOx_abs="55.007927" fuel_abs="62.101487" electricity_abs="0"
            CO_normed="1935.716609" CO2_normed="204655.620365" HC_normed="13.523445" PMx_normed="2.941041" NOx_normed="77.924108" fuel_normed="87.972830" electricity_normed="0"
            traveltime="0.02" CO_perVeh="0.523713" CO2_perVeh="55.370098" HC_perVeh="0.003659" PMx_perVeh="0.000796" NOx_perVeh="0.021083" fuel_perVeh="0.023801" electricity_perVeh="0"/>
        <edge id=":1110673517_0" sampledSeconds="181.83" CO_abs="8091.236559" CO2_abs="577620.344306" HC_abs="50.408901" PMx_abs="10.011765" NOx_abs="235.247545" fuel_abs="248.293861" electricity_abs="0"
            CO_normed="11462.027943" CO2_normed="818255.711448" HC_normed="71.409138" PMx_normed="14.182645" NOx_normed="333.251155" fuel_normed="351.732539" electricity_normed="0"
            traveltime="0.03" CO_perVeh="1.238834" CO2_perVeh="88.438350" HC_perVeh="0.007718" PMx_perVeh="0.001533" NOx_perVeh="0.036018" fuel_perVeh="0.038016" electricity_perVeh="0"/>
        <edge id=":1110673534_0" sampledSeconds="657.38" CO_abs="5013.844726" CO2_abs="422402.705646" HC_abs="32.525238" PMx_abs="5.930369" NOx_abs="162.031591" fuel_abs="181.574008" electricity_abs="0"
            CO_normed="137.647315" CO2_normed="11596.409793" HC_normed="0.892930" PMx_normed="0.162809" NOx_normed="4.448326" fuel_normed="4.984832" electricity_normed="0"
            traveltime="1.45" CO_perVeh="11.024698" CO2_perVeh="928.800672" HC_perVeh="0.071518" PMx_perVeh="0.013040" NOx_perVeh="0.356283" fuel_perVeh="0.399254" electricity_perVeh="0"/>
        <edge id=":1110673534_1" sampledSeconds="264.73" CO_abs="4060.732478" CO2_abs="496001.130519" HC_abs="29.822366" PMx_abs="6.799995" NOx_abs="185.377812" fuel_abs="213.210084" electricity_abs="0"
            CO_normed="108.399963" CO2_normed="13240.592571" HC_normed="0.796099" PMx_normed="0.181524" NOx_normed="4.948602" fuel_normed="5.691575" electricity_normed="0"
            traveltime="1.23" CO_perVeh="18.840780" CO2_perVeh="2301.320812" HC_perVeh="0.138368" PMx_perVeh="0.031550" NOx_perVeh="0.860107" fuel_perVeh="0.989241" electricity_perVeh="0"/>
        <edge id=":1110673549_0" sampledSeconds="652.78" CO_abs="1265.363188" CO2_abs="124919.724646" HC_abs="8.623448" PMx_abs="1.826748" NOx_abs="47.563427" fuel_abs="53.697769" electricity_abs="0"
            CO_normed="33.651640" CO2_normed="3322.171608" HC_normed="0.229336" PMx_normed="0.048581" NOx_normed="1.264923" fuel_normed="1.428063" electricity_normed="0"
            traveltime="1.30" CO_perVeh="2.513975" CO2_perVeh="248.185706" HC_perVeh="0.017133" PMx_perVeh="0.003629" NOx_perVeh="0.094497" fuel_perVeh="0.106685" electricity_perVeh="0"/>
        <edge id=":1110673549_1" sampledSeconds="3197.14" CO_abs="68062.132949" CO2_abs="8988996.571362" HC_abs="524.629783" PMx_abs="157.866688" NOx_abs="3357.661939" fuel_abs="3863.958337" electricity_abs="0"
            CO_normed="1750.908016" CO2_normed="231243.210756" HC_normed="13.496176" PMx_normed="4.061143" NOx_normed="86.376329" fuel_normed="99.400876" electricity_normed="0"
            traveltime="0.81" CO_perVeh="17.167182" CO2_perVeh="2267.277473" HC_perVeh="0.132326" PMx_perVeh="0.039818" NOx_perVeh="0.846897" fuel_perVeh="0.974599" electricity_perVeh="0"/>
        <edge id=":1110673556_0" sampledSeconds="464.46" CO_abs="57895.355692" CO2_abs="2789825.738276" HC_abs="329.924126" PMx_abs="56.552955" NOx_abs="1204.245300" fuel_abs="1199.226742" electricity_abs="0"
            CO_normed="1141.732256" CO2_normed="55017.090698" HC_normed="6.506308" PMx_normed="1.115259" NOx_normed="23.748463" fuel_normed="23.649494" electricity_normed="0"
            traveltime="2.74" CO_perVeh="341.287555" CO2_perVeh="16445.754482" HC_perVeh="1.944871" PMx_perVeh="0.333374" NOx_perVeh="7.098910" fuel_perVeh="7.069326" electricity_perVeh="0"/>
        <edge id=":1110673556_2" sampledSeconds="175.58" CO_abs="17094.895725" CO2_abs="732457.508821" HC_abs="95.039910" PMx_abs="14.136610" NOx_abs="312.415303" fuel_abs="314.854770" electricity_abs="0"
            CO_normed="352.497696" CO2_normed="15103.314392" HC_normed="1.959728" PMx_normed="0.291498" NOx_normed="6.442021" fuel_normed="6.492323" electricity_normed="0"
            traveltime="3.04" CO_perVeh="295.595175" CO2_perVeh="12665.236976" HC_perVeh="1.643376" PMx_perVeh="0.244442" NOx_perVeh="5.402107" fuel_perVeh="5.444289" electricity_perVeh="0"/>
        <edge id=":1110673556_3" sampledSeconds="349.35" CO_abs="34994.199414" CO2_abs="1209202.967429" HC_abs="187.608223" PMx_abs="23.862828" NOx_abs="520.765505" fuel_abs="519.793779" electricity_abs="0"
            CO_normed="1641.480333" CO2_normed="56720.340019" HC_normed="8.800179" PMx_normed="1.119339" NOx_normed="24.427658" fuel_normed="24.382077" electricity_normed="0"
            traveltime="1.83" CO_perVeh="183.662532" CO2_perVeh="6346.345480" HC_perVeh="0.984638" PMx_perVeh="0.125241" NOx_perVeh="2.733170" fuel_perVeh="2.728070" electricity_perVeh="0"/>
        <edge id=":1110673556_4" sampledSeconds="78.93" CO_abs="8985.746539" CO2_abs="353416.438833" HC_abs="49.236374" PMx_abs="7.068250" NOx_abs="152.583727" fuel_abs="151.920101" electricity_abs="0"
            CO_normed="257.502134" CO2_normed="10127.760308" HC_normed="1.410954" PMx_normed="0.202553" NOx_normed="4.372551" fuel_normed="4.353534" electricity_normed="0"
            traveltime="2.49" CO_perVeh="283.577250" CO2_perVeh="11153.315007" HC_perVeh="1.553829" PMx_perVeh="0.223064" NOx_perVeh="4.815323" fuel_perVeh="4.794380" electricity_perVeh="0"/>
        <edge id=":1110673556_5" sampledSeconds="21.87" CO_abs="1294.870865" CO2_abs="59303.181739" HC_abs="7.266722" PMx_abs="1.016207" NOx_abs="24.458041" fuel_abs="25.492234" electricity_abs="0"
            CO_normed="51.719301" CO2_normed="2368.667962" HC_normed="0.290245" PMx_normed="0.040589" NOx_normed="0.976895" fuel_normed="1.018202" electricity_normed="0"
            traveltime="1.51" CO_perVeh="89.521936" CO2_perVeh="4099.973059" HC_perVeh="0.502391" PMx_perVeh="0.070256" NOx_perVeh="1.690926" fuel_perVeh="1.762426" electricity_perVeh="0"/>
        <edge id=":1110673556_6" sampledSeconds="548.78" CO_abs="65099.636490" CO2_abs="3149178.886291" HC_abs="371.186029" PMx_abs="63.351931" NOx_abs="1355.996893" fuel_abs="1353.697837" electricity_abs="0"
            CO_normed="1316.175101" CO2_normed="63669.646464" HC_normed="7.504586" PMx_normed="1.280840" NOx_normed="27.415350" fuel_normed="27.368868" electricity_normed="0"
            traveltime="2.66" CO_perVeh="316.073128" CO2_perVeh="15289.959761" HC_perVeh="1.802190" PMx_perVeh="0.307588" NOx_perVeh="6.583665" fuel_perVeh="6.572502" electricity_perVeh="0"/>
        <edge id=":1110673561_0" sampledSeconds="103.27" CO_abs="10073.075737" CO2_abs="712427.593941" HC_abs="63.021162" PMx_abs="14.415871" NOx_abs="301.791680" fuel_abs="306.238734" electricity_abs="0"
            CO_normed="255.878607" CO2_normed="18097.251021" HC_normed="1.600878" PMx_normed="0.366195" NOx_normed="7.666182" fuel_normed="7.779147" electricity_normed="0"
            traveltime="1.22" CO_perVeh="118.872071" CO2_perVeh="8407.337091" HC_perVeh="0.743711" PMx_perVeh="0.170121" NOx_perVeh="3.561435" fuel_perVeh="3.613914" electricity_perVeh="0"/>
        <edge id=":1110673561_1" sampledSeconds="5181.86" CO_abs="481994.578316" CO2_abs="33374794.594436" HC_abs="3002.140055" PMx_abs="698.007809" NOx_abs="14271.529486" fuel_abs="14346.211904" electricity_abs="0"
            CO_normed="11936.931142" CO2_normed="826550.012947" HC_normed="74.350088" PMx_normed="17.286649" NOx_normed="353.444359" fuel_normed="355.293921" electricity_normed="0"
            traveltime="1.19" CO_perVeh="110.776212" CO2_perVeh="7670.487349" HC_perVeh="0.689978" PMx_perVeh="0.160422" NOx_perVeh="3.280008" fuel_perVeh="3.297172" electricity_perVeh="0"/>
        <edge id=":1110673562_0" sampledSeconds="300.97" CO_abs="7407.427951" CO2_abs="560631.553245" HC_abs="46.539213" PMx_abs="7.788623" NOx_abs="215.632108" fuel_abs="240.993708" electricity_abs="0"
            CO_normed="11659.273522" CO2_normed="882432.697037" HC_normed="73.252607" PMx_normed="12.259273" NOx_normed="339.404412" fuel_normed="379.323509" electricity_normed="0"
            traveltime="0.03" CO_perVeh="0.664012" CO2_perVeh="50.255817" HC_perVeh="0.004172" PMx_perVeh="0.000698" NOx_perVeh="0.019330" fuel_perVeh="0.021603" electricity_perVeh="0"/>
        <edge id=":1110673564_0" sampledSeconds="27.86" CO_abs="402.395941" CO2_abs="44734.504211" HC_abs="2.849577" PMx_abs="0.644947" NOx_abs="16.982505" fuel_abs="19.229462" electricity_abs="0"
            CO_normed="1710.099619" CO2_normed="190112.401322" HC_normed="12.110112" PMx_normed="2.740892" NOx_normed="72.172136" fuel_normed="81.721241" electricity_normed="0"
            traveltime="7.870246e-03" CO_perVeh="0.113655" CO2_perVeh="12.635081" HC_perVeh="0.000805" PMx_perVeh="0.000182" NOx_perVeh="0.004797" fuel_perVeh="0.005431" electricity_perVeh="0"/>
        <edge id=":1110673588_0" sampledSeconds="62.81" CO_abs="1124.351418" CO2_abs="124999.449478" HC_abs="7.984867" PMx_abs="1.762086" NOx_abs="47.274072" fuel_abs="53.732009" electricity_abs="0"
            CO_normed="1911.304500" CO2_normed="212488.734799" HC_normed="13.573613" PMx_normed="2.995400" NOx_normed="80.362016" fuel_normed="91.339976" electricity_normed="0"
            traveltime="0.02" CO_perVeh="0.362694" CO2_perVeh="40.322403" HC_perVeh="0.002576" PMx_perVeh="0.000568" NOx_perVeh="0.015250" fuel_perVeh="0.017333" electricity_perVeh="0"/>
        <edge id=":1110673601_0" sampledSeconds="28.83" CO_abs="511.787814" CO2_abs="58767.269058" HC_abs="3.651006" PMx_abs="0.792874" NOx_abs="21.952296" fuel_abs="25.261619" electricity_abs="0"
            CO_normed="776.783029" CO2_normed="89195.983190" HC_normed="5.541437" PMx_normed="1.203411" NOx_normed="33.318829" fuel_normed="38.341666" electricity_normed="0"
            traveltime="0.02" CO_perVeh="0.390263" CO2_perVeh="44.812863" HC_perVeh="0.002784" PMx_perVeh="0.000605" NOx_perVeh="0.016740" fuel_perVeh="0.019263" electricity_perVeh="0"/>
        <edge id=":1110673617_0" sampledSeconds="855.92" CO_abs="30988.188214" CO2_abs="3214736.178983" HC_abs="218.113161" PMx_abs="60.065627" NOx_abs="1255.460553" fuel_abs="1381.864941" electricity_abs="0"
            CO_normed="43897.799382" CO2_normed="4553988.212465" HC_normed="308.978625" PMx_normed="85.088836" NOx_normed="1778.482663" fuel_normed="1957.546841" electricity_normed="0"
            traveltime="0.02" CO_perVeh="0.549047" CO2_perVeh="56.958466" HC_perVeh="0.003865" PMx_perVeh="0.001064" NOx_perVeh="0.022244" fuel_perVeh="0.024484" electricity_perVeh="0"/>
        <edge id=":1110673621_0" sampledSeconds="26.46" CO_abs="499.876170" CO2_abs="54108.729321" HC_abs="3.529644" PMx_abs="0.774817" NOx_abs="20.562365" fuel_abs="23.259061" electricity_abs="0"
            CO_normed="849.748182" CO2_normed="91980.368578" HC_normed="6.000103" PMx_normed="1.317125" NOx_normed="34.954322" fuel_normed="39.538482" electricity_normed="0"
            traveltime="0.02" CO_perVeh="0.378703" CO2_perVeh="40.992482" HC_perVeh="0.002674" PMx_perVeh="0.000587" NOx_perVeh="0.015578" fuel_perVeh="0.017621" electricity_perVeh="0"/>
        <edge id=":1110673630_0" sampledSeconds="284.57" CO_abs="1235.555153" CO2_abs="113641.539747" HC_abs="8.209072" PMx_abs="1.444153" NOx_abs="42.492348" fuel_abs="48.850094" electricity_abs="0"
            CO_normed="37.452597" CO2_normed="3444.743702" HC_normed="0.248836" PMx_normed="0.043776" NOx_normed="1.288044" fuel_normed="1.480762" electricity_normed="0"
            traveltime="1.28" CO_perVeh="5.559526" CO2_perVeh="511.343527" HC_perVeh="0.036938" PMx_perVeh="0.006498" NOx_perVeh="0.191199" fuel_perVeh="0.219807" electricity_perVeh="0"/>
        <edge id=":1110673630_1" sampledSeconds="339.24" CO_abs="1450.063229" CO2_abs="114142.375954" HC_abs="9.208287" PMx_abs="1.555649" NOx_abs="43.636394" fuel_abs="49.065374" electricity_abs="0"
            CO_normed="53.586688" CO2_normed="4218.100152" HC_normed="0.340290" PMx_normed="0.057489" NOx_normed="1.612571" fuel_normed="1.813197" electricity_normed="0"
            traveltime="1.08" CO_perVeh="4.622516" CO2_perVeh="363.863430" HC_perVeh="0.029354" PMx_perVeh="0.004959" NOx_perVeh="0.139104" fuel_perVeh="0.156411" electricity_perVeh="0"/>
        <edge id=":1110673650_0" sampledSeconds="200.17" CO_abs="2834.575698" CO2_abs="362379.679657" HC_abs="21.205225" PMx_abs="4.880658" NOx_abs="134.759430" fuel_abs="155.771864" electricity_abs="0"
            CO_normed="4015.453710" CO2_normed="513346.258516" HC_normed="30.039275" PMx_normed="6.913930" NOx_normed="190.899912" fuel_normed="220.666081" electricity_normed="0"
            traveltime="0.02" CO_perVeh="0.327608" CO2_perVeh="41.882307" HC_perVeh="0.002451" PMx_perVeh="0.000564" NOx_perVeh="0.015575" fuel_perVeh="0.018003" electricity_perVeh="0"/>
        <edge id=":1110673655_0" sampledSeconds="20.61" CO_abs="419.228247" CO2_abs="49997.038847" HC_abs="3.044303" PMx_abs="0.685268" NOx_abs="18.710449" fuel_abs="21.491635" electricity_abs="0"
            CO_normed="593.877814" CO2_normed="70825.695451" HC_normed="4.312554" PMx_normed="0.970750" NOx_normed="26.505181" fuel_normed="30.445003" electricity_normed="0"
            traveltime="0.02" CO_perVeh="0.478936" CO2_perVeh="57.117714" HC_perVeh="0.003478" PMx_perVeh="0.000783" NOx_perVeh="0.021375" fuel_perVeh="0.024553" electricity_perVeh="0"/>
        <edge id=":1110673663_0" sampledSeconds="111.17" CO_abs="1743.540346" CO2_abs="203272.699537" HC_abs="12.576038" PMx_abs="2.747449" NOx_abs="76.014541" fuel_abs="87.378507" electricity_abs="0"
            CO_normed="45.236180" CO2_normed="5273.913184" HC_normed="0.326285" PMx_normed="0.071283" NOx_normed="1.972198" fuel_normed="2.267037" electricity_normed="0"
            traveltime="1.31" CO_perVeh="20.478704" CO2_perVeh="2387.533751" HC_perVeh="0.147712" PMx_perVeh="0.032270" NOx_perVeh="0.892827" fuel_perVeh="1.026302" electricity_perVeh="0"/>
        <edge id=":1110673663_1" sampledSeconds="170.03" CO_abs="2609.306449" CO2_abs="338999.132315" HC_abs="19.578314" PMx_abs="4.452830" NOx_abs="125.293637" fuel_abs="145.721677" electricity_abs="0"
            CO_normed="67.781255" CO2_normed="8806.089728" HC_normed="0.508581" PMx_normed="0.115670" NOx_normed="3.254719" fuel_normed="3.785373" electricity_normed="0"
            traveltime="1.27" CO_perVeh="19.547582" CO2_perVeh="2539.607176" HC_perVeh="0.146671" PMx_perVeh="0.033358" NOx_perVeh="0.938636" fuel_perVeh="1.091672" electricity_perVeh="0"/>
        <edge id=":1110673666_0" sampledSeconds="273.87" CO_abs="6230.026388" CO2_abs="483640.261909" HC_abs="39.440384" PMx_abs="6.778206" NOx_abs="186.169908" fuel_abs="207.897943" electricity_abs="0"