<?xml version="1.0" encoding="UTF-8"?>

<!-- generated on Tue Nov 10 02:35:33 2020 by Eclipse SUMO sumo Version 1.7.0
<configuration xmlns:xsi="http://www.w3.org/2001/XMLSchema-instance" xsi:noNamespaceSchemaLocation="http://sumo.dlr.de/xsd/sumoConfiguration.xsd">

    <input>
        <net-file value="../dataSets/Porto/6AM7AM_Routing_SaoBento/Porto.net.xml"/>
        <route-files value="../results/Porto/6AM7AM_Routing_SaoBento/cost_PMx-cost_nox/solution11/Porto.rou.xml"/>
        <additional-files value="moreOutputInfo.xml"/>
    </input>

    <output>
        <emission-output.precision value="6"/>
        <tripinfo-output value="../results/Porto/6AM7AM_Routing_SaoBento/cost_PMx-cost_nox/solution11/Porto-tripinfo"/>
    </output>

    <processing>
        <collision.action value="warn"/>
        <time-to-teleport value="-1"/>
    </processing>

    <emissions>
        <device.emissions.probability value="1"/>
    </emissions>

    <gui_only>
        <quit-on-end value="true"/>
        <start value="true"/>
    </gui_only>

</configuration>
-->

<meandata xmlns:xsi="http://www.w3.org/2001/XMLSchema-instance" xsi:noNamespaceSchemaLocation="http://sumo.dlr.de/xsd/meandata_file.xsd">
    <interval begin="0.00" end="4789.00" id="emissions-detector">
        <edge id=":1092997347_0" sampledSeconds="281.43" CO_abs="35958.339101" CO2_abs="1434209.562345" HC_abs="197.621474" PMx_abs="29.205295" NOx_abs="622.154472" fuel_abs="616.510207" electricity_abs="0"
            CO_normed="61433.408361" CO2_normed="2450290.639743" HC_normed="337.628517" PMx_normed="49.896098" NOx_normed="1062.926450" fuel_normed="1053.283445" electricity_normed="0"
            traveltime="0.07" CO_perVeh="9.479937" CO2_perVeh="378.110235" HC_perVeh="0.052100" PMx_perVeh="0.007700" NOx_perVeh="0.164023" fuel_perVeh="0.162535" electricity_perVeh="0"/>
        <edge id=":1103427051_0" sampledSeconds="10.97" CO_abs="891.443013" CO2_abs="50663.409315" HC_abs="5.260270" PMx_abs="0.983225" NOx_abs="21.541997" fuel_abs="21.777967" electricity_abs="0"
            CO_normed="2310.751541" CO2_normed="131327.016320" HC_normed="13.635395" PMx_normed="2.548665" NOx_normed="55.840028" fuel_normed="56.451697" electricity_normed="0"
            traveltime="0.03" CO_perVeh="2.442540" CO2_perVeh="138.816976" HC_perVeh="0.014413" PMx_perVeh="0.002694" NOx_perVeh="0.059025" fuel_perVeh="0.059671" electricity_perVeh="0"/>
        <edge id=":1105984386_0" sampledSeconds="22.77" CO_abs="451.569562" CO2_abs="38987.460428" HC_abs="2.934583" PMx_abs="0.461522" NOx_abs="14.416037" fuel_abs="16.759268" electricity_abs="0"
            CO_normed="34.959330" CO2_normed="3018.306790" HC_normed="0.227188" PMx_normed="0.035730" NOx_normed="1.116052" fuel_normed="1.297459" electricity_normed="0"
            traveltime="0.96" CO_perVeh="18.952025" CO2_perVeh="1636.273516" HC_perVeh="0.123162" PMx_perVeh="0.019370" NOx_perVeh="0.605030" fuel_perVeh="0.703373" electricity_perVeh="0"/>
        <edge id=":1105984390_0" sampledSeconds="23.20" CO_abs="15.990337" CO2_abs="1446.740015" HC_abs="0.105407" PMx_abs="0.016964" NOx_abs="0.533309" fuel_abs="0.621900" electricity_abs="0"
            CO_normed="0.957030" CO2_normed="86.588161" HC_normed="0.006309" PMx_normed="0.001015" NOx_normed="0.031919" fuel_normed="0.037221" electricity_normed="0"
            traveltime="1.05" CO_perVeh="0.725154" CO2_perVeh="65.608949" HC_perVeh="0.004780" PMx_perVeh="0.000769" NOx_perVeh="0.024185" fuel_perVeh="0.028203" electricity_perVeh="0"/>
        <edge id=":1105984390_1" sampledSeconds="645.85" CO_abs="15332.301205" CO2_abs="1963711.386314" HC_abs="116.770815" PMx_abs="34.849327" NOx_abs="736.551242" fuel_abs="844.109447" electricity_abs="0"
            CO_normed="877.809507" CO2_normed="112426.993231" HC_normed="6.685398" PMx_normed="1.995204" NOx_normed="42.169253" fuel_normed="48.327207" electricity_normed="0"
            traveltime="0.64" CO_perVeh="15.100477" CO2_perVeh="1934.020122" HC_perVeh="0.115005" PMx_perVeh="0.034322" NOx_perVeh="0.725415" fuel_perVeh="0.831347" electricity_perVeh="0"/>
        <edge id=":1105984395_0" sampledSeconds="8.87" CO_abs="209.289449" CO2_abs="17447.987783" HC_abs="1.349522" PMx_abs="0.225855" NOx_abs="6.581305" fuel_abs="7.500221" electricity_abs="0"
            CO_normed="171.008293" CO2_normed="14256.574400" HC_normed="1.102681" PMx_normed="0.184544" NOx_normed="5.377518" fuel_normed="6.128355" electricity_normed="0"
            traveltime="0.09" CO_perVeh="2.122424" CO2_perVeh="176.941675" HC_perVeh="0.013686" PMx_perVeh="0.002290" NOx_perVeh="0.066742" fuel_perVeh="0.076060" electricity_perVeh="0"/>
        <edge id=":1105984398_0" sampledSeconds="22.81" CO_abs="1546.327520" CO2_abs="106341.564880" HC_abs="9.554202" PMx_abs="1.938908" NOx_abs="44.005708" fuel_abs="45.711507" electricity_abs="0"
            CO_normed="96.146360" CO2_normed="6612.023825" HC_normed="0.594054" PMx_normed="0.120556" NOx_normed="2.736153" fuel_normed="2.842215" electricity_normed="0"
            traveltime="1.09" CO_perVeh="74.221589" CO2_perVeh="5104.248498" HC_perVeh="0.458589" PMx_perVeh="0.093065" NOx_perVeh="2.112213" fuel_perVeh="2.194089" electricity_perVeh="0"/>
        <edge id=":1105984398_1" sampledSeconds="450.66" CO_abs="8353.266536" CO2_abs="956146.323913" HC_abs="60.049652" PMx_abs="13.883904" NOx_abs="363.009804" fuel_abs="411.006411" electricity_abs="0"
            CO_normed="502.749404" CO2_normed="57546.588803" HC_normed="3.614146" PMx_normed="0.835616" NOx_normed="21.848095" fuel_normed="24.736817" electricity_normed="0"
            traveltime="0.95" CO_perVeh="17.695747" CO2_perVeh="2025.521770" HC_perVeh="0.127211" PMx_perVeh="0.029412" NOx_perVeh="0.769008" fuel_perVeh="0.870685" electricity_perVeh="0"/>
        <edge id=":1106006327_0" sampledSeconds="224.65" CO_abs="30120.097289" CO2_abs="977643.242866" HC_abs="160.158075" PMx_abs="20.377470" NOx_abs="427.853798" fuel_abs="420.254334" electricity_abs="0"
            CO_normed="2555.526049" CO2_normed="82947.699330" HC_normed="13.588540" PMx_normed="1.728917" NOx_normed="36.301062" fuel_normed="35.656289" electricity_normed="0"
            traveltime="2.09" CO_perVeh="280.113427" CO2_perVeh="9091.969279" HC_perVeh="1.489452" PMx_perVeh="0.189508" NOx_perVeh="3.978991" fuel_perVeh="3.908317" electricity_perVeh="0"/>
        <edge id=":1106006327_1" sampledSeconds="160.78" CO_abs="21842.453704" CO2_abs="733126.846359" HC_abs="116.742047" PMx_abs="15.313680" NOx_abs="320.979029" fuel_abs="315.144684" electricity_abs="0"
            CO_normed="1616.089392" CO2_normed="54242.922324" HC_normed="8.637564" PMx_normed="1.133035" NOx_normed="23.748742" fuel_normed="23.317068" electricity_normed="0"
            traveltime="2.28" CO_perVeh="310.081782" CO2_perVeh="10407.680470" HC_perVeh="1.657304" PMx_perVeh="0.217397" NOx_perVeh="4.556711" fuel_perVeh="4.473885" electricity_perVeh="0"/>
        <edge id=":1106006327_2" sampledSeconds="0.00" CO_abs="0" CO2_abs="0" HC_abs="0" PMx_abs="0" NOx_abs="0" fuel_abs="0" electricity_abs="0"
            CO_normed="0" CO2_normed="0" HC_normed="0" PMx_normed="0" NOx_normed="0" fuel_normed="0" electricity_normed="0"/>
        <edge id=":1106006327_3" sampledSeconds="0.00" CO_abs="0" CO2_abs="0" HC_abs="0" PMx_abs="0" NOx_abs="0" fuel_abs="0" electricity_abs="0"
            CO_normed="0" CO2_normed="0" HC_normed="0" PMx_normed="0" NOx_normed="0" fuel_normed="0" electricity_normed="0"/>
        <edge id=":1107381198_0" sampledSeconds="0.00" CO_abs="0" CO2_abs="0" HC_abs="0" PMx_abs="0" NOx_abs="0" fuel_abs="0" electricity_abs="0"
            CO_normed="0" CO2_normed="0" HC_normed="0" PMx_normed="0" NOx_normed="0" fuel_normed="0" electricity_normed="0"/>
        <edge id=":1107381198_1" sampledSeconds="35.58" CO_abs="1507.772423" CO2_abs="62300.412507" HC_abs="8.300417" PMx_abs="1.068937" NOx_abs="25.754149" fuel_abs="26.780751" electricity_abs="0"
            CO_normed="123.601609" CO2_normed="5107.157488" HC_normed="0.680438" PMx_normed="0.087628" NOx_normed="2.111230" fuel_normed="2.195387" electricity_normed="0"
            traveltime="1.46" CO_perVeh="62.079172" CO2_perVeh="2565.080741" HC_perVeh="0.341751" PMx_perVeh="0.044011" NOx_perVeh="1.060370" fuel_perVeh="1.102638" electricity_perVeh="0"/>
        <edge id=":1110338277_0" sampledSeconds="97.21" CO_abs="1578.031509" CO2_abs="185930.206343" HC_abs="11.457016" PMx_abs="2.529458" NOx_abs="69.588075" fuel_abs="79.923658" electricity_abs="0"
            CO_normed="4236.578941" CO2_normed="499171.272585" HC_normed="30.758925" PMx_normed="6.790897" NOx_normed="186.824769" fuel_normed="214.572958" electricity_normed="0"
            traveltime="0.02" CO_perVeh="0.355638" CO2_perVeh="41.902800" HC_perVeh="0.002582" PMx_perVeh="0.000570" NOx_perVeh="0.015683" fuel_perVeh="0.018012" electricity_perVeh="0"/>
        <edge id=":1110338293_0" sampledSeconds="123.60" CO_abs="6266.104140" CO2_abs="433104.783134" HC_abs="38.715507" PMx_abs="7.618678" NOx_abs="177.388501" fuel_abs="186.172879" electricity_abs="0"
            CO_normed="15701.242364" CO2_normed="1085248.986763" HC_normed="97.011084" PMx_normed="19.090444" NOx_normed="444.489875" fuel_normed="466.501262" electricity_normed="0"
            traveltime="0.03" CO_perVeh="1.437235" CO2_perVeh="99.339757" HC_perVeh="0.008880" PMx_perVeh="0.001747" NOx_perVeh="0.040687" fuel_perVeh="0.042702" electricity_perVeh="0"/>
        <edge id=":1110338295_0" sampledSeconds="0.00" CO_abs="0" CO2_abs="0" HC_abs="0" PMx_abs="0" NOx_abs="0" fuel_abs="0" electricity_abs="0"
            CO_normed="0" CO2_normed="0" HC_normed="0" PMx_normed="0" NOx_normed="0" fuel_normed="0" electricity_normed="0"/>
        <edge id=":1110673403_0" sampledSeconds="144.03" CO_abs="2100.570738" CO2_abs="248649.653681" HC_abs="15.258730" PMx_abs="3.479728" NOx_abs="93.552662" fuel_abs="106.883989" electricity_abs="0"
            CO_normed="5263.489007" CO2_normed="623051.961615" HC_normed="38.234446" PMx_normed="8.719302" NOx_normed="234.418865" fuel_normed="267.823735" electricity_normed="0"
            traveltime="0.02" CO_perVeh="0.337260" CO2_perVeh="39.922342" HC_perVeh="0.002450" PMx_perVeh="0.000559" NOx_perVeh="0.015020" fuel_perVeh="0.017161" electricity_perVeh="0"/>
        <edge id=":1110673412_0" sampledSeconds="252.01" CO_abs="44315.400966" CO2_abs="3037629.248074" HC_abs="276.120769" PMx_abs="66.606401" NOx_abs="1303.943233" fuel_abs="1305.727308" electricity_abs="0"
            CO_normed="114872.044035" CO2_normed="7873982.253199" HC_normed="715.745688" PMx_normed="172.653598" NOx_normed="3380.012846" fuel_normed="3384.637431" electricity_normed="0"
            traveltime="0.02" CO_perVeh="2.729724" CO2_perVeh="187.110810" HC_perVeh="0.017008" PMx_perVeh="0.004103" NOx_perVeh="0.080320" fuel_perVeh="0.080430" electricity_perVeh="0"/>
        <edge id=":1110673414_0" sampledSeconds="0.00" CO_abs="0" CO2_abs="0" HC_abs="0" PMx_abs="0" NOx_abs="0" fuel_abs="0" electricity_abs="0"
            CO_normed="0" CO2_normed="0" HC_normed="0" PMx_normed="0" NOx_normed="0" fuel_normed="0" electricity_normed="0"/>
        <edge id=":1110673414_1" sampledSeconds="181.65" CO_abs="11372.646670" CO2_abs="433908.283225" HC_abs="61.837554" PMx_abs="7.903613" NOx_abs="182.502745" fuel_abs="186.521898" electricity_abs="0"
            CO_normed="946.741599" CO2_normed="36121.672789" HC_normed="5.147807" PMx_normed="0.657954" NOx_normed="15.192852" fuel_normed="15.527436" electricity_normed="0"
            traveltime="1.59" CO_perVeh="99.366231" CO2_perVeh="3791.187032" HC_perVeh="0.540293" PMx_perVeh="0.069056" NOx_perVeh="1.594581" fuel_perVeh="1.629698" electricity_perVeh="0"/>
        <edge id=":1110673417_0" sampledSeconds="29.62" CO_abs="480.552382" CO2_abs="53704.963491" HC_abs="3.415933" PMx_abs="0.774383" NOx_abs="20.384050" fuel_abs="23.085481" electricity_abs="0"
            CO_normed="1290.150474" CO2_normed="144183.000154" HC_normed="9.170838" PMx_normed="2.079004" NOx_normed="54.725546" fuel_normed="61.978142" electricity_normed="0"
            traveltime="0.02" CO_perVeh="0.356672" CO2_perVeh="39.860543" HC_perVeh="0.002535" PMx_perVeh="0.000575" NOx_perVeh="0.015129" fuel_perVeh="0.017134" electricity_perVeh="0"/>
        <edge id=":1110673446_0" sampledSeconds="333.58" CO_abs="3477.148204" CO2_abs="288551.867501" HC_abs="22.683675" PMx_abs="5.222345" NOx_abs="117.467178" fuel_abs="124.035228" electricity_abs="0"
            CO_normed="8712.837429" CO2_normed="723036.627691" HC_normed="56.839444" PMx_normed="13.085851" NOx_normed="294.342481" fuel_normed="310.800322" electricity_normed="0"
            traveltime="0.02" CO_perVeh="0.237245" CO2_perVeh="19.687806" HC_perVeh="0.001548" PMx_perVeh="0.000356" NOx_perVeh="0.008015" fuel_perVeh="0.008463" electricity_perVeh="0"/>
        <edge id=":1110673451_0" sampledSeconds="37.33" CO_abs="424.085456" CO2_abs="33033.552803" HC_abs="2.684772" PMx_abs="0.449864" NOx_abs="12.634637" fuel_abs="14.199845" electricity_abs="0"
            CO_normed="1180.720973" CO2_normed="91970.634937" HC_normed="7.474830" PMx_normed="1.252493" NOx_normed="35.176827" fuel_normed="39.534613" electricity_normed="0"
            traveltime="0.03" CO_perVeh="0.304125" CO2_perVeh="23.689400" HC_perVeh="0.001925" PMx_perVeh="0.000323" NOx_perVeh="0.009061" fuel_perVeh="0.010183" electricity_perVeh="0"/>
        <edge id=":1110673464_0" sampledSeconds="324.17" CO_abs="387.613931" CO2_abs="35984.449058" HC_abs="2.573843" PMx_abs="0.426621" NOx_abs="13.239656" fuel_abs="15.468365" electricity_abs="0"
            CO_normed="20.635849" CO2_normed="1915.745547" HC_normed="0.137027" PMx_normed="0.022712" NOx_normed="0.704855" fuel_normed="0.823507" electricity_normed="0"
            traveltime="1.17" CO_perVeh="1.401173" CO2_perVeh="130.079036" HC_perVeh="0.009304" PMx_perVeh="0.001542" NOx_perVeh="0.047860" fuel_perVeh="0.055916" electricity_perVeh="0"/>
        <edge id=":1110673464_1" sampledSeconds="709.25" CO_abs="15187.019207" CO2_abs="1966126.830316" HC_abs="116.190609" PMx_abs="34.775619" NOx_abs="736.580330" fuel_abs="845.147793" electricity_abs="0"
            CO_normed="792.257255" CO2_normed="102566.423678" HC_normed="6.061285" PMx_normed="1.814131" NOx_normed="38.424993" fuel_normed="44.088604" electricity_normed="0"
            traveltime="0.70" CO_perVeh="14.992985" CO2_perVeh="1941.006969" HC_perVeh="0.114706" PMx_perVeh="0.034331" NOx_perVeh="0.727170" fuel_perVeh="0.834350" electricity_perVeh="0"/>
        <edge id=":1110673479_0" sampledSeconds="133.27" CO_abs="6862.904568" CO2_abs="474049.868507" HC_abs="42.407547" PMx_abs="8.400428" NOx_abs="194.548354" fuel_abs="203.773298" electricity_abs="0"
            CO_normed="17196.670456" CO2_normed="1187846.820231" HC_normed="106.262386" PMx_normed="21.049308" NOx_normed="487.488046" fuel_normed="510.603377" electricity_normed="0"
            traveltime="0.03" CO_perVeh="1.445742" CO2_perVeh="99.863511" HC_perVeh="0.008934" PMx_perVeh="0.001770" NOx_perVeh="0.040984" fuel_perVeh="0.042927" electricity_perVeh="0"/>
        <edge id=":1110673511_0" sampledSeconds="11.75" CO_abs="272.234286" CO2_abs="32861.067884" HC_abs="2.000351" PMx_abs="0.457842" NOx_abs="12.344300" fuel_abs="14.125587" electricity_abs="0"
            CO_normed="682.148973" CO2_normed="82341.368680" HC_normed="5.012363" PMx_normed="1.147234" NOx_normed="30.931635" fuel_normed="35.395080" electricity_normed="0"
            traveltime="0.02" CO_perVeh="0.539078" CO2_perVeh="65.071422" HC_perVeh="0.003961" PMx_perVeh="0.000907" NOx_perVeh="0.024444" fuel_perVeh="0.027971" electricity_perVeh="0"/>
        <edge id=":1110673517_0" sampledSeconds="17.16" CO_abs="719.467174" CO2_abs="52342.068660" HC_abs="4.506197" PMx_abs="0.907403" NOx_abs="21.292445" fuel_abs="22.499569" electricity_abs="0"
            CO_normed="1802.799351" CO2_normed="131155.736880" HC_normed="11.291368" PMx_normed="2.273718" NOx_normed="53.353381" fuel_normed="56.378123" electricity_normed="0"
            traveltime="0.03" CO_perVeh="1.155152" CO2_perVeh="84.038644" HC_perVeh="0.007235" PMx_perVeh="0.001457" NOx_perVeh="0.034186" fuel_perVeh="0.036125" electricity_perVeh="0"/>
        <edge id=":1110673534_0" sampledSeconds="476.61" CO_abs="3039.829258" CO2_abs="266313.844269" HC_abs="19.908452" PMx_abs="3.508894" NOx_abs="100.515770" fuel_abs="114.477920" electricity_abs="0"
            CO_normed="147.616838" CO2_normed="12932.439373" HC_normed="0.966772" PMx_normed="0.170395" NOx_normed="4.881136" fuel_normed="5.559151" electricity_normed="0"
            traveltime="1.44" CO_perVeh="9.157787" CO2_perVeh="802.296875" HC_perVeh="0.059976" PMx_perVeh="0.010571" NOx_perVeh="0.302814" fuel_perVeh="0.344876" electricity_perVeh="0"/>
        <edge id=":1110673534_1" sampledSeconds="184.21" CO_abs="2990.485647" CO2_abs="365844.330968" HC_abs="21.929915" PMx_abs="5.058735" NOx_abs="136.983039" fuel_abs="157.261057" electricity_abs="0"
            CO_normed="141.207031" CO2_normed="17274.716549" HC_normed="1.035503" PMx_normed="0.238867" NOx_normed="6.468170" fuel_normed="7.425673" electricity_normed="0"
            traveltime="1.22" CO_perVeh="19.855751" CO2_perVeh="2429.075017" HC_perVeh="0.145607" PMx_perVeh="0.033588" NOx_perVeh="0.909518" fuel_perVeh="1.044157" electricity_perVeh="0"/>
        <edge id=":1110673549_0" sampledSeconds="59.03" CO_abs="119.686194" CO2_abs="13967.849637" HC_abs="0.868316" PMx_abs="0.194034" NOx_abs="5.229936" fuel_abs="6.004195" electricity_abs="0"
            CO_normed="5.630215" CO2_normed="657.068186" HC_normed="0.040847" PMx_normed="0.009128" NOx_normed="0.246024" fuel_normed="0.282446" electricity_normed="0"
            traveltime="1.23" CO_perVeh="2.493560" CO2_perVeh="291.008249" HC_perVeh="0.018091" PMx_perVeh="0.004043" NOx_perVeh="0.108961" fuel_perVeh="0.125092" electricity_perVeh="0"/>
        <edge id=":1110673549_1" sampledSeconds="638.56" CO_abs="13484.371205" CO2_abs="1809392.737002" HC_abs="104.608413" PMx_abs="31.678355" NOx_abs="673.660946" fuel_abs="777.775274" electricity_abs="0"
            CO_normed="613.590067" CO2_normed="82334.236666" HC_normed="4.760080" PMx_normed="1.441485" NOx_normed="30.654130" fuel_normed="35.391727" electricity_normed="0"
            traveltime="0.80" CO_perVeh="16.978310" CO2_perVeh="2278.224898" HC_perVeh="0.131714" PMx_perVeh="0.039887" NOx_perVeh="0.848213" fuel_perVeh="0.979305" electricity_perVeh="0"/>
        <edge id=":1110673556_0" sampledSeconds="414.98" CO_abs="50746.923365" CO2_abs="2556597.188650" HC_abs="291.871763" PMx_abs="51.597208" NOx_abs="1101.181966" fuel_abs="1098.970234" electricity_abs="0"
            CO_normed="1770.190911" CO2_normed="89181.073595" HC_normed="10.181282" PMx_normed="1.799851" NOx_normed="38.412226" fuel_normed="38.335075" electricity_normed="0"
            traveltime="2.58" CO_perVeh="315.012155" CO2_perVeh="15870.108715" HC_perVeh="1.811798" PMx_perVeh="0.320290" NOx_perVeh="6.835601" fuel_perVeh="6.821871" electricity_perVeh="0"/>
        <edge id=":1110673556_2" sampledSeconds="246.86" CO_abs="23267.534213" CO2_abs="1004046.724957" HC_abs="129.534254" PMx_abs="19.405900" NOx_abs="428.444195" fuel_abs="431.600143" electricity_abs="0"
            CO_normed="848.652770" CO2_normed="36621.286407" HC_normed="4.724592" PMx_normed="0.707805" NOx_normed="15.626940" fuel_normed="15.742049" electricity_normed="0"
            traveltime="2.99" CO_perVeh="282.231243" CO2_perVeh="12178.916450" HC_perVeh="1.571229" PMx_perVeh="0.235390" NOx_perVeh="5.196955" fuel_perVeh="5.235237" electricity_perVeh="0"/>
        <edge id=":1110673556_3" sampledSeconds="413.60" CO_abs="34977.841283" CO2_abs="1247834.724647" HC_abs="188.316721" PMx_abs="23.824479" NOx_abs="532.239258" fuel_abs="536.400463" electricity_abs="0"
            CO_normed="2902.167463" CO2_normed="103534.843894" HC_normed="15.624940" PMx_normed="1.976755" NOx_normed="44.160743" fuel_normed="44.506005" electricity_normed="0"
            traveltime="1.74" CO_perVeh="147.096698" CO2_perVeh="5247.675693" HC_perVeh="0.791952" PMx_perVeh="0.100192" NOx_perVeh="2.238292" fuel_perVeh="2.255792" electricity_perVeh="0"/>
        <edge id=":1110673556_4" sampledSeconds="199.71" CO_abs="20678.122711" CO2_abs="828906.067072" HC_abs="113.618976" PMx_abs="16.240343" NOx_abs="355.633697" fuel_abs="356.314941" electricity_abs="0"
            CO_normed="1048.160094" CO2_normed="42016.689481" HC_normed="5.759269" PMx_normed="0.823212" NOx_normed="18.026832" fuel_normed="18.061364" electricity_normed="0"
            traveltime="2.40" CO_perVeh="248.598797" CO2_perVeh="9965.365513" HC_perVeh="1.365963" PMx_perVeh="0.195246" NOx_perVeh="4.275538" fuel_perVeh="4.283729" electricity_perVeh="0"/>
        <edge id=":1110673556_5" sampledSeconds="25.01" CO_abs="2088.083970" CO2_abs="83816.376685" HC_abs="11.465471" PMx_abs="1.588830" NOx_abs="35.633357" fuel_abs="36.029524" electricity_abs="0"
            CO_normed="147.524447" CO2_normed="5921.679775" HC_normed="0.810043" PMx_normed="0.112252" NOx_normed="2.517519" fuel_normed="2.545509" electricity_normed="0"
            traveltime="1.73" CO_perVeh="144.361361" CO2_perVeh="5794.712462" HC_perVeh="0.792675" PMx_perVeh="0.109845" NOx_perVeh="2.463541" fuel_perVeh="2.490930" electricity_perVeh="0"/>
        <edge id=":1110673556_6" sampledSeconds="313.09" CO_abs="37216.223486" CO2_abs="1878437.363566" HC_abs="214.126186" PMx_abs="37.828730" NOx_abs="808.110801" fuel_abs="807.458853" electricity_abs="0"
            CO_normed="1330.936247" CO2_normed="67177.164733" HC_normed="7.657636" PMx_normed="1.352841" NOx_normed="28.899868" fuel_normed="28.876553" electricity_normed="0"
            traveltime="2.48" CO_perVeh="294.722552" CO2_perVeh="14875.712853" HC_perVeh="1.695707" PMx_perVeh="0.299573" NOx_perVeh="6.399587" fuel_perVeh="6.394425" electricity_perVeh="0"/>
        <edge id=":1110673561_0" sampledSeconds="101.14" CO_abs="9787.442466" CO2_abs="702733.744928" HC_abs="61.474823" PMx_abs="14.218626" NOx_abs="297.178258" fuel_abs="302.071732" electricity_abs="0"
            CO_normed="439.775413" CO2_normed="31575.666862" HC_normed="2.762225" PMx_normed="0.638880" NOx_normed="13.352997" fuel_normed="13.572874" electricity_normed="0"
            traveltime="1.19" CO_perVeh="115.501321" CO2_perVeh="8292.940263" HC_perVeh="0.725463" PMx_perVeh="0.167794" NOx_perVeh="3.506992" fuel_perVeh="3.564740" electricity_perVeh="0"/>
        <edge id=":1110673561_1" sampledSeconds="1309.46" CO_abs="124895.315323" CO2_abs="8630887.919423" HC_abs="777.631750" PMx_abs="180.809266" NOx_abs="3692.858273" fuel_abs="3710.001515" electricity_abs="0"
            CO_normed="5471.249614" CO2_normed="378090.579931" HC_normed="34.065468" PMx_normed="7.920654" NOx_normed="161.771876" fuel_normed="162.522864" electricity_normed="0"
            traveltime="1.19" CO_perVeh="113.360321" CO2_perVeh="7833.762389" HC_perVeh="0.705812" PMx_perVeh="0.164110" NOx_perVeh="3.351796" fuel_perVeh="3.367356" electricity_perVeh="0"/>
        <edge id=":1110673562_0" sampledSeconds="103.95" CO_abs="2054.935440" CO2_abs="168203.070850" HC_abs="13.174791" PMx_abs="2.162137" NOx_abs="63.344520" fuel_abs="72.304107" electricity_abs="0"
            CO_normed="5721.265234" CO2_normed="468303.948912" HC_normed="36.680701" PMx_normed="6.019732" NOx_normed="176.361161" fuel_normed="201.306069" electricity_normed="0"
            traveltime="0.03" CO_perVeh="0.523812" CO2_perVeh="42.875728" HC_perVeh="0.003358" PMx_perVeh="0.000551" NOx_perVeh="0.016147" fuel_perVeh="0.018431" electricity_perVeh="0"/>
        <edge id=":1110673564_0" sampledSeconds="28.67" CO_abs="451.791917" CO2_abs="53818.845695" HC_abs="3.275910" PMx_abs="0.749782" NOx_abs="20.206991" fuel_abs="23.134452" electricity_abs="0"
            CO_normed="3396.222389" CO2_normed="404568.478807" HC_normed="24.625762" PMx_normed="5.636279" NOx_normed="151.900536" fuel_normed="173.906927" electricity_normed="0"
            traveltime="7.880605e-03" CO_perVeh="0.124204" CO2_perVeh="14.795559" HC_perVeh="0.000901" PMx_perVeh="0.000206" NOx_perVeh="0.005555" fuel_perVeh="0.006360" electricity_perVeh="0"/>
        <edge id=":1110673588_0" sampledSeconds="11.69" CO_abs="164.781014" CO2_abs="21012.570679" HC_abs="1.234877" PMx_abs="0.279420" NOx_abs="7.780934" fuel_abs="9.032433" electricity_abs="0"
            CO_normed="495.478513" CO2_normed="63182.505278" HC_normed="3.713141" PMx_normed="0.840186" NOx_normed="23.396418" fuel_normed="27.159539" electricity_normed="0"
            traveltime="0.02" CO_perVeh="0.274635" CO2_perVeh="35.020951" HC_perVeh="0.002058" PMx_perVeh="0.000466" NOx_perVeh="0.012968" fuel_perVeh="0.015054" electricity_perVeh="0"/>
        <edge id=":1110673601_0" sampledSeconds="29.52" CO_abs="424.776916" CO2_abs="51312.195985" HC_abs="3.107152" PMx_abs="0.710659" NOx_abs="19.236408" fuel_abs="22.056953" electricity_abs="0"
            CO_normed="1140.408749" CO2_normed="137759.079994" HC_normed="8.341846" PMx_normed="1.907923" NOx_normed="51.644444" fuel_normed="59.216829" electricity_normed="0"
            traveltime="0.02" CO_perVeh="0.315275" CO2_perVeh="38.084599" HC_perVeh="0.002306" PMx_perVeh="0.000527" NOx_perVeh="0.014278" fuel_perVeh="0.016371" electricity_perVeh="0"/>
        <edge id=":1110673617_0" sampledSeconds="238.50" CO_abs="5893.842450" CO2_abs="707938.404522" HC_abs="43.841688" PMx_abs="12.806308" NOx_abs="268.423455" fuel_abs="304.310062" electricity_abs="0"
            CO_normed="14768.450490" CO2_normed="1773911.224527" HC_normed="109.855974" PMx_normed="32.089309" NOx_normed="672.600012" fuel_normed="762.522604" electricity_normed="0"
            traveltime="0.01" CO_perVeh="0.360960" CO2_perVeh="43.356731" HC_perVeh="0.002685" PMx_perVeh="0.000784" NOx_perVeh="0.016439" fuel_perVeh="0.018637" electricity_perVeh="0"/>
        <edge id=":1110673621_0" sampledSeconds="25.80" CO_abs="590.709399" CO2_abs="59412.399847" HC_abs="4.066448" PMx_abs="0.906552" NOx_abs="22.973051" fuel_abs="25.538831" electricity_abs="0"
            CO_normed="1776.198651" CO2_normed="178646.597994" HC_normed="12.227366" PMx_normed="2.725902" NOx_normed="69.077456" fuel_normed="76.792476" electricity_normed="0"
            traveltime="0.02" CO_perVeh="0.447523" CO2_perVeh="45.011003" HC_perVeh="0.003081" PMx_perVeh="0.000687" NOx_perVeh="0.017404" fuel_perVeh="0.019348" electricity_perVeh="0"/>
        <edge id=":1110673630_0" sampledSeconds="54.47" CO_abs="140.994537" CO2_abs="13679.476700" HC_abs="0.950373" PMx_abs="0.159219" NOx_abs="5.013266" fuel_abs="5.880293" electricity_abs="0"
            CO_normed="7.559828" CO2_normed="733.464560" HC_normed="0.050957" PMx_normed="0.008537" NOx_normed="0.268801" fuel_normed="0.315289" electricity_normed="0"
            traveltime="1.27" CO_perVeh="3.291062" CO2_perVeh="319.303182" HC_perVeh="0.022183" PMx_perVeh="0.003716" NOx_perVeh="0.117019" fuel_perVeh="0.137256" electricity_perVeh="0"/>
        <edge id=":1110673630_1" sampledSeconds="7.42" CO_abs="36.697516" CO2_abs="3411.793716" HC_abs="0.245468" PMx_abs="0.047116" NOx_abs="1.297331" fuel_abs="1.466592" electricity_abs="0"
            CO_normed="2.398814" CO2_normed="223.019372" HC_normed="0.016046" PMx_normed="0.003080" NOx_normed="0.084803" fuel_normed="0.095867" electricity_normed="0"
            traveltime="1.05" CO_perVeh="5.194110" CO2_perVeh="482.900034" HC_perVeh="0.034743" PMx_perVeh="0.006669" NOx_perVeh="0.183622" fuel_perVeh="0.207579" electricity_perVeh="0"/>
        <edge id=":1110673650_0" sampledSeconds="142.91" CO_abs="2573.921522" CO2_abs="317826.887529" HC_abs="19.001563" PMx_abs="4.409546" NOx_abs="119.068305" fuel_abs="136.620353" electricity_abs="0"
            CO_normed="6449.584103" CO2_normed="796392.284473" HC_normed="47.613021" PMx_normed="11.049187" NOx_normed="298.354492" fuel_normed="342.335401" electricity_normed="0"
            traveltime="0.02" CO_perVeh="0.413260" CO2_perVeh="51.029203" HC_perVeh="0.003051" PMx_perVeh="0.000708" NOx_perVeh="0.019117" fuel_perVeh="0.021935" electricity_perVeh="0"/>
        <edge id=":1110673655_0" sampledSeconds="44.55" CO_abs="829.286575" CO2_abs="93064.519616" HC_abs="5.917309" PMx_abs="1.312631" NOx_abs="35.175600" fuel_abs="40.004522" electricity_abs="0"
            CO_normed="2077.978472" CO2_normed="233195.705865" HC_normed="14.827252" PMx_normed="3.289115" NOx_normed="88.140989" fuel_normed="100.241023" electricity_normed="0"
            traveltime="0.02" CO_perVeh="0.443825" CO2_perVeh="49.807075" HC_perVeh="0.003167" PMx_perVeh="0.000703" NOx_perVeh="0.018826" fuel_perVeh="0.021410" electricity_perVeh="0"/>
        <edge id=":1110673663_0" sampledSeconds="108.63" CO_abs="2009.590721" CO2_abs="229379.172722" HC_abs="14.394589" PMx_abs="3.200938" NOx_abs="86.410422" fuel_abs="98.600480" electricity_abs="0"
            CO_normed="92.225577" CO2_normed="10526.833367" HC_normed="0.660607" PMx_normed="0.146900" NOx_normed="3.965609" fuel_normed="4.525044" electricity_normed="0"
            traveltime="1.28" CO_perVeh="23.603591" CO2_perVeh="2694.166594" HC_perVeh="0.169071" PMx_perVeh="0.037597" NOx_perVeh="1.014931" fuel_perVeh="1.158109" electricity_perVeh="0"/>
        <edge id=":1110673663_1" sampledSeconds="154.66" CO_abs="3035.737849" CO2_abs="368492.947790" HC_abs="22.244416" PMx_abs="5.205232" NOx_abs="138.588880" fuel_abs="158.399453" electricity_abs="0"
            CO_normed="139.488572" CO2_normed="16931.816189" HC_normed="1.022105" PMx_normed="0.239174" NOx_normed="6.367996" fuel_normed="7.278268" electricity_normed="0"
            traveltime="1.25" CO_perVeh="24.561080" CO2_perVeh="2981.345983" HC_perVeh="0.179972" PMx_perVeh="0.042114" NOx_perVeh="1.121274" fuel_perVeh="1.281554" electricity_perVeh="0"/>
        <edge id=":1110673666_0" sampledSeconds="191.74" CO_abs="3360.295809" CO2_abs="285562.091998" HC_abs="21.781305" PMx_abs="3.626965" NOx_abs="107.135295" fuel_abs="122.752260" electricity_abs="0"