<?xml version="1.0" encoding="UTF-8"?>

<!-- generated on Mon Nov  9 20:12:13 2020 by Eclipse SUMO sumo Version 1.7.0
<configuration xmlns:xsi="http://www.w3.org/2001/XMLSchema-instance" xsi:noNamespaceSchemaLocation="http://sumo.dlr.de/xsd/sumoConfiguration.xsd">

    <input>
        <net-file value="../dataSets/Angeja_Estarreja/angeja_estarreja.net.xml"/>
        <route-files value="../results/angeja_estarreja/cost_PMx-ttime/solution13/angeja_estarreja.rou.xml"/>
        <additional-files value="moreOutputInfo.xml"/>
    </input>

    <output>
        <emission-output.precision value="6"/>
        <tripinfo-output value="../results/angeja_estarreja/cost_PMx-ttime/solution13/angeja_estarreja-tripinfo"/>
    </output>

    <processing>
        <collision.action value="warn"/>
        <time-to-teleport value="-1"/>
    </processing>

    <emissions>
        <device.emissions.probability value="1"/>
    </emissions>

    <gui_only>
        <quit-on-end value="true"/>
        <start value="true"/>
    </gui_only>

</configuration>
-->

<meandata xmlns:xsi="http://www.w3.org/2001/XMLSchema-instance" xsi:noNamespaceSchemaLocation="http://sumo.dlr.de/xsd/meandata_file.xsd">
    <interval begin="0.00" end="19078.00" id="emissions-detector">
        <edge id=":10_0" sampledSeconds="400.47" CO_abs="41118.883935" CO2_abs="2249413.694414" HC_abs="240.629220" PMx_abs="44.290600" NOx_abs="961.115882" fuel_abs="966.924107" electricity_abs="0"
            CO_normed="443.630264" CO2_normed="24268.849118" HC_normed="2.596141" PMx_normed="0.477850" NOx_normed="10.369447" fuel_normed="10.432112" electricity_normed="0"
            traveltime="1.92" CO_perVeh="196.964500" CO2_perVeh="10774.967627" HC_perVeh="1.152643" PMx_perVeh="0.212157" NOx_perVeh="4.603863" fuel_perVeh="4.631685" electricity_perVeh="0"/>
        <edge id=":10_1" sampledSeconds="0.00" CO_abs="0" CO2_abs="0" HC_abs="0" PMx_abs="0" NOx_abs="0" fuel_abs="0" electricity_abs="0"
            CO_normed="0" CO2_normed="0" HC_normed="0" PMx_normed="0" NOx_normed="0" fuel_normed="0" electricity_normed="0"/>
        <edge id=":100_0" sampledSeconds="0.00" CO_abs="0" CO2_abs="0" HC_abs="0" PMx_abs="0" NOx_abs="0" fuel_abs="0" electricity_abs="0"
            CO_normed="0" CO2_normed="0" HC_normed="0" PMx_normed="0" NOx_normed="0" fuel_normed="0" electricity_normed="0"/>
        <edge id=":100_1" sampledSeconds="911.80" CO_abs="21224.725779" CO2_abs="2710427.504010" HC_abs="162.428398" PMx_abs="48.843791" NOx_abs="1010.136314" fuel_abs="1165.088673" electricity_abs="0"
            CO_normed="135.490022" CO2_normed="17302.267506" HC_normed="1.036877" PMx_normed="0.311799" NOx_normed="6.448300" fuel_normed="7.437453" electricity_normed="0"
            traveltime="1.37" CO_perVeh="31.913261" CO2_perVeh="4075.368510" HC_perVeh="0.244226" PMx_perVeh="0.073441" NOx_perVeh="1.518830" fuel_perVeh="1.751814" electricity_perVeh="0"/>
        <edge id=":101_0" sampledSeconds="438.25" CO_abs="10349.103592" CO2_abs="1322333.304366" HC_abs="79.280216" PMx_abs="23.835547" NOx_abs="492.846468" fuel_abs="568.410536" electricity_abs="0"
            CO_normed="239.028857" CO2_normed="30541.371522" HC_normed="1.831102" PMx_normed="0.550520" NOx_normed="11.383066" fuel_normed="13.128337" electricity_normed="0"
            traveltime="0.38" CO_perVeh="8.940282" CO2_perVeh="1142.324254" HC_perVeh="0.068488" PMx_perVeh="0.020591" NOx_perVeh="0.425755" fuel_perVeh="0.491033" electricity_perVeh="0"/>
        <edge id=":102_0" sampledSeconds="341.78" CO_abs="7925.971618" CO2_abs="984597.990316" HC_abs="60.033282" PMx_abs="17.884621" NOx_abs="368.698999" fuel_abs="423.233479" electricity_abs="0"
            CO_normed="184.644829" CO2_normed="22937.368005" HC_normed="1.398546" PMx_normed="0.416643" NOx_normed="8.589277" fuel_normed="9.859722" electricity_normed="0"
            traveltime="0.38" CO_perVeh="8.719285" CO2_perVeh="1083.146758" HC_perVeh="0.066042" PMx_perVeh="0.019675" NOx_perVeh="0.405602" fuel_perVeh="0.465595" electricity_perVeh="0"/>
        <edge id=":103_0" sampledSeconds="434.33" CO_abs="9838.899997" CO2_abs="1248964.532067" HC_abs="75.126979" PMx_abs="22.550172" NOx_abs="465.817349" fuel_abs="536.872641" electricity_abs="0"
            CO_normed="230.632402" CO2_normed="29276.818575" HC_normed="1.761042" PMx_normed="0.528596" NOx_normed="10.919165" fuel_normed="12.584763" electricity_normed="0"
            traveltime="0.37" CO_perVeh="8.453211" CO2_perVeh="1073.063155" HC_perVeh="0.064546" PMx_perVeh="0.019374" NOx_perVeh="0.400213" fuel_perVeh="0.461261" electricity_perVeh="0"/>
        <edge id=":104_0" sampledSeconds="340.71" CO_abs="8848.055180" CO2_abs="1066365.317101" HC_abs="66.229020" PMx_abs="19.543664" NOx_abs="401.168378" fuel_abs="458.381383" electricity_abs="0"
            CO_normed="206.380641" CO2_normed="24872.941371" HC_normed="1.544790" PMx_normed="0.455855" NOx_normed="9.357241" fuel_normed="10.691733" electricity_normed="0"
            traveltime="0.37" CO_perVeh="9.729208" CO2_perVeh="1172.561657" HC_perVeh="0.072825" PMx_perVeh="0.021490" NOx_perVeh="0.441120" fuel_perVeh="0.504030" electricity_perVeh="0"/>
        <edge id=":105_0" sampledSeconds="168.60" CO_abs="4058.518734" CO2_abs="511010.739769" HC_abs="30.858118" PMx_abs="9.241805" NOx_abs="190.820653" fuel_abs="219.660094" electricity_abs="0"
            CO_normed="3481.084219" CO2_normed="438305.583577" HC_normed="26.467712" PMx_normed="7.926907" NOx_normed="163.671232" fuel_normed="188.407480" electricity_normed="0"
            traveltime="0.01" CO_perVeh="0.245427" CO2_perVeh="30.901904" HC_perVeh="0.001866" PMx_perVeh="0.000559" NOx_perVeh="0.011539" fuel_perVeh="0.013283" electricity_perVeh="0"/>
        <edge id=":106_0" sampledSeconds="134.60" CO_abs="3076.219001" CO2_abs="381584.933271" HC_abs="23.300958" PMx_abs="6.936437" NOx_abs="142.935844" fuel_abs="164.025844" electricity_abs="0"
            CO_normed="1872.514601" CO2_normed="232273.241561" HC_normed="14.183445" PMx_normed="4.222254" NOx_normed="87.005982" fuel_normed="99.843603" electricity_normed="0"
            traveltime="0.01" CO_perVeh="0.328910" CO2_perVeh="40.799201" HC_perVeh="0.002491" PMx_perVeh="0.000742" NOx_perVeh="0.015283" fuel_perVeh="0.017538" electricity_perVeh="0"/>
        <edge id=":107_0" sampledSeconds="438.78" CO_abs="11229.832259" CO2_abs="1375359.098568" HC_abs="84.593148" PMx_abs="25.077612" NOx_abs="516.381280" fuel_abs="591.203657" electricity_abs="0"
            CO_normed="259.370673" CO2_normed="31766.085802" HC_normed="1.953812" PMx_normed="0.579207" NOx_normed="11.926639" fuel_normed="13.654780" electricity_normed="0"
            traveltime="0.38" CO_perVeh="9.701117" CO2_perVeh="1188.131655" HC_perVeh="0.073077" PMx_perVeh="0.021664" NOx_perVeh="0.446086" fuel_perVeh="0.510723" electricity_perVeh="0"/>
        <edge id=":108_0" sampledSeconds="92.96" CO_abs="7282.111745" CO2_abs="535746.834583" HC_abs="45.999462" PMx_abs="10.661597" NOx_abs="225.263921" fuel_abs="230.292150" electricity_abs="0"
            CO_normed="114.225053" CO2_normed="8403.566531" HC_normed="0.721534" PMx_normed="0.167235" NOx_normed="3.533423" fuel_normed="3.612295" electricity_normed="0"
            traveltime="0.86" CO_perVeh="67.265549" CO2_perVeh="4948.743763" HC_perVeh="0.424901" PMx_perVeh="0.098482" NOx_perVeh="2.080784" fuel_perVeh="2.127230" electricity_perVeh="0"/>
        <edge id=":108_1" sampledSeconds="403.47" CO_abs="9465.440735" CO2_abs="1220159.317663" HC_abs="72.768523" PMx_abs="21.937265" NOx_abs="454.186131" fuel_abs="524.490655" electricity_abs="0"
            CO_normed="138.458871" CO2_normed="17848.284779" HC_normed="1.064446" PMx_normed="0.320895" NOx_normed="6.643758" fuel_normed="7.672161" electricity_normed="0"
            traveltime="0.60" CO_perVeh="14.061147" CO2_perVeh="1812.576890" HC_perVeh="0.108099" PMx_perVeh="0.032588" NOx_perVeh="0.674705" fuel_perVeh="0.779144" electricity_perVeh="0"/>
        <edge id=":109_0" sampledSeconds="308.28" CO_abs="174.400160" CO2_abs="31957.025418" HC_abs="1.525163" PMx_abs="0.406467" NOx_abs="11.488336" fuel_abs="13.736985" electricity_abs="0"
            CO_normed="2.622242" CO2_normed="480.498768" HC_normed="0.022932" PMx_normed="0.006112" NOx_normed="0.172736" fuel_normed="0.206546" electricity_normed="0"
            traveltime="0.86" CO_perVeh="0.484735" CO2_perVeh="88.822596" HC_perVeh="0.004239" PMx_perVeh="0.001130" NOx_perVeh="0.031931" fuel_perVeh="0.038181" electricity_perVeh="0"/>
        <edge id=":109_1" sampledSeconds="524.26" CO_abs="12238.968931" CO2_abs="1542050.158556" HC_abs="93.172267" PMx_abs="27.895174" NOx_abs="575.930296" fuel_abs="662.856675" electricity_abs="0"
            CO_normed="120.035421" CO2_normed="15123.875338" HC_normed="0.913800" PMx_normed="0.273586" NOx_normed="5.648518" fuel_normed="6.501061" electricity_normed="0"
            traveltime="0.89" CO_perVeh="20.840063" CO2_perVeh="2625.745907" HC_perVeh="0.158650" PMx_perVeh="0.047499" NOx_perVeh="0.980673" fuel_perVeh="1.128688" electricity_perVeh="0"/>
        <edge id=":11_0" sampledSeconds="282.59" CO_abs="18000.819277" CO2_abs="1274943.338667" HC_abs="112.163518" PMx_abs="23.417408" NOx_abs="527.473168" fuel_abs="548.040822" electricity_abs="0"
            CO_normed="186.122578" CO2_normed="13182.496713" HC_normed="1.159734" PMx_normed="0.242128" NOx_normed="5.453900" fuel_normed="5.666563" electricity_normed="0"
            traveltime="1.59" CO_perVeh="101.299708" CO2_perVeh="7174.750518" HC_perVeh="0.631201" PMx_perVeh="0.131782" NOx_perVeh="2.968358" fuel_perVeh="3.084103" electricity_perVeh="0"/>
        <edge id=":11_1" sampledSeconds="51.10" CO_abs="1005.076759" CO2_abs="83387.128669" HC_abs="6.488539" PMx_abs="1.165909" NOx_abs="31.990576" fuel_abs="35.844804" electricity_abs="0"
            CO_normed="10.654888" CO2_normed="883.992690" HC_normed="0.068785" PMx_normed="0.012360" NOx_normed="0.339134" fuel_normed="0.379993" electricity_normed="0"
            traveltime="1.68" CO_perVeh="33.056848" CO2_perVeh="2742.592185" HC_perVeh="0.213407" PMx_perVeh="0.038347" NOx_perVeh="1.052166" fuel_perVeh="1.178931" electricity_perVeh="0"/>
        <edge id=":110_0" sampledSeconds="95.48" CO_abs="3.163199" CO2_abs="467.749195" HC_abs="0.024861" PMx_abs="0.004523" NOx_abs="0.163384" fuel_abs="0.201068" electricity_abs="0"
            CO_normed="0.041024" CO2_normed="6.066242" HC_normed="0.000322" PMx_normed="0.000059" NOx_normed="0.002119" fuel_normed="0.002608" electricity_normed="0"
            traveltime="0.93" CO_perVeh="0.030970" CO2_perVeh="4.579605" HC_perVeh="0.000243" PMx_perVeh="0.000044" NOx_perVeh="0.001600" fuel_perVeh="0.001969" electricity_perVeh="0"/>
        <edge id=":110_1" sampledSeconds="444.20" CO_abs="10409.807305" CO2_abs="1271707.634574" HC_abs="78.229578" PMx_abs="23.200462" NOx_abs="477.217928" fuel_abs="546.648673" electricity_abs="0"
            CO_normed="133.627244" CO2_normed="16324.489170" HC_normed="1.004207" PMx_normed="0.297817" NOx_normed="6.125888" fuel_normed="7.017148" electricity_normed="0"
            traveltime="0.68" CO_perVeh="15.991019" CO2_perVeh="1953.532919" HC_perVeh="0.120172" PMx_perVeh="0.035639" NOx_perVeh="0.733078" fuel_perVeh="0.839734" electricity_perVeh="0"/>
        <edge id=":111_0" sampledSeconds="340.70" CO_abs="8532.908408" CO2_abs="1061844.287758" HC_abs="64.667866" PMx_abs="19.280812" NOx_abs="397.389512" fuel_abs="456.438133" electricity_abs="0"
            CO_normed="197.080967" CO2_normed="24524.967180" HC_normed="1.493606" PMx_normed="0.445321" NOx_normed="9.178337" fuel_normed="10.542158" electricity_normed="0"
            traveltime="0.38" CO_perVeh="9.483025" CO2_perVeh="1180.077767" HC_perVeh="0.071868" PMx_perVeh="0.021428" NOx_perVeh="0.441638" fuel_perVeh="0.507261" electricity_perVeh="0"/>
        <edge id=":114_0" sampledSeconds="107.23" CO_abs="10509.940285" CO2_abs="751324.992944" HC_abs="65.981278" PMx_abs="15.326868" NOx_abs="318.610522" fuel_abs="322.958638" electricity_abs="0"
            CO_normed="139.663062" CO2_normed="9984.105188" HC_normed="0.876803" PMx_normed="0.203674" NOx_normed="4.233908" fuel_normed="4.291689" electricity_normed="0"
            traveltime="0.99" CO_perVeh="97.228673" CO2_perVeh="6950.594417" HC_perVeh="0.610400" PMx_perVeh="0.141791" NOx_perVeh="2.947503" fuel_perVeh="2.987728" electricity_perVeh="0"/>
        <edge id=":114_1" sampledSeconds="416.33" CO_abs="10278.522594" CO2_abs="1267434.821057" HC_abs="77.641471" PMx_abs="23.070197" NOx_abs="475.263564" fuel_abs="544.812009" electricity_abs="0"
            CO_normed="135.727585" CO2_normed="16736.439122" HC_normed="1.025253" PMx_normed="0.304641" NOx_normed="6.275841" fuel_normed="7.194226" electricity_normed="0"
            traveltime="0.66" CO_perVeh="16.378549" CO2_perVeh="2019.623313" HC_perVeh="0.123720" PMx_perVeh="0.036762" NOx_perVeh="0.757320" fuel_perVeh="0.868143" electricity_perVeh="0"/>
        <edge id=":115_0" sampledSeconds="80.71" CO_abs="99.887494" CO2_abs="15714.935466" HC_abs="0.815572" PMx_abs="0.194870" NOx_abs="5.704482" fuel_abs="6.755203" electricity_abs="0"
            CO_normed="2.257326" CO2_normed="355.136886" HC_normed="0.018431" PMx_normed="0.004404" NOx_normed="0.128914" fuel_normed="0.152659" electricity_normed="0"
            traveltime="0.64" CO_perVeh="0.786034" CO2_perVeh="123.663850" HC_perVeh="0.006418" PMx_perVeh="0.001533" NOx_perVeh="0.044890" fuel_perVeh="0.053158" electricity_perVeh="0"/>
        <edge id=":115_1" sampledSeconds="72.24" CO_abs="977.480669" CO2_abs="145751.293132" HC_abs="7.777860" PMx_abs="2.194647" NOx_abs="54.407669" fuel_abs="62.652010" electricity_abs="0"
            CO_normed="19.727235" CO2_normed="2941.510900" HC_normed="0.156971" PMx_normed="0.044292" NOx_normed="1.098040" fuel_normed="1.264425" electricity_normed="0"
            traveltime="0.59" CO_perVeh="8.002315" CO2_perVeh="1193.218274" HC_perVeh="0.063675" PMx_perVeh="0.017967" NOx_perVeh="0.445418" fuel_perVeh="0.512912" electricity_perVeh="0"/>
        <edge id=":116_0" sampledSeconds="74.25" CO_abs="103.539305" CO2_abs="14783.082662" HC_abs="0.809755" PMx_abs="0.184727" NOx_abs="5.393486" fuel_abs="6.354642" electricity_abs="0"
            CO_normed="2.612001" CO2_normed="372.934931" HC_normed="0.020428" PMx_normed="0.004660" NOx_normed="0.136062" fuel_normed="0.160309" electricity_normed="0"
            traveltime="0.56" CO_perVeh="0.781799" CO2_perVeh="111.623369" HC_perVeh="0.006114" PMx_perVeh="0.001395" NOx_perVeh="0.040725" fuel_perVeh="0.047982" electricity_perVeh="0"/>
        <edge id=":117_0" sampledSeconds="240.48" CO_abs="13640.078831" CO2_abs="1147974.421564" HC_abs="89.403161" PMx_abs="20.895076" NOx_abs="467.292354" fuel_abs="493.461348" electricity_abs="0"
            CO_normed="308.247854" CO2_normed="25942.713070" HC_normed="2.020394" PMx_normed="0.472201" NOx_normed="10.560193" fuel_normed="11.151578" electricity_normed="0"
            traveltime="0.60" CO_perVeh="34.207721" CO2_perVeh="2878.985443" HC_perVeh="0.224213" PMx_perVeh="0.052402" NOx_perVeh="1.171915" fuel_perVeh="1.237543" electricity_perVeh="0"/>
        <edge id=":117_1" sampledSeconds="75.88" CO_abs="4856.947481" CO2_abs="399577.503718" HC_abs="31.619951" PMx_abs="7.357174" NOx_abs="163.438854" fuel_abs="171.759910" electricity_abs="0"
            CO_normed="103.442580" CO2_normed="8510.145077" HC_normed="0.673437" PMx_normed="0.156692" NOx_normed="3.480898" fuel_normed="3.658118" electricity_normed="0"
            traveltime="0.64" CO_perVeh="41.062773" CO2_perVeh="3378.204226" HC_perVeh="0.267329" PMx_perVeh="0.062201" NOx_perVeh="1.381784" fuel_perVeh="1.452134" electricity_perVeh="0"/>
        <edge id=":118_0" sampledSeconds="899.47" CO_abs="12988.907877" CO2_abs="2011890.840767" HC_abs="104.454592" PMx_abs="29.864377" NOx_abs="745.962685" fuel_abs="864.822901" electricity_abs="0"
            CO_normed="39.411389" CO2_normed="6104.548001" HC_normed="0.316940" PMx_normed="0.090616" NOx_normed="2.263425" fuel_normed="2.624075" electricity_normed="0"
            traveltime="3.92" CO_perVeh="56.671592" CO2_perVeh="8778.032683" HC_perVeh="0.455743" PMx_perVeh="0.130301" NOx_perVeh="3.254692" fuel_perVeh="3.773288" electricity_perVeh="0"/>
        <edge id=":118_4" sampledSeconds="282.82" CO_abs="3797.601896" CO2_abs="614369.276970" HC_abs="30.985889" PMx_abs="8.892662" NOx_abs="225.963839" fuel_abs="264.090403" electricity_abs="0"
            CO_normed="11.545091" CO2_normed="1867.744218" HC_normed="0.094200" PMx_normed="0.027035" NOx_normed="0.686953" fuel_normed="0.802861" electricity_normed="0"
            traveltime="3.92" CO_perVeh="52.651398" CO2_perVeh="8517.849473" HC_perVeh="0.429600" PMx_perVeh="0.123291" NOx_perVeh="3.132849" fuel_perVeh="3.661450" electricity_perVeh="0"/>
        <edge id=":118_5" sampledSeconds="238.65" CO_abs="3489.652541" CO2_abs="553362.733390" HC_abs="28.056231" PMx_abs="8.170164" NOx_abs="204.543011" fuel_abs="237.866144" electricity_abs="0"
            CO_normed="10.714189" CO2_normed="1698.975078" HC_normed="0.086140" PMx_normed="0.025085" NOx_normed="0.628003" fuel_normed="0.730314" electricity_normed="0"
            traveltime="3.82" CO_perVeh="55.849998" CO2_perVeh="8856.270694" HC_perVeh="0.449025" PMx_perVeh="0.130759" NOx_perVeh="3.273600" fuel_perVeh="3.806919" electricity_perVeh="0"/>
        <edge id=":119_0" sampledSeconds="139.43" CO_abs="2001.599431" CO2_abs="299000.145736" HC_abs="15.885036" PMx_abs="4.491418" NOx_abs="111.568109" fuel_abs="128.526889" electricity_abs="0"
            CO_normed="42.920439" CO2_normed="6411.481363" HC_normed="0.340624" PMx_normed="0.096310" NOx_normed="2.392363" fuel_normed="2.756011" electricity_normed="0"
            traveltime="0.56" CO_perVeh="8.024270" CO2_perVeh="1198.670349" HC_perVeh="0.063682" PMx_perVeh="0.018006" NOx_perVeh="0.447269" fuel_perVeh="0.515255" electricity_perVeh="0"/>
        <edge id=":12_0" sampledSeconds="592.79" CO_abs="54855.177958" CO2_abs="3092645.200129" HC_abs="323.205984" PMx_abs="60.576292" NOx_abs="1317.856465" fuel_abs="1329.391486" electricity_abs="0"
            CO_normed="513.958222" CO2_normed="28976.123838" HC_normed="3.028235" PMx_normed="0.567561" NOx_normed="12.347479" fuel_normed="12.455555" electricity_normed="0"
            traveltime="2.13" CO_perVeh="197.438199" CO2_perVeh="11131.242706" HC_perVeh="1.163303" PMx_perVeh="0.218030" NOx_perVeh="4.743312" fuel_perVeh="4.784829" electricity_perVeh="0"/>
        <edge id=":12_1" sampledSeconds="56.13" CO_abs="1062.854305" CO2_abs="92021.334613" HC_abs="6.948803" PMx_abs="1.271045" NOx_abs="35.149524" fuel_abs="39.556295" electricity_abs="0"
            CO_normed="9.948391" CO2_normed="861.326197" HC_normed="0.065041" PMx_normed="0.011897" NOx_normed="0.329002" fuel_normed="0.370250" electricity_normed="0"
            traveltime="1.89" CO_perVeh="35.840932" CO2_perVeh="3103.087960" HC_perVeh="0.234323" PMx_perVeh="0.042861" NOx_perVeh="1.185291" fuel_perVeh="1.333894" electricity_perVeh="0"/>
        <edge id=":120_0" sampledSeconds="39.05" CO_abs="560.265978" CO2_abs="86593.946244" HC_abs="4.460553" PMx_abs="1.280343" NOx_abs="32.081678" fuel_abs="37.222909" electricity_abs="0"
            CO_normed="440.506850" CO2_normed="68084.138467" HC_normed="3.507092" PMx_normed="1.006665" NOx_normed="25.224089" fuel_normed="29.266361" electricity_normed="0"
            traveltime="0.02" CO_perVeh="0.215573" CO2_perVeh="33.318713" HC_perVeh="0.001716" PMx_perVeh="0.000493" NOx_perVeh="0.012344" fuel_perVeh="0.014322" electricity_perVeh="0"/>
        <edge id=":121_0" sampledSeconds="373.39" CO_abs="53218.796606" CO2_abs="1431216.469312" HC_abs="275.942230" PMx_abs="30.899957" NOx_abs="633.019196" fuel_abs="615.235660" electricity_abs="0"
            CO_normed="30431.318285" CO2_normed="818391.370915" HC_normed="157.787969" PMx_normed="17.669066" NOx_normed="361.970016" fuel_normed="351.801119" electricity_normed="0"
            traveltime="0.11" CO_perVeh="16.276581" CO2_perVeh="437.727123" HC_perVeh="0.084395" PMx_perVeh="0.009451" NOx_perVeh="0.193604" fuel_perVeh="0.188165" electricity_perVeh="0"/>
        <edge id=":122_0" sampledSeconds="135.05" CO_abs="794.283037" CO2_abs="86538.881583" HC_abs="5.649191" PMx_abs="1.490416" NOx_abs="33.917253" fuel_abs="37.199084" electricity_abs="0"
            CO_normed="17.488966" CO2_normed="1905.461212" HC_normed="0.124387" PMx_normed="0.032817" NOx_normed="0.746809" fuel_normed="0.819070" electricity_normed="0"
            traveltime="0.54" CO_perVeh="3.170297" CO2_perVeh="345.410845" HC_perVeh="0.022548" PMx_perVeh="0.005949" NOx_perVeh="0.135377" fuel_perVeh="0.148476" electricity_perVeh="0"/>
        <edge id=":123_0" sampledSeconds="303.62" CO_abs="40044.650425" CO2_abs="2484481.077919" HC_abs="242.083787" PMx_abs="51.262955" NOx_abs="1066.788157" fuel_abs="1067.962102" electricity_abs="0"
            CO_normed="152.715976" CO2_normed="9474.922336" HC_normed="0.923221" PMx_normed="0.195499" NOx_normed="4.068349" fuel_normed="4.072826" electricity_normed="0"
            traveltime="4.13" CO_perVeh="545.330503" CO2_perVeh="33833.815544" HC_perVeh="3.296712" PMx_perVeh="0.698102" NOx_perVeh="14.527586" fuel_perVeh="14.543573" electricity_perVeh="0"/>
        <edge id=":123_1" sampledSeconds="0.00" CO_abs="0" CO2_abs="0" HC_abs="0" PMx_abs="0" NOx_abs="0" fuel_abs="0" electricity_abs="0"
            CO_normed="0" CO2_normed="0" HC_normed="0" PMx_normed="0" NOx_normed="0" fuel_normed="0" electricity_normed="0"/>
        <edge id=":123_2" sampledSeconds="264.03" CO_abs="35207.593763" CO2_abs="2165286.881254" HC_abs="212.375249" PMx_abs="44.727809" NOx_abs="930.606037" fuel_abs="930.755589" electricity_abs="0"
            CO_normed="135.556797" CO2_normed="8336.819495" HC_normed="0.817690" PMx_normed="0.172212" NOx_normed="3.583033" fuel_normed="3.583609" electricity_normed="0"
            traveltime="4.15" CO_perVeh="553.393168" CO2_perVeh="34033.992088" HC_perVeh="3.338115" PMx_perVeh="0.703032" NOx_perVeh="14.627271" fuel_perVeh="14.629622" electricity_perVeh="0"/>
        <edge id=":123_3" sampledSeconds="468.55" CO_abs="22431.352345" CO2_abs="2146577.818494" HC_abs="152.869216" PMx_abs="39.748076" NOx_abs="858.478538" fuel_abs="922.713200" electricity_abs="0"
            CO_normed="88.366896" CO2_normed="8456.307757" HC_normed="0.602219" PMx_normed="0.156585" NOx_normed="3.381922" fuel_normed="3.634970" electricity_normed="0"
            traveltime="2.80" CO_perVeh="134.260731" CO2_perVeh="12848.137840" HC_perVeh="0.914984" PMx_perVeh="0.237908" NOx_perVeh="5.138342" fuel_perVeh="5.522812" electricity_perVeh="0"/>
        <edge id=":123_5" sampledSeconds="0.00" CO_abs="0" CO2_abs="0" HC_abs="0" PMx_abs="0" NOx_abs="0" fuel_abs="0" electricity_abs="0"
            CO_normed="0" CO2_normed="0" HC_normed="0" PMx_normed="0" NOx_normed="0" fuel_normed="0" electricity_normed="0"/>
        <edge id=":123_6" sampledSeconds="195.03" CO_abs="9425.406664" CO2_abs="888807.487831" HC_abs="64.128950" PMx_abs="16.589381" NOx_abs="356.812176" fuel_abs="382.056584" electricity_abs="0"
            CO_normed="35.865397" CO2_normed="3382.075144" HC_normed="0.244022" PMx_normed="0.063126" NOx_normed="1.357736" fuel_normed="1.453795" electricity_normed="0"
            traveltime="2.92" CO_perVeh="141.008319" CO2_perVeh="13296.959436" HC_perVeh="0.959398" PMx_perVeh="0.248185" NOx_perVeh="5.338070" fuel_perVeh="5.715738" electricity_perVeh="0"/>
        <edge id=":124_0" sampledSeconds="118.88" CO_abs="4414.763481" CO2_abs="384803.824705" HC_abs="29.164450" PMx_abs="7.428079" NOx_abs="156.410238" fuel_abs="165.408932" electricity_abs="0"
            CO_normed="103.357514" CO2_normed="9008.946223" HC_normed="0.682792" PMx_normed="0.173905" NOx_normed="3.661844" fuel_normed="3.872519" electricity_normed="0"
            traveltime="0.46" CO_perVeh="17.162497" CO2_perVeh="1495.933967" HC_perVeh="0.113377" PMx_perVeh="0.028877" NOx_perVeh="0.608048" fuel_perVeh="0.643031" electricity_perVeh="0"/>
        <edge id=":125_0" sampledSeconds="140.98" CO_abs="5236.564271" CO2_abs="534666.905095" HC_abs="36.521328" PMx_abs="9.935213" NOx_abs="210.500104" fuel_abs="229.828256" electricity_abs="0"
            CO_normed="329.378191" CO2_normed="33630.374574" HC_normed="2.297180" PMx_normed="0.624922" NOx_normed="13.240388" fuel_normed="14.456123" electricity_normed="0"
            traveltime="0.16" CO_perVeh="5.997210" CO2_perVeh="612.330871" HC_perVeh="0.041826" PMx_perVeh="0.011378" NOx_perVeh="0.241077" fuel_perVeh="0.263212" electricity_perVeh="0"/>
        <edge id=":125_3" sampledSeconds="0.00" CO_abs="0" CO2_abs="0" HC_abs="0" PMx_abs="0" NOx_abs="0" fuel_abs="0" electricity_abs="0"
            CO_normed="0" CO2_normed="0" HC_normed="0" PMx_normed="0" NOx_normed="0" fuel_normed="0" electricity_normed="0"/>
        <edge id=":126_0" sampledSeconds="27.11" CO_abs="152.096175" CO2_abs="11604.923912" HC_abs="0.956961" PMx_abs="0.157068" NOx_abs="4.439374" fuel_abs="4.988511" electricity_abs="0"
            CO_normed="5.008796" CO2_normed="382.170651" HC_normed="0.031514" PMx_normed="0.005173" NOx_normed="0.146196" fuel_normed="0.164280" electricity_normed="0"
            traveltime="0.57" CO_perVeh="3.192003" CO2_perVeh="243.549495" HC_perVeh="0.020083" PMx_perVeh="0.003296" NOx_perVeh="0.093168" fuel_perVeh="0.104693" electricity_perVeh="0"/>
        <edge id=":126_1" sampledSeconds="80.83" CO_abs="1188.643387" CO2_abs="196919.939111" HC_abs="9.898575" PMx_abs="3.091297" NOx_abs="72.275979" fuel_abs="84.647034" electricity_abs="0"
            CO_normed="34.828548" CO2_normed="5769.969025" HC_normed="0.290039" PMx_normed="0.090578" NOx_normed="2.117765" fuel_normed="2.480250" electricity_normed="0"
            traveltime="0.35" CO_perVeh="5.143464" CO2_perVeh="852.106411" HC_perVeh="0.042833" PMx_perVeh="0.013377" NOx_perVeh="0.312751" fuel_perVeh="0.366282" electricity_perVeh="0"/>
        <edge id=":127_0" sampledSeconds="234.00" CO_abs="4882.287978" CO2_abs="645584.273248" HC_abs="37.397203" PMx_abs="10.972034" NOx_abs="243.765890" fuel_abs="277.507154" electricity_abs="0"
            CO_normed="112.902326" CO2_normed="14929.059185" HC_normed="0.864806" PMx_normed="0.253727" NOx_normed="5.637057" fuel_normed="6.417320" electricity_normed="0"
            traveltime="0.44" CO_perVeh="9.129996" CO2_perVeh="1207.258185" HC_perVeh="0.069934" PMx_perVeh="0.020518" NOx_perVeh="0.455848" fuel_perVeh="0.518945" electricity_perVeh="0"/>
        <edge id=":128_0" sampledSeconds="229.20" CO_abs="126.296090" CO2_abs="23134.504812" HC_abs="1.087196" PMx_abs="0.325215" NOx_abs="8.407169" fuel_abs="9.944513" electricity_abs="0"
            CO_normed="1.951839" CO2_normed="357.531409" HC_normed="0.016802" PMx_normed="0.005026" NOx_normed="0.129928" fuel_normed="0.153687" electricity_normed="0"
            traveltime="0.75" CO_perVeh="0.415181" CO2_perVeh="76.051538" HC_perVeh="0.003574" PMx_perVeh="0.001069" NOx_perVeh="0.027637" fuel_perVeh="0.032691" electricity_perVeh="0"/>
        <edge id=":128_1" sampledSeconds="142.46" CO_abs="136.406774" CO2_abs="20202.797985" HC_abs="1.080211" PMx_abs="0.252390" NOx_abs="7.358305" fuel_abs="8.684352" electricity_abs="0"
            CO_normed="2.177650" CO2_normed="322.525235" HC_normed="0.017245" PMx_normed="0.004029" NOx_normed="0.117471" fuel_normed="0.138640" electricity_normed="0"
            traveltime="0.85" CO_perVeh="0.817681" CO2_perVeh="121.104290" HC_perVeh="0.006475" PMx_perVeh="0.001513" NOx_perVeh="0.044109" fuel_perVeh="0.052058" electricity_perVeh="0"/>
        <edge id=":129_0" sampledSeconds="105.02" CO_abs="5894.332659" CO2_abs="517737.248340" HC_abs="39.097964" PMx_abs="9.828064" NOx_abs="210.564072" fuel_abs="222.550825" electricity_abs="0"
            CO_normed="137.315411" CO2_normed="12061.298024" HC_normed="0.910833" PMx_normed="0.228956" NOx_normed="4.905338" fuel_normed="5.184583" electricity_normed="0"
            traveltime="0.50" CO_perVeh="27.936043" CO2_perVeh="2453.802821" HC_perVeh="0.185304" PMx_perVeh="0.046580" NOx_perVeh="0.997963" fuel_perVeh="1.054774" electricity_perVeh="0"/>
        <edge id=":13_0" sampledSeconds="60.64" CO_abs="5096.034991" CO2_abs="363871.961651" HC_abs="31.892957" PMx_abs="7.012238" NOx_abs="152.322237" fuel_abs="156.411695" electricity_abs="0"
            CO_normed="36.029106" CO2_normed="2572.584654" HC_normed="0.225484" PMx_normed="0.049577" NOx_normed="1.076922" fuel_normed="1.105835" electricity_normed="0"
            traveltime="2.15" CO_perVeh="180.254948" CO2_perVeh="12870.736133" HC_perVeh="1.128105" PMx_perVeh="0.248034" NOx_perVeh="5.387882" fuel_perVeh="5.532533" electricity_perVeh="0"/>
        <edge id=":13_1" sampledSeconds="533.05" CO_abs="14690.450592" CO2_abs="1104837.388414" HC_abs="92.327824" PMx_abs="16.333240" NOx_abs="431.299849" fuel_abs="474.925216" electricity_abs="0"
            CO_normed="146.360808" CO2_normed="11007.483529" HC_normed="0.919861" PMx_normed="0.162728" NOx_normed="4.297036" fuel_normed="4.731675" electricity_normed="0"
            traveltime="1.86" CO_perVeh="51.287856" CO2_perVeh="3857.250058" HC_perVeh="0.322338" PMx_perVeh="0.057023" NOx_perVeh="1.505770" fuel_perVeh="1.658077" electricity_perVeh="0"/>
        <edge id=":132_0" sampledSeconds="40.92" CO_abs="669.204217" CO2_abs="103768.131174" HC_abs="5.376615" PMx_abs="1.521416" NOx_abs="38.453671" fuel_abs="44.605348" electricity_abs="0"
            CO_normed="1262.781833" CO2_normed="195809.451843" HC_normed="10.145621" PMx_normed="2.870898" NOx_normed="72.561702" fuel_normed="84.169857" electricity_normed="0"
            traveltime="6.342996e-03" CO_perVeh="0.103745" CO2_perVeh="16.086835" HC_perVeh="0.000834" PMx_perVeh="0.000236" NOx_perVeh="0.005961" fuel_perVeh="0.006915" electricity_perVeh="0"/>