<?xml version="1.0" encoding="UTF-8"?>

<!-- generated on Wed Sep 30 01:51:37 2020 by Eclipse SUMO Version 1.1.0
<configuration xmlns:xsi="http://www.w3.org/2001/XMLSchema-instance" xsi:noNamespaceSchemaLocation="http://sumo.dlr.de/xsd/sumoConfiguration.xsd">

    <input>
        <net-file value="../dataSets/Angeja_Estarreja/angeja_estarreja.net.xml"/>
        <route-files value="../results/angeja_estarreja/cost_PMx-ttime/solution13/angeja_estarreja.rou.xml"/>
        <additional-files value="moreOutputInfo.xml"/>
    </input>

    <output>
        <emission-output.precision value="6"/>
        <tripinfo-output value="../results/angeja_estarreja/cost_PMx-ttime/solution13/angeja_estarreja-tripinfo"/>
    </output>

    <processing>
        <collision.action value="warn"/>
        <time-to-teleport value="-1"/>
    </processing>

    <emissions>
        <device.emissions.probability value="1"/>
    </emissions>

    <gui_only>
        <quit-on-end value="true"/>
        <start value="true"/>
    </gui_only>

</configuration>
-->

<meandata xmlns:xsi="http://www.w3.org/2001/XMLSchema-instance" xsi:noNamespaceSchemaLocation="http://sumo.dlr.de/xsd/meandata_file.xsd">
    <interval begin="0.00" end="19077.00" id="emissions-detector">
        <edge id=":10_0" sampledSeconds="399.98" CO_abs="40341.396411" CO2_abs="2214949.025950" HC_abs="236.273869" PMx_abs="43.592276" NOx_abs="946.109012" fuel_abs="952.109181" electricity_abs="0"
            CO_normed="435.264792" CO2_normed="23898.263624" HC_normed="2.549284" PMx_normed="0.470340" NOx_normed="10.208074" fuel_normed="10.272813" electricity_normed="0"
            traveltime="1.91" CO_perVeh="192.274641" CO2_perVeh="10556.861365" HC_perVeh="1.126125" PMx_perVeh="0.207769" NOx_perVeh="4.509333" fuel_perVeh="4.537930" electricity_perVeh="0"/>
        <edge id=":10_1" sampledSeconds="0.00" CO_abs="0" CO2_abs="0" HC_abs="0" PMx_abs="0" NOx_abs="0" fuel_abs="0" electricity_abs="0"
            CO_normed="0" CO2_normed="0" HC_normed="0" PMx_normed="0" NOx_normed="0" fuel_normed="0" electricity_normed="0"/>
        <edge id=":100_0" sampledSeconds="0.00" CO_abs="0" CO2_abs="0" HC_abs="0" PMx_abs="0" NOx_abs="0" fuel_abs="0" electricity_abs="0"
            CO_normed="0" CO2_normed="0" HC_normed="0" PMx_normed="0" NOx_normed="0" fuel_normed="0" electricity_normed="0"/>
        <edge id=":100_1" sampledSeconds="911.61" CO_abs="21784.403907" CO2_abs="2808553.421333" HC_abs="167.359492" PMx_abs="50.482086" NOx_abs="1045.080947" fuel_abs="1207.268615" electricity_abs="0"
            CO_normed="139.070070" CO2_normed="17929.603284" HC_normed="1.068411" PMx_normed="0.322274" NOx_normed="6.671722" fuel_normed="7.707116" electricity_normed="0"
            traveltime="1.37" CO_perVeh="32.754786" CO2_perVeh="4222.909543" HC_perVeh="0.251640" PMx_perVeh="0.075904" NOx_perVeh="1.571372" fuel_perVeh="1.815236" electricity_perVeh="0"/>
        <edge id=":101_0" sampledSeconds="438.62" CO_abs="10781.900961" CO2_abs="1345204.944302" HC_abs="81.766316" PMx_abs="24.401263" NOx_abs="503.250907" fuel_abs="578.241887" electricity_abs="0"
            CO_normed="249.038048" CO2_normed="31071.256733" HC_normed="1.888621" PMx_normed="0.563615" NOx_normed="11.623982" fuel_normed="13.356108" electricity_normed="0"
            traveltime="0.38" CO_perVeh="9.314162" CO2_perVeh="1162.082381" HC_perVeh="0.070635" PMx_perVeh="0.021080" NOx_perVeh="0.434743" fuel_perVeh="0.499526" electricity_perVeh="0"/>
        <edge id=":102_0" sampledSeconds="341.22" CO_abs="8422.991377" CO2_abs="1045023.811191" HC_abs="63.749632" PMx_abs="18.990271" NOx_abs="391.270764" fuel_abs="449.207770" electricity_abs="0"
            CO_normed="196.233775" CO2_normed="24346.334707" HC_normed="1.485200" PMx_normed="0.442424" NOx_normed="9.115590" fuel_normed="10.465372" electricity_normed="0"
            traveltime="0.38" CO_perVeh="9.266041" CO2_perVeh="1149.619244" HC_perVeh="0.070130" PMx_perVeh="0.020891" NOx_perVeh="0.430433" fuel_perVeh="0.494169" electricity_perVeh="0"/>
        <edge id=":103_0" sampledSeconds="434.22" CO_abs="10597.620736" CO2_abs="1318406.401600" HC_abs="80.312248" PMx_abs="23.942759" NOx_abs="493.438834" fuel_abs="566.722409" electricity_abs="0"
            CO_normed="248.430500" CO2_normed="30906.216590" HC_normed="1.882688" PMx_normed="0.561269" NOx_normed="11.567243" fuel_normed="13.285164" electricity_normed="0"
            traveltime="0.37" CO_perVeh="9.105068" CO2_perVeh="1132.724079" HC_perVeh="0.069001" PMx_perVeh="0.020571" NOx_perVeh="0.423944" fuel_perVeh="0.486906" electricity_perVeh="0"/>
        <edge id=":104_0" sampledSeconds="340.99" CO_abs="8332.781723" CO2_abs="1042029.376164" HC_abs="63.300192" PMx_abs="18.900513" NOx_abs="389.673006" fuel_abs="447.920630" electricity_abs="0"
            CO_normed="194.372090" CO2_normed="24306.580288" HC_normed="1.476553" PMx_normed="0.440877" NOx_normed="9.089588" fuel_normed="10.448284" electricity_normed="0"
            traveltime="0.37" CO_perVeh="9.162603" CO2_perVeh="1145.800054" HC_perVeh="0.069604" PMx_perVeh="0.020783" NOx_perVeh="0.428479" fuel_perVeh="0.492527" electricity_perVeh="0"/>
        <edge id=":105_0" sampledSeconds="168.69" CO_abs="4128.692143" CO2_abs="504577.691227" HC_abs="31.092521" PMx_abs="9.210774" NOx_abs="189.493866" fuel_abs="216.894753" electricity_abs="0"
            CO_normed="3541.459186" CO2_normed="432810.497271" HC_normed="26.670163" PMx_normed="7.900705" NOx_normed="162.541737" fuel_normed="186.045335" electricity_normed="0"
            traveltime="0.01" CO_perVeh="0.249671" CO2_perVeh="30.512884" HC_perVeh="0.001880" PMx_perVeh="0.000557" NOx_perVeh="0.011459" fuel_perVeh="0.013116" electricity_perVeh="0"/>
        <edge id=":106_0" sampledSeconds="134.43" CO_abs="3361.487386" CO2_abs="406981.386378" HC_abs="25.197665" PMx_abs="7.446492" NOx_abs="153.013468" fuel_abs="174.942577" electricity_abs="0"
            CO_normed="2046.266589" CO2_normed="247745.214379" HC_normed="15.338787" PMx_normed="4.532966" NOx_normed="93.145180" fuel_normed="106.494272" electricity_normed="0"
            traveltime="0.01" CO_perVeh="0.359410" CO2_perVeh="43.514443" HC_perVeh="0.002694" PMx_perVeh="0.000796" NOx_perVeh="0.016360" fuel_perVeh="0.018705" electricity_perVeh="0"/>
        <edge id=":107_0" sampledSeconds="437.78" CO_abs="11490.502715" CO2_abs="1402915.472885" HC_abs="86.387272" PMx_abs="25.603778" NOx_abs="526.654952" fuel_abs="603.048881" electricity_abs="0"
            CO_normed="265.405180" CO2_normed="32404.242206" HC_normed="1.995355" PMx_normed="0.591391" NOx_normed="12.164564" fuel_normed="13.929094" electricity_normed="0"
            traveltime="0.38" CO_perVeh="9.926307" CO2_perVeh="1211.937349" HC_perVeh="0.074627" PMx_perVeh="0.022118" NOx_perVeh="0.454962" fuel_perVeh="0.520956" electricity_perVeh="0"/>
        <edge id=":108_0" sampledSeconds="94.38" CO_abs="7878.450182" CO2_abs="578799.923334" HC_abs="49.795964" PMx_abs="11.559861" NOx_abs="243.592585" fuel_abs="248.798589" electricity_abs="0"
            CO_normed="123.585519" CO2_normed="9079.360466" HC_normed="0.781126" PMx_normed="0.181334" NOx_normed="3.821122" fuel_normed="3.902786" electricity_normed="0"
            traveltime="0.86" CO_perVeh="71.608877" CO2_perVeh="5260.833194" HC_perVeh="0.452606" PMx_perVeh="0.105070" NOx_perVeh="2.214064" fuel_perVeh="2.261382" electricity_perVeh="0"/>
        <edge id=":108_1" sampledSeconds="403.06" CO_abs="9676.582178" CO2_abs="1184506.034053" HC_abs="72.832847" PMx_abs="21.595509" NOx_abs="444.704844" fuel_abs="509.164698" electricity_abs="0"
            CO_normed="141.554832" CO2_normed="17327.662812" HC_normed="1.065442" PMx_normed="0.315912" NOx_normed="6.505408" fuel_normed="7.448366" electricity_normed="0"
            traveltime="0.60" CO_perVeh="14.374803" CO2_perVeh="1759.613054" HC_perVeh="0.108195" PMx_perVeh="0.032081" NOx_perVeh="0.660620" fuel_perVeh="0.756377" electricity_perVeh="0"/>
        <edge id=":109_0" sampledSeconds="307.45" CO_abs="106.039573" CO2_abs="21260.164571" HC_abs="0.928165" PMx_abs="0.244360" NOx_abs="7.507930" fuel_abs="9.138874" electricity_abs="0"
            CO_normed="1.594471" CO2_normed="319.679890" HC_normed="0.013956" PMx_normed="0.003674" NOx_normed="0.112893" fuel_normed="0.137417" electricity_normed="0"
            traveltime="0.85" CO_perVeh="0.294731" CO2_perVeh="59.091326" HC_perVeh="0.002580" PMx_perVeh="0.000679" NOx_perVeh="0.020868" fuel_perVeh="0.025401" electricity_perVeh="0"/>
        <edge id=":109_1" sampledSeconds="524.31" CO_abs="11800.488800" CO2_abs="1490714.977180" HC_abs="89.920534" PMx_abs="26.946470" NOx_abs="556.499393" fuel_abs="640.790050" electricity_abs="0"
            CO_normed="115.741032" CO2_normed="14621.164665" HC_normed="0.881955" PMx_normed="0.264295" NOx_normed="5.458233" fuel_normed="6.284969" electricity_normed="0"
            traveltime="0.89" CO_perVeh="20.093422" CO2_perVeh="2538.332600" HC_perVeh="0.153113" PMx_perVeh="0.045883" NOx_perVeh="0.947586" fuel_perVeh="1.091113" electricity_perVeh="0"/>
        <edge id=":11_0" sampledSeconds="282.56" CO_abs="17511.783961" CO2_abs="1257078.022541" HC_abs="109.453712" PMx_abs="22.719426" NOx_abs="517.409901" fuel_abs="540.361718" electricity_abs="0"
            CO_normed="181.075604" CO2_normed="12998.456525" HC_normed="1.131775" PMx_normed="0.234924" NOx_normed="5.350129" fuel_normed="5.587456" electricity_normed="0"
            traveltime="1.59" CO_perVeh="98.547659" CO2_perVeh="7074.213355" HC_perVeh="0.615951" PMx_perVeh="0.127854" NOx_perVeh="2.911727" fuel_perVeh="3.040888" electricity_perVeh="0"/>
        <edge id=":11_1" sampledSeconds="50.50" CO_abs="1382.447840" CO2_abs="115638.570413" HC_abs="8.950717" PMx_abs="1.636590" NOx_abs="44.478382" fuel_abs="49.708375" electricity_abs="0"
            CO_normed="14.656193" CO2_normed="1225.956704" HC_normed="0.094892" PMx_normed="0.017351" NOx_normed="0.471543" fuel_normed="0.526990" electricity_normed="0"
            traveltime="1.66" CO_perVeh="45.468536" CO2_perVeh="3803.338051" HC_perVeh="0.294388" PMx_perVeh="0.053827" NOx_perVeh="1.462888" fuel_perVeh="1.634902" electricity_perVeh="0"/>
        <edge id=":110_0" sampledSeconds="94.79" CO_abs="0" CO2_abs="0" HC_abs="0" PMx_abs="0" NOx_abs="0" fuel_abs="0" electricity_abs="0"
            CO_normed="0" CO2_normed="0" HC_normed="0" PMx_normed="0" NOx_normed="0" fuel_normed="0" electricity_normed="0"
            traveltime="0.93" CO_perVeh="0" CO2_perVeh="0" HC_perVeh="0" PMx_perVeh="0" NOx_perVeh="0" fuel_perVeh="0" electricity_perVeh="0"/>
        <edge id=":110_1" sampledSeconds="443.58" CO_abs="11807.748444" CO2_abs="1426521.953979" HC_abs="88.455234" PMx_abs="26.120101" NOx_abs="536.546870" fuel_abs="613.196156" electricity_abs="0"
            CO_normed="151.580096" CO2_normed="18312.749136" HC_normed="1.135530" PMx_normed="0.335313" NOx_normed="6.887835" fuel_normed="7.871808" electricity_normed="0"
            traveltime="0.68" CO_perVeh="18.138507" CO2_perVeh="2191.355858" HC_perVeh="0.135881" PMx_perVeh="0.040124" NOx_perVeh="0.824218" fuel_perVeh="0.941963" electricity_perVeh="0"/>
        <edge id=":111_0" sampledSeconds="341.07" CO_abs="7669.828196" CO2_abs="943856.562097" HC_abs="57.856959" PMx_abs="17.190202" NOx_abs="353.870584" fuel_abs="405.720583" electricity_abs="0"
            CO_normed="177.156055" CO2_normed="21800.997449" HC_normed="1.336368" PMx_normed="0.397056" NOx_normed="8.173627" fuel_normed="9.371247" electricity_normed="0"
            traveltime="0.38" CO_perVeh="8.523793" CO2_perVeh="1048.946350" HC_perVeh="0.064299" PMx_perVeh="0.019104" NOx_perVeh="0.393271" fuel_perVeh="0.450894" electricity_perVeh="0"/>
        <edge id=":114_0" sampledSeconds="106.95" CO_abs="10956.373451" CO2_abs="786107.057189" HC_abs="68.817545" PMx_abs="16.012962" NOx_abs="333.106849" fuel_abs="337.909787" electricity_abs="0"
            CO_normed="145.603195" CO2_normed="10446.859930" HC_normed="0.914541" PMx_normed="0.212802" NOx_normed="4.426777" fuel_normed="4.490605" electricity_normed="0"
            traveltime="0.99" CO_perVeh="101.358678" CO2_perVeh="7272.367316" HC_perVeh="0.636639" PMx_perVeh="0.148138" NOx_perVeh="3.081610" fuel_perVeh="3.126043" electricity_perVeh="0"/>
        <edge id=":114_1" sampledSeconds="416.25" CO_abs="10472.332565" CO2_abs="1286207.502315" HC_abs="78.938882" PMx_abs="23.428405" NOx_abs="482.599526" fuel_abs="552.881505" electricity_abs="0"
            CO_normed="138.294089" CO2_normed="16985.222124" HC_normed="1.042440" PMx_normed="0.309388" NOx_normed="6.373046" fuel_normed="7.301167" electricity_normed="0"
            traveltime="0.66" CO_perVeh="16.687377" CO2_perVeh="2049.536646" HC_perVeh="0.125787" PMx_perVeh="0.037333" NOx_perVeh="0.769009" fuel_perVeh="0.881002" electricity_perVeh="0"/>
        <edge id=":115_0" sampledSeconds="80.30" CO_abs="149.057833" CO2_abs="14023.563912" HC_abs="1.006670" PMx_abs="0.222708" NOx_abs="5.498710" fuel_abs="6.028119" electricity_abs="0"
            CO_normed="3.368688" CO2_normed="316.930725" HC_normed="0.022751" PMx_normed="0.005033" NOx_normed="0.124270" fuel_normed="0.136235" electricity_normed="0"
            traveltime="0.63" CO_perVeh="1.172967" CO2_perVeh="110.354302" HC_perVeh="0.007922" PMx_perVeh="0.001753" NOx_perVeh="0.043270" fuel_perVeh="0.047437" electricity_perVeh="0"/>
        <edge id=":115_1" sampledSeconds="72.51" CO_abs="1011.034314" CO2_abs="154098.005994" HC_abs="8.021578" PMx_abs="2.271592" NOx_abs="57.170890" fuel_abs="66.239933" electricity_abs="0"
            CO_normed="20.405475" CO2_normed="3110.124893" HC_normed="0.161898" PMx_normed="0.045847" NOx_normed="1.153867" fuel_normed="1.336905" electricity_normed="0"
            traveltime="0.59" CO_perVeh="8.277008" CO2_perVeh="1261.550088" HC_perVeh="0.065670" PMx_perVeh="0.018597" NOx_perVeh="0.468039" fuel_perVeh="0.542285" electricity_perVeh="0"/>
        <edge id=":116_0" sampledSeconds="74.68" CO_abs="77.210002" CO2_abs="9570.818602" HC_abs="0.571494" PMx_abs="0.124790" NOx_abs="3.543871" fuel_abs="4.114102" electricity_abs="0"
            CO_normed="1.947890" CO2_normed="241.457060" HC_normed="0.014418" PMx_normed="0.003148" NOx_normed="0.089406" fuel_normed="0.103792" electricity_normed="0"
            traveltime="0.56" CO_perVeh="0.582993" CO2_perVeh="72.266864" HC_perVeh="0.004315" PMx_perVeh="0.000942" NOx_perVeh="0.026759" fuel_perVeh="0.031065" electricity_perVeh="0"/>
        <edge id=":117_0" sampledSeconds="238.51" CO_abs="12749.410062" CO2_abs="1074326.247112" HC_abs="83.581185" PMx_abs="19.579115" NOx_abs="437.418189" fuel_abs="461.803340" electricity_abs="0"
            CO_normed="288.135013" CO2_normed="24279.633779" HC_normed="1.888924" PMx_normed="0.442485" NOx_normed="9.885594" fuel_normed="10.436696" electricity_normed="0"
            traveltime="0.60" CO_perVeh="32.313332" CO2_perVeh="2722.875832" HC_perVeh="0.211836" PMx_perVeh="0.049623" NOx_perVeh="1.108635" fuel_perVeh="1.170439" electricity_perVeh="0"/>
        <edge id=":117_1" sampledSeconds="76.23" CO_abs="4373.506067" CO2_abs="369810.295497" HC_abs="28.679726" PMx_abs="6.702969" NOx_abs="150.335028" fuel_abs="158.964442" electricity_abs="0"
            CO_normed="93.151195" CO2_normed="7876.580155" HC_normed="0.610849" PMx_normed="0.142766" NOx_normed="3.201982" fuel_normed="3.385780" electricity_normed="0"
            traveltime="0.64" CO_perVeh="36.975547" CO2_perVeh="3126.539136" HC_perVeh="0.242471" PMx_perVeh="0.056670" NOx_perVeh="1.270999" fuel_perVeh="1.343955" electricity_perVeh="0"/>
        <edge id=":118_0" sampledSeconds="898.81" CO_abs="13524.102829" CO2_abs="2032709.834351" HC_abs="107.204683" PMx_abs="30.443236" NOx_abs="756.459919" fuel_abs="873.771855" electricity_abs="0"
            CO_normed="41.037446" CO2_normed="6168.041010" HC_normed="0.325301" PMx_normed="0.092377" NOx_normed="2.295397" fuel_normed="2.651367" electricity_normed="0"
            traveltime="3.92" CO_perVeh="58.988005" CO2_perVeh="8866.059340" HC_perVeh="0.467594" PMx_perVeh="0.132784" NOx_perVeh="3.299447" fuel_perVeh="3.811126" electricity_perVeh="0"/>
        <edge id=":118_4" sampledSeconds="283.25" CO_abs="3682.660028" CO2_abs="596609.611951" HC_abs="30.055800" PMx_abs="8.607918" NOx_abs="219.479610" fuel_abs="256.456316" electricity_abs="0"
            CO_normed="11.196243" CO2_normed="1813.848130" HC_normed="0.091377" PMx_normed="0.026170" NOx_normed="0.667275" fuel_normed="0.779694" electricity_normed="0"
            traveltime="3.93" CO_perVeh="51.057800" CO2_perVeh="8271.622719" HC_perVeh="0.416705" PMx_perVeh="0.119343" NOx_perVeh="3.042949" fuel_perVeh="3.555608" electricity_perVeh="0"/>
        <edge id=":118_5" sampledSeconds="238.72" CO_abs="3815.840076" CO2_abs="557382.744459" HC_abs="29.942025" PMx_abs="8.499096" NOx_abs="208.536184" fuel_abs="239.593988" electricity_abs="0"
            CO_normed="11.716288" CO2_normed="1711.407318" HC_normed="0.091935" PMx_normed="0.026096" NOx_normed="0.640297" fuel_normed="0.735658" electricity_normed="0"
            traveltime="3.82" CO_perVeh="61.070453" CO2_perVeh="8920.608793" HC_perVeh="0.479206" PMx_perVeh="0.136023" NOx_perVeh="3.337509" fuel_perVeh="3.834572" electricity_perVeh="0"/>
        <edge id=":119_0" sampledSeconds="138.91" CO_abs="2253.310588" CO2_abs="332619.870560" HC_abs="17.885036" PMx_abs="5.050262" NOx_abs="124.392288" fuel_abs="142.978479" electricity_abs="0"
            CO_normed="48.320432" CO2_normed="7132.765384" HC_normed="0.383530" PMx_normed="0.108299" NOx_normed="2.667492" fuel_normed="3.066058" electricity_normed="0"
            traveltime="0.56" CO_perVeh="9.033362" CO2_perVeh="1333.449438" HC_perVeh="0.071700" PMx_perVeh="0.020246" NOx_perVeh="0.498680" fuel_perVeh="0.573191" electricity_perVeh="0"/>
        <edge id=":12_0" sampledSeconds="603.66" CO_abs="55406.616390" CO2_abs="3121902.227739" HC_abs="326.375541" PMx_abs="60.978333" NOx_abs="1329.352428" fuel_abs="1341.968064" electricity_abs="0"
            CO_normed="519.152063" CO2_normed="29251.776902" HC_normed="3.058092" PMx_normed="0.571358" NOx_normed="12.455842" fuel_normed="12.574049" electricity_normed="0"
            traveltime="2.13" CO_perVeh="195.776570" CO2_perVeh="11031.088908" HC_perVeh="1.153232" PMx_perVeh="0.215464" NOx_perVeh="4.697202" fuel_perVeh="4.741779" electricity_perVeh="0"/>
        <edge id=":12_1" sampledSeconds="56.08" CO_abs="1038.252341" CO2_abs="89672.915932" HC_abs="6.771374" PMx_abs="1.179505" NOx_abs="33.877145" fuel_abs="38.546895" electricity_abs="0"
            CO_normed="9.718625" CO2_normed="839.388830" HC_normed="0.063384" PMx_normed="0.011041" NOx_normed="0.317109" fuel_normed="0.360821" electricity_normed="0"
            traveltime="1.89" CO_perVeh="35.011319" CO2_perVeh="3023.896001" HC_perVeh="0.228340" PMx_perVeh="0.039775" NOx_perVeh="1.142385" fuel_perVeh="1.299855" electricity_perVeh="0"/>
        <edge id=":120_0" sampledSeconds="39.09" CO_abs="395.471475" CO2_abs="72239.354653" HC_abs="3.414482" PMx_abs="1.006413" NOx_abs="26.243990" fuel_abs="31.052555" electricity_abs="0"
            CO_normed="310.954140" CO2_normed="56800.876438" HC_normed="2.684763" PMx_normed="0.791330" NOx_normed="20.635312" fuel_normed="24.416225" electricity_normed="0"
            traveltime="0.02" CO_perVeh="0.152165" CO2_perVeh="27.795503" HC_perVeh="0.001314" PMx_perVeh="0.000387" NOx_perVeh="0.010098" fuel_perVeh="0.011948" electricity_perVeh="0"/>
        <edge id=":121_0" sampledSeconds="375.83" CO_abs="53489.721710" CO2_abs="1428574.498142" HC_abs="277.102772" PMx_abs="30.841158" NOx_abs="631.802093" fuel_abs="614.100281" electricity_abs="0"
            CO_normed="30587.840689" CO2_normed="816923.471754" HC_normed="158.459891" PMx_normed="17.636368" NOx_normed="361.292995" fuel_normed="351.170299" electricity_normed="0"
            traveltime="0.12" CO_perVeh="16.423720" CO2_perVeh="438.635816" HC_perVeh="0.085083" PMx_perVeh="0.009470" NOx_perVeh="0.193991" fuel_perVeh="0.188556" electricity_perVeh="0"/>
        <edge id=":122_0" sampledSeconds="134.96" CO_abs="1021.976221" CO2_abs="100745.174993" HC_abs="7.010077" PMx_abs="1.800851" NOx_abs="40.069078" fuel_abs="43.305679" electricity_abs="0"
            CO_normed="22.503620" CO2_normed="2218.379558" HC_normed="0.154360" PMx_normed="0.039654" NOx_normed="0.882309" fuel_normed="0.953579" electricity_normed="0"
            traveltime="0.54" CO_perVeh="4.074421" CO2_perVeh="401.651476" HC_perVeh="0.027948" PMx_perVeh="0.007180" NOx_perVeh="0.159748" fuel_perVeh="0.172651" electricity_perVeh="0"/>
        <edge id=":123_0" sampledSeconds="302.88" CO_abs="39457.486735" CO2_abs="2452231.378071" HC_abs="238.630900" PMx_abs="50.559130" NOx_abs="1052.588600" fuel_abs="1054.099478" electricity_abs="0"
            CO_normed="150.484632" CO2_normed="9352.423734" HC_normed="0.910101" PMx_normed="0.192825" NOx_normed="4.014407" fuel_normed="4.020169" electricity_normed="0"
            traveltime="4.12" CO_perVeh="537.334472" CO2_perVeh="33394.637155" HC_perVeh="3.249690" PMx_perVeh="0.688517" NOx_perVeh="14.334216" fuel_perVeh="14.354791" electricity_perVeh="0"/>
        <edge id=":123_1" sampledSeconds="0.00" CO_abs="0" CO2_abs="0" HC_abs="0" PMx_abs="0" NOx_abs="0" fuel_abs="0" electricity_abs="0"
            CO_normed="0" CO2_normed="0" HC_normed="0" PMx_normed="0" NOx_normed="0" fuel_normed="0" electricity_normed="0"/>
        <edge id=":123_2" sampledSeconds="261.26" CO_abs="34845.069172" CO2_abs="2156127.105130" HC_abs="210.517844" PMx_abs="44.553882" NOx_abs="926.497644" fuel_abs="926.818052" electricity_abs="0"
            CO_normed="134.168032" CO2_normed="8301.987550" HC_normed="0.810581" PMx_normed="0.171551" NOx_normed="3.567402" fuel_normed="3.568636" electricity_normed="0"
            traveltime="4.11" CO_perVeh="547.695005" CO2_perVeh="33890.018673" HC_perVeh="3.308921" PMx_perVeh="0.700298" NOx_perVeh="14.562695" fuel_perVeh="14.567732" electricity_perVeh="0"/>
        <edge id=":123_3" sampledSeconds="469.65" CO_abs="22464.874464" CO2_abs="2136995.640558" HC_abs="152.982394" PMx_abs="39.763755" NOx_abs="855.963963" fuel_abs="918.594112" electricity_abs="0"
            CO_normed="88.503593" CO2_normed="8419.000666" HC_normed="0.602696" PMx_normed="0.156655" NOx_normed="3.372193" fuel_normed="3.618933" electricity_normed="0"
            traveltime="2.81" CO_perVeh="134.461374" CO2_perVeh="12790.784623" HC_perVeh="0.915662" PMx_perVeh="0.238002" NOx_perVeh="5.123291" fuel_perVeh="5.498158" electricity_perVeh="0"/>
        <edge id=":123_5" sampledSeconds="0.00" CO_abs="0" CO2_abs="0" HC_abs="0" PMx_abs="0" NOx_abs="0" fuel_abs="0" electricity_abs="0"
            CO_normed="0" CO2_normed="0" HC_normed="0" PMx_normed="0" NOx_normed="0" fuel_normed="0" electricity_normed="0"/>
        <edge id=":123_6" sampledSeconds="194.67" CO_abs="9234.467331" CO2_abs="889206.869491" HC_abs="62.850904" PMx_abs="16.385434" NOx_abs="355.100764" fuel_abs="382.228394" electricity_abs="0"
            CO_normed="35.140680" CO2_normed="3383.772230" HC_normed="0.239172" PMx_normed="0.062353" NOx_normed="1.351294" fuel_normed="1.454525" electricity_normed="0"
            traveltime="2.91" CO_perVeh="138.151781" CO2_perVeh="13302.934365" HC_perVeh="0.940278" PMx_perVeh="0.245133" NOx_perVeh="5.312467" fuel_perVeh="5.718309" electricity_perVeh="0"/>
        <edge id=":124_0" sampledSeconds="118.51" CO_abs="4371.463776" CO2_abs="389413.879977" HC_abs="29.105601" PMx_abs="7.427685" NOx_abs="157.804832" fuel_abs="167.390629" electricity_abs="0"
            CO_normed="102.349155" CO2_normed="9117.353767" HC_normed="0.681450" PMx_normed="0.173905" NOx_normed="3.694687" fuel_normed="3.919120" electricity_normed="0"
            traveltime="0.46" CO_perVeh="16.993058" CO2_perVeh="1513.756702" HC_perVeh="0.113141" PMx_perVeh="0.028873" NOx_perVeh="0.613430" fuel_perVeh="0.650692" electricity_perVeh="0"/>
        <edge id=":125_0" sampledSeconds="141.38" CO_abs="5444.355028" CO2_abs="540151.790425" HC_abs="37.574256" PMx_abs="10.128819" NOx_abs="213.774104" fuel_abs="232.185883" electricity_abs="0"
            CO_normed="342.466113" CO2_normed="33977.153038" HC_normed="2.363532" PMx_normed="0.637133" NOx_normed="13.447027" fuel_normed="14.605182" electricity_normed="0"
            traveltime="0.16" CO_perVeh="6.235211" CO2_perVeh="618.615144" HC_perVeh="0.043032" PMx_perVeh="0.011600" NOx_perVeh="0.244827" fuel_perVeh="0.265914" electricity_perVeh="0"/>
        <edge id=":125_3" sampledSeconds="0.00" CO_abs="0" CO2_abs="0" HC_abs="0" PMx_abs="0" NOx_abs="0" fuel_abs="0" electricity_abs="0"
            CO_normed="0" CO2_normed="0" HC_normed="0" PMx_normed="0" NOx_normed="0" fuel_normed="0" electricity_normed="0"/>
        <edge id=":126_0" sampledSeconds="27.79" CO_abs="134.054826" CO2_abs="9296.967483" HC_abs="0.825059" PMx_abs="0.143408" NOx_abs="3.682411" fuel_abs="3.996391" electricity_abs="0"
            CO_normed="4.414894" CO2_normed="306.181616" HC_normed="0.027172" PMx_normed="0.004723" NOx_normed="0.121275" fuel_normed="0.131615" electricity_normed="0"
            traveltime="0.57" CO_perVeh="2.735647" CO2_perVeh="189.722535" HC_perVeh="0.016837" PMx_perVeh="0.002927" NOx_perVeh="0.075147" fuel_perVeh="0.081554" electricity_perVeh="0"/>
        <edge id=":126_1" sampledSeconds="80.72" CO_abs="1157.985170" CO2_abs="196670.585100" HC_abs="9.657024" PMx_abs="3.056181" NOx_abs="71.791180" fuel_abs="84.539873" electricity_abs="0"
            CO_normed="33.932007" CO2_normed="5762.964755" HC_normed="0.282976" PMx_normed="0.089554" NOx_normed="2.103670" fuel_normed="2.477240" electricity_normed="0"
            traveltime="0.35" CO_perVeh="5.010801" CO2_perVeh="851.027413" HC_perVeh="0.041788" PMx_perVeh="0.013225" NOx_perVeh="0.310653" fuel_perVeh="0.365819" electricity_perVeh="0"/>
        <edge id=":127_0" sampledSeconds="234.66" CO_abs="5347.286471" CO2_abs="669594.776938" HC_abs="39.981095" PMx_abs="11.570990" NOx_abs="254.603535" fuel_abs="287.828044" electricity_abs="0"
            CO_normed="123.661843" CO2_normed="15485.110888" HC_normed="0.924607" PMx_normed="0.267592" NOx_normed="5.887985" fuel_normed="6.656338" electricity_normed="0"
            traveltime="0.44" CO_perVeh="9.999579" CO2_perVeh="1252.161459" HC_perVeh="0.074766" PMx_perVeh="0.021638" NOx_perVeh="0.476116" fuel_perVeh="0.538247" electricity_perVeh="0"/>
        <edge id=":128_0" sampledSeconds="229.50" CO_abs="288.610156" CO2_abs="42740.171604" HC_abs="2.282814" PMx_abs="0.633247" NOx_abs="15.900273" fuel_abs="18.372117" electricity_abs="0"
            CO_normed="4.460550" CO2_normed="660.561136" HC_normed="0.035282" PMx_normed="0.009787" NOx_normed="0.245743" fuel_normed="0.283946" electricity_normed="0"
            traveltime="0.75" CO_perVeh="0.948764" CO2_perVeh="140.502053" HC_perVeh="0.007504" PMx_perVeh="0.002082" NOx_perVeh="0.052270" fuel_perVeh="0.060396" electricity_perVeh="0"/>
        <edge id=":128_1" sampledSeconds="141.02" CO_abs="131.611068" CO2_abs="17444.600682" HC_abs="0.989337" PMx_abs="0.233575" NOx_abs="6.470912" fuel_abs="7.498701" electricity_abs="0"
            CO_normed="2.101200" CO2_normed="278.506911" HC_normed="0.015795" PMx_normed="0.003729" NOx_normed="0.103310" fuel_normed="0.119718" electricity_normed="0"
            traveltime="0.85" CO_perVeh="0.788934" CO2_perVeh="104.570465" HC_perVeh="0.005931" PMx_perVeh="0.001400" NOx_perVeh="0.038789" fuel_perVeh="0.044950" electricity_perVeh="0"/>
        <edge id=":129_0" sampledSeconds="105.30" CO_abs="5473.687866" CO2_abs="485238.709057" HC_abs="36.467418" PMx_abs="9.164496" NOx_abs="197.086939" fuel_abs="208.581271" electricity_abs="0"
            CO_normed="127.522680" CO2_normed="11304.798892" HC_normed="0.849596" PMx_normed="0.213509" NOx_normed="4.591613" fuel_normed="4.859401" electricity_normed="0"
            traveltime="0.50" CO_perVeh="25.942408" CO2_perVeh="2299.776802" HC_perVeh="0.172836" PMx_perVeh="0.043435" NOx_perVeh="0.934089" fuel_perVeh="0.988566" electricity_perVeh="0"/>
        <edge id=":13_0" sampledSeconds="60.00" CO_abs="5123.909415" CO2_abs="366715.511966" HC_abs="32.064052" PMx_abs="7.073960" NOx_abs="153.489171" fuel_abs="157.633987" electricity_abs="0"
            CO_normed="36.228078" CO2_normed="2592.824538" HC_normed="0.226706" PMx_normed="0.050016" NOx_normed="1.085229" fuel_normed="1.114535" electricity_normed="0"
            traveltime="2.12" CO_perVeh="181.240912" CO2_perVeh="12971.317078" HC_perVeh="1.134157" PMx_perVeh="0.250217" NOx_perVeh="5.429159" fuel_perVeh="5.575767" electricity_perVeh="0"/>
        <edge id=":13_1" sampledSeconds="542.18" CO_abs="12178.257692" CO2_abs="948658.861149" HC_abs="77.093809" PMx_abs="12.899367" NOx_abs="362.705480" fuel_abs="407.791724" electricity_abs="0"
            CO_normed="121.338216" CO2_normed="9451.973908" HC_normed="0.768125" PMx_normed="0.128523" NOx_normed="3.613820" fuel_normed="4.063038" electricity_normed="0"
            traveltime="1.89" CO_perVeh="42.517194" CO2_perVeh="3311.993679" HC_perVeh="0.269153" PMx_perVeh="0.045035" NOx_perVeh="1.266291" fuel_perVeh="1.423698" electricity_perVeh="0"/>
        <edge id=":132_0" sampledSeconds="41.02" CO_abs="485.952214" CO2_abs="80070.898546" HC_abs="4.020033" PMx_abs="1.167247" NOx_abs="29.509416" fuel_abs="34.418950" electricity_abs="0"
            CO_normed="917.035158" CO2_normed="151100.925075" HC_normed="7.586160" PMx_normed="2.202699" NOx_normed="55.686899" fuel_normed="64.951627" electricity_normed="0"
            traveltime="6.359591e-03" CO_perVeh="0.075336" CO2_perVeh="12.413131" HC_perVeh="0.000623" PMx_perVeh="0.000181" NOx_perVeh="0.004575" fuel_perVeh="0.005336" electricity_perVeh="0"/>
        <edge id=":133_0" sampledSeconds="44.79" CO_abs="650.717453" CO2_abs="88808.980646" HC_abs="4.961321" PMx_abs="1.197517" NOx_abs="32.906177" fuel_abs="38.175232" electricity_abs="0"