<?xml version="1.0" encoding="UTF-8"?>

<!-- generated on Tue Nov 10 13:27:50 2020 by Eclipse SUMO sumo Version 1.7.0
<configuration xmlns:xsi="http://www.w3.org/2001/XMLSchema-instance" xsi:noNamespaceSchemaLocation="http://sumo.dlr.de/xsd/sumoConfiguration.xsd">

    <input>
        <net-file value="../dataSets/Porto/8AM9AM_Routing_SaoBento/Porto.net.xml"/>
        <route-files value="../results/Porto/8AM9AM_Routing_SaoBento/inputdata/cost_hc-length/solution14/Porto.rou.xml"/>
        <additional-files value="moreOutputInfo.xml"/>
    </input>

    <output>
        <emission-output.precision value="6"/>
        <tripinfo-output value="../results/Porto/8AM9AM_Routing_SaoBento/inputdata/cost_hc-length/solution14/Porto-tripinfo"/>
    </output>

    <processing>
        <collision.action value="warn"/>
        <time-to-teleport value="-1"/>
    </processing>

    <emissions>
        <device.emissions.probability value="1"/>
    </emissions>

    <gui_only>
        <quit-on-end value="true"/>
        <start value="true"/>
    </gui_only>

</configuration>
-->

<meandata xmlns:xsi="http://www.w3.org/2001/XMLSchema-instance" xsi:noNamespaceSchemaLocation="http://sumo.dlr.de/xsd/meandata_file.xsd">
    <interval begin="0.00" end="8561.00" id="emissions-detector">
        <edge id=":1092997347_0" sampledSeconds="599.08" CO_abs="73347.427237" CO2_abs="3117947.466173" HC_abs="407.762060" PMx_abs="63.224457" NOx_abs="1349.985115" fuel_abs="1340.279187" electricity_abs="0"
            CO_normed="70098.740072" CO2_normed="2979848.063157" HC_normed="389.701558" PMx_normed="60.424135" NOx_normed="1290.191888" fuel_normed="1280.915853" electricity_normed="0"
            traveltime="0.07" CO_perVeh="8.402824" CO2_perVeh="357.198122" HC_perVeh="0.046714" PMx_perVeh="0.007243" NOx_perVeh="0.154657" fuel_perVeh="0.153545" electricity_perVeh="0"/>
        <edge id=":1103427051_0" sampledSeconds="19.20" CO_abs="1623.712994" CO2_abs="91728.021508" HC_abs="9.574145" PMx_abs="1.813409" NOx_abs="39.227797" fuel_abs="39.429791" electricity_abs="0"
            CO_normed="2354.448916" CO2_normed="133009.307416" HC_normed="13.882894" PMx_normed="2.629515" NOx_normed="56.881878" fuel_normed="57.174777" electricity_normed="0"
            traveltime="0.03" CO_perVeh="2.525079" CO2_perVeh="142.648682" HC_perVeh="0.014889" PMx_perVeh="0.002820" NOx_perVeh="0.061004" fuel_perVeh="0.061318" electricity_perVeh="0"/>
        <edge id=":1105984386_0" sampledSeconds="10.60" CO_abs="225.210046" CO2_abs="16845.982466" HC_abs="1.404566" PMx_abs="0.204247" NOx_abs="6.291180" fuel_abs="7.241480" electricity_abs="0"
            CO_normed="9.753187" CO2_normed="729.550095" HC_normed="0.060828" PMx_normed="0.008845" NOx_normed="0.272453" fuel_normed="0.313607" electricity_normed="0"
            traveltime="1.02" CO_perVeh="21.604323" CO2_perVeh="1616.029340" HC_perVeh="0.134740" PMx_perVeh="0.019593" NOx_perVeh="0.603511" fuel_perVeh="0.694673" electricity_perVeh="0"/>
        <edge id=":1105984390_0" sampledSeconds="10.58" CO_abs="4.485181" CO2_abs="863.472727" HC_abs="0.039138" PMx_abs="0.005016" NOx_abs="0.279229" fuel_abs="0.371179" electricity_abs="0"
            CO_normed="0.150165" CO2_normed="28.909261" HC_normed="0.001310" PMx_normed="0.000168" NOx_normed="0.009349" fuel_normed="0.012427" electricity_normed="0"
            traveltime="1.10" CO_perVeh="0.464916" CO2_perVeh="89.504147" HC_perVeh="0.004057" PMx_perVeh="0.000520" NOx_perVeh="0.028944" fuel_perVeh="0.038475" electricity_perVeh="0"/>
        <edge id=":1105984390_1" sampledSeconds="2401.76" CO_abs="64997.620361" CO2_abs="7584937.505759" HC_abs="477.324808" PMx_abs="137.734898" NOx_abs="2895.364749" fuel_abs="3260.413723" electricity_abs="0"
            CO_normed="2081.664493" CO2_normed="242921.125431" HC_normed="15.287177" PMx_normed="4.411205" NOx_normed="92.729210" fuel_normed="104.420553" electricity_normed="0"
            traveltime="0.65" CO_perVeh="17.545228" CO2_perVeh="2047.451187" HC_perVeh="0.128847" PMx_perVeh="0.037180" NOx_perVeh="0.781565" fuel_perVeh="0.880105" electricity_perVeh="0"/>
        <edge id=":1105984395_0" sampledSeconds="4.16" CO_abs="55.827089" CO2_abs="4550.283792" HC_abs="0.354761" PMx_abs="0.044391" NOx_abs="1.623875" fuel_abs="1.956016" electricity_abs="0"
            CO_normed="25.517326" CO2_normed="2079.833935" HC_normed="0.162153" PMx_normed="0.020290" NOx_normed="0.742237" fuel_normed="0.894051" electricity_normed="0"
            traveltime="0.10" CO_perVeh="1.294052" CO2_perVeh="105.473950" HC_perVeh="0.008223" PMx_perVeh="0.001029" NOx_perVeh="0.037641" fuel_perVeh="0.045340" electricity_perVeh="0"/>
        <edge id=":1105984398_0" sampledSeconds="10.58" CO_abs="657.862160" CO2_abs="43865.937136" HC_abs="4.024523" PMx_abs="0.765763" NOx_abs="17.964640" fuel_abs="18.856080" electricity_abs="0"
            CO_normed="22.881612" CO2_normed="1525.735020" HC_normed="0.139980" PMx_normed="0.026635" NOx_normed="0.624842" fuel_normed="0.655848" electricity_normed="0"
            traveltime="1.17" CO_perVeh="72.694697" CO2_perVeh="4847.247921" HC_perVeh="0.444716" PMx_perVeh="0.084618" NOx_perVeh="1.985118" fuel_perVeh="2.083623" electricity_perVeh="0"/>
        <edge id=":1105984398_1" sampledSeconds="647.82" CO_abs="12267.287759" CO2_abs="1414678.023718" HC_abs="88.355776" PMx_abs="20.481485" NOx_abs="536.611622" fuel_abs="608.109589" electricity_abs="0"
            CO_normed="413.013377" CO2_normed="47629.187433" HC_normed="2.974750" PMx_normed="0.689568" NOx_normed="18.066567" fuel_normed="20.473751" electricity_normed="0"
            traveltime="0.95" CO_perVeh="18.013990" CO2_perVeh="2077.394487" HC_perVeh="0.129747" PMx_perVeh="0.030076" NOx_perVeh="0.787991" fuel_perVeh="0.892983" electricity_perVeh="0"/>
        <edge id=":1106006327_0" sampledSeconds="133.73" CO_abs="17982.067823" CO2_abs="576852.485316" HC_abs="95.449721" PMx_abs="12.022902" NOx_abs="252.431093" fuel_abs="247.968712" electricity_abs="0"
            CO_normed="853.461458" CO2_normed="27378.462136" HC_normed="4.530216" PMx_normed="0.570629" NOx_normed="11.980836" fuel_normed="11.769043" electricity_normed="0"
            traveltime="2.12" CO_perVeh="285.516605" CO2_perVeh="9159.178187" HC_perVeh="1.515537" PMx_perVeh="0.190898" NOx_perVeh="4.008063" fuel_perVeh="3.937210" electricity_perVeh="0"/>
        <edge id=":1106006327_1" sampledSeconds="685.28" CO_abs="92615.417912" CO2_abs="3085953.152412" HC_abs="494.429598" PMx_abs="64.351516" NOx_abs="1350.409407" fuel_abs="1326.540255" electricity_abs="0"
            CO_normed="3833.253903" CO2_normed="127724.327461" HC_normed="20.463917" PMx_normed="2.663441" NOx_normed="55.892013" fuel_normed="54.904094" electricity_normed="0"
            traveltime="2.30" CO_perVeh="310.888022" CO2_perVeh="10358.813818" HC_perVeh="1.659683" PMx_perVeh="0.216013" NOx_perVeh="4.533005" fuel_perVeh="4.452881" electricity_perVeh="0"/>
        <edge id=":1106006327_2" sampledSeconds="0.00" CO_abs="0" CO2_abs="0" HC_abs="0" PMx_abs="0" NOx_abs="0" fuel_abs="0" electricity_abs="0"
            CO_normed="0" CO2_normed="0" HC_normed="0" PMx_normed="0" NOx_normed="0" fuel_normed="0" electricity_normed="0"/>
        <edge id=":1106006327_3" sampledSeconds="0.00" CO_abs="0" CO2_abs="0" HC_abs="0" PMx_abs="0" NOx_abs="0" fuel_abs="0" electricity_abs="0"
            CO_normed="0" CO2_normed="0" HC_normed="0" PMx_normed="0" NOx_normed="0" fuel_normed="0" electricity_normed="0"/>
        <edge id=":1107381198_0" sampledSeconds="0.00" CO_abs="0" CO2_abs="0" HC_abs="0" PMx_abs="0" NOx_abs="0" fuel_abs="0" electricity_abs="0"
            CO_normed="0" CO2_normed="0" HC_normed="0" PMx_normed="0" NOx_normed="0" fuel_normed="0" electricity_normed="0"/>
        <edge id=":1107381198_1" sampledSeconds="105.39" CO_abs="4210.836408" CO2_abs="166976.318418" HC_abs="23.025661" PMx_abs="2.927513" NOx_abs="69.477582" fuel_abs="71.777276" electricity_abs="0"
            CO_normed="193.097672" CO2_normed="7657.086431" HC_normed="1.055895" PMx_normed="0.134248" NOx_normed="3.186056" fuel_normed="3.291514" electricity_normed="0"
            traveltime="1.58" CO_perVeh="63.044295" CO2_perVeh="2499.955656" HC_perVeh="0.344738" PMx_perVeh="0.043830" NOx_perVeh="1.040213" fuel_perVeh="1.074643" electricity_perVeh="0"/>
        <edge id=":1110338277_0" sampledSeconds="160.87" CO_abs="2601.013594" CO2_abs="309274.656951" HC_abs="18.907125" PMx_abs="4.303186" NOx_abs="116.198279" fuel_abs="132.944144" electricity_abs="0"
            CO_normed="3906.273023" CO2_normed="464477.099230" HC_normed="28.395236" PMx_normed="6.462642" NOx_normed="174.509739" fuel_normed="199.659135" electricity_normed="0"
            traveltime="0.02" CO_perVeh="0.352282" CO2_perVeh="41.888283" HC_perVeh="0.002561" PMx_perVeh="0.000583" NOx_perVeh="0.015738" fuel_perVeh="0.018006" electricity_perVeh="0"/>
        <edge id=":1110338293_0" sampledSeconds="6464.76" CO_abs="589218.387105" CO2_abs="10348775.958467" HC_abs="2924.944905" PMx_abs="246.293244" NOx_abs="4675.120282" fuel_abs="4448.763626" electricity_abs="0"
            CO_normed="825910.599843" CO2_normed="14505935.229717" HC_normed="4099.911092" PMx_normed="345.230573" NOx_normed="6553.141383" fuel_normed="6235.856034" electricity_normed="0"
            traveltime="0.43" CO_perVeh="39.384044" CO2_perVeh="691.724250" HC_perVeh="0.195507" PMx_perVeh="0.016463" NOx_perVeh="0.312490" fuel_perVeh="0.297361" electricity_perVeh="0"/>
        <edge id=":1110338295_0" sampledSeconds="0.00" CO_abs="0" CO2_abs="0" HC_abs="0" PMx_abs="0" NOx_abs="0" fuel_abs="0" electricity_abs="0"
            CO_normed="0" CO2_normed="0" HC_normed="0" PMx_normed="0" NOx_normed="0" fuel_normed="0" electricity_normed="0"/>
        <edge id=":1110673403_0" sampledSeconds="200.79" CO_abs="2959.933285" CO2_abs="376795.545238" HC_abs="22.034892" PMx_abs="5.054759" NOx_abs="139.976666" fuel_abs="161.968672" electricity_abs="0"
            CO_normed="4148.954494" CO2_normed="528156.353563" HC_normed="30.886428" PMx_normed="7.085283" NOx_normed="196.206050" fuel_normed="227.032364" electricity_normed="0"
            traveltime="0.02" CO_perVeh="0.342097" CO2_perVeh="43.548431" HC_perVeh="0.002547" PMx_perVeh="0.000584" NOx_perVeh="0.016178" fuel_perVeh="0.018720" electricity_perVeh="0"/>
        <edge id=":1110673412_0" sampledSeconds="940.11" CO_abs="167508.728630" CO2_abs="11423753.114899" HC_abs="1042.336885" PMx_abs="251.161922" NOx_abs="4910.362140" fuel_abs="4910.508677" electricity_abs="0"
            CO_normed="242894.369844" CO2_normed="16564899.852030" HC_normed="1511.430257" PMx_normed="364.194853" NOx_normed="7120.221897" fuel_normed="7120.434382" electricity_normed="0"
            traveltime="0.02" CO_perVeh="2.766164" CO2_perVeh="188.646764" HC_perVeh="0.017213" PMx_perVeh="0.004148" NOx_perVeh="0.081088" fuel_perVeh="0.081090" electricity_perVeh="0"/>
        <edge id=":1110673414_0" sampledSeconds="0.00" CO_abs="0" CO2_abs="0" HC_abs="0" PMx_abs="0" NOx_abs="0" fuel_abs="0" electricity_abs="0"
            CO_normed="0" CO2_normed="0" HC_normed="0" PMx_normed="0" NOx_normed="0" fuel_normed="0" electricity_normed="0"/>
        <edge id=":1110673414_1" sampledSeconds="6.64" CO_abs="379.867690" CO2_abs="15969.123169" HC_abs="2.099991" PMx_abs="0.286016" NOx_abs="6.680862" fuel_abs="6.864539" electricity_abs="0"
            CO_normed="17.689787" CO2_normed="743.654695" HC_normed="0.097793" PMx_normed="0.013319" NOx_normed="0.311116" fuel_normed="0.319670" electricity_normed="0"
            traveltime="1.45" CO_perVeh="82.975453" CO2_perVeh="3488.175670" HC_perVeh="0.458706" PMx_perVeh="0.062475" NOx_perVeh="1.459317" fuel_perVeh="1.499438" electricity_perVeh="0"/>
        <edge id=":1110673417_0" sampledSeconds="29.12" CO_abs="499.408055" CO2_abs="54409.993269" HC_abs="3.504130" PMx_abs="0.771076" NOx_abs="20.594852" fuel_abs="23.388569" electricity_abs="0"
            CO_normed="750.024612" CO2_normed="81714.409101" HC_normed="5.262598" PMx_normed="1.158022" NOx_normed="30.929909" fuel_normed="35.125590" electricity_normed="0"
            traveltime="0.02" CO_perVeh="0.380823" CO2_perVeh="41.490232" HC_perVeh="0.002672" PMx_perVeh="0.000588" NOx_perVeh="0.015705" fuel_perVeh="0.017835" electricity_perVeh="0"/>
        <edge id=":1110673446_0" sampledSeconds="1313.71" CO_abs="14001.477459" CO2_abs="1130518.630795" HC_abs="90.582017" PMx_abs="20.754858" NOx_abs="462.692918" fuel_abs="485.957972" electricity_abs="0"
            CO_normed="19625.946677" CO2_normed="1584654.078909" HC_normed="126.969303" PMx_normed="29.092196" NOx_normed="648.559166" fuel_normed="681.169918" electricity_normed="0"
            traveltime="0.02" CO_perVeh="0.242938" CO2_perVeh="19.615506" HC_perVeh="0.001572" PMx_perVeh="0.000360" NOx_perVeh="0.008028" fuel_perVeh="0.008432" electricity_perVeh="0"/>
        <edge id=":1110673451_0" sampledSeconds="36.58" CO_abs="320.144068" CO2_abs="23377.695743" HC_abs="1.989195" PMx_abs="0.312329" NOx_abs="8.915222" fuel_abs="10.049191" electricity_abs="0"
            CO_normed="498.608524" CO2_normed="36409.602839" HC_normed="3.098073" PMx_normed="0.486437" NOx_normed="13.885017" fuel_normed="15.651117" electricity_normed="0"
            traveltime="0.03" CO_perVeh="0.235875" CO2_perVeh="17.224193" HC_perVeh="0.001466" PMx_perVeh="0.000230" NOx_perVeh="0.006569" fuel_perVeh="0.007404" electricity_perVeh="0"/>
        <edge id=":1110673464_0" sampledSeconds="1024.70" CO_abs="3607.583801" CO2_abs="260973.683348" HC_abs="22.421180" PMx_abs="3.811487" NOx_abs="101.624300" fuel_abs="112.182288" electricity_abs="0"
            CO_normed="107.438450" CO2_normed="7772.129391" HC_normed="0.667731" PMx_normed="0.113511" NOx_normed="3.026501" fuel_normed="3.340932" electricity_normed="0"
            traveltime="1.22" CO_perVeh="4.278090" CO2_perVeh="309.478308" HC_perVeh="0.026588" PMx_perVeh="0.004520" NOx_perVeh="0.120512" fuel_perVeh="0.133033" electricity_perVeh="0"/>
        <edge id=":1110673464_1" sampledSeconds="2613.16" CO_abs="66348.095952" CO2_abs="7897354.999850" HC_abs="490.589719" PMx_abs="142.101615" NOx_abs="3006.387911" fuel_abs="3394.708363" electricity_abs="0"
            CO_normed="1936.165543" CO2_normed="230460.066915" HC_normed="14.316355" PMx_normed="4.146800" NOx_normed="87.732204" fuel_normed="99.064144" electricity_normed="0"
            traveltime="0.72" CO_perVeh="18.288940" CO2_perVeh="2176.916328" HC_perVeh="0.135232" PMx_perVeh="0.039170" NOx_perVeh="0.828715" fuel_perVeh="0.935756" electricity_perVeh="0"/>
        <edge id=":1110673479_0" sampledSeconds="134.89" CO_abs="6423.336413" CO2_abs="441714.477577" HC_abs="39.621002" PMx_abs="7.727361" NOx_abs="180.686789" fuel_abs="189.873899" electricity_abs="0"
            CO_normed="9003.625390" CO2_normed="619153.572121" HC_normed="55.536972" PMx_normed="10.831484" NOx_normed="253.269649" fuel_normed="266.147271" electricity_normed="0"
            traveltime="0.03" CO_perVeh="1.357951" CO2_perVeh="93.382434" HC_perVeh="0.008376" PMx_perVeh="0.001634" NOx_perVeh="0.038199" fuel_perVeh="0.040141" electricity_perVeh="0"/>
        <edge id=":1110673511_0" sampledSeconds="63.05" CO_abs="1017.648730" CO2_abs="119018.621172" HC_abs="7.335009" PMx_abs="1.589528" NOx_abs="44.389516" fuel_abs="51.161195" electricity_abs="0"
            CO_normed="1426.443729" CO2_normed="166829.044978" HC_normed="10.281521" PMx_normed="2.228050" NOx_normed="62.221025" fuel_normed="71.712924" electricity_normed="0"
            traveltime="0.02" CO_perVeh="0.390028" CO2_perVeh="45.615569" HC_perVeh="0.002811" PMx_perVeh="0.000609" NOx_perVeh="0.017013" fuel_perVeh="0.019608" electricity_perVeh="0"/>
        <edge id=":1110673517_0" sampledSeconds="182.86" CO_abs="7982.966242" CO2_abs="567195.281184" HC_abs="49.647936" PMx_abs="9.732204" NOx_abs="230.417384" fuel_abs="243.812757" electricity_abs="0"
            CO_normed="11189.766955" CO2_normed="795040.693168" HC_normed="69.591781" PMx_normed="13.641683" NOx_normed="322.977293" fuel_normed="341.753661" electricity_normed="0"
            traveltime="0.03" CO_perVeh="1.222257" CO2_perVeh="86.842214" HC_perVeh="0.007602" PMx_perVeh="0.001490" NOx_perVeh="0.035279" fuel_perVeh="0.037330" electricity_perVeh="0"/>
        <edge id=":1110673534_0" sampledSeconds="656.14" CO_abs="4206.153917" CO2_abs="348733.389978" HC_abs="27.109353" PMx_abs="4.731549" NOx_abs="132.796699" fuel_abs="149.906816" electricity_abs="0"
            CO_normed="114.259471" CO2_normed="9473.284472" HC_normed="0.736421" PMx_normed="0.128532" NOx_normed="3.607400" fuel_normed="4.072194" electricity_normed="0"
            traveltime="1.44" CO_perVeh="9.248706" CO2_perVeh="766.812813" HC_perVeh="0.059609" PMx_perVeh="0.010404" NOx_perVeh="0.292000" fuel_perVeh="0.329623" electricity_perVeh="0"/>
        <edge id=":1110673534_1" sampledSeconds="264.22" CO_abs="3993.097140" CO2_abs="501803.173795" HC_abs="29.536763" PMx_abs="6.713824" NOx_abs="186.441185" fuel_abs="215.704282" electricity_abs="0"
            CO_normed="105.473854" CO2_normed="13254.652436" HC_normed="0.780185" PMx_normed="0.177339" NOx_normed="4.924666" fuel_normed="5.697623" electricity_normed="0"
            traveltime="1.23" CO_perVeh="18.526969" CO2_perVeh="2328.240838" HC_perVeh="0.137043" PMx_perVeh="0.031150" NOx_perVeh="0.865040" fuel_perVeh="1.000814" electricity_perVeh="0"/>
        <edge id=":1110673549_0" sampledSeconds="650.36" CO_abs="1401.407524" CO2_abs="143338.599754" HC_abs="9.678684" PMx_abs="2.062360" NOx_abs="54.275393" fuel_abs="61.615293" electricity_abs="0"
            CO_normed="36.877857" CO2_normed="3771.936617" HC_normed="0.254693" PMx_normed="0.054271" NOx_normed="1.428250" fuel_normed="1.621398" electricity_normed="0"
            traveltime="1.29" CO_perVeh="2.784263" CO2_perVeh="284.779619" HC_perVeh="0.019229" PMx_perVeh="0.004097" NOx_perVeh="0.107832" fuel_perVeh="0.122415" electricity_perVeh="0"/>
        <edge id=":1110673549_1" sampledSeconds="3198.33" CO_abs="68635.540081" CO2_abs="8998482.996858" HC_abs="527.324192" PMx_abs="158.296111" NOx_abs="3365.014636" fuel_abs="3868.035897" electricity_abs="0"
            CO_normed="1747.096993" CO2_normed="229053.673415" HC_normed="13.422878" PMx_normed="4.029380" NOx_normed="85.655434" fuel_normed="98.459688" electricity_normed="0"
            traveltime="0.81" CO_perVeh="17.313143" CO2_perVeh="2269.844790" HC_perVeh="0.133016" PMx_perVeh="0.039930" NOx_perVeh="0.848817" fuel_perVeh="0.975702" electricity_perVeh="0"/>
        <edge id=":1110673556_0" sampledSeconds="472.25" CO_abs="58054.237389" CO2_abs="2766333.539100" HC_abs="330.025398" PMx_abs="55.871053" NOx_abs="1193.071196" fuel_abs="1189.129287" electricity_abs="0"
            CO_normed="1132.829771" CO2_normed="53980.297208" HC_normed="6.439885" PMx_normed="1.090229" NOx_normed="23.280757" fuel_normed="23.203837" electricity_normed="0"
            traveltime="2.78" CO_perVeh="342.224147" CO2_perVeh="16307.270227" HC_perVeh="1.945468" PMx_perVeh="0.329354" NOx_perVeh="7.033040" fuel_perVeh="7.009803" electricity_perVeh="0"/>
        <edge id=":1110673556_2" sampledSeconds="172.25" CO_abs="16611.770875" CO2_abs="718487.625915" HC_abs="92.508436" PMx_abs="13.819871" NOx_abs="306.103522" fuel_abs="308.849608" electricity_abs="0"
            CO_normed="338.934630" CO2_normed="14659.504964" HC_normed="1.887476" PMx_normed="0.281971" NOx_normed="6.245516" fuel_normed="6.301545" electricity_normed="0"
            traveltime="2.98" CO_perVeh="287.241256" CO2_perVeh="12423.677739" HC_perVeh="1.599603" PMx_perVeh="0.238965" NOx_perVeh="5.292967" fuel_perVeh="5.340451" electricity_perVeh="0"/>
        <edge id=":1110673556_3" sampledSeconds="347.07" CO_abs="34438.329177" CO2_abs="1206481.296035" HC_abs="185.009657" PMx_abs="23.712549" NOx_abs="518.953755" fuel_abs="518.623570" electricity_abs="0"
            CO_normed="1598.423585" CO2_normed="55997.727073" HC_normed="8.587054" PMx_normed="1.100596" NOx_normed="24.086764" fuel_normed="24.071439" electricity_normed="0"
            traveltime="1.81" CO_perVeh="179.310634" CO2_perVeh="6281.806686" HC_perVeh="0.963293" PMx_perVeh="0.123465" NOx_perVeh="2.702045" fuel_perVeh="2.700326" electricity_perVeh="0"/>
        <edge id=":1110673556_4" sampledSeconds="78.24" CO_abs="8932.091264" CO2_abs="341743.820878" HC_abs="48.696819" PMx_abs="6.768634" NOx_abs="147.132988" fuel_abs="146.902800" electricity_abs="0"
            CO_normed="253.273647" CO2_normed="9690.306715" HC_normed="1.380821" PMx_normed="0.191928" NOx_normed="4.172025" fuel_normed="4.165498" electricity_normed="0"
            traveltime="2.58" CO_perVeh="294.139791" CO2_perVeh="11253.854562" HC_perVeh="1.603619" PMx_perVeh="0.222896" NOx_perVeh="4.845189" fuel_perVeh="4.837608" electricity_perVeh="0"/>
        <edge id=":1110673556_5" sampledSeconds="22.27" CO_abs="1323.496134" CO2_abs="60923.605797" HC_abs="7.436605" PMx_abs="1.054130" NOx_abs="25.197060" fuel_abs="26.188772" electricity_abs="0"
            CO_normed="52.306909" CO2_normed="2407.808677" HC_normed="0.293908" PMx_normed="0.041661" NOx_normed="0.995832" fuel_normed="1.035027" electricity_normed="0"
            traveltime="1.54" CO_perVeh="91.500967" CO2_perVeh="4212.002376" HC_perVeh="0.514136" PMx_perVeh="0.072878" NOx_perVeh="1.742019" fuel_perVeh="1.810582" electricity_perVeh="0"/>
        <edge id=":1110673556_6" sampledSeconds="557.57" CO_abs="65970.573640" CO2_abs="3155403.961194" HC_abs="375.280247" PMx_abs="63.535922" NOx_abs="1359.586060" fuel_abs="1356.374222" electricity_abs="0"
            CO_normed="1319.761796" CO2_normed="63124.835361" HC_normed="7.507598" PMx_normed="1.271056" NOx_normed="27.198941" fuel_normed="27.134687" electricity_normed="0"
            traveltime="2.71" CO_perVeh="320.301721" CO2_perVeh="15320.183876" HC_perVeh="1.822069" PMx_perVeh="0.308481" NOx_perVeh="6.601091" fuel_perVeh="6.585497" electricity_perVeh="0"/>
        <edge id=":1110673561_0" sampledSeconds="102.96" CO_abs="10217.814054" CO2_abs="710949.793643" HC_abs="63.670598" PMx_abs="14.561427" NOx_abs="302.486931" fuel_abs="305.603352" electricity_abs="0"
            CO_normed="256.826633" CO2_normed="17869.853630" HC_normed="1.600372" PMx_normed="0.366004" NOx_normed="7.603065" fuel_normed="7.681396" electricity_normed="0"
            traveltime="1.21" CO_perVeh="120.580123" CO2_perVeh="8389.897613" HC_perVeh="0.751375" PMx_perVeh="0.171839" NOx_perVeh="3.569639" fuel_perVeh="3.606416" electricity_perVeh="0"/>
        <edge id=":1110673561_1" sampledSeconds="5195.27" CO_abs="481819.183319" CO2_abs="33427419.603436" HC_abs="3002.645114" PMx_abs="697.906205" NOx_abs="14285.698131" fuel_abs="14368.833991" electricity_abs="0"
            CO_normed="11807.142571" CO2_normed="819150.259473" HC_normed="73.580837" PMx_normed="17.102428" NOx_normed="350.075880" fuel_normed="352.113152" electricity_normed="0"
            traveltime="1.19" CO_perVeh="110.678329" CO2_perVeh="7678.587903" HC_perVeh="0.689735" PMx_perVeh="0.160316" NOx_perVeh="3.281557" fuel_perVeh="3.300654" electricity_perVeh="0"/>
        <edge id=":1110673562_0" sampledSeconds="301.19" CO_abs="6811.581134" CO2_abs="519152.686839" HC_abs="42.865806" PMx_abs="7.124975" NOx_abs="199.046872" fuel_abs="223.163656" electricity_abs="0"
            CO_normed="10608.700127" CO2_normed="808554.587609" HC_normed="66.761369" PMx_normed="11.096795" NOx_normed="310.005641" fuel_normed="347.566338" electricity_normed="0"
            traveltime="0.03" CO_perVeh="0.610600" CO2_perVeh="46.537591" HC_perVeh="0.003843" PMx_perVeh="0.000639" NOx_perVeh="0.017843" fuel_perVeh="0.020005" electricity_perVeh="0"/>
        <edge id=":1110673564_0" sampledSeconds="27.78" CO_abs="383.064607" CO2_abs="47881.817791" HC_abs="2.828132" PMx_abs="0.659308" NOx_abs="17.893603" fuel_abs="20.582373" electricity_abs="0"
            CO_normed="1610.831196" CO2_normed="201348.608862" HC_normed="11.892622" PMx_normed="2.772466" NOx_normed="75.244680" fuel_normed="86.551272" electricity_normed="0"
            traveltime="7.847420e-03" CO_perVeh="0.108195" CO2_perVeh="13.524027" HC_perVeh="0.000799" PMx_perVeh="0.000186" NOx_perVeh="0.005054" fuel_perVeh="0.005813" electricity_perVeh="0"/>
        <edge id=":1110673588_0" sampledSeconds="62.66" CO_abs="1233.557607" CO2_abs="135108.410869" HC_abs="8.729843" PMx_abs="1.909712" NOx_abs="51.169483" fuel_abs="58.077434" electricity_abs="0"
            CO_normed="2074.901242" CO2_normed="227258.628258" HC_normed="14.684002" PMx_normed="3.212225" NOx_normed="86.069449" fuel_normed="97.688944" electricity_normed="0"
            traveltime="0.02" CO_perVeh="0.397922" CO2_perVeh="43.583358" HC_perVeh="0.002816" PMx_perVeh="0.000616" NOx_perVeh="0.016506" fuel_perVeh="0.018735" electricity_perVeh="0"/>
        <edge id=":1110673601_0" sampledSeconds="29.13" CO_abs="432.145711" CO2_abs="50908.927742" HC_abs="3.140194" PMx_abs="0.698817" NOx_abs="19.087857" fuel_abs="21.883621" electricity_abs="0"
            CO_normed="649.008194" CO2_normed="76456.413583" HC_normed="4.716028" PMx_normed="1.049503" NOx_normed="28.666664" fuel_normed="32.865418" electricity_normed="0"
            traveltime="0.02" CO_perVeh="0.329532" CO2_perVeh="38.820501" HC_perVeh="0.002395" PMx_perVeh="0.000533" NOx_perVeh="0.014555" fuel_perVeh="0.016687" electricity_perVeh="0"/>
        <edge id=":1110673617_0" sampledSeconds="854.61" CO_abs="31202.236973" CO2_abs="3235759.595164" HC_abs="219.456504" PMx_abs="60.467323" NOx_abs="1263.073878" fuel_abs="1390.901963" electricity_abs="0"
            CO_normed="43736.344314" CO2_normed="4535581.724327" HC_normed="307.613369" PMx_normed="84.757373" NOx_normed="1770.457486" fuel_normed="1949.634803" electricity_normed="0"
            traveltime="0.02" CO_perVeh="0.553041" CO2_perVeh="57.351860" HC_perVeh="0.003890" PMx_perVeh="0.001072" NOx_perVeh="0.022387" fuel_perVeh="0.024653" electricity_perVeh="0"/>
        <edge id=":1110673621_0" sampledSeconds="26.44" CO_abs="595.611001" CO2_abs="56780.814890" HC_abs="4.029180" PMx_abs="0.854769" NOx_abs="21.971502" fuel_abs="24.407662" electricity_abs="0"
            CO_normed="1001.845393" CO2_normed="95507.970379" HC_normed="6.777268" PMx_normed="1.437761" NOx_normed="36.957088" fuel_normed="41.054822" electricity_normed="0"
            traveltime="0.02" CO_perVeh="0.451220" CO2_perVeh="43.015769" HC_perVeh="0.003052" PMx_perVeh="0.000648" NOx_perVeh="0.016645" fuel_perVeh="0.018491" electricity_perVeh="0"/>
        <edge id=":1110673630_0" sampledSeconds="285.93" CO_abs="1177.790046" CO2_abs="105292.978679" HC_abs="7.756019" PMx_abs="1.338305" NOx_abs="39.405602" fuel_abs="45.261396" electricity_abs="0"
            CO_normed="35.326277" CO2_normed="3158.125628" HC_normed="0.232632" PMx_normed="0.040141" NOx_normed="1.181920" fuel_normed="1.357557" electricity_normed="0"
            traveltime="1.29" CO_perVeh="5.299605" CO2_perVeh="473.778190" HC_perVeh="0.034899" PMx_perVeh="0.006022" NOx_perVeh="0.177310" fuel_perVeh="0.203659" electricity_perVeh="0"/>
        <edge id=":1110673630_1" sampledSeconds="338.36" CO_abs="1530.377527" CO2_abs="125510.210650" HC_abs="9.824079" PMx_abs="1.644725" NOx_abs="47.467872" fuel_abs="53.952019" electricity_abs="0"
            CO_normed="55.960134" CO2_normed="4589.434984" HC_normed="0.359230" PMx_normed="0.060141" NOx_normed="1.735721" fuel_normed="1.972822" electricity_normed="0"
            traveltime="1.08" CO_perVeh="4.878542" CO2_perVeh="400.101850" HC_perVeh="0.031317" PMx_perVeh="0.005243" NOx_perVeh="0.151318" fuel_perVeh="0.171988" electricity_perVeh="0"/>
        <edge id=":1110673650_0" sampledSeconds="199.87" CO_abs="3040.767905" CO2_abs="385566.834800" HC_abs="22.639814" PMx_abs="5.202453" NOx_abs="143.438553" fuel_abs="165.739053" electricity_abs="0"
            CO_normed="4262.260818" CO2_normed="540451.117580" HC_normed="31.734349" PMx_normed="7.292306" NOx_normed="201.058595" fuel_normed="232.317327" electricity_normed="0"
            traveltime="0.02" CO_perVeh="0.351439" CO2_perVeh="44.562180" HC_perVeh="0.002617" PMx_perVeh="0.000601" NOx_perVeh="0.016578" fuel_perVeh="0.019155" electricity_perVeh="0"/>
        <edge id=":1110673655_0" sampledSeconds="20.72" CO_abs="347.896613" CO2_abs="42368.367705" HC_abs="2.542134" PMx_abs="0.562284" NOx_abs="15.738750" fuel_abs="18.212410" electricity_abs="0"
            CO_normed="487.648564" CO2_normed="59387.970150" HC_normed="3.563324" PMx_normed="0.788156" NOx_normed="22.061092" fuel_normed="25.528434" electricity_normed="0"
            traveltime="0.02" CO_perVeh="0.397445" CO2_perVeh="48.402553" HC_perVeh="0.002904" PMx_perVeh="0.000642" NOx_perVeh="0.017980" fuel_perVeh="0.020806" electricity_perVeh="0"/>
        <edge id=":1110673663_0" sampledSeconds="110.65" CO_abs="1836.928583" CO2_abs="208369.043959" HC_abs="13.091429" PMx_abs="2.900535" NOx_abs="78.484274" fuel_abs="89.569118" electricity_abs="0"
            CO_normed="47.158109" CO2_normed="5349.304319" HC_normed="0.336087" PMx_normed="0.074463" NOx_normed="2.014869" fuel_normed="2.299442" electricity_normed="0"
            traveltime="1.30" CO_perVeh="21.575593" CO2_perVeh="2447.392720" HC_perVeh="0.153765" PMx_perVeh="0.034068" NOx_perVeh="0.921835" fuel_perVeh="1.052032" electricity_perVeh="0"/>
        <edge id=":1110673663_1" sampledSeconds="170.20" CO_abs="2678.300571" CO2_abs="318906.669513" HC_abs="19.557814" PMx_abs="4.550687" NOx_abs="120.389269" fuel_abs="137.084391" electricity_abs="0"
            CO_normed="68.842085" CO2_normed="8197.063632" HC_normed="0.502707" PMx_normed="0.116969" NOx_normed="3.094443" fuel_normed="3.523568" electricity_normed="0"
            traveltime="1.27" CO_perVeh="19.958185" CO2_perVeh="2376.431655" HC_perVeh="0.145741" PMx_perVeh="0.033911" NOx_perVeh="0.897118" fuel_perVeh="1.021527" electricity_perVeh="0"/>