<?xml version="1.0" encoding="UTF-8"?>

<!-- generated on Tue Nov 10 00:12:48 2020 by Eclipse SUMO sumo Version 1.7.0
<configuration xmlns:xsi="http://www.w3.org/2001/XMLSchema-instance" xsi:noNamespaceSchemaLocation="http://sumo.dlr.de/xsd/sumoConfiguration.xsd">

    <input>
        <net-file value="../dataSets/Porto/6AM7AM_Routing_SaoBento/Porto.net.xml"/>
        <route-files value="../results/Porto/6AM7AM_Routing_SaoBento/cost_hc-length/solution16/Porto.rou.xml"/>
        <additional-files value="moreOutputInfo.xml"/>
    </input>

    <output>
        <emission-output.precision value="6"/>
        <tripinfo-output value="../results/Porto/6AM7AM_Routing_SaoBento/cost_hc-length/solution16/Porto-tripinfo"/>
    </output>

    <processing>
        <collision.action value="warn"/>
        <time-to-teleport value="-1"/>
    </processing>

    <emissions>
        <device.emissions.probability value="1"/>
    </emissions>

    <gui_only>
        <quit-on-end value="true"/>
        <start value="true"/>
    </gui_only>

</configuration>
-->

<meandata xmlns:xsi="http://www.w3.org/2001/XMLSchema-instance" xsi:noNamespaceSchemaLocation="http://sumo.dlr.de/xsd/meandata_file.xsd">
    <interval begin="0.00" end="4699.00" id="emissions-detector">
        <edge id=":1092997347_0" sampledSeconds="271.16" CO_abs="35087.219693" CO2_abs="1376152.752975" HC_abs="192.289699" PMx_abs="28.156685" NOx_abs="597.923011" fuel_abs="591.554157" electricity_abs="0"
            CO_normed="61093.264957" CO2_normed="2396133.563577" HC_normed="334.811525" PMx_normed="49.025937" NOx_normed="1041.093288" fuel_normed="1030.003950" electricity_normed="0"
            traveltime="0.08" CO_perVeh="9.856740" CO2_perVeh="386.590342" HC_perVeh="0.054018" PMx_perVeh="0.007910" NOx_perVeh="0.167969" fuel_perVeh="0.166180" electricity_perVeh="0"/>
        <edge id=":1103427051_0" sampledSeconds="11.08" CO_abs="942.743426" CO2_abs="53947.829606" HC_abs="5.571777" PMx_abs="1.045045" NOx_abs="22.911670" fuel_abs="23.189793" electricity_abs="0"
            CO_normed="2490.534547" CO2_normed="142519.088127" HC_normed="14.719491" PMx_normed="2.760793" NOx_normed="60.527926" fuel_normed="61.262673" electricity_normed="0"
            traveltime="0.03" CO_perVeh="2.583103" CO2_perVeh="147.816238" HC_perVeh="0.015267" PMx_perVeh="0.002863" NOx_perVeh="0.062778" fuel_perVeh="0.063540" electricity_perVeh="0"/>
        <edge id=":1105984386_0" sampledSeconds="22.92" CO_abs="467.113396" CO2_abs="37653.036859" HC_abs="2.981289" PMx_abs="0.484115" NOx_abs="14.201652" fuel_abs="16.185613" electricity_abs="0"
            CO_normed="36.855317" CO2_normed="2970.830235" HC_normed="0.235224" PMx_normed="0.038197" NOx_normed="1.120512" fuel_normed="1.277047" electricity_normed="0"
            traveltime="0.96" CO_perVeh="19.604387" CO2_perVeh="1580.268793" HC_perVeh="0.125122" PMx_perVeh="0.020318" NOx_perVeh="0.596032" fuel_perVeh="0.679298" electricity_perVeh="0"/>
        <edge id=":1105984390_0" sampledSeconds="22.88" CO_abs="3.534241" CO2_abs="427.422096" HC_abs="0.025710" PMx_abs="0.004626" NOx_abs="0.153384" fuel_abs="0.183733" electricity_abs="0"
            CO_normed="0.215578" CO2_normed="26.071402" HC_normed="0.001568" PMx_normed="0.000282" NOx_normed="0.009356" fuel_normed="0.011207" electricity_normed="0"
            traveltime="1.04" CO_perVeh="0.160276" CO2_perVeh="19.383382" HC_perVeh="0.001166" PMx_perVeh="0.000210" NOx_perVeh="0.006956" fuel_perVeh="0.008332" electricity_perVeh="0"/>
        <edge id=":1105984390_1" sampledSeconds="645.36" CO_abs="14938.229495" CO2_abs="1956658.144907" HC_abs="114.675490" PMx_abs="34.501890" NOx_abs="730.893925" fuel_abs="841.077772" electricity_abs="0"
            CO_normed="871.628570" CO2_normed="114168.760148" HC_normed="6.691183" PMx_normed="2.013146" NOx_normed="42.646823" fuel_normed="49.075924" electricity_normed="0"
            traveltime="0.63" CO_perVeh="14.697714" CO2_perVeh="1925.154580" HC_perVeh="0.112829" PMx_perVeh="0.033946" NOx_perVeh="0.719126" fuel_perVeh="0.827536" electricity_perVeh="0"/>
        <edge id=":1105984395_0" sampledSeconds="8.87" CO_abs="191.751987" CO2_abs="15494.420341" HC_abs="1.226531" PMx_abs="0.208756" NOx_abs="5.906379" fuel_abs="6.660449" electricity_abs="0"
            CO_normed="159.679477" CO2_normed="12902.817720" HC_normed="1.021381" PMx_normed="0.173839" NOx_normed="4.918476" fuel_normed="5.546420" electricity_normed="0"
            traveltime="0.09" CO_perVeh="1.944575" CO2_perVeh="157.130365" HC_perVeh="0.012438" PMx_perVeh="0.002117" NOx_perVeh="0.059897" fuel_perVeh="0.067544" electricity_perVeh="0"/>
        <edge id=":1105984398_0" sampledSeconds="23.81" CO_abs="1523.493536" CO2_abs="104282.616001" HC_abs="9.399415" PMx_abs="1.892111" NOx_abs="43.104066" fuel_abs="44.826476" electricity_abs="0"
            CO_normed="96.540906" CO2_normed="6608.192293" HC_normed="0.595623" PMx_normed="0.119899" NOx_normed="2.731423" fuel_normed="2.840569" electricity_normed="0"
            traveltime="1.11" CO_perVeh="70.954821" CO2_perVeh="4856.833466" HC_perVeh="0.437766" PMx_perVeh="0.088123" NOx_perVeh="2.007518" fuel_perVeh="2.087738" electricity_perVeh="0"/>
        <edge id=":1105984398_1" sampledSeconds="452.59" CO_abs="7796.082880" CO2_abs="927198.484035" HC_abs="56.612466" PMx_abs="13.096016" NOx_abs="349.324274" fuel_abs="398.563274" electricity_abs="0"
            CO_normed="478.201644" CO2_normed="56873.156197" HC_normed="3.472535" PMx_normed="0.803293" NOx_normed="21.427099" fuel_normed="24.447356" electricity_normed="0"
            traveltime="0.95" CO_perVeh="16.446091" CO2_perVeh="1955.955468" HC_perVeh="0.119426" PMx_perVeh="0.027626" NOx_perVeh="0.736911" fuel_perVeh="0.840782" electricity_perVeh="0"/>
        <edge id=":1106006327_0" sampledSeconds="199.82" CO_abs="26797.863162" CO2_abs="865535.508926" HC_abs="142.383237" PMx_abs="18.014688" NOx_abs="378.611671" fuel_abs="372.063328" electricity_abs="0"
            CO_normed="2317.199889" CO2_normed="74842.489232" HC_normed="12.311818" PMx_normed="1.557722" NOx_normed="32.738391" fuel_normed="32.172159" electricity_normed="0"
            traveltime="2.10" CO_perVeh="281.374070" CO2_perVeh="9088.010013" HC_perVeh="1.495005" PMx_perVeh="0.189152" NOx_perVeh="3.975373" fuel_perVeh="3.906616" electricity_perVeh="0"/>
        <edge id=":1106006327_1" sampledSeconds="159.02" CO_abs="21657.028974" CO2_abs="732906.791685" HC_abs="115.899700" PMx_abs="15.317841" NOx_abs="320.938580" fuel_abs="315.049924" electricity_abs="0"
            CO_normed="1633.060316" CO2_normed="55265.244282" HC_normed="8.739481" PMx_normed="1.155050" NOx_normed="24.200552" fuel_normed="23.756515" electricity_normed="0"
            traveltime="2.26" CO_perVeh="307.449439" CO2_perVeh="10404.556511" HC_perVeh="1.645346" PMx_perVeh="0.217456" NOx_perVeh="4.556137" fuel_perVeh="4.472540" electricity_perVeh="0"/>
        <edge id=":1106006327_2" sampledSeconds="0.00" CO_abs="0" CO2_abs="0" HC_abs="0" PMx_abs="0" NOx_abs="0" fuel_abs="0" electricity_abs="0"
            CO_normed="0" CO2_normed="0" HC_normed="0" PMx_normed="0" NOx_normed="0" fuel_normed="0" electricity_normed="0"/>
        <edge id=":1106006327_3" sampledSeconds="0.00" CO_abs="0" CO2_abs="0" HC_abs="0" PMx_abs="0" NOx_abs="0" fuel_abs="0" electricity_abs="0"
            CO_normed="0" CO2_normed="0" HC_normed="0" PMx_normed="0" NOx_normed="0" fuel_normed="0" electricity_normed="0"/>
        <edge id=":1107381198_0" sampledSeconds="0.00" CO_abs="0" CO2_abs="0" HC_abs="0" PMx_abs="0" NOx_abs="0" fuel_abs="0" electricity_abs="0"
            CO_normed="0" CO2_normed="0" HC_normed="0" PMx_normed="0" NOx_normed="0" fuel_normed="0" electricity_normed="0"/>
        <edge id=":1107381198_1" sampledSeconds="35.57" CO_abs="1343.370139" CO2_abs="55781.246981" HC_abs="7.406530" PMx_abs="0.981263" NOx_abs="23.216370" fuel_abs="23.978348" electricity_abs="0"
            CO_normed="112.233734" CO2_normed="4660.322149" HC_normed="0.618789" PMx_normed="0.081981" NOx_normed="1.939644" fuel_normed="2.003305" electricity_normed="0"
            traveltime="1.46" CO_perVeh="55.310274" CO2_perVeh="2296.668619" HC_perVeh="0.304947" PMx_perVeh="0.040401" NOx_perVeh="0.955882" fuel_perVeh="0.987255" electricity_perVeh="0"/>
        <edge id=":1110338277_0" sampledSeconds="97.09" CO_abs="1497.076209" CO2_abs="185984.191092" HC_abs="11.072085" PMx_abs="2.496899" NOx_abs="69.229816" fuel_abs="79.946859" electricity_abs="0"
            CO_normed="4096.216789" CO2_normed="508879.615670" HC_normed="30.294824" PMx_normed="6.831875" NOx_normed="189.422778" fuel_normed="218.746157" electricity_normed="0"
            traveltime="0.02" CO_perVeh="0.337394" CO2_perVeh="41.914966" HC_perVeh="0.002495" PMx_perVeh="0.000563" NOx_perVeh="0.015602" fuel_perVeh="0.018017" electricity_perVeh="0"/>
        <edge id=":1110338293_0" sampledSeconds="123.55" CO_abs="6712.573980" CO2_abs="459449.473087" HC_abs="41.365899" PMx_abs="8.089811" NOx_abs="188.327120" fuel_abs="197.497347" electricity_abs="0"
            CO_normed="17142.134020" CO2_normed="1173312.125355" HC_normed="105.637538" PMx_normed="20.659232" NOx_normed="480.937528" fuel_normed="504.355855" electricity_normed="0"
            traveltime="0.03" CO_perVeh="1.539640" CO2_perVeh="105.382348" HC_perVeh="0.009488" PMx_perVeh="0.001856" NOx_perVeh="0.043196" fuel_perVeh="0.045299" electricity_perVeh="0"/>
        <edge id=":1110338295_0" sampledSeconds="0.00" CO_abs="0" CO2_abs="0" HC_abs="0" PMx_abs="0" NOx_abs="0" fuel_abs="0" electricity_abs="0"
            CO_normed="0" CO2_normed="0" HC_normed="0" PMx_normed="0" NOx_normed="0" fuel_normed="0" electricity_normed="0"/>
        <edge id=":1110673403_0" sampledSeconds="143.63" CO_abs="2327.632055" CO2_abs="291705.683221" HC_abs="17.300895" PMx_abs="3.995005" NOx_abs="108.942158" fuel_abs="125.392006" electricity_abs="0"
            CO_normed="5944.155068" CO2_normed="744938.965450" HC_normed="44.181898" PMx_normed="10.202183" NOx_normed="278.209384" fuel_normed="320.217935" electricity_normed="0"
            traveltime="0.02" CO_perVeh="0.373717" CO2_perVeh="46.835272" HC_perVeh="0.002778" PMx_perVeh="0.000641" NOx_perVeh="0.017491" fuel_perVeh="0.020133" electricity_perVeh="0"/>
        <edge id=":1110673412_0" sampledSeconds="253.10" CO_abs="44590.928035" CO2_abs="3050039.760488" HC_abs="277.681716" PMx_abs="66.951425" NOx_abs="1310.044478" fuel_abs="1311.061914" electricity_abs="0"
            CO_normed="117800.075529" CO2_normed="8057578.749518" HC_normed="733.578074" PMx_normed="176.871916" NOx_normed="3460.868505" fuel_normed="3463.556362" electricity_normed="0"
            traveltime="0.02" CO_perVeh="2.738263" CO2_perVeh="187.298439" HC_perVeh="0.017052" PMx_perVeh="0.004111" NOx_perVeh="0.080448" fuel_perVeh="0.080510" electricity_perVeh="0"/>
        <edge id=":1110673414_0" sampledSeconds="0.00" CO_abs="0" CO2_abs="0" HC_abs="0" PMx_abs="0" NOx_abs="0" fuel_abs="0" electricity_abs="0"
            CO_normed="0" CO2_normed="0" HC_normed="0" PMx_normed="0" NOx_normed="0" fuel_normed="0" electricity_normed="0"/>
        <edge id=":1110673414_1" sampledSeconds="132.31" CO_abs="9233.463027" CO2_abs="356919.413390" HC_abs="50.345219" PMx_abs="6.645400" NOx_abs="151.019851" fuel_abs="153.426772" electricity_abs="0"
            CO_normed="783.382598" CO2_normed="30281.645849" HC_normed="4.271373" PMx_normed="0.563807" NOx_normed="12.812779" fuel_normed="13.016986" electricity_normed="0"
            traveltime="1.58" CO_perVeh="110.012101" CO2_perVeh="4252.516563" HC_perVeh="0.599838" PMx_perVeh="0.079177" NOx_perVeh="1.799326" fuel_perVeh="1.828003" electricity_perVeh="0"/>
        <edge id=":1110673417_0" sampledSeconds="29.66" CO_abs="526.618580" CO2_abs="60654.140228" HC_abs="3.788604" PMx_abs="0.846726" NOx_abs="22.847520" fuel_abs="26.072666" electricity_abs="0"
            CO_normed="1440.904514" CO2_normed="165958.490271" HC_normed="10.366167" PMx_normed="2.316766" NOx_normed="62.514117" fuel_normed="71.338581" electricity_normed="0"
            traveltime="0.02" CO_perVeh="0.390863" CO2_perVeh="45.018315" HC_perVeh="0.002812" PMx_perVeh="0.000628" NOx_perVeh="0.016958" fuel_perVeh="0.019351" electricity_perVeh="0"/>
        <edge id=":1110673446_0" sampledSeconds="334.62" CO_abs="2922.106089" CO2_abs="244938.267425" HC_abs="19.081444" PMx_abs="4.386670" NOx_abs="99.338688" fuel_abs="105.287787" electricity_abs="0"
            CO_normed="7462.284117" CO2_normed="625507.386487" HC_normed="48.728949" PMx_normed="11.202391" NOx_normed="253.684668" fuel_normed="268.877089" electricity_normed="0"
            traveltime="0.02" CO_perVeh="0.199301" CO2_perVeh="16.705876" HC_perVeh="0.001301" PMx_perVeh="0.000299" NOx_perVeh="0.006775" fuel_perVeh="0.007181" electricity_perVeh="0"/>
        <edge id=":1110673451_0" sampledSeconds="37.38" CO_abs="201.268707" CO2_abs="15209.503769" HC_abs="1.264212" PMx_abs="0.212534" NOx_abs="5.861971" fuel_abs="6.537972" electricity_abs="0"
            CO_normed="571.096564" CO2_normed="43156.710700" HC_normed="3.587179" PMx_normed="0.603062" NOx_normed="16.633244" fuel_normed="18.551386" electricity_normed="0"
            traveltime="0.03" CO_perVeh="0.144336" CO2_perVeh="10.907214" HC_perVeh="0.000907" PMx_perVeh="0.000152" NOx_perVeh="0.004204" fuel_perVeh="0.004689" electricity_perVeh="0"/>
        <edge id=":1110673464_0" sampledSeconds="322.18" CO_abs="359.121415" CO2_abs="30148.336302" HC_abs="2.323424" PMx_abs="0.403328" NOx_abs="11.428809" fuel_abs="12.959595" electricity_abs="0"
            CO_normed="19.485146" CO2_normed="1635.783074" HC_normed="0.126064" PMx_normed="0.021884" NOx_normed="0.620102" fuel_normed="0.703159" electricity_normed="0"
            traveltime="1.16" CO_perVeh="1.298177" CO2_perVeh="108.982258" HC_perVeh="0.008399" PMx_perVeh="0.001458" NOx_perVeh="0.041314" fuel_perVeh="0.046847" electricity_perVeh="0"/>
        <edge id=":1110673464_1" sampledSeconds="710.67" CO_abs="15351.822236" CO2_abs="1949579.987935" HC_abs="116.301048" PMx_abs="34.636042" NOx_abs="731.931101" fuel_abs="838.034974" electricity_abs="0"
            CO_normed="816.193267" CO2_normed="103651.151973" HC_normed="6.183249" PMx_normed="1.841456" NOx_normed="38.913767" fuel_normed="44.554874" electricity_normed="0"
            traveltime="0.70" CO_perVeh="15.149106" CO2_perVeh="1923.836388" HC_perVeh="0.114765" PMx_perVeh="0.034179" NOx_perVeh="0.722266" fuel_perVeh="0.826969" electricity_perVeh="0"/>
        <edge id=":1110673479_0" sampledSeconds="133.85" CO_abs="6706.054636" CO2_abs="466746.380332" HC_abs="41.495994" PMx_abs="8.130156" NOx_abs="190.629644" fuel_abs="200.634020" electricity_abs="0"
            CO_normed="17125.485343" CO2_normed="1191946.491591" HC_normed="105.969766" PMx_normed="20.762262" NOx_normed="486.817564" fuel_normed="512.366087" electricity_normed="0"
            traveltime="0.03" CO_perVeh="1.412693" CO2_perVeh="98.324496" HC_perVeh="0.008742" PMx_perVeh="0.001713" NOx_perVeh="0.040158" fuel_perVeh="0.042265" electricity_perVeh="0"/>
        <edge id=":1110673511_0" sampledSeconds="11.82" CO_abs="166.667434" CO2_abs="22367.909894" HC_abs="1.267568" PMx_abs="0.272310" NOx_abs="8.149103" fuel_abs="9.615064" electricity_abs="0"
            CO_normed="425.624434" CO2_normed="57121.710731" HC_normed="3.237031" PMx_normed="0.695407" NOx_normed="20.810647" fuel_normed="24.554325" electricity_normed="0"
            traveltime="0.02" CO_perVeh="0.330035" CO2_perVeh="44.292891" HC_perVeh="0.002510" PMx_perVeh="0.000539" NOx_perVeh="0.016137" fuel_perVeh="0.019040" electricity_perVeh="0"/>
        <edge id=":1110673517_0" sampledSeconds="17.17" CO_abs="782.170801" CO2_abs="56479.224729" HC_abs="4.882936" PMx_abs="0.948788" NOx_abs="22.777945" fuel_abs="24.278004" electricity_abs="0"
            CO_normed="1997.456824" CO2_normed="144232.963768" HC_normed="12.469725" PMx_normed="2.422954" NOx_normed="58.168833" fuel_normed="61.999583" electricity_normed="0"
            traveltime="0.03" CO_perVeh="1.255827" CO2_perVeh="90.681121" HC_perVeh="0.007840" PMx_perVeh="0.001523" NOx_perVeh="0.036571" fuel_perVeh="0.038980" electricity_perVeh="0"/>
        <edge id=":1110673534_0" sampledSeconds="474.92" CO_abs="2968.204686" CO2_abs="254117.432030" HC_abs="19.336131" PMx_abs="3.491398" NOx_abs="96.896828" fuel_abs="109.234993" electricity_abs="0"
            CO_normed="146.899374" CO2_normed="12576.522072" HC_normed="0.956964" PMx_normed="0.172793" NOx_normed="4.795519" fuel_normed="5.406147" electricity_normed="0"
            traveltime="1.43" CO_perVeh="8.942011" CO2_perVeh="765.553973" HC_perVeh="0.058252" PMx_perVeh="0.010518" NOx_perVeh="0.291911" fuel_perVeh="0.329081" electricity_perVeh="0"/>
        <edge id=":1110673534_1" sampledSeconds="184.01" CO_abs="3264.393888" CO2_abs="398758.439250" HC_abs="23.978036" PMx_abs="5.480279" NOx_abs="149.173010" fuel_abs="171.409504" electricity_abs="0"
            CO_normed="157.092897" CO2_normed="19189.509760" HC_normed="1.153898" PMx_normed="0.263728" NOx_normed="7.178674" fuel_normed="8.248764" electricity_normed="0"
            traveltime="1.22" CO_perVeh="21.674403" CO2_perVeh="2647.612879" HC_perVeh="0.159206" PMx_perVeh="0.036387" NOx_perVeh="0.990455" fuel_perVeh="1.138098" electricity_perVeh="0"/>
        <edge id=":1110673549_0" sampledSeconds="59.77" CO_abs="49.726397" CO2_abs="5790.611872" HC_abs="0.358361" PMx_abs="0.071041" NOx_abs="2.126692" fuel_abs="2.489155" electricity_abs="0"
            CO_normed="2.384006" CO2_normed="277.616156" HC_normed="0.017181" PMx_normed="0.003406" NOx_normed="0.101959" fuel_normed="0.119336" electricity_normed="0"
            traveltime="1.25" CO_perVeh="1.036007" CO2_perVeh="120.642466" HC_perVeh="0.007466" PMx_perVeh="0.001480" NOx_perVeh="0.044308" fuel_perVeh="0.051859" electricity_perVeh="0"/>
        <edge id=":1110673549_1" sampledSeconds="639.08" CO_abs="14312.423152" CO2_abs="1897829.466024" HC_abs="110.450135" PMx_abs="33.311436" NOx_abs="708.104363" fuel_abs="815.790091" electricity_abs="0"
            CO_normed="663.743346" CO2_normed="88012.467720" HC_normed="5.122161" PMx_normed="1.544829" NOx_normed="32.838573" fuel_normed="37.832535" electricity_normed="0"
            traveltime="0.80" CO_perVeh="18.019718" CO2_perVeh="2389.417319" HC_perVeh="0.139060" PMx_perVeh="0.041940" NOx_perVeh="0.891522" fuel_perVeh="1.027101" electricity_perVeh="0"/>
        <edge id=":1110673556_0" sampledSeconds="417.44" CO_abs="52066.410438" CO2_abs="2611942.065315" HC_abs="299.223869" PMx_abs="52.903634" NOx_abs="1126.381295" fuel_abs="1122.760481" electricity_abs="0"
            CO_normed="1851.004262" CO2_normed="92856.716171" HC_normed="10.637658" PMx_normed="1.880768" NOx_normed="40.043793" fuel_normed="39.915070" electricity_normed="0"
            traveltime="2.59" CO_perVeh="323.202888" CO2_perVeh="16213.662723" HC_perVeh="1.857436" PMx_perVeh="0.328400" NOx_perVeh="6.992026" fuel_perVeh="6.969550" electricity_perVeh="0"/>
        <edge id=":1110673556_2" sampledSeconds="253.05" CO_abs="24752.185727" CO2_abs="1051720.325190" HC_abs="137.411045" PMx_abs="20.374954" NOx_abs="449.162203" fuel_abs="452.093391" electricity_abs="0"
            CO_normed="920.094891" CO2_normed="39094.830181" HC_normed="5.107880" PMx_normed="0.757383" NOx_normed="16.696378" fuel_normed="16.805337" electricity_normed="0"
            traveltime="3.07" CO_perVeh="300.239270" CO2_perVeh="12757.166005" HC_perVeh="1.666770" PMx_perVeh="0.247144" NOx_perVeh="5.448251" fuel_perVeh="5.483806" electricity_perVeh="0"/>
        <edge id=":1110673556_3" sampledSeconds="417.10" CO_abs="34992.542844" CO2_abs="1260762.218901" HC_abs="188.714029" PMx_abs="24.167706" NOx_abs="538.361538" fuel_abs="541.957097" electricity_abs="0"
            CO_normed="2958.995884" CO2_normed="106611.006617" HC_normed="15.957801" PMx_normed="2.043640" NOx_normed="45.524259" fuel_normed="45.828302" electricity_normed="0"
            traveltime="1.72" CO_perVeh="144.381948" CO2_perVeh="5202.002789" HC_perVeh="0.778649" PMx_perVeh="0.099718" NOx_perVeh="2.221321" fuel_perVeh="2.236157" electricity_perVeh="0"/>
        <edge id=":1110673556_4" sampledSeconds="190.08" CO_abs="19758.328315" CO2_abs="792382.148947" HC_abs="108.543706" PMx_abs="15.372303" NOx_abs="339.000071" fuel_abs="340.614932" electricity_abs="0"
            CO_normed="1020.718773" CO2_normed="40934.603469" HC_normed="5.607387" PMx_normed="0.794136" NOx_normed="17.512804" fuel_normed="17.596228" electricity_normed="0"
            traveltime="2.40" CO_perVeh="249.417781" CO2_perVeh="10002.576838" HC_perVeh="1.370193" PMx_perVeh="0.194051" NOx_perVeh="4.279342" fuel_perVeh="4.299727" electricity_perVeh="0"/>
        <edge id=":1110673556_5" sampledSeconds="25.77" CO_abs="2433.480199" CO2_abs="93880.997409" HC_abs="13.274268" PMx_abs="1.797939" NOx_abs="40.007050" fuel_abs="40.355984" electricity_abs="0"
            CO_normed="175.219826" CO2_normed="6759.788730" HC_normed="0.955798" PMx_normed="0.129458" NOx_normed="2.880660" fuel_normed="2.905784" electricity_normed="0"
            traveltime="1.78" CO_perVeh="168.240606" CO2_perVeh="6490.538092" HC_perVeh="0.917727" PMx_perVeh="0.124302" NOx_perVeh="2.765920" fuel_perVeh="2.790043" electricity_perVeh="0"/>
        <edge id=":1110673556_6" sampledSeconds="314.90" CO_abs="37690.716805" CO2_abs="1906724.424920" HC_abs="216.923791" PMx_abs="38.192455" NOx_abs="818.847225" fuel_abs="819.618487" electricity_abs="0"
            CO_normed="1373.721644" CO2_normed="69494.794322" HC_normed="7.906268" PMx_normed="1.392009" NOx_normed="29.844701" fuel_normed="29.872811" electricity_normed="0"
            traveltime="2.49" CO_perVeh="298.480158" CO2_perVeh="15099.723624" HC_perVeh="1.717862" PMx_perVeh="0.302454" NOx_perVeh="6.484611" fuel_perVeh="6.490719" electricity_perVeh="0"/>
        <edge id=":1110673561_0" sampledSeconds="100.30" CO_abs="9747.725879" CO2_abs="703737.776732" HC_abs="61.339894" PMx_abs="14.215198" NOx_abs="297.418088" fuel_abs="302.503315" electricity_abs="0"
            CO_normed="446.379686" CO2_normed="32226.413808" HC_normed="2.808951" PMx_normed="0.650960" NOx_normed="13.619730" fuel_normed="13.852599" electricity_normed="0"
            traveltime="1.18" CO_perVeh="115.032627" CO2_perVeh="8304.788813" HC_perVeh="0.723870" PMx_perVeh="0.167753" NOx_perVeh="3.509822" fuel_perVeh="3.569833" electricity_perVeh="0"/>
        <edge id=":1110673561_1" sampledSeconds="1318.55" CO_abs="120872.787161" CO2_abs="8376799.492222" HC_abs="753.024882" PMx_abs="175.008172" NOx_abs="3580.732264" fuel_abs="3600.781639" electricity_abs="0"
            CO_normed="5396.451878" CO2_normed="373988.193838" HC_normed="33.619333" PMx_normed="7.813365" NOx_normed="159.864348" fuel_normed="160.759467" electricity_normed="0"
            traveltime="1.20" CO_perVeh="109.629508" CO2_perVeh="7597.610888" HC_perVeh="0.682980" PMx_perVeh="0.158729" NOx_perVeh="3.247662" fuel_perVeh="3.265846" electricity_perVeh="0"/>
        <edge id=":1110673562_0" sampledSeconds="104.70" CO_abs="2236.617617" CO2_abs="175633.775627" HC_abs="14.180562" PMx_abs="2.325616" NOx_abs="66.678303" fuel_abs="75.498249" electricity_abs="0"
            CO_normed="6346.364806" CO2_normed="498357.879343" HC_normed="40.237104" PMx_normed="6.598897" NOx_normed="189.198562" fuel_normed="214.225010" electricity_normed="0"
            traveltime="0.03" CO_perVeh="0.570124" CO2_perVeh="44.769849" HC_perVeh="0.003615" PMx_perVeh="0.000593" NOx_perVeh="0.016997" fuel_perVeh="0.019245" electricity_perVeh="0"/>
        <edge id=":1110673564_0" sampledSeconds="28.55" CO_abs="424.621519" CO2_abs="52665.498522" HC_abs="3.129252" PMx_abs="0.682228" NOx_abs="19.441148" fuel_abs="22.638743" electricity_abs="0"
            CO_normed="3253.112299" CO2_normed="403481.154885" HC_normed="23.973837" PMx_normed="5.226686" NOx_normed="148.942608" fuel_normed="173.440038" electricity_normed="0"
            traveltime="7.848357e-03" CO_perVeh="0.116734" CO2_perVeh="14.478488" HC_perVeh="0.000860" PMx_perVeh="0.000188" NOx_perVeh="0.005345" fuel_perVeh="0.006224" electricity_perVeh="0"/>
        <edge id=":1110673588_0" sampledSeconds="11.71" CO_abs="238.290698" CO2_abs="26798.471379" HC_abs="1.706054" PMx_abs="0.381987" NOx_abs="10.158912" fuel_abs="11.519529" electricity_abs="0"
            CO_normed="730.237509" CO2_normed="82123.427934" HC_normed="5.228171" PMx_normed="1.170592" NOx_normed="31.131801" fuel_normed="35.301387" electricity_normed="0"
            traveltime="0.02" CO_perVeh="0.397151" CO2_perVeh="44.664119" HC_perVeh="0.002843" PMx_perVeh="0.000637" NOx_perVeh="0.016932" fuel_perVeh="0.019199" electricity_perVeh="0"/>
        <edge id=":1110673601_0" sampledSeconds="29.51" CO_abs="416.904203" CO2_abs="52225.040377" HC_abs="3.091963" PMx_abs="0.698837" NOx_abs="19.404581" fuel_abs="22.449373" electricity_abs="0"
            CO_normed="1140.710129" CO2_normed="142895.255340" HC_normed="8.460056" PMx_normed="1.912119" NOx_normed="53.093737" fuel_normed="61.424727" electricity_normed="0"
            traveltime="0.02" CO_perVeh="0.309432" CO2_perVeh="38.762124" HC_perVeh="0.002295" PMx_perVeh="0.000519" NOx_perVeh="0.014402" fuel_perVeh="0.016662" electricity_perVeh="0"/>
        <edge id=":1110673617_0" sampledSeconds="238.07" CO_abs="6591.580784" CO2_abs="777829.478804" HC_abs="48.698028" PMx_abs="14.141851" NOx_abs="295.810993" fuel_abs="334.352956" electricity_abs="0"
            CO_normed="16833.149479" CO2_normed="1986370.237421" HC_normed="124.361851" PMx_normed="36.114538" NOx_normed="755.422838" fuel_normed="853.848792" electricity_normed="0"
            traveltime="0.01" CO_perVeh="0.403792" CO2_perVeh="47.648892" HC_perVeh="0.002983" PMx_perVeh="0.000866" NOx_perVeh="0.018121" fuel_perVeh="0.020482" electricity_perVeh="0"/>
        <edge id=":1110673621_0" sampledSeconds="25.86" CO_abs="543.113589" CO2_abs="58670.236804" HC_abs="3.837881" PMx_abs="0.868109" NOx_abs="22.452485" fuel_abs="25.219822" electricity_abs="0"
            CO_normed="1664.361713" CO2_normed="179793.873160" HC_normed="11.761116" PMx_normed="2.660305" NOx_normed="68.805231" fuel_normed="77.285685" electricity_normed="0"
            traveltime="0.02" CO_perVeh="0.411450" CO2_perVeh="44.447149" HC_perVeh="0.002907" PMx_perVeh="0.000658" NOx_perVeh="0.017009" fuel_perVeh="0.019106" electricity_perVeh="0"/>
        <edge id=":1110673630_0" sampledSeconds="54.11" CO_abs="229.273000" CO2_abs="19078.082826" HC_abs="1.486388" PMx_abs="0.291823" NOx_abs="7.473992" fuel_abs="8.200870" electricity_abs="0"
            CO_normed="12.528583" CO2_normed="1042.518504" HC_normed="0.081223" PMx_normed="0.015947" NOx_normed="0.408415" fuel_normed="0.448135" electricity_normed="0"
            traveltime="1.26" CO_perVeh="5.351637" CO2_perVeh="445.316198" HC_perVeh="0.034695" PMx_perVeh="0.006812" NOx_perVeh="0.174456" fuel_perVeh="0.191423" electricity_perVeh="0"/>
        <edge id=":1110673630_1" sampledSeconds="7.42" CO_abs="44.482213" CO2_abs="2935.573218" HC_abs="0.270098" PMx_abs="0.044665" NOx_abs="1.161483" fuel_abs="1.261887" electricity_abs="0"
            CO_normed="2.963368" CO2_normed="195.565450" HC_normed="0.017994" PMx_normed="0.002976" NOx_normed="0.077377" fuel_normed="0.084066" electricity_normed="0"
            traveltime="1.05" CO_perVeh="6.295944" CO2_perVeh="415.496517" HC_perVeh="0.038229" PMx_perVeh="0.006322" NOx_perVeh="0.164395" fuel_perVeh="0.178606" electricity_perVeh="0"/>
        <edge id=":1110673650_0" sampledSeconds="143.45" CO_abs="2343.649570" CO2_abs="282401.623759" HC_abs="17.097619" PMx_abs="3.930702" NOx_abs="105.963017" fuel_abs="121.392541" electricity_abs="0"
            CO_normed="5985.059553" CO2_normed="721178.864675" HC_normed="43.662785" PMx_normed="10.037972" NOx_normed="270.601448" fuel_normed="310.004360" electricity_normed="0"
            traveltime="0.02" CO_perVeh="0.376288" CO2_perVeh="45.341443" HC_perVeh="0.002745" PMx_perVeh="0.000631" NOx_perVeh="0.017013" fuel_perVeh="0.019490" electricity_perVeh="0"/>
        <edge id=":1110673655_0" sampledSeconds="44.74" CO_abs="1001.128764" CO2_abs="100962.160756" HC_abs="6.881201" PMx_abs="1.507178" NOx_abs="38.851021" fuel_abs="43.399327" electricity_abs="0"
            CO_normed="2556.617401" CO2_normed="257830.587160" HC_normed="17.572763" PMx_normed="3.848934" NOx_normed="99.215206" fuel_normed="110.830373" electricity_normed="0"
            traveltime="0.02" CO_perVeh="0.535793" CO2_perVeh="54.033803" HC_perVeh="0.003683" PMx_perVeh="0.000807" NOx_perVeh="0.020793" fuel_perVeh="0.023227" electricity_perVeh="0"/>
        <edge id=":1110673663_0" sampledSeconds="108.89" CO_abs="1527.572268" CO2_abs="214551.063352" HC_abs="11.832050" PMx_abs="2.669451" NOx_abs="78.212034" fuel_abs="92.226750" electricity_abs="0"
            CO_normed="71.447152" CO2_normed="10034.918037" HC_normed="0.553405" PMx_normed="0.124855" NOx_normed="3.658110" fuel_normed="4.313602" electricity_normed="0"
            traveltime="1.28" CO_perVeh="17.942057" CO2_perVeh="2520.003455" HC_perVeh="0.138973" PMx_perVeh="0.031354" NOx_perVeh="0.918637" fuel_perVeh="1.083247" electricity_perVeh="0"/>
        <edge id=":1110673663_1" sampledSeconds="153.68" CO_abs="2606.512284" CO2_abs="317562.657144" HC_abs="19.168499" PMx_abs="4.475939" NOx_abs="119.385207" fuel_abs="136.506700" electricity_abs="0"
            CO_normed="122.060047" CO2_normed="14871.103066" HC_normed="0.897639" PMx_normed="0.209603" NOx_normed="5.590675" fuel_normed="6.392456" electricity_normed="0"
            traveltime="1.24" CO_perVeh="21.089755" CO2_perVeh="2569.456062" HC_perVeh="0.155096" PMx_perVeh="0.036216" NOx_perVeh="0.965967" fuel_perVeh="1.104500" electricity_perVeh="0"/>
        <edge id=":1110673666_0" sampledSeconds="190.89" CO_abs="4380.280965" CO2_abs="351078.162346" HC_abs="27.957569" PMx_abs="4.751379" NOx_abs="133.852279" fuel_abs="150.914863" electricity_abs="0"