<?xml version="1.0" encoding="UTF-8"?>

<!-- generated on Tue Nov 10 15:30:21 2020 by Eclipse SUMO sumo Version 1.7.0
<configuration xmlns:xsi="http://www.w3.org/2001/XMLSchema-instance" xsi:noNamespaceSchemaLocation="http://sumo.dlr.de/xsd/sumoConfiguration.xsd">

    <input>
        <net-file value="../dataSets/Porto/8AM9AM_Routing_SaoBento/Porto.net.xml"/>
        <route-files value="../results/Porto/8AM9AM_Routing_SaoBento/cost_nox-length/solution11/Porto.rou.xml"/>
        <additional-files value="moreOutputInfo.xml"/>
    </input>

    <output>
        <emission-output.precision value="6"/>
        <tripinfo-output value="../results/Porto/8AM9AM_Routing_SaoBento/cost_nox-length/solution11/Porto-tripinfo"/>
    </output>

    <processing>
        <collision.action value="warn"/>
        <time-to-teleport value="-1"/>
    </processing>

    <emissions>
        <device.emissions.probability value="1"/>
    </emissions>

    <gui_only>
        <quit-on-end value="true"/>
        <start value="true"/>
    </gui_only>

</configuration>
-->

<meandata xmlns:xsi="http://www.w3.org/2001/XMLSchema-instance" xsi:noNamespaceSchemaLocation="http://sumo.dlr.de/xsd/meandata_file.xsd">
    <interval begin="0.00" end="8472.00" id="emissions-detector">
        <edge id=":1092997347_0" sampledSeconds="597.51" CO_abs="72304.563400" CO2_abs="3077611.219561" HC_abs="402.026621" PMx_abs="62.235102" NOx_abs="1331.555337" fuel_abs="1322.940437" electricity_abs="0"
            CO_normed="69827.997103" CO2_normed="2972197.289043" HC_normed="388.256459" PMx_normed="60.103434" NOx_normed="1285.947081" fuel_normed="1277.627257" electricity_normed="0"
            traveltime="0.07" CO_perVeh="8.284568" CO2_perVeh="352.628896" HC_perVeh="0.046064" PMx_perVeh="0.007131" NOx_perVeh="0.152568" fuel_perVeh="0.151581" electricity_perVeh="0"/>
        <edge id=":1103427051_0" sampledSeconds="19.34" CO_abs="1603.805613" CO2_abs="89417.229110" HC_abs="9.430383" PMx_abs="1.782069" NOx_abs="38.352555" fuel_abs="38.436478" electricity_abs="0"
            CO_normed="2350.013110" CO2_normed="131020.654161" HC_normed="13.818086" PMx_normed="2.611217" NOx_normed="56.196965" fuel_normed="56.319934" electricity_normed="0"
            traveltime="0.03" CO_perVeh="2.494121" CO2_perVeh="139.055107" HC_perVeh="0.014665" PMx_perVeh="0.002771" NOx_perVeh="0.059643" fuel_perVeh="0.059774" electricity_perVeh="0"/>
        <edge id=":1105984386_0" sampledSeconds="10.61" CO_abs="247.970528" CO2_abs="17119.277822" HC_abs="1.522022" PMx_abs="0.251939" NOx_abs="6.700541" fuel_abs="7.358906" electricity_abs="0"
            CO_normed="10.851690" CO2_normed="749.174115" HC_normed="0.066607" PMx_normed="0.011025" NOx_normed="0.293229" fuel_normed="0.322041" electricity_normed="0"
            traveltime="1.02" CO_perVeh="23.787728" CO2_perVeh="1642.246470" HC_perVeh="0.146007" PMx_perVeh="0.024168" NOx_perVeh="0.642781" fuel_perVeh="0.705937" electricity_perVeh="0"/>
        <edge id=":1105984390_0" sampledSeconds="10.04" CO_abs="0" CO2_abs="0" HC_abs="0" PMx_abs="0" NOx_abs="0" fuel_abs="0" electricity_abs="0"
            CO_normed="0" CO2_normed="0" HC_normed="0" PMx_normed="0" NOx_normed="0" fuel_normed="0" electricity_normed="0"
            traveltime="1.04" CO_perVeh="0" CO2_perVeh="0" HC_perVeh="0" PMx_perVeh="0" NOx_perVeh="0" fuel_perVeh="0" electricity_perVeh="0"/>
        <edge id=":1105984390_1" sampledSeconds="2397.78" CO_abs="66310.081772" CO2_abs="7668164.835296" HC_abs="485.566567" PMx_abs="139.788489" NOx_abs="2930.488927" fuel_abs="3296.189037" electricity_abs="0"
            CO_normed="2146.008269" CO2_normed="248166.563887" HC_normed="15.714501" PMx_normed="4.524007" NOx_normed="94.840080" fuel_normed="106.675316" electricity_normed="0"
            traveltime="0.65" CO_perVeh="17.909548" CO2_perVeh="2071.078225" HC_perVeh="0.131146" PMx_perVeh="0.037755" NOx_perVeh="0.791489" fuel_perVeh="0.890261" electricity_perVeh="0"/>
        <edge id=":1105984395_0" sampledSeconds="4.15" CO_abs="106.468534" CO2_abs="7430.705982" HC_abs="0.656509" PMx_abs="0.115232" NOx_abs="2.946374" fuel_abs="3.194159" electricity_abs="0"
            CO_normed="49.175638" CO2_normed="3432.091074" HC_normed="0.303228" PMx_normed="0.053223" NOx_normed="1.360870" fuel_normed="1.475317" electricity_normed="0"
            traveltime="0.10" CO_perVeh="2.467903" CO2_perVeh="172.241106" HC_perVeh="0.015218" PMx_perVeh="0.002671" NOx_perVeh="0.068296" fuel_perVeh="0.074039" electricity_perVeh="0"/>
        <edge id=":1105984398_0" sampledSeconds="10.88" CO_abs="746.060960" CO2_abs="47920.826823" HC_abs="4.536059" PMx_abs="0.920181" NOx_abs="20.198024" fuel_abs="20.598995" electricity_abs="0"
            CO_normed="26.221925" CO2_normed="1684.281023" HC_normed="0.159430" PMx_normed="0.032342" NOx_normed="0.709903" fuel_normed="0.723996" electricity_normed="0"
            traveltime="1.14" CO_perVeh="78.218698" CO2_perVeh="5024.126589" HC_perVeh="0.475571" PMx_perVeh="0.096474" NOx_perVeh="2.117606" fuel_perVeh="2.159645" electricity_perVeh="0"/>
        <edge id=":1105984398_1" sampledSeconds="645.69" CO_abs="11578.595494" CO2_abs="1353498.596845" HC_abs="83.801187" PMx_abs="19.531252" NOx_abs="512.644500" fuel_abs="581.811166" electricity_abs="0"
            CO_normed="393.921783" CO2_normed="46048.122243" HC_normed="2.851046" PMx_normed="0.664484" NOx_normed="17.440961" fuel_normed="19.794119" electricity_normed="0"
            traveltime="0.95" CO_perVeh="17.073217" CO2_perVeh="1995.801204" HC_perVeh="0.123569" PMx_perVeh="0.028800" NOx_perVeh="0.755920" fuel_perVeh="0.857910" electricity_perVeh="0"/>
        <edge id=":1106006327_0" sampledSeconds="540.99" CO_abs="72831.915589" CO2_abs="2348527.280407" HC_abs="386.894499" PMx_abs="48.960964" NOx_abs="1027.812184" fuel_abs="1009.549409" electricity_abs="0"
            CO_normed="3493.048088" CO2_normed="112636.316916" HC_normed="18.555616" PMx_normed="2.348188" NOx_normed="49.294287" fuel_normed="48.418397" electricity_normed="0"
            traveltime="2.11" CO_perVeh="283.910216" CO2_perVeh="9154.927222" HC_perVeh="1.508175" PMx_perVeh="0.190858" NOx_perVeh="4.006573" fuel_perVeh="3.935382" electricity_perVeh="0"/>
        <edge id=":1106006327_1" sampledSeconds="683.16" CO_abs="92513.048185" CO2_abs="3091483.219991" HC_abs="494.109996" PMx_abs="64.508337" NOx_abs="1353.095320" fuel_abs="1328.917139" electricity_abs="0"
            CO_normed="3869.241492" CO2_normed="129297.384343" HC_normed="20.665527" PMx_normed="2.697980" NOx_normed="56.591504" fuel_normed="55.580282" electricity_normed="0"
            traveltime="2.29" CO_perVeh="310.543910" CO2_perVeh="10377.360886" HC_perVeh="1.658608" PMx_perVeh="0.216539" NOx_perVeh="4.542013" fuel_perVeh="4.460853" electricity_perVeh="0"/>
        <edge id=":1106006327_2" sampledSeconds="0.00" CO_abs="0" CO2_abs="0" HC_abs="0" PMx_abs="0" NOx_abs="0" fuel_abs="0" electricity_abs="0"
            CO_normed="0" CO2_normed="0" HC_normed="0" PMx_normed="0" NOx_normed="0" fuel_normed="0" electricity_normed="0"/>
        <edge id=":1106006327_3" sampledSeconds="0.00" CO_abs="0" CO2_abs="0" HC_abs="0" PMx_abs="0" NOx_abs="0" fuel_abs="0" electricity_abs="0"
            CO_normed="0" CO2_normed="0" HC_normed="0" PMx_normed="0" NOx_normed="0" fuel_normed="0" electricity_normed="0"/>
        <edge id=":1107381198_0" sampledSeconds="0.00" CO_abs="0" CO2_abs="0" HC_abs="0" PMx_abs="0" NOx_abs="0" fuel_abs="0" electricity_abs="0"
            CO_normed="0" CO2_normed="0" HC_normed="0" PMx_normed="0" NOx_normed="0" fuel_normed="0" electricity_normed="0"/>
        <edge id=":1107381198_1" sampledSeconds="104.18" CO_abs="4627.549492" CO2_abs="181877.015332" HC_abs="25.271874" PMx_abs="3.221539" NOx_abs="75.894358" fuel_abs="78.182549" electricity_abs="0"
            CO_normed="214.436293" CO2_normed="8428.009892" HC_normed="1.171075" PMx_normed="0.149283" NOx_normed="3.516873" fuel_normed="3.622906" electricity_normed="0"
            traveltime="1.56" CO_perVeh="69.283663" CO2_perVeh="2723.062359" HC_perVeh="0.378370" PMx_perVeh="0.048233" NOx_perVeh="1.136290" fuel_perVeh="1.170549" electricity_perVeh="0"/>
        <edge id=":1110338277_0" sampledSeconds="160.34" CO_abs="2661.646775" CO2_abs="314086.028165" HC_abs="19.305522" PMx_abs="4.448038" NOx_abs="118.447069" fuel_abs="135.012254" electricity_abs="0"
            CO_normed="4039.326349" CO2_normed="476658.278276" HC_normed="29.298141" PMx_normed="6.750362" NOx_normed="179.755770" fuel_normed="204.895165" electricity_normed="0"
            traveltime="0.02" CO_perVeh="0.360495" CO2_perVeh="42.539937" HC_perVeh="0.002615" PMx_perVeh="0.000602" NOx_perVeh="0.016043" fuel_perVeh="0.018286" electricity_perVeh="0"/>
        <edge id=":1110338293_0" sampledSeconds="6273.60" CO_abs="577165.682435" CO2_abs="10180229.698208" HC_abs="2866.135688" PMx_abs="241.965799" NOx_abs="4596.779645" fuel_abs="4376.306838" electricity_abs="0"
            CO_normed="817515.130928" CO2_normed="14419588.807660" HC_normed="4059.682278" PMx_normed="342.727761" NOx_normed="6511.019327" fuel_normed="6198.734898" electricity_normed="0"
            traveltime="0.42" CO_perVeh="38.584540" CO2_perVeh="680.566251" HC_perVeh="0.191606" PMx_perVeh="0.016176" NOx_perVeh="0.307303" fuel_perVeh="0.292564" electricity_perVeh="0"/>
        <edge id=":1110338295_0" sampledSeconds="0.00" CO_abs="0" CO2_abs="0" HC_abs="0" PMx_abs="0" NOx_abs="0" fuel_abs="0" electricity_abs="0"
            CO_normed="0" CO2_normed="0" HC_normed="0" PMx_normed="0" NOx_normed="0" fuel_normed="0" electricity_normed="0"/>
        <edge id=":1110673403_0" sampledSeconds="200.48" CO_abs="3349.126578" CO2_abs="408913.415017" HC_abs="24.634546" PMx_abs="5.637505" NOx_abs="153.108708" fuel_abs="175.774680" electricity_abs="0"
            CO_normed="4743.805351" CO2_normed="579197.471696" HC_normed="34.893125" PMx_normed="7.985134" NOx_normed="216.867859" fuel_normed="248.972634" electricity_normed="0"
            traveltime="0.02" CO_perVeh="0.387080" CO2_perVeh="47.260699" HC_perVeh="0.002847" PMx_perVeh="0.000652" NOx_perVeh="0.017696" fuel_perVeh="0.020315" electricity_perVeh="0"/>
        <edge id=":1110673412_0" sampledSeconds="939.85" CO_abs="166156.037464" CO2_abs="11351360.547287" HC_abs="1034.397967" PMx_abs="249.339424" NOx_abs="4876.661246" fuel_abs="4879.390898" electricity_abs="0"
            CO_normed="243463.960335" CO2_normed="16632842.454753" HC_normed="1515.675442" PMx_normed="365.350333" NOx_normed="7145.640197" fuel_normed="7149.639882" electricity_normed="0"
            traveltime="0.02" CO_perVeh="2.744863" CO2_perVeh="187.522112" HC_perVeh="0.017088" PMx_perVeh="0.004119" NOx_perVeh="0.080561" fuel_perVeh="0.080607" electricity_perVeh="0"/>
        <edge id=":1110673414_0" sampledSeconds="0.00" CO_abs="0" CO2_abs="0" HC_abs="0" PMx_abs="0" NOx_abs="0" fuel_abs="0" electricity_abs="0"
            CO_normed="0" CO2_normed="0" HC_normed="0" PMx_normed="0" NOx_normed="0" fuel_normed="0" electricity_normed="0"/>
        <edge id=":1110673414_1" sampledSeconds="6.78" CO_abs="612.097644" CO2_abs="24827.153710" HC_abs="3.365220" PMx_abs="0.460881" NOx_abs="10.496960" fuel_abs="10.672273" electricity_abs="0"
            CO_normed="28.803782" CO2_normed="1168.303658" HC_normed="0.158359" PMx_normed="0.021688" NOx_normed="0.493961" fuel_normed="0.502210" electricity_normed="0"
            traveltime="1.48" CO_perVeh="133.702025" CO2_perVeh="5423.057523" HC_perVeh="0.735074" PMx_perVeh="0.100671" NOx_perVeh="2.292877" fuel_perVeh="2.331171" electricity_perVeh="0"/>
        <edge id=":1110673417_0" sampledSeconds="29.12" CO_abs="495.343327" CO2_abs="55538.588028" HC_abs="3.542975" PMx_abs="0.795808" NOx_abs="21.047989" fuel_abs="23.873688" electricity_abs="0"
            CO_normed="751.735117" CO2_normed="84285.594943" HC_normed="5.376834" PMx_normed="1.207722" NOx_normed="31.942517" fuel_normed="36.230809" electricity_normed="0"
            traveltime="0.02" CO_perVeh="0.377723" CO2_perVeh="42.350839" HC_perVeh="0.002702" PMx_perVeh="0.000607" NOx_perVeh="0.016050" fuel_perVeh="0.018205" electricity_perVeh="0"/>
        <edge id=":1110673446_0" sampledSeconds="1312.84" CO_abs="14610.095254" CO2_abs="1168221.407479" HC_abs="94.309120" PMx_abs="21.642697" NOx_abs="479.506825" fuel_abs="502.164478" electricity_abs="0"
            CO_normed="20694.185912" CO2_normed="1654704.543171" HC_normed="133.582323" PMx_normed="30.655378" NOx_normed="679.188137" fuel_normed="711.281130" electricity_normed="0"
            traveltime="0.02" CO_perVeh="0.253443" CO2_perVeh="20.265268" HC_perVeh="0.001636" PMx_perVeh="0.000375" NOx_perVeh="0.008318" fuel_perVeh="0.008711" electricity_perVeh="0"/>
        <edge id=":1110673451_0" sampledSeconds="36.53" CO_abs="380.504830" CO2_abs="26678.021018" HC_abs="2.338411" PMx_abs="0.356864" NOx_abs="10.195281" fuel_abs="11.467887" electricity_abs="0"
            CO_normed="598.842982" CO2_normed="41986.183534" HC_normed="3.680218" PMx_normed="0.561636" NOx_normed="16.045453" fuel_normed="18.048295" electricity_normed="0"
            traveltime="0.03" CO_perVeh="0.280350" CO2_perVeh="19.655921" HC_perVeh="0.001723" PMx_perVeh="0.000263" NOx_perVeh="0.007512" fuel_perVeh="0.008449" electricity_perVeh="0"/>
        <edge id=":1110673464_0" sampledSeconds="1041.76" CO_abs="4758.018216" CO2_abs="333148.848578" HC_abs="29.285532" PMx_abs="4.745467" NOx_abs="129.193767" fuel_abs="143.207833" electricity_abs="0"
            CO_normed="143.188440" CO2_normed="10025.826242" HC_normed="0.881323" PMx_normed="0.142811" NOx_normed="3.887975" fuel_normed="4.309716" electricity_normed="0"
            traveltime="1.24" CO_perVeh="5.642344" CO2_perVeh="395.067909" HC_perVeh="0.034729" PMx_perVeh="0.005627" NOx_perVeh="0.153206" fuel_perVeh="0.169824" electricity_perVeh="0"/>
        <edge id=":1110673464_1" sampledSeconds="2598.42" CO_abs="68124.160815" CO2_abs="8108970.251525" HC_abs="503.678669" PMx_abs="145.974298" NOx_abs="3085.479301" fuel_abs="3485.672070" electricity_abs="0"
            CO_normed="2008.878813" CO2_normed="239121.309314" HC_normed="14.852725" PMx_normed="4.304562" NOx_normed="90.986134" fuel_normed="102.787215" electricity_normed="0"
            traveltime="0.72" CO_perVeh="18.780290" CO2_perVeh="2235.459688" HC_perVeh="0.138853" PMx_perVeh="0.040242" NOx_perVeh="0.850597" fuel_perVeh="0.960921" electricity_perVeh="0"/>
        <edge id=":1110673479_0" sampledSeconds="134.62" CO_abs="6227.741799" CO2_abs="428736.840362" HC_abs="38.417876" PMx_abs="7.481283" NOx_abs="175.197981" fuel_abs="184.295404" electricity_abs="0"
            CO_normed="8821.164021" CO2_normed="607275.977850" HC_normed="54.416254" PMx_normed="10.596718" NOx_normed="248.155781" fuel_normed="261.041648" electricity_normed="0"
            traveltime="0.03" CO_perVeh="1.316601" CO2_perVeh="90.638844" HC_perVeh="0.008122" PMx_perVeh="0.001582" NOx_perVeh="0.037038" fuel_perVeh="0.038962" electricity_perVeh="0"/>
        <edge id=":1110673511_0" sampledSeconds="63.60" CO_abs="962.901224" CO2_abs="108082.012480" HC_abs="6.868021" PMx_abs="1.464640" NOx_abs="40.533673" fuel_abs="46.459996" electricity_abs="0"
            CO_normed="1363.882753" CO2_normed="153090.669236" HC_normed="9.728075" PMx_normed="2.074561" NOx_normed="57.413134" fuel_normed="65.807359" electricity_normed="0"
            traveltime="0.02" CO_perVeh="0.369046" CO2_perVeh="41.423959" HC_perVeh="0.002632" PMx_perVeh="0.000561" NOx_perVeh="0.015535" fuel_perVeh="0.017806" electricity_perVeh="0"/>
        <edge id=":1110673517_0" sampledSeconds="182.07" CO_abs="8264.698660" CO2_abs="588801.916878" HC_abs="51.457834" PMx_abs="10.191603" NOx_abs="239.732138" fuel_abs="253.100367" electricity_abs="0"
            CO_normed="11706.372040" CO2_normed="833997.049402" HC_normed="72.886450" PMx_normed="14.435698" NOx_normed="339.563935" fuel_normed="358.499103" electricity_normed="0"
            traveltime="0.03" CO_perVeh="1.265393" CO2_perVeh="90.150424" HC_perVeh="0.007879" PMx_perVeh="0.001560" NOx_perVeh="0.036705" fuel_perVeh="0.038752" electricity_perVeh="0"/>
        <edge id=":1110673534_0" sampledSeconds="661.28" CO_abs="4554.381931" CO2_abs="377819.768463" HC_abs="29.345400" PMx_abs="4.990593" NOx_abs="143.017762" fuel_abs="162.410116" electricity_abs="0"
            CO_normed="125.018719" CO2_normed="10371.230221" HC_normed="0.805537" PMx_normed="0.136993" NOx_normed="3.925867" fuel_normed="4.458191" electricity_normed="0"
            traveltime="1.45" CO_perVeh="10.014420" CO2_perVeh="830.770410" HC_perVeh="0.064526" PMx_perVeh="0.010974" NOx_perVeh="0.314475" fuel_perVeh="0.357116" electricity_perVeh="0"/>
        <edge id=":1110673534_1" sampledSeconds="263.41" CO_abs="4742.820812" CO2_abs="569680.720437" HC_abs="34.566425" PMx_abs="7.918904" NOx_abs="213.813716" fuel_abs="244.881719" electricity_abs="0"
            CO_normed="126.593150" CO2_normed="15205.650787" HC_normed="0.922631" PMx_normed="0.211368" NOx_normed="5.707016" fuel_normed="6.536268" electricity_normed="0"
            traveltime="1.22" CO_perVeh="22.005499" CO2_perVeh="2643.175625" HC_perVeh="0.160380" PMx_perVeh="0.036742" NOx_perVeh="0.992042" fuel_perVeh="1.136190" electricity_perVeh="0"/>
        <edge id=":1110673549_0" sampledSeconds="654.09" CO_abs="1198.575745" CO2_abs="128430.516371" HC_abs="8.365555" PMx_abs="1.674305" NOx_abs="47.578178" fuel_abs="55.207136" electricity_abs="0"
            CO_normed="31.871703" CO2_normed="3415.136033" HC_normed="0.222451" PMx_normed="0.044522" NOx_normed="1.265166" fuel_normed="1.468030" electricity_normed="0"
            traveltime="1.30" CO_perVeh="2.381284" CO2_perVeh="255.160812" HC_perVeh="0.016620" PMx_perVeh="0.003326" NOx_perVeh="0.094526" fuel_perVeh="0.109683" electricity_perVeh="0"/>
        <edge id=":1110673549_1" sampledSeconds="3196.56" CO_abs="72165.014890" CO2_abs="9417089.775376" HC_abs="553.351373" PMx_abs="165.863462" NOx_abs="3524.814356" fuel_abs="4047.975555" electricity_abs="0"
            CO_normed="1856.236107" CO2_normed="242227.374203" HC_normed="14.233362" PMx_normed="4.266357" NOx_normed="90.665646" fuel_normed="104.122453" electricity_normed="0"
            traveltime="0.81" CO_perVeh="18.202282" CO2_perVeh="2375.285693" HC_perVeh="0.139573" PMx_perVeh="0.041836" NOx_perVeh="0.889069" fuel_perVeh="1.021027" electricity_perVeh="0"/>
        <edge id=":1110673556_0" sampledSeconds="468.95" CO_abs="57702.576898" CO2_abs="2762867.671489" HC_abs="328.355683" PMx_abs="55.815621" NOx_abs="1191.504436" fuel_abs="1187.639214" electricity_abs="0"
            CO_normed="1137.796223" CO2_normed="54479.029692" HC_normed="6.474613" PMx_normed="1.100589" NOx_normed="23.494432" fuel_normed="23.418216" electricity_normed="0"
            traveltime="2.76" CO_perVeh="340.151143" CO2_perVeh="16286.839270" HC_perVeh="1.935625" PMx_perVeh="0.329028" NOx_perVeh="7.023804" fuel_perVeh="7.001019" electricity_perVeh="0"/>
        <edge id=":1110673556_2" sampledSeconds="174.21" CO_abs="17195.729233" CO2_abs="736773.931170" HC_abs="95.616043" PMx_abs="14.301336" NOx_abs="314.787012" fuel_abs="316.710106" electricity_abs="0"
            CO_normed="354.535036" CO2_normed="15190.526021" HC_normed="1.971375" PMx_normed="0.294860" NOx_normed="6.490159" fuel_normed="6.529809" electricity_normed="0"
            traveltime="3.01" CO_perVeh="297.338730" CO2_perVeh="12739.874087" HC_perVeh="1.653338" PMx_perVeh="0.247291" NOx_perVeh="5.443117" fuel_perVeh="5.476370" electricity_perVeh="0"/>
        <edge id=":1110673556_3" sampledSeconds="343.07" CO_abs="34540.425567" CO2_abs="1208727.834304" HC_abs="185.566468" PMx_abs="23.965739" NOx_abs="521.254476" fuel_abs="519.588992" electricity_abs="0"
            CO_normed="1620.003826" CO2_normed="56691.360444" HC_normed="8.703378" PMx_normed="1.124033" NOx_normed="24.447708" fuel_normed="24.369594" electricity_normed="0"
            traveltime="1.82" CO_perVeh="182.742902" CO2_perVeh="6395.011900" HC_perVeh="0.981776" PMx_perVeh="0.126795" NOx_perVeh="2.757799" fuel_perVeh="2.748988" electricity_perVeh="0"/>
        <edge id=":1110673556_4" sampledSeconds="83.33" CO_abs="9899.022743" CO2_abs="386676.316413" HC_abs="54.171342" PMx_abs="7.713098" NOx_abs="166.852425" fuel_abs="166.217324" electricity_abs="0"
            CO_normed="283.640162" CO2_normed="11079.571778" HC_normed="1.552190" PMx_normed="0.221006" NOx_normed="4.780881" fuel_normed="4.762683" electricity_normed="0"
            traveltime="2.54" CO_perVeh="301.835362" CO2_perVeh="11790.313938" HC_perVeh="1.651762" PMx_perVeh="0.235183" NOx_perVeh="5.087569" fuel_perVeh="5.068204" electricity_perVeh="0"/>
        <edge id=":1110673556_5" sampledSeconds="23.45" CO_abs="1252.116170" CO2_abs="53189.596844" HC_abs="6.933465" PMx_abs="0.941278" NOx_abs="22.146978" fuel_abs="22.864261" electricity_abs="0"
            CO_normed="50.005704" CO2_normed="2124.230422" HC_normed="0.276901" PMx_normed="0.037592" NOx_normed="0.884483" fuel_normed="0.913129" electricity_normed="0"
            traveltime="1.62" CO_perVeh="86.566056" CO2_perVeh="3677.305461" HC_perVeh="0.479351" PMx_perVeh="0.065076" NOx_perVeh="1.531149" fuel_perVeh="1.580739" electricity_perVeh="0"/>
        <edge id=":1110673556_6" sampledSeconds="547.21" CO_abs="64556.136976" CO2_abs="3119204.142549" HC_abs="368.028486" PMx_abs="62.911616" NOx_abs="1344.157214" fuel_abs="1340.812786" electricity_abs="0"
            CO_normed="1305.032647" CO2_normed="63056.177630" HC_normed="7.439869" PMx_normed="1.271788" NOx_normed="27.172770" fuel_normed="27.105161" electricity_normed="0"
            traveltime="2.66" CO_perVeh="313.434318" CO2_perVeh="15144.425753" HC_perVeh="1.786860" PMx_perVeh="0.305450" NOx_perVeh="6.526180" fuel_perVeh="6.509943" electricity_perVeh="0"/>
        <edge id=":1110673561_0" sampledSeconds="105.59" CO_abs="9762.290002" CO2_abs="685810.715202" HC_abs="60.957218" PMx_abs="13.873714" NOx_abs="290.364797" fuel_abs="294.797478" electricity_abs="0"
            CO_normed="247.954684" CO2_normed="17419.066575" HC_normed="1.548267" PMx_normed="0.352382" NOx_normed="7.375043" fuel_normed="7.487630" electricity_normed="0"
            traveltime="1.25" CO_perVeh="115.204497" CO2_perVeh="8093.232087" HC_perVeh="0.719354" PMx_perVeh="0.163723" NOx_perVeh="3.426586" fuel_perVeh="3.478896" electricity_perVeh="0"/>
        <edge id=":1110673561_1" sampledSeconds="5186.15" CO_abs="488678.264728" CO2_abs="33797814.544249" HC_abs="3043.230156" PMx_abs="707.439387" NOx_abs="14456.534690" fuel_abs="14528.047371" electricity_abs="0"
            CO_normed="12101.028763" CO2_normed="836927.597225" HC_normed="75.358816" PMx_normed="17.518161" NOx_normed="357.983882" fuel_normed="359.754734" electricity_normed="0"
            traveltime="1.19" CO_perVeh="112.234445" CO2_perVeh="7762.323874" HC_perVeh="0.698937" PMx_perVeh="0.162477" NOx_perVeh="3.320224" fuel_perVeh="3.336648" electricity_perVeh="0"/>
        <edge id=":1110673562_0" sampledSeconds="299.67" CO_abs="7201.995584" CO2_abs="546501.373087" HC_abs="45.285544" PMx_abs="7.600039" NOx_abs="210.210135" fuel_abs="234.919670" electricity_abs="0"
            CO_normed="11334.585433" CO2_normed="860090.294440" HC_normed="71.270922" PMx_normed="11.961031" NOx_normed="330.831184" fuel_normed="369.719342" electricity_normed="0"
            traveltime="0.03" CO_perVeh="0.645597" CO2_perVeh="48.989167" HC_perVeh="0.004059" PMx_perVeh="0.000681" NOx_perVeh="0.018844" fuel_perVeh="0.021059" electricity_perVeh="0"/>
        <edge id=":1110673564_0" sampledSeconds="27.57" CO_abs="456.177133" CO2_abs="58265.880766" HC_abs="3.418685" PMx_abs="0.790232" NOx_abs="21.694635" fuel_abs="25.046059" electricity_abs="0"
            CO_normed="1938.429742" CO2_normed="247588.728467" HC_normed="14.526989" PMx_normed="3.357926" NOx_normed="92.186836" fuel_normed="106.428011" electricity_normed="0"
            traveltime="7.787107e-03" CO_perVeh="0.128849" CO2_perVeh="16.457447" HC_perVeh="0.000966" PMx_perVeh="0.000223" NOx_perVeh="0.006128" fuel_perVeh="0.007074" electricity_perVeh="0"/>
        <edge id=":1110673588_0" sampledSeconds="63.59" CO_abs="920.930551" CO2_abs="105120.577597" HC_abs="6.592208" PMx_abs="1.400937" NOx_abs="39.253762" fuel_abs="45.187019" electricity_abs="0"
            CO_normed="1565.321049" CO2_normed="178675.202714" HC_normed="11.204885" PMx_normed="2.381196" NOx_normed="66.720276" fuel_normed="76.805132" electricity_normed="0"
            traveltime="0.02" CO_perVeh="0.297074" CO2_perVeh="33.909864" HC_perVeh="0.002127" PMx_perVeh="0.000452" NOx_perVeh="0.012663" fuel_perVeh="0.014576" electricity_perVeh="0"/>
        <edge id=":1110673601_0" sampledSeconds="29.05" CO_abs="443.611708" CO2_abs="50009.454009" HC_abs="3.176595" PMx_abs="0.708706" NOx_abs="18.906744" fuel_abs="21.496956" electricity_abs="0"
            CO_normed="673.226995" CO2_normed="75894.557885" HC_normed="4.820814" PMx_normed="1.075536" NOx_normed="28.692954" fuel_normed="32.623871" electricity_normed="0"
            traveltime="0.02" CO_perVeh="0.338275" CO2_perVeh="38.134609" HC_perVeh="0.002422" PMx_perVeh="0.000540" NOx_perVeh="0.014417" fuel_perVeh="0.016392" electricity_perVeh="0"/>
        <edge id=":1110673617_0" sampledSeconds="852.61" CO_abs="30312.069901" CO2_abs="3168993.793475" HC_abs="213.808568" PMx_abs="59.094620" NOx_abs="1235.611126" fuel_abs="1362.202506" electricity_abs="0"
            CO_normed="42934.943203" CO2_normed="4488659.764128" HC_normed="302.844997" PMx_normed="83.703428" NOx_normed="1750.157402" fuel_normed="1929.465306" electricity_normed="0"
            traveltime="0.02" CO_perVeh="0.537615" CO2_perVeh="56.205286" HC_perVeh="0.003792" PMx_perVeh="0.001048" NOx_perVeh="0.021915" fuel_perVeh="0.024160" electricity_perVeh="0"/>
        <edge id=":1110673621_0" sampledSeconds="26.67" CO_abs="514.382715" CO2_abs="52671.311012" HC_abs="3.566294" PMx_abs="0.792887" NOx_abs="20.294150" fuel_abs="22.641137" electricity_abs="0"
            CO_normed="874.304899" CO2_normed="89526.307669" HC_normed="6.061690" PMx_normed="1.347683" NOx_normed="34.494306" fuel_normed="38.483519" electricity_normed="0"
            traveltime="0.02" CO_perVeh="0.389684" CO2_perVeh="39.902508" HC_perVeh="0.002702" PMx_perVeh="0.000601" NOx_perVeh="0.015374" fuel_perVeh="0.017152" electricity_perVeh="0"/>
        <edge id=":1110673630_0" sampledSeconds="284.70" CO_abs="1411.541312" CO2_abs="129056.868447" HC_abs="9.379143" PMx_abs="1.727354" NOx_abs="48.807193" fuel_abs="55.476422" electricity_abs="0"
            CO_normed="42.782103" CO2_normed="3911.556996" HC_normed="0.284270" PMx_normed="0.052354" NOx_normed="1.479287" fuel_normed="1.681423" electricity_normed="0"
            traveltime="1.28" CO_perVeh="6.351397" CO2_perVeh="580.706618" HC_perVeh="0.042203" PMx_perVeh="0.007772" NOx_perVeh="0.219614" fuel_perVeh="0.249623" electricity_perVeh="0"/>
        <edge id=":1110673630_1" sampledSeconds="336.93" CO_abs="1111.616558" CO2_abs="92681.193717" HC_abs="7.160010" PMx_abs="1.158088" NOx_abs="34.688585" fuel_abs="39.840156" electricity_abs="0"
            CO_normed="41.074636" CO2_normed="3424.603783" HC_normed="0.264565" PMx_normed="0.042792" NOx_normed="1.281756" fuel_normed="1.472108" electricity_normed="0"
            traveltime="1.07" CO_perVeh="3.543615" CO2_perVeh="295.449405" HC_perVeh="0.022825" PMx_perVeh="0.003692" NOx_perVeh="0.110580" fuel_perVeh="0.127003" electricity_perVeh="0"/>
        <edge id=":1110673650_0" sampledSeconds="199.85" CO_abs="3135.465730" CO2_abs="381437.699850" HC_abs="23.044098" PMx_abs="5.339630" NOx_abs="143.285247" fuel_abs="163.963917" electricity_abs="0"
            CO_normed="4441.169589" CO2_normed="540280.028115" HC_normed="32.640365" PMx_normed="7.563216" NOx_normed="202.953608" fuel_normed="232.243509" electricity_normed="0"
            traveltime="0.02" CO_perVeh="0.362384" CO2_perVeh="44.084952" HC_perVeh="0.002663" PMx_perVeh="0.000617" NOx_perVeh="0.016560" fuel_perVeh="0.018950" electricity_perVeh="0"/>
        <edge id=":1110673655_0" sampledSeconds="20.70" CO_abs="264.838261" CO2_abs="32586.607892" HC_abs="1.949094" PMx_abs="0.421878" NOx_abs="12.041815" fuel_abs="14.007651" electricity_abs="0"
            CO_normed="375.125015" CO2_normed="46156.668403" HC_normed="2.760756" PMx_normed="0.597561" NOx_normed="17.056395" fuel_normed="19.840865" electricity_normed="0"
            traveltime="0.02" CO_perVeh="0.302557" CO2_perVeh="37.227656" HC_perVeh="0.002227" PMx_perVeh="0.000482" NOx_perVeh="0.013757" fuel_perVeh="0.016003" electricity_perVeh="0"/>
        <edge id=":1110673663_0" sampledSeconds="110.40" CO_abs="1988.365862" CO2_abs="205801.469811" HC_abs="13.755588" PMx_abs="3.045414" NOx_abs="78.895092" fuel_abs="88.465278" electricity_abs="0"
            CO_normed="51.582092" CO2_normed="5338.891911" HC_normed="0.356847" PMx_normed="0.079004" NOx_normed="2.046693" fuel_normed="2.294962" electricity_normed="0"
            traveltime="1.30" CO_perVeh="23.354295" CO2_perVeh="2417.235351" HC_perVeh="0.161566" PMx_perVeh="0.035770" NOx_perVeh="0.926660" fuel_perVeh="1.039066" electricity_perVeh="0"/>
        <edge id=":1110673663_1" sampledSeconds="168.93" CO_abs="2819.069697" CO2_abs="343730.707306" HC_abs="20.621048" PMx_abs="4.736745" NOx_abs="128.594373" fuel_abs="147.755372" electricity_abs="0"
            CO_normed="73.221575" CO2_normed="8927.946642" HC_normed="0.535604" PMx_normed="0.123031" NOx_normed="3.340067" fuel_normed="3.837749" electricity_normed="0"
            traveltime="1.27" CO_perVeh="21.167724" CO2_perVeh="2580.992200" HC_perVeh="0.154839" PMx_perVeh="0.035567" NOx_perVeh="0.965585" fuel_perVeh="1.109460" electricity_perVeh="0"/>
        <edge id=":1110673666_0" sampledSeconds="273.83" CO_abs="5862.754565" CO2_abs="468870.774574" HC_abs="37.418766" PMx_abs="6.477969" NOx_abs="179.659787" fuel_abs="201.549134" electricity_abs="0"