<?xml version="1.0" encoding="UTF-8"?>

<!-- generated on Tue Nov 10 06:37:24 2020 by Eclipse SUMO sumo Version 1.7.0
<configuration xmlns:xsi="http://www.w3.org/2001/XMLSchema-instance" xsi:noNamespaceSchemaLocation="http://sumo.dlr.de/xsd/sumoConfiguration.xsd">

    <input>
        <net-file value="../dataSets/Porto/8AM9AM_Routing_SaoBento/Porto.net.xml"/>
        <route-files value="../results/Porto/8AM9AM_Routing_SaoBento/cost_co-length/solution10/Porto.rou.xml"/>
        <additional-files value="moreOutputInfo.xml"/>
    </input>

    <output>
        <emission-output.precision value="6"/>
        <tripinfo-output value="../results/Porto/8AM9AM_Routing_SaoBento/cost_co-length/solution10/Porto-tripinfo"/>
    </output>

    <processing>
        <collision.action value="warn"/>
        <time-to-teleport value="-1"/>
    </processing>

    <emissions>
        <device.emissions.probability value="1"/>
    </emissions>

    <gui_only>
        <quit-on-end value="true"/>
        <start value="true"/>
    </gui_only>

</configuration>
-->

<meandata xmlns:xsi="http://www.w3.org/2001/XMLSchema-instance" xsi:noNamespaceSchemaLocation="http://sumo.dlr.de/xsd/meandata_file.xsd">
    <interval begin="0.00" end="9709.00" id="emissions-detector">
        <edge id=":1092997347_0" sampledSeconds="586.00" CO_abs="70779.024619" CO2_abs="3042858.987083" HC_abs="394.261694" PMx_abs="61.409535" NOx_abs="1315.359834" fuel_abs="1308.001478" electricity_abs="0"
            CO_normed="59645.803947" CO2_normed="2564231.021241" HC_normed="332.246111" PMx_normed="51.750092" NOx_normed="1108.459677" fuel_normed="1102.258758" electricity_normed="0"
            traveltime="0.07" CO_perVeh="8.104768" CO2_perVeh="348.431831" HC_perVeh="0.045146" PMx_perVeh="0.007032" NOx_perVeh="0.150619" fuel_perVeh="0.149777" electricity_perVeh="0"/>
        <edge id=":1103427051_0" sampledSeconds="19.35" CO_abs="1584.156836" CO2_abs="89747.918830" HC_abs="9.343321" PMx_abs="1.753772" NOx_abs="38.236580" fuel_abs="38.578661" electricity_abs="0"
            CO_normed="2025.481018" CO2_normed="114750.447607" HC_normed="11.946241" PMx_normed="2.242348" NOx_normed="48.888762" fuel_normed="49.326143" electricity_normed="0"
            traveltime="0.03" CO_perVeh="2.463564" CO2_perVeh="139.569372" HC_perVeh="0.014530" PMx_perVeh="0.002727" NOx_perVeh="0.059463" fuel_perVeh="0.059995" electricity_perVeh="0"/>
        <edge id=":1105984386_0" sampledSeconds="10.72" CO_abs="191.346639" CO2_abs="12843.711897" HC_abs="1.167306" PMx_abs="0.196800" NOx_abs="5.083618" fuel_abs="5.521000" electricity_abs="0"
            CO_normed="7.306840" CO2_normed="490.455179" HC_normed="0.044575" PMx_normed="0.007515" NOx_normed="0.194125" fuel_normed="0.210827" electricity_normed="0"
            traveltime="1.03" CO_perVeh="18.355818" CO2_perVeh="1232.092892" HC_perVeh="0.111979" PMx_perVeh="0.018879" NOx_perVeh="0.487670" fuel_perVeh="0.529628" electricity_perVeh="0"/>
        <edge id=":1105984390_0" sampledSeconds="10.65" CO_abs="3.405772" CO2_abs="601.640912" HC_abs="0.028674" PMx_abs="0.004209" NOx_abs="0.199363" fuel_abs="0.258625" electricity_abs="0"
            CO_normed="0.100543" CO2_normed="17.761340" HC_normed="0.000847" PMx_normed="0.000124" NOx_normed="0.005886" fuel_normed="0.007635" electricity_normed="0"
            traveltime="1.10" CO_perVeh="0.353029" CO2_perVeh="62.363703" HC_perVeh="0.002972" PMx_perVeh="0.000436" NOx_perVeh="0.020665" fuel_perVeh="0.026808" electricity_perVeh="0"/>
        <edge id=":1105984390_1" sampledSeconds="2402.35" CO_abs="61919.005580" CO2_abs="7366255.413739" HC_abs="457.914706" PMx_abs="132.956239" NOx_abs="2802.345630" fuel_abs="3166.413042" electricity_abs="0"
            CO_normed="1748.587005" CO2_normed="208022.373298" HC_normed="12.931469" PMx_normed="3.754672" NOx_normed="79.137982" fuel_normed="89.419212" electricity_normed="0"
            traveltime="0.65" CO_perVeh="16.718816" CO2_perVeh="1988.970445" HC_perVeh="0.123642" PMx_perVeh="0.035900" NOx_perVeh="0.756664" fuel_perVeh="0.854967" electricity_perVeh="0"/>
        <edge id=":1105984395_0" sampledSeconds="4.20" CO_abs="107.952329" CO2_abs="7770.369919" HC_abs="0.666624" PMx_abs="0.096332" NOx_abs="2.920325" fuel_abs="3.340202" electricity_abs="0"
            CO_normed="43.508307" CO2_normed="3131.712363" HC_normed="0.268671" PMx_normed="0.038825" NOx_normed="1.176986" fuel_normed="1.346210" electricity_normed="0"
            traveltime="0.10" CO_perVeh="2.502296" CO2_perVeh="180.114395" HC_perVeh="0.015452" PMx_perVeh="0.002233" NOx_perVeh="0.067692" fuel_perVeh="0.077425" electricity_perVeh="0"/>
        <edge id=":1105984398_0" sampledSeconds="10.89" CO_abs="580.812103" CO2_abs="38668.748141" HC_abs="3.553755" PMx_abs="0.685910" NOx_abs="15.911992" fuel_abs="16.622016" electricity_abs="0"
            CO_normed="17.813012" CO2_normed="1185.937526" HC_normed="0.108991" PMx_normed="0.021036" NOx_normed="0.488007" fuel_normed="0.509783" electricity_normed="0"
            traveltime="1.18" CO_perVeh="63.062148" CO2_perVeh="4198.490878" HC_perVeh="0.385852" PMx_perVeh="0.074473" NOx_perVeh="1.727658" fuel_perVeh="1.804749" electricity_perVeh="0"/>
        <edge id=":1105984398_1" sampledSeconds="643.25" CO_abs="11873.498216" CO2_abs="1389503.555677" HC_abs="85.947542" PMx_abs="20.022029" NOx_abs="526.097183" fuel_abs="597.288187" electricity_abs="0"
            CO_normed="352.487932" CO2_normed="41250.120710" HC_normed="2.551520" PMx_normed="0.594393" NOx_normed="15.618220" fuel_normed="17.731664" electricity_normed="0"
            traveltime="0.95" CO_perVeh="17.567637" CO2_perVeh="2055.863670" HC_perVeh="0.127165" PMx_perVeh="0.029624" NOx_perVeh="0.778396" fuel_perVeh="0.883728" electricity_perVeh="0"/>
        <edge id=":1106006327_0" sampledSeconds="67.77" CO_abs="9086.163828" CO2_abs="293232.552002" HC_abs="48.270842" PMx_abs="6.102355" NOx_abs="128.267405" fuel_abs="126.050387" electricity_abs="0"
            CO_normed="380.254919" CO2_normed="12271.748830" HC_normed="2.020129" PMx_normed="0.255383" NOx_normed="5.367976" fuel_normed="5.275194" electricity_normed="0"
            traveltime="2.10" CO_perVeh="281.667582" CO2_perVeh="9090.096255" HC_perVeh="1.496378" PMx_perVeh="0.189171" NOx_perVeh="3.976240" fuel_perVeh="3.907513" electricity_perVeh="0"/>
        <edge id=":1106006327_1" sampledSeconds="677.69" CO_abs="91946.490099" CO2_abs="3091467.439612" HC_abs="491.552678" PMx_abs="64.537307" NOx_abs="1353.284097" fuel_abs="1328.909826" electricity_abs="0"
            CO_normed="3355.594294" CO2_normed="112823.344184" HC_normed="17.939253" PMx_normed="2.355294" NOx_normed="49.388208" fuel_normed="48.498667" electricity_normed="0"
            traveltime="2.27" CO_perVeh="308.642112" CO2_perVeh="10377.307915" HC_perVeh="1.650023" PMx_perVeh="0.216636" NOx_perVeh="4.542647" fuel_perVeh="4.460829" electricity_perVeh="0"/>
        <edge id=":1106006327_2" sampledSeconds="0.00" CO_abs="0" CO2_abs="0" HC_abs="0" PMx_abs="0" NOx_abs="0" fuel_abs="0" electricity_abs="0"
            CO_normed="0" CO2_normed="0" HC_normed="0" PMx_normed="0" NOx_normed="0" fuel_normed="0" electricity_normed="0"/>
        <edge id=":1106006327_3" sampledSeconds="0.00" CO_abs="0" CO2_abs="0" HC_abs="0" PMx_abs="0" NOx_abs="0" fuel_abs="0" electricity_abs="0"
            CO_normed="0" CO2_normed="0" HC_normed="0" PMx_normed="0" NOx_normed="0" fuel_normed="0" electricity_normed="0"/>
        <edge id=":1107381198_0" sampledSeconds="0.00" CO_abs="0" CO2_abs="0" HC_abs="0" PMx_abs="0" NOx_abs="0" fuel_abs="0" electricity_abs="0"
            CO_normed="0" CO2_normed="0" HC_normed="0" PMx_normed="0" NOx_normed="0" fuel_normed="0" electricity_normed="0"/>
        <edge id=":1107381198_1" sampledSeconds="104.98" CO_abs="4571.339693" CO2_abs="177915.796885" HC_abs="24.910259" PMx_abs="3.086027" NOx_abs="73.833078" fuel_abs="76.479896" electricity_abs="0"
            CO_normed="184.842638" CO2_normed="7194.045399" HC_normed="1.007249" PMx_normed="0.124784" NOx_normed="2.985449" fuel_normed="3.092473" electricity_normed="0"
            traveltime="1.57" CO_perVeh="68.441721" CO2_perVeh="2663.740624" HC_perVeh="0.372954" PMx_perVeh="0.046204" NOx_perVeh="1.105423" fuel_perVeh="1.145051" electricity_perVeh="0"/>
        <edge id=":1110338277_0" sampledSeconds="160.56" CO_abs="2283.402933" CO2_abs="288083.303878" HC_abs="16.980651" PMx_abs="3.850558" NOx_abs="107.053783" fuel_abs="123.835018" electricity_abs="0"
            CO_normed="3023.796241" CO2_normed="381494.303504" HC_normed="22.486627" PMx_normed="5.099101" NOx_normed="141.765968" fuel_normed="163.988518" electricity_normed="0"
            traveltime="0.02" CO_perVeh="0.309776" CO2_perVeh="39.082646" HC_perVeh="0.002304" PMx_perVeh="0.000522" NOx_perVeh="0.014523" fuel_perVeh="0.016800" electricity_perVeh="0"/>
        <edge id=":1110338293_0" sampledSeconds="6426.31" CO_abs="586316.200195" CO2_abs="10290349.097792" HC_abs="2910.339619" PMx_abs="244.791737" NOx_abs="4647.287113" fuel_abs="4423.647515" electricity_abs="0"
            CO_normed="724667.257425" CO2_normed="12718528.084613" HC_normed="3597.082648" PMx_normed="302.554418" NOx_normed="5743.891786" fuel_normed="5467.480706" electricity_normed="0"
            traveltime="0.43" CO_perVeh="39.181572" CO2_perVeh="687.669991" HC_perVeh="0.194488" PMx_perVeh="0.016359" NOx_perVeh="0.310563" fuel_perVeh="0.295618" electricity_perVeh="0"/>
        <edge id=":1110338295_0" sampledSeconds="0.00" CO_abs="0" CO2_abs="0" HC_abs="0" PMx_abs="0" NOx_abs="0" fuel_abs="0" electricity_abs="0"
            CO_normed="0" CO2_normed="0" HC_normed="0" PMx_normed="0" NOx_normed="0" fuel_normed="0" electricity_normed="0"/>
        <edge id=":1110673403_0" sampledSeconds="201.00" CO_abs="3098.463191" CO2_abs="379415.332040" HC_abs="22.782923" PMx_abs="5.270538" NOx_abs="142.246616" fuel_abs="163.094626" electricity_abs="0"
            CO_normed="3829.597105" CO2_normed="468944.688895" HC_normed="28.158933" PMx_normed="6.514209" NOx_normed="175.812071" fuel_normed="201.579515" electricity_normed="0"
            traveltime="0.02" CO_perVeh="0.358108" CO2_perVeh="43.851293" HC_perVeh="0.002633" PMx_perVeh="0.000609" NOx_perVeh="0.016440" fuel_perVeh="0.018850" electricity_perVeh="0"/>
        <edge id=":1110673412_0" sampledSeconds="952.74" CO_abs="168434.589418" CO2_abs="11502022.612548" HC_abs="1048.434503" PMx_abs="252.662855" NOx_abs="4942.338510" fuel_abs="4944.153049" electricity_abs="0"
            CO_normed="215358.136213" CO2_normed="14706327.014456" HC_normed="1340.513853" PMx_normed="323.051232" NOx_normed="6319.205656" fuel_normed="6321.525700" electricity_normed="0"
            traveltime="0.02" CO_perVeh="2.748985" CO2_perVeh="187.722078" HC_perVeh="0.017111" PMx_perVeh="0.004124" NOx_perVeh="0.080663" fuel_perVeh="0.080692" electricity_perVeh="0"/>
        <edge id=":1110673414_0" sampledSeconds="0.00" CO_abs="0" CO2_abs="0" HC_abs="0" PMx_abs="0" NOx_abs="0" fuel_abs="0" electricity_abs="0"
            CO_normed="0" CO2_normed="0" HC_normed="0" PMx_normed="0" NOx_normed="0" fuel_normed="0" electricity_normed="0"/>
        <edge id=":1110673414_1" sampledSeconds="237.94" CO_abs="16922.242610" CO2_abs="662968.395096" HC_abs="92.469160" PMx_abs="12.284394" NOx_abs="280.136594" fuel_abs="284.986076" electricity_abs="0"
            CO_normed="694.861367" CO2_normed="27222.817686" HC_normed="3.796970" PMx_normed="0.504422" NOx_normed="11.502973" fuel_normed="11.702102" electricity_normed="0"
            traveltime="1.54" CO_perVeh="109.793107" CO2_perVeh="4301.401520" HC_perVeh="0.599949" PMx_perVeh="0.079702" NOx_perVeh="1.817553" fuel_perVeh="1.849017" electricity_perVeh="0"/>
        <edge id=":1110673417_0" sampledSeconds="29.37" CO_abs="390.966621" CO2_abs="50172.024450" HC_abs="2.910682" PMx_abs="0.650989" NOx_abs="18.509137" fuel_abs="21.566887" electricity_abs="0"
            CO_normed="517.737532" CO2_normed="66440.301348" HC_normed="3.854471" PMx_normed="0.862073" NOx_normed="24.510724" fuel_normed="28.559949" electricity_normed="0"
            traveltime="0.02" CO_perVeh="0.298131" CO2_perVeh="38.258577" HC_perVeh="0.002220" PMx_perVeh="0.000496" NOx_perVeh="0.014114" fuel_perVeh="0.016446" electricity_perVeh="0"/>
        <edge id=":1110673446_0" sampledSeconds="1330.62" CO_abs="12986.589076" CO2_abs="1075441.956088" HC_abs="84.524612" PMx_abs="19.375222" NOx_abs="437.287803" fuel_abs="462.283357" electricity_abs="0"
            CO_normed="16050.990722" CO2_normed="1329210.369044" HC_normed="104.469600" PMx_normed="23.947128" NOx_normed="540.473131" fuel_normed="571.366802" electricity_normed="0"
            traveltime="0.02" CO_perVeh="0.222883" CO2_perVeh="18.457349" HC_perVeh="0.001451" PMx_perVeh="0.000333" NOx_perVeh="0.007505" fuel_perVeh="0.007934" electricity_perVeh="0"/>
        <edge id=":1110673451_0" sampledSeconds="36.63" CO_abs="539.559144" CO2_abs="35186.915956" HC_abs="3.268224" PMx_abs="0.544451" NOx_abs="13.972140" fuel_abs="15.125458" electricity_abs="0"
            CO_normed="740.974552" CO2_normed="48322.059884" HC_normed="4.488240" PMx_normed="0.747692" NOx_normed="19.187888" fuel_normed="20.771735" electricity_normed="0"
            traveltime="0.03" CO_perVeh="0.397536" CO2_perVeh="25.924978" HC_perVeh="0.002408" PMx_perVeh="0.000401" NOx_perVeh="0.010294" fuel_perVeh="0.011144" electricity_perVeh="0"/>
        <edge id=":1110673464_0" sampledSeconds="1031.07" CO_abs="3594.777160" CO2_abs="273242.874470" HC_abs="22.631908" PMx_abs="3.882766" NOx_abs="105.540322" fuel_abs="117.456355" electricity_abs="0"
            CO_normed="94.398540" CO2_normed="7175.334443" HC_normed="0.594312" PMx_normed="0.101961" NOx_normed="2.771480" fuel_normed="3.084394" electricity_normed="0"
            traveltime="1.22" CO_perVeh="4.262903" CO2_perVeh="324.027808" HC_perVeh="0.026838" PMx_perVeh="0.004604" NOx_perVeh="0.125156" fuel_perVeh="0.139287" electricity_perVeh="0"/>
        <edge id=":1110673464_1" sampledSeconds="2607.97" CO_abs="67509.937763" CO2_abs="7934389.473764" HC_abs="496.875672" PMx_abs="143.290471" NOx_abs="3028.328889" fuel_abs="3410.627258" electricity_abs="0"
            CO_normed="1737.127624" CO2_normed="204163.232691" HC_normed="12.785324" PMx_normed="3.687070" NOx_normed="77.923250" fuel_normed="87.760336" electricity_normed="0"
            traveltime="0.72" CO_perVeh="18.608512" CO2_perVeh="2187.043683" HC_perVeh="0.136959" PMx_perVeh="0.039497" NOx_perVeh="0.834732" fuel_perVeh="0.940109" electricity_perVeh="0"/>
        <edge id=":1110673479_0" sampledSeconds="134.77" CO_abs="6673.855686" CO2_abs="455220.982563" HC_abs="41.091422" PMx_abs="8.024376" NOx_abs="186.639537" fuel_abs="195.679710" electricity_abs="0"
            CO_normed="8248.662914" CO2_normed="562637.943223" HC_normed="50.787627" PMx_normed="9.917861" NOx_normed="230.680239" fuel_normed="241.853592" electricity_normed="0"
            traveltime="0.03" CO_perVeh="1.410913" CO2_perVeh="96.237831" HC_perVeh="0.008687" PMx_perVeh="0.001696" NOx_perVeh="0.039457" fuel_perVeh="0.041368" electricity_perVeh="0"/>
        <edge id=":1110673511_0" sampledSeconds="63.46" CO_abs="1031.772968" CO2_abs="121107.898181" HC_abs="7.472419" PMx_abs="1.629829" NOx_abs="45.235644" fuel_abs="52.059273" electricity_abs="0"
            CO_normed="1275.236957" CO2_normed="149685.320648" HC_normed="9.235661" PMx_normed="2.014414" NOx_normed="55.909746" fuel_normed="64.343524" electricity_normed="0"
            traveltime="0.02" CO_perVeh="0.395442" CO2_perVeh="46.416314" HC_perVeh="0.002864" PMx_perVeh="0.000625" NOx_perVeh="0.017337" fuel_perVeh="0.019952" electricity_perVeh="0"/>
        <edge id=":1110673517_0" sampledSeconds="181.88" CO_abs="8231.980318" CO2_abs="584041.425008" HC_abs="51.194936" PMx_abs="10.108053" NOx_abs="237.844572" fuel_abs="251.054063" electricity_abs="0"
            CO_normed="10174.452963" CO2_normed="721855.711206" HC_normed="63.275232" PMx_normed="12.493217" NOx_normed="293.967953" fuel_normed="310.294444" electricity_normed="0"
            traveltime="0.03" CO_perVeh="1.260383" CO2_perVeh="89.421470" HC_perVeh="0.007838" PMx_perVeh="0.001548" NOx_perVeh="0.036416" fuel_perVeh="0.038438" electricity_perVeh="0"/>
        <edge id=":1110673534_0" sampledSeconds="737.95" CO_abs="5427.961267" CO2_abs="459009.924618" HC_abs="35.176505" PMx_abs="6.148036" NOx_abs="174.204133" fuel_abs="197.310413" electricity_abs="0"
            CO_normed="130.015097" CO2_normed="10994.592038" HC_normed="0.842577" PMx_normed="0.147263" NOx_normed="4.172684" fuel_normed="4.726145" electricity_normed="0"
            traveltime="1.46" CO_perVeh="10.704838" CO2_perVeh="905.243518" HC_perVeh="0.069374" PMx_perVeh="0.012125" NOx_perVeh="0.343559" fuel_perVeh="0.389129" electricity_perVeh="0"/>
        <edge id=":1110673534_1" sampledSeconds="199.78" CO_abs="2901.810076" CO2_abs="390905.571666" HC_abs="22.078658" PMx_abs="5.203820" NOx_abs="144.513042" fuel_abs="168.033944" electricity_abs="0"
            CO_normed="67.585561" CO2_normed="9104.514604" HC_normed="0.514230" PMx_normed="0.121201" NOx_normed="3.365828" fuel_normed="3.913650" electricity_normed="0"
            traveltime="1.22" CO_perVeh="17.737852" CO2_perVeh="2389.482764" HC_perVeh="0.134960" PMx_perVeh="0.031809" NOx_perVeh="0.883363" fuel_perVeh="1.027139" electricity_perVeh="0"/>
        <edge id=":1110673549_0" sampledSeconds="654.41" CO_abs="1629.718010" CO2_abs="160800.617174" HC_abs="11.010307" PMx_abs="2.198582" NOx_abs="60.343586" fuel_abs="69.121676" electricity_abs="0"
            CO_normed="37.814964" CO2_normed="3731.117586" HC_normed="0.255476" PMx_normed="0.051015" NOx_normed="1.400175" fuel_normed="1.603856" electricity_normed="0"
            traveltime="1.30" CO_perVeh="3.237861" CO2_perVeh="319.472484" HC_perVeh="0.021875" PMx_perVeh="0.004368" NOx_perVeh="0.119888" fuel_perVeh="0.137328" electricity_perVeh="0"/>
        <edge id=":1110673549_1" sampledSeconds="3198.63" CO_abs="68295.841192" CO2_abs="9024191.110686" HC_abs="526.353606" PMx_abs="158.374226" NOx_abs="3370.671477" fuel_abs="3879.086911" electricity_abs="0"
            CO_normed="1532.894321" CO2_normed="202547.198528" HC_normed="11.813962" PMx_normed="3.554696" NOx_normed="75.654433" fuel_normed="87.065774" electricity_normed="0"
            traveltime="0.81" CO_perVeh="17.226716" CO2_perVeh="2276.232012" HC_perVeh="0.132766" PMx_perVeh="0.039948" NOx_perVeh="0.850207" fuel_perVeh="0.978448" electricity_perVeh="0"/>
        <edge id=":1110673556_0" sampledSeconds="469.17" CO_abs="58279.759370" CO2_abs="2791024.621012" HC_abs="331.686331" PMx_abs="56.571054" NOx_abs="1205.018644" fuel_abs="1199.742377" electricity_abs="0"
            CO_normed="1002.763402" CO2_normed="48022.458822" HC_normed="5.707006" PMx_normed="0.973363" NOx_normed="20.733589" fuel_normed="20.642806" electricity_normed="0"
            traveltime="2.77" CO_perVeh="343.553578" CO2_perVeh="16452.821780" HC_perVeh="1.955259" PMx_perVeh="0.333481" NOx_perVeh="7.103469" fuel_perVeh="7.072366" electricity_perVeh="0"/>
        <edge id=":1110673556_2" sampledSeconds="173.53" CO_abs="17457.822395" CO2_abs="754377.445390" HC_abs="97.256503" PMx_abs="14.790493" NOx_abs="323.240526" fuel_abs="324.276813" electricity_abs="0"
            CO_normed="314.079853" CO2_normed="13571.839128" HC_normed="1.749720" PMx_normed="0.266093" NOx_normed="5.815349" fuel_normed="5.833993" electricity_normed="0"
            traveltime="3.00" CO_perVeh="301.870696" CO2_perVeh="13044.264002" HC_perVeh="1.681704" PMx_perVeh="0.255749" NOx_perVeh="5.589291" fuel_perVeh="5.607209" electricity_perVeh="0"/>
        <edge id=":1110673556_3" sampledSeconds="254.31" CO_abs="26649.958661" CO2_abs="905593.552369" HC_abs="142.513429" PMx_abs="17.925523" NOx_abs="390.368017" fuel_abs="389.283077" electricity_abs="0"
            CO_normed="1090.677469" CO2_normed="37062.364572" HC_normed="5.832511" PMx_normed="0.733621" NOx_normed="15.976220" fuel_normed="15.931818" electricity_normed="0"
            traveltime="1.87" CO_perVeh="196.445033" CO2_perVeh="6675.408298" HC_perVeh="1.050510" PMx_perVeh="0.132135" NOx_perVeh="2.877523" fuel_perVeh="2.869525" electricity_perVeh="0"/>
        <edge id=":1110673556_4" sampledSeconds="35.90" CO_abs="4325.642998" CO2_abs="161092.962993" HC_abs="23.492260" PMx_abs="3.277136" NOx_abs="69.939789" fuel_abs="69.247762" electricity_abs="0"
            CO_normed="108.152739" CO2_normed="4027.758457" HC_normed="0.587370" PMx_normed="0.081937" NOx_normed="1.748683" fuel_normed="1.731381" electricity_normed="0"
            traveltime="2.72" CO_perVeh="327.626587" CO2_perVeh="12201.269873" HC_perVeh="1.779317" PMx_perVeh="0.248212" NOx_perVeh="5.297278" fuel_perVeh="5.244864" electricity_perVeh="0"/>
        <edge id=":1110673556_5" sampledSeconds="23.37" CO_abs="1614.587954" CO2_abs="67979.195086" HC_abs="8.926901" PMx_abs="1.207151" NOx_abs="28.331213" fuel_abs="29.221774" electricity_abs="0"
            CO_normed="56.266264" CO2_normed="2368.985430" HC_normed="0.311091" PMx_normed="0.042068" NOx_normed="0.987305" fuel_normed="1.018340" electricity_normed="0"
            traveltime="1.62" CO_perVeh="111.625834" CO2_perVeh="4699.796204" HC_perVeh="0.617168" PMx_perVeh="0.083457" NOx_perVeh="1.958701" fuel_perVeh="2.020271" electricity_perVeh="0"/>
        <edge id=":1110673556_6" sampledSeconds="217.57" CO_abs="26808.093100" CO2_abs="1339206.674164" HC_abs="153.910724" PMx_abs="27.023527" NOx_abs="576.691792" fuel_abs="575.667069" electricity_abs="0"
            CO_normed="472.891177" CO2_normed="23623.426619" HC_normed="2.714965" PMx_normed="0.476691" NOx_normed="10.172766" fuel_normed="10.154690" electricity_normed="0"
            traveltime="2.54" CO_perVeh="312.382126" CO2_perVeh="15605.146788" HC_perVeh="1.793449" PMx_perVeh="0.314892" NOx_perVeh="6.719919" fuel_perVeh="6.707978" electricity_perVeh="0"/>
        <edge id=":1110673561_0" sampledSeconds="103.24" CO_abs="9960.418405" CO2_abs="699873.995074" HC_abs="62.223054" PMx_abs="14.275151" NOx_abs="297.271310" fuel_abs="300.842415" electricity_abs="0"
            CO_normed="220.754538" CO2_normed="15511.432798" HC_normed="1.379061" PMx_normed="0.316383" NOx_normed="6.588477" fuel_normed="6.667624" electricity_normed="0"
            traveltime="1.22" CO_perVeh="117.542605" CO2_perVeh="8259.192439" HC_perVeh="0.734292" PMx_perVeh="0.168461" NOx_perVeh="3.508090" fuel_perVeh="3.550232" electricity_perVeh="0"/>
        <edge id=":1110673561_1" sampledSeconds="5266.04" CO_abs="486407.961901" CO2_abs="33717761.430386" HC_abs="3030.349058" PMx_abs="704.259509" NOx_abs="14412.335028" fuel_abs="14493.637710" electricity_abs="0"
            CO_normed="10510.209947" CO2_normed="728566.921839" HC_normed="65.479201" PMx_normed="15.217504" NOx_normed="311.418971" fuel_normed="313.175744" electricity_normed="0"
            traveltime="1.20" CO_perVeh="110.387802" CO2_perVeh="7652.073733" HC_perVeh="0.687722" PMx_perVeh="0.159828" NOx_perVeh="3.270806" fuel_perVeh="3.289257" electricity_perVeh="0"/>
        <edge id=":1110673562_0" sampledSeconds="301.15" CO_abs="6831.847553" CO2_abs="522237.143524" HC_abs="43.014427" PMx_abs="7.087949" NOx_abs="199.667346" fuel_abs="224.489654" electricity_abs="0"
            CO_normed="9382.150654" CO2_normed="717186.313076" HC_normed="59.071551" PMx_normed="9.733853" NOx_normed="274.202419" fuel_normed="308.290801" electricity_normed="0"
            traveltime="0.03" CO_perVeh="0.612417" CO2_perVeh="46.814087" HC_perVeh="0.003856" PMx_perVeh="0.000635" NOx_perVeh="0.017898" fuel_perVeh="0.020124" electricity_perVeh="0"/>
        <edge id=":1110673564_0" sampledSeconds="27.96" CO_abs="499.176611" CO2_abs="58381.752859" HC_abs="3.602397" PMx_abs="0.825081" NOx_abs="22.009216" fuel_abs="25.095843" electricity_abs="0"
            CO_normed="1850.896900" CO2_normed="216473.694813" HC_normed="13.357329" PMx_normed="3.059319" NOx_normed="81.607969" fuel_normed="93.052873" electricity_normed="0"
            traveltime="7.896949e-03" CO_perVeh="0.140990" CO2_perVeh="16.489692" HC_perVeh="0.001017" PMx_perVeh="0.000233" NOx_perVeh="0.006216" fuel_perVeh="0.007088" electricity_perVeh="0"/>
        <edge id=":1110673588_0" sampledSeconds="62.80" CO_abs="1287.787195" CO2_abs="126958.550172" HC_abs="8.795727" PMx_abs="1.882304" NOx_abs="48.874073" fuel_abs="54.574103" electricity_abs="0"
            CO_normed="1909.994398" CO2_normed="188299.837519" HC_normed="13.045470" PMx_normed="2.791758" NOx_normed="72.488068" fuel_normed="80.942124" electricity_normed="0"
            traveltime="0.02" CO_perVeh="0.415415" CO2_perVeh="40.954371" HC_perVeh="0.002837" PMx_perVeh="0.000607" NOx_perVeh="0.015766" fuel_perVeh="0.017605" electricity_perVeh="0"/>
        <edge id=":1110673601_0" sampledSeconds="29.38" CO_abs="440.724061" CO2_abs="47737.106308" HC_abs="3.110435" PMx_abs="0.671720" NOx_abs="18.061433" fuel_abs="20.520187" electricity_abs="0"
            CO_normed="583.628820" CO2_normed="63215.861097" HC_normed="4.118994" PMx_normed="0.889525" NOx_normed="23.917852" fuel_normed="27.173857" electricity_normed="0"
            traveltime="0.02" CO_perVeh="0.336073" CO2_perVeh="36.401835" HC_perVeh="0.002372" PMx_perVeh="0.000512" NOx_perVeh="0.013773" fuel_perVeh="0.015648" electricity_perVeh="0"/>
        <edge id=":1110673617_0" sampledSeconds="856.98" CO_abs="31245.313370" CO2_abs="3210596.278685" HC_abs="218.932301" PMx_abs="60.179163" NOx_abs="1255.641718" fuel_abs="1380.085244" electricity_abs="0"
            CO_normed="38618.164635" CO2_normed="3968189.859328" HC_normed="270.593017" PMx_normed="74.379437" NOx_normed="1551.931261" fuel_normed="1705.739306" electricity_normed="0"
            traveltime="0.02" CO_perVeh="0.553257" CO2_perVeh="56.849627" HC_perVeh="0.003877" PMx_perVeh="0.001066" NOx_perVeh="0.022233" fuel_perVeh="0.024437" electricity_perVeh="0"/>
        <edge id=":1110673621_0" sampledSeconds="26.40" CO_abs="620.844968" CO2_abs="58276.607608" HC_abs="4.182647" PMx_abs="0.925304" NOx_abs="22.853357" fuel_abs="25.050574" electricity_abs="0"
            CO_normed="920.812395" CO2_normed="86433.530699" HC_normed="6.203535" PMx_normed="1.372374" NOx_normed="33.895184" fuel_normed="37.154009" electricity_normed="0"
            traveltime="0.02" CO_perVeh="0.470337" CO2_perVeh="44.148945" HC_perVeh="0.003169" PMx_perVeh="0.000701" NOx_perVeh="0.017313" fuel_perVeh="0.018978" electricity_perVeh="0"/>
        <edge id=":1110673630_0" sampledSeconds="285.51" CO_abs="1068.357949" CO2_abs="92727.957133" HC_abs="6.982554" PMx_abs="1.240364" NOx_abs="35.143784" fuel_abs="39.860105" electricity_abs="0"
            CO_normed="28.255095" CO2_normed="2452.396446" HC_normed="0.184669" PMx_normed="0.032804" NOx_normed="0.929455" fuel_normed="1.054189" electricity_normed="0"
            traveltime="1.28" CO_perVeh="4.807203" CO2_perVeh="417.240392" HC_perVeh="0.031419" PMx_perVeh="0.005581" NOx_perVeh="0.158134" fuel_perVeh="0.179355" electricity_perVeh="0"/>
        <edge id=":1110673630_1" sampledSeconds="338.52" CO_abs="1313.470002" CO2_abs="107110.024454" HC_abs="8.414161" PMx_abs="1.386522" NOx_abs="40.403906" fuel_abs="46.042518" electricity_abs="0"
            CO_normed="42.349698" CO2_normed="3453.506500" HC_normed="0.271294" PMx_normed="0.044705" NOx_normed="1.302727" fuel_normed="1.484531" electricity_normed="0"
            traveltime="1.08" CO_perVeh="4.187084" CO2_perVeh="341.445677" HC_perVeh="0.026823" PMx_perVeh="0.004420" NOx_perVeh="0.128800" fuel_perVeh="0.146774" electricity_perVeh="0"/>
        <edge id=":1110673650_0" sampledSeconds="200.35" CO_abs="2985.480812" CO2_abs="375102.880700" HC_abs="22.166483" PMx_abs="5.095943" NOx_abs="139.825014" fuel_abs="161.241003" electricity_abs="0"
            CO_normed="3689.954654" CO2_normed="463614.642949" HC_normed="27.397033" PMx_normed="6.298415" NOx_normed="172.819051" fuel_normed="199.288499" electricity_normed="0"
            traveltime="0.02" CO_perVeh="0.345049" CO2_perVeh="43.352800" HC_perVeh="0.002562" PMx_perVeh="0.000589" NOx_perVeh="0.016160" fuel_perVeh="0.018636" electricity_perVeh="0"/>
        <edge id=":1110673655_0" sampledSeconds="20.83" CO_abs="326.220419" CO2_abs="44647.991769" HC_abs="2.506484" PMx_abs="0.567912" NOx_abs="16.370773" fuel_abs="19.192338" electricity_abs="0"
            CO_normed="403.197551" CO2_normed="55183.427874" HC_normed="3.097930" PMx_normed="0.701920" NOx_normed="20.233729" fuel_normed="23.721089" electricity_normed="0"
            traveltime="0.02" CO_perVeh="0.372681" CO2_perVeh="51.006845" HC_perVeh="0.002863" PMx_perVeh="0.000649" NOx_perVeh="0.018702" fuel_perVeh="0.021926" electricity_perVeh="0"/>
        <edge id=":1110673663_0" sampledSeconds="110.90" CO_abs="1773.305320" CO2_abs="217077.282670" HC_abs="13.051512" PMx_abs="2.860317" NOx_abs="80.604845" fuel_abs="93.312578" electricity_abs="0"
            CO_normed="40.141872" CO2_normed="4913.924492" HC_normed="0.295444" PMx_normed="0.064748" NOx_normed="1.824632" fuel_normed="2.112294" electricity_normed="0"
            traveltime="1.30" CO_perVeh="20.828308" CO2_perVeh="2549.675092" HC_perVeh="0.153296" PMx_perVeh="0.033596" NOx_perVeh="0.946742" fuel_perVeh="1.096000" electricity_perVeh="0"/>
        <edge id=":1110673663_1" sampledSeconds="170.21" CO_abs="2903.790085" CO2_abs="349993.011952" HC_abs="21.267499" PMx_abs="4.857447" NOx_abs="131.347453" fuel_abs="150.447251" electricity_abs="0"
            CO_normed="65.812732" CO2_normed="7932.390277" HC_normed="0.482016" PMx_normed="0.110091" NOx_normed="2.976914" fuel_normed="3.409800" electricity_normed="0"
            traveltime="1.28" CO_perVeh="21.751561" CO2_perVeh="2621.709583" HC_perVeh="0.159309" PMx_perVeh="0.036386" NOx_perVeh="0.983891" fuel_perVeh="1.126963" electricity_perVeh="0"/>