<?xml version="1.0" encoding="UTF-8"?>

<!-- generated on Mon Nov  9 20:37:35 2020 by Eclipse SUMO sumo Version 1.7.0
<configuration xmlns:xsi="http://www.w3.org/2001/XMLSchema-instance" xsi:noNamespaceSchemaLocation="http://sumo.dlr.de/xsd/sumoConfiguration.xsd">

    <input>
        <net-file value="../dataSets/Angeja_Estarreja/angeja_estarreja.net.xml"/>
        <route-files value="../results/angeja_estarreja/cost_co-cost_co2/solution10/angeja_estarreja.rou.xml"/>
        <additional-files value="moreOutputInfo.xml"/>
    </input>

    <output>
        <emission-output.precision value="6"/>
        <tripinfo-output value="../results/angeja_estarreja/cost_co-cost_co2/solution10/angeja_estarreja-tripinfo"/>
    </output>

    <processing>
        <collision.action value="warn"/>
        <time-to-teleport value="-1"/>
    </processing>

    <emissions>
        <device.emissions.probability value="1"/>
    </emissions>

    <gui_only>
        <quit-on-end value="true"/>
        <start value="true"/>
    </gui_only>

</configuration>
-->

<meandata xmlns:xsi="http://www.w3.org/2001/XMLSchema-instance" xsi:noNamespaceSchemaLocation="http://sumo.dlr.de/xsd/meandata_file.xsd">
    <interval begin="0.00" end="19078.00" id="emissions-detector">
        <edge id=":10_0" sampledSeconds="398.91" CO_abs="41196.957153" CO2_abs="2249702.128752" HC_abs="240.973481" PMx_abs="44.220033" NOx_abs="960.822829" fuel_abs="967.048264" electricity_abs="0"
            CO_normed="444.472593" CO2_normed="24271.961027" HC_normed="2.599855" PMx_normed="0.477088" NOx_normed="10.366285" fuel_normed="10.433451" electricity_normed="0"
            traveltime="1.92" CO_perVeh="198.769130" CO2_perVeh="10854.474849" HC_perVeh="1.162661" PMx_perVeh="0.213355" NOx_perVeh="4.635826" fuel_perVeh="4.665863" electricity_perVeh="0"/>
        <edge id=":10_1" sampledSeconds="0.00" CO_abs="0" CO2_abs="0" HC_abs="0" PMx_abs="0" NOx_abs="0" fuel_abs="0" electricity_abs="0"
            CO_normed="0" CO2_normed="0" HC_normed="0" PMx_normed="0" NOx_normed="0" fuel_normed="0" electricity_normed="0"/>
        <edge id=":100_0" sampledSeconds="0.00" CO_abs="0" CO2_abs="0" HC_abs="0" PMx_abs="0" NOx_abs="0" fuel_abs="0" electricity_abs="0"
            CO_normed="0" CO2_normed="0" HC_normed="0" PMx_normed="0" NOx_normed="0" fuel_normed="0" electricity_normed="0"/>
        <edge id=":100_1" sampledSeconds="911.07" CO_abs="23282.346455" CO2_abs="2886994.424112" HC_abs="176.245130" PMx_abs="52.477698" NOx_abs="1081.264802" fuel_abs="1240.986368" electricity_abs="0"
            CO_normed="148.625036" CO2_normed="18429.398957" HC_normed="1.125077" PMx_normed="0.334996" NOx_normed="6.902355" fuel_normed="7.921953" electricity_normed="0"
            traveltime="1.37" CO_perVeh="35.007076" CO2_perVeh="4340.852558" HC_perVeh="0.265000" PMx_perVeh="0.078905" NOx_perVeh="1.625778" fuel_perVeh="1.865933" electricity_perVeh="0"/>
        <edge id=":101_0" sampledSeconds="438.15" CO_abs="10319.137182" CO2_abs="1296586.199033" HC_abs="78.488293" PMx_abs="23.480414" NOx_abs="484.375988" fuel_abs="557.342963" electricity_abs="0"
            CO_normed="238.336735" CO2_normed="29946.701549" HC_normed="1.812811" PMx_normed="0.542317" NOx_normed="11.187427" fuel_normed="12.872714" electricity_normed="0"
            traveltime="0.38" CO_perVeh="8.914394" CO2_perVeh="1120.082099" HC_perVeh="0.067804" PMx_perVeh="0.020284" NOx_perVeh="0.418438" fuel_perVeh="0.481472" electricity_perVeh="0"/>
        <edge id=":102_0" sampledSeconds="341.60" CO_abs="7513.891824" CO2_abs="965232.001741" HC_abs="57.686262" PMx_abs="17.373833" NOx_abs="359.429405" fuel_abs="414.909058" electricity_abs="0"
            CO_normed="175.044946" CO2_normed="22486.214528" HC_normed="1.343869" PMx_normed="0.404744" NOx_normed="8.373331" fuel_normed="9.665794" electricity_normed="0"
            traveltime="0.38" CO_perVeh="8.265952" CO2_perVeh="1061.841427" HC_perVeh="0.063460" PMx_perVeh="0.019113" NOx_perVeh="0.395404" fuel_perVeh="0.456437" electricity_perVeh="0"/>
        <edge id=":103_0" sampledSeconds="434.44" CO_abs="10067.641192" CO2_abs="1263002.974065" HC_abs="76.575323" PMx_abs="22.886070" NOx_abs="472.099316" fuel_abs="542.907057" electricity_abs="0"
            CO_normed="235.994295" CO2_normed="29605.891907" HC_normed="1.794992" PMx_normed="0.536469" NOx_normed="11.066420" fuel_normed="12.726215" electricity_normed="0"
            traveltime="0.37" CO_perVeh="8.649749" CO2_perVeh="1085.125964" HC_perVeh="0.065791" PMx_perVeh="0.019663" NOx_perVeh="0.405610" fuel_perVeh="0.466446" electricity_perVeh="0"/>
        <edge id=":104_0" sampledSeconds="340.91" CO_abs="8773.855001" CO2_abs="1080180.888380" HC_abs="66.206341" PMx_abs="19.673002" NOx_abs="404.938360" fuel_abs="464.320152" electricity_abs="0"
            CO_normed="204.649924" CO2_normed="25195.189187" HC_normed="1.544261" PMx_normed="0.458872" NOx_normed="9.445176" fuel_normed="10.830255" electricity_normed="0"
            traveltime="0.37" CO_perVeh="9.647601" CO2_perVeh="1187.750891" HC_perVeh="0.072800" PMx_perVeh="0.021632" NOx_perVeh="0.445264" fuel_perVeh="0.510560" electricity_perVeh="0"/>
        <edge id=":105_0" sampledSeconds="168.76" CO_abs="3782.809193" CO2_abs="479197.708626" HC_abs="28.872434" PMx_abs="8.657001" NOx_abs="178.847769" fuel_abs="205.985136" electricity_abs="0"
            CO_normed="3244.601848" CO2_normed="411018.820120" HC_normed="24.764546" PMx_normed="7.425308" NOx_normed="153.401816" fuel_normed="176.678156" electricity_normed="0"
            traveltime="0.01" CO_perVeh="0.228755" CO2_perVeh="28.978102" HC_perVeh="0.001746" PMx_perVeh="0.000524" NOx_perVeh="0.010815" fuel_perVeh="0.012456" electricity_perVeh="0"/>
        <edge id=":106_0" sampledSeconds="134.62" CO_abs="2877.788506" CO2_abs="374737.661739" HC_abs="22.216994" PMx_abs="6.718975" NOx_abs="139.281941" fuel_abs="161.082585" electricity_abs="0"
            CO_normed="1751.728663" CO2_normed="228105.262650" HC_normed="13.523629" PMx_normed="4.089884" NOx_normed="84.781827" fuel_normed="98.052022" electricity_normed="0"
            traveltime="0.01" CO_perVeh="0.307692" CO2_perVeh="40.066823" HC_perVeh="0.002375" PMx_perVeh="0.000718" NOx_perVeh="0.014892" fuel_perVeh="0.017223" electricity_perVeh="0"/>
        <edge id=":107_0" sampledSeconds="438.71" CO_abs="10644.753006" CO2_abs="1303598.954065" HC_abs="80.175359" PMx_abs="23.773208" NOx_abs="489.333869" fuel_abs="560.357276" electricity_abs="0"
            CO_normed="245.857346" CO2_normed="30108.672178" HC_normed="1.851776" PMx_normed="0.549080" NOx_normed="11.301937" fuel_normed="12.942334" electricity_normed="0"
            traveltime="0.38" CO_perVeh="9.195684" CO2_perVeh="1126.140209" HC_perVeh="0.069261" PMx_perVeh="0.020537" NOx_perVeh="0.422721" fuel_perVeh="0.484076" electricity_perVeh="0"/>
        <edge id=":108_0" sampledSeconds="92.75" CO_abs="7724.565675" CO2_abs="565164.168486" HC_abs="48.723502" PMx_abs="11.293206" NOx_abs="237.977389" fuel_abs="242.937227" electricity_abs="0"
            CO_normed="121.165255" CO2_normed="8864.998137" HC_normed="0.764262" PMx_normed="0.177142" NOx_normed="3.732843" fuel_normed="3.810642" electricity_normed="0"
            traveltime="0.86" CO_perVeh="71.311248" CO2_perVeh="5217.453530" HC_perVeh="0.449803" PMx_perVeh="0.104256" NOx_perVeh="2.196947" fuel_perVeh="2.242735" electricity_perVeh="0"/>
        <edge id=":108_1" sampledSeconds="403.10" CO_abs="9585.490227" CO2_abs="1242150.693941" HC_abs="73.771238" PMx_abs="22.286305" NOx_abs="461.960394" fuel_abs="533.943766" electricity_abs="0"
            CO_normed="140.214935" CO2_normed="18169.970924" HC_normed="1.079113" PMx_normed="0.326000" NOx_normed="6.757479" fuel_normed="7.810439" electricity_normed="0"
            traveltime="0.60" CO_perVeh="14.239483" CO2_perVeh="1845.245624" HC_perVeh="0.109589" PMx_perVeh="0.033107" NOx_perVeh="0.686254" fuel_perVeh="0.793187" electricity_perVeh="0"/>
        <edge id=":109_0" sampledSeconds="310.25" CO_abs="161.759414" CO2_abs="31440.224913" HC_abs="1.441639" PMx_abs="0.377242" NOx_abs="11.143088" fuel_abs="13.514860" electricity_abs="0"
            CO_normed="2.432179" CO2_normed="472.728270" HC_normed="0.021676" PMx_normed="0.005672" NOx_normed="0.167545" fuel_normed="0.203206" electricity_normed="0"
            traveltime="0.86" CO_perVeh="0.449600" CO2_perVeh="87.386181" HC_perVeh="0.004007" PMx_perVeh="0.001049" NOx_perVeh="0.030972" fuel_perVeh="0.037564" electricity_perVeh="0"/>
        <edge id=":109_1" sampledSeconds="524.58" CO_abs="12362.518809" CO2_abs="1573806.626072" HC_abs="94.490843" PMx_abs="28.381882" NOx_abs="586.867557" fuel_abs="676.507384" electricity_abs="0"
            CO_normed="121.247154" CO2_normed="15435.331391" HC_normed="0.926732" PMx_normed="0.278359" NOx_normed="5.755787" fuel_normed="6.634942" electricity_normed="0"
            traveltime="0.89" CO_perVeh="21.050425" CO2_perVeh="2679.817890" HC_perVeh="0.160895" PMx_perVeh="0.048328" NOx_perVeh="0.999296" fuel_perVeh="1.151931" electricity_perVeh="0"/>
        <edge id=":11_0" sampledSeconds="279.72" CO_abs="17422.101930" CO2_abs="1239905.211708" HC_abs="108.678795" PMx_abs="22.657850" NOx_abs="512.119640" fuel_abs="532.979623" electricity_abs="0"
            CO_normed="180.138830" CO2_normed="12820.213951" HC_normed="1.123703" PMx_normed="0.234275" NOx_normed="5.295149" fuel_normed="5.510835" electricity_normed="0"
            traveltime="1.59" CO_perVeh="98.743280" CO2_perVeh="7027.413079" HC_perVeh="0.615959" PMx_perVeh="0.128418" NOx_perVeh="2.902541" fuel_perVeh="3.020770" electricity_perVeh="0"/>
        <edge id=":11_1" sampledSeconds="50.98" CO_abs="946.879451" CO2_abs="81399.167153" HC_abs="6.166295" PMx_abs="1.069680" NOx_abs="30.753007" fuel_abs="34.990337" electricity_abs="0"
            CO_normed="10.037934" CO2_normed="862.918173" HC_normed="0.065369" PMx_normed="0.011340" NOx_normed="0.326015" fuel_normed="0.370935" electricity_normed="0"
            traveltime="1.68" CO_perVeh="31.142746" CO2_perVeh="2677.208380" HC_perVeh="0.202809" PMx_perVeh="0.035182" NOx_perVeh="1.011463" fuel_perVeh="1.150828" electricity_perVeh="0"/>
        <edge id=":110_0" sampledSeconds="95.17" CO_abs="7.216267" CO2_abs="724.658781" HC_abs="0.049296" PMx_abs="0.008825" NOx_abs="0.267763" fuel_abs="0.311503" electricity_abs="0"
            CO_normed="0.093588" CO2_normed="9.398103" HC_normed="0.000639" PMx_normed="0.000114" NOx_normed="0.003473" fuel_normed="0.004040" electricity_normed="0"
            traveltime="0.93" CO_perVeh="0.070652" CO2_perVeh="7.094937" HC_perVeh="0.000483" PMx_perVeh="0.000086" NOx_perVeh="0.002622" fuel_perVeh="0.003050" electricity_perVeh="0"/>
        <edge id=":110_1" sampledSeconds="444.17" CO_abs="10523.104938" CO2_abs="1326179.663831" HC_abs="80.104492" PMx_abs="23.986081" NOx_abs="495.280660" fuel_abs="570.063846" electricity_abs="0"
            CO_normed="135.081608" CO2_normed="17023.728545" HC_normed="1.028275" PMx_normed="0.307901" NOx_normed="6.357754" fuel_normed="7.317721" electricity_normed="0"
            traveltime="0.68" CO_perVeh="16.165043" CO2_perVeh="2037.207790" HC_perVeh="0.123052" PMx_perVeh="0.036846" NOx_perVeh="0.760824" fuel_perVeh="0.875702" electricity_perVeh="0"/>
        <edge id=":111_0" sampledSeconds="340.70" CO_abs="8223.235972" CO2_abs="1023882.407039" HC_abs="62.322122" PMx_abs="18.589610" NOx_abs="383.054084" fuel_abs="440.120070" electricity_abs="0"
            CO_normed="189.928594" CO2_normed="23648.177721" HC_normed="1.439428" PMx_normed="0.429356" NOx_normed="8.847238" fuel_normed="10.165267" electricity_normed="0"
            traveltime="0.38" CO_perVeh="9.138886" CO2_perVeh="1137.890774" HC_perVeh="0.069262" PMx_perVeh="0.020660" NOx_perVeh="0.425707" fuel_perVeh="0.489127" electricity_perVeh="0"/>
        <edge id=":114_0" sampledSeconds="107.23" CO_abs="10671.856974" CO2_abs="765032.749645" HC_abs="67.046963" PMx_abs="15.583630" NOx_abs="324.194662" fuel_abs="328.850964" electricity_abs="0"
            CO_normed="141.814719" CO2_normed="10166.262957" HC_normed="0.890965" PMx_normed="0.207086" NOx_normed="4.308114" fuel_normed="4.369990" electricity_normed="0"
            traveltime="0.99" CO_perVeh="98.726583" CO2_perVeh="7077.406459" HC_perVeh="0.620259" PMx_perVeh="0.144166" NOx_perVeh="2.999162" fuel_perVeh="3.042238" electricity_perVeh="0"/>
        <edge id=":114_1" sampledSeconds="416.14" CO_abs="10151.393118" CO2_abs="1224281.649942" HC_abs="76.018617" PMx_abs="22.427816" NOx_abs="460.697479" fuel_abs="526.262342" electricity_abs="0"
            CO_normed="134.048844" CO2_normed="16166.602781" HC_normed="1.003824" PMx_normed="0.296159" NOx_normed="6.083497" fuel_normed="6.949279" electricity_normed="0"
            traveltime="0.66" CO_perVeh="16.175958" CO2_perVeh="1950.858264" HC_perVeh="0.121134" PMx_perVeh="0.035738" NOx_perVeh="0.734108" fuel_perVeh="0.838584" electricity_perVeh="0"/>
        <edge id=":115_0" sampledSeconds="80.62" CO_abs="112.796903" CO2_abs="13777.428420" HC_abs="0.830008" PMx_abs="0.191748" NOx_abs="5.172222" fuel_abs="5.922334" electricity_abs="0"
            CO_normed="2.549062" CO2_normed="311.351774" HC_normed="0.018757" PMx_normed="0.004333" NOx_normed="0.116885" fuel_normed="0.133837" electricity_normed="0"
            traveltime="0.63" CO_perVeh="0.887621" CO2_perVeh="108.417234" HC_perVeh="0.006531" PMx_perVeh="0.001509" NOx_perVeh="0.040701" fuel_perVeh="0.046604" electricity_perVeh="0"/>
        <edge id=":115_1" sampledSeconds="72.08" CO_abs="1277.962900" CO2_abs="181092.678932" HC_abs="10.014016" PMx_abs="2.784571" NOx_abs="68.081300" fuel_abs="77.843667" electricity_abs="0"
            CO_normed="25.791482" CO2_normed="3654.760637" HC_normed="0.202100" PMx_normed="0.056197" NOx_normed="1.373997" fuel_normed="1.571019" electricity_normed="0"
            traveltime="0.59" CO_perVeh="10.462265" CO2_perVeh="1482.546667" HC_perVeh="0.081981" PMx_perVeh="0.022796" NOx_perVeh="0.557359" fuel_perVeh="0.637281" electricity_perVeh="0"/>
        <edge id=":116_0" sampledSeconds="74.82" CO_abs="109.627127" CO2_abs="14632.768642" HC_abs="0.837323" PMx_abs="0.201908" NOx_abs="5.460452" fuel_abs="6.290005" electricity_abs="0"
            CO_normed="2.765579" CO2_normed="369.142938" HC_normed="0.021123" PMx_normed="0.005094" NOx_normed="0.137752" fuel_normed="0.158679" electricity_normed="0"
            traveltime="0.56" CO_perVeh="0.827767" CO2_perVeh="110.488386" HC_perVeh="0.006322" PMx_perVeh="0.001525" NOx_perVeh="0.041231" fuel_perVeh="0.047494" electricity_perVeh="0"/>
        <edge id=":117_0" sampledSeconds="240.42" CO_abs="13913.330541" CO2_abs="1164878.957849" HC_abs="90.987659" PMx_abs="21.290419" NOx_abs="474.787504" fuel_abs="500.727739" electricity_abs="0"
            CO_normed="314.422983" CO2_normed="26324.733372" HC_normed="2.056202" PMx_normed="0.481135" NOx_normed="10.729574" fuel_normed="11.315789" electricity_normed="0"
            traveltime="0.60" CO_perVeh="34.880856" CO2_perVeh="2920.362993" HC_perVeh="0.228107" PMx_perVeh="0.053375" NOx_perVeh="1.190297" fuel_perVeh="1.255329" electricity_perVeh="0"/>
        <edge id=":117_1" sampledSeconds="75.91" CO_abs="4768.505177" CO2_abs="386940.740890" HC_abs="30.930763" PMx_abs="7.208542" NOx_abs="158.840275" fuel_abs="166.327874" electricity_abs="0"
            CO_normed="101.558948" CO2_normed="8241.009093" HC_normed="0.658759" PMx_normed="0.153527" NOx_normed="3.382958" fuel_normed="3.542427" electricity_normed="0"
            traveltime="0.64" CO_perVeh="40.315043" CO2_perVeh="3271.367467" HC_perVeh="0.261502" PMx_perVeh="0.060944" NOx_perVeh="1.342906" fuel_perVeh="1.406209" electricity_perVeh="0"/>
        <edge id=":118_0" sampledSeconds="898.59" CO_abs="12904.774806" CO2_abs="2048959.441555" HC_abs="104.201742" PMx_abs="30.074285" NOx_abs="756.446249" fuel_abs="880.757282" electricity_abs="0"
            CO_normed="39.156109" CO2_normed="6217.022817" HC_normed="0.316172" PMx_normed="0.091252" NOx_normed="2.295235" fuel_normed="2.672424" electricity_normed="0"
            traveltime="3.92" CO_perVeh="56.286686" CO2_perVeh="8936.935162" HC_perVeh="0.454496" PMx_perVeh="0.131175" NOx_perVeh="3.299387" fuel_perVeh="3.841594" electricity_perVeh="0"/>
        <edge id=":118_4" sampledSeconds="282.91" CO_abs="4223.345582" CO2_abs="655077.765086" HC_abs="33.717980" PMx_abs="9.612152" NOx_abs="242.090129" fuel_abs="281.589089" electricity_abs="0"
            CO_normed="12.839394" CO2_normed="1991.502104" HC_normed="0.102506" PMx_normed="0.029222" NOx_normed="0.735978" fuel_normed="0.856059" electricity_normed="0"
            traveltime="3.92" CO_perVeh="58.554070" CO2_perVeh="9082.247446" HC_perVeh="0.467479" PMx_perVeh="0.133267" NOx_perVeh="3.356430" fuel_perVeh="3.904058" electricity_perVeh="0"/>
        <edge id=":118_5" sampledSeconds="238.68" CO_abs="3611.101789" CO2_abs="524225.831363" HC_abs="28.206007" PMx_abs="8.021118" NOx_abs="196.257003" fuel_abs="225.341280" electricity_abs="0"
            CO_normed="11.087071" CO2_normed="1609.516812" HC_normed="0.086600" PMx_normed="0.024627" NOx_normed="0.602563" fuel_normed="0.691859" electricity_normed="0"
            traveltime="3.82" CO_perVeh="57.793727" CO2_perVeh="8389.950366" HC_perVeh="0.451422" PMx_perVeh="0.128374" NOx_perVeh="3.140987" fuel_perVeh="3.606465" electricity_perVeh="0"/>
        <edge id=":119_0" sampledSeconds="139.51" CO_abs="1876.364462" CO2_abs="299975.003914" HC_abs="15.175384" PMx_abs="4.360514" NOx_abs="110.786627" fuel_abs="128.946041" electricity_abs="0"
            CO_normed="40.235016" CO2_normed="6432.385316" HC_normed="0.325407" PMx_normed="0.093503" NOx_normed="2.375606" fuel_normed="2.764999" electricity_normed="0"
            traveltime="0.56" CO_perVeh="7.522212" CO2_perVeh="1202.578486" HC_perVeh="0.060837" PMx_perVeh="0.017481" NOx_perVeh="0.444136" fuel_perVeh="0.516936" electricity_perVeh="0"/>
        <edge id=":12_0" sampledSeconds="584.37" CO_abs="53789.509154" CO2_abs="3064643.070203" HC_abs="317.758714" PMx_abs="60.265371" NOx_abs="1307.008057" fuel_abs="1317.353805" electricity_abs="0"
            CO_normed="503.973582" CO2_normed="28713.761643" HC_normed="2.977198" PMx_normed="0.564648" NOx_normed="12.245836" fuel_normed="12.342770" electricity_normed="0"
            traveltime="2.10" CO_perVeh="193.135665" CO2_perVeh="11003.853450" HC_perVeh="1.140939" PMx_perVeh="0.216388" NOx_perVeh="4.692920" fuel_perVeh="4.730067" electricity_perVeh="0"/>
        <edge id=":12_1" sampledSeconds="56.39" CO_abs="1181.935221" CO2_abs="103980.817564" HC_abs="7.751253" PMx_abs="1.359483" NOx_abs="39.199681" fuel_abs="44.697302" electricity_abs="0"
            CO_normed="11.062997" CO2_normed="973.267803" HC_normed="0.072552" PMx_normed="0.012725" NOx_normed="0.366912" fuel_normed="0.418370" electricity_normed="0"
            traveltime="1.90" CO_perVeh="39.856507" CO2_perVeh="3506.378433" HC_perVeh="0.261383" PMx_perVeh="0.045844" NOx_perVeh="1.321868" fuel_perVeh="1.507255" electricity_perVeh="0"/>
        <edge id=":120_0" sampledSeconds="39.01" CO_abs="528.543479" CO2_abs="85363.465941" HC_abs="4.325403" PMx_abs="1.245685" NOx_abs="31.486411" fuel_abs="36.693995" electricity_abs="0"
            CO_normed="415.565163" CO2_normed="67116.678326" HC_normed="3.400830" PMx_normed="0.979415" NOx_normed="24.756063" fuel_normed="28.850505" electricity_normed="0"
            traveltime="0.02" CO_perVeh="0.203367" CO2_perVeh="32.845261" HC_perVeh="0.001664" PMx_perVeh="0.000479" NOx_perVeh="0.012115" fuel_perVeh="0.014119" electricity_perVeh="0"/>
        <edge id=":121_0" sampledSeconds="371.98" CO_abs="53034.001700" CO2_abs="1429493.041344" HC_abs="275.063457" PMx_abs="30.861087" NOx_abs="632.260058" fuel_abs="614.494709" electricity_abs="0"
            CO_normed="30325.649744" CO2_normed="817405.888559" HC_normed="157.285473" PMx_normed="17.646840" NOx_normed="361.535929" fuel_normed="351.377432" electricity_normed="0"
            traveltime="0.11" CO_perVeh="16.222783" CO2_perVeh="437.273341" HC_perVeh="0.084140" PMx_perVeh="0.009440" NOx_perVeh="0.193405" fuel_perVeh="0.187970" electricity_perVeh="0"/>
        <edge id=":122_0" sampledSeconds="135.47" CO_abs="692.018165" CO2_abs="78095.154761" HC_abs="4.974637" PMx_abs="1.324315" NOx_abs="30.417979" fuel_abs="33.569529" electricity_abs="0"
            CO_normed="15.237241" CO2_normed="1719.542540" HC_normed="0.109534" PMx_normed="0.029160" NOx_normed="0.669760" fuel_normed="0.739153" electricity_normed="0"
            traveltime="0.54" CO_perVeh="2.753846" CO2_perVeh="310.775080" HC_perVeh="0.019796" PMx_perVeh="0.005270" NOx_perVeh="0.121047" fuel_perVeh="0.133588" electricity_perVeh="0"/>
        <edge id=":123_0" sampledSeconds="312.89" CO_abs="40381.006690" CO2_abs="2476187.930392" HC_abs="243.333720" PMx_abs="50.810633" NOx_abs="1062.311595" fuel_abs="1064.398004" electricity_abs="0"
            CO_normed="153.998719" CO2_normed="9443.295237" HC_normed="0.927988" PMx_normed="0.193774" NOx_normed="4.051277" fuel_normed="4.059233" electricity_normed="0"
            traveltime="4.26" CO_perVeh="549.911023" CO2_perVeh="33720.878953" HC_perVeh="3.313734" PMx_perVeh="0.691942" NOx_perVeh="14.466624" fuel_perVeh="14.495037" electricity_perVeh="0"/>
        <edge id=":123_1" sampledSeconds="0.00" CO_abs="0" CO2_abs="0" HC_abs="0" PMx_abs="0" NOx_abs="0" fuel_abs="0" electricity_abs="0"
            CO_normed="0" CO2_normed="0" HC_normed="0" PMx_normed="0" NOx_normed="0" fuel_normed="0" electricity_normed="0"/>
        <edge id=":123_2" sampledSeconds="263.31" CO_abs="35373.195134" CO2_abs="2175549.542312" HC_abs="213.389231" PMx_abs="45.002095" NOx_abs="935.344725" fuel_abs="935.166939" electricity_abs="0"
            CO_normed="136.194398" CO2_normed="8376.332944" HC_normed="0.821594" PMx_normed="0.173268" NOx_normed="3.601278" fuel_normed="3.600594" electricity_normed="0"
            traveltime="4.14" CO_perVeh="555.996092" CO2_perVeh="34195.300656" HC_perVeh="3.354053" PMx_perVeh="0.707343" NOx_perVeh="14.701754" fuel_perVeh="14.698960" electricity_perVeh="0"/>
        <edge id=":123_3" sampledSeconds="469.07" CO_abs="22543.956757" CO2_abs="2129085.610936" HC_abs="153.002533" PMx_abs="39.643896" NOx_abs="853.555186" fuel_abs="915.193971" electricity_abs="0"
            CO_normed="88.810494" CO2_normed="8387.398310" HC_normed="0.602744" PMx_normed="0.156175" NOx_normed="3.362527" fuel_normed="3.605349" electricity_normed="0"
            traveltime="2.81" CO_perVeh="134.934714" CO2_perVeh="12743.439892" HC_perVeh="0.915782" PMx_perVeh="0.237285" NOx_perVeh="5.108874" fuel_perVeh="5.477807" electricity_perVeh="0"/>
        <edge id=":123_5" sampledSeconds="0.00" CO_abs="0" CO2_abs="0" HC_abs="0" PMx_abs="0" NOx_abs="0" fuel_abs="0" electricity_abs="0"
            CO_normed="0" CO2_normed="0" HC_normed="0" PMx_normed="0" NOx_normed="0" fuel_normed="0" electricity_normed="0"/>
        <edge id=":123_6" sampledSeconds="194.50" CO_abs="9729.697421" CO2_abs="889748.061603" HC_abs="65.481811" PMx_abs="16.856675" NOx_abs="359.267975" fuel_abs="382.460698" electricity_abs="0"
            CO_normed="37.023279" CO2_normed="3385.654200" HC_normed="0.249170" PMx_normed="0.064143" NOx_normed="1.367080" fuel_normed="1.455333" electricity_normed="0"
            traveltime="2.91" CO_perVeh="145.560646" CO2_perVeh="13311.030843" HC_perVeh="0.979637" PMx_perVeh="0.252183" NOx_perVeh="5.374810" fuel_perVeh="5.721784" electricity_perVeh="0"/>
        <edge id=":124_0" sampledSeconds="118.87" CO_abs="4361.275927" CO2_abs="379331.664446" HC_abs="28.792686" PMx_abs="7.322404" NOx_abs="154.231379" fuel_abs="163.056713" electricity_abs="0"
            CO_normed="102.105275" CO2_normed="8880.833158" HC_normed="0.674088" PMx_normed="0.171431" NOx_normed="3.610833" fuel_normed="3.817449" electricity_normed="0"
            traveltime="0.46" CO_perVeh="16.942821" CO2_perVeh="1473.639467" HC_perVeh="0.111855" PMx_perVeh="0.028446" NOx_perVeh="0.599163" fuel_perVeh="0.633448" electricity_perVeh="0"/>
        <edge id=":125_0" sampledSeconds="141.11" CO_abs="5285.917227" CO2_abs="541423.719104" HC_abs="36.924221" PMx_abs="10.037966" NOx_abs="213.201565" fuel_abs="232.732699" electricity_abs="0"
            CO_normed="332.482476" CO2_normed="34055.375979" HC_normed="2.322521" PMx_normed="0.631385" NOx_normed="13.410309" fuel_normed="14.638811" electricity_normed="0"
            traveltime="0.16" CO_perVeh="6.053732" CO2_perVeh="620.069157" HC_perVeh="0.042288" PMx_perVeh="0.011496" NOx_perVeh="0.244171" fuel_perVeh="0.266539" electricity_perVeh="0"/>
        <edge id=":125_3" sampledSeconds="0.00" CO_abs="0" CO2_abs="0" HC_abs="0" PMx_abs="0" NOx_abs="0" fuel_abs="0" electricity_abs="0"
            CO_normed="0" CO2_normed="0" HC_normed="0" PMx_normed="0" NOx_normed="0" fuel_normed="0" electricity_normed="0"/>
        <edge id=":126_0" sampledSeconds="27.30" CO_abs="204.272208" CO2_abs="13871.692352" HC_abs="1.251281" PMx_abs="0.219582" NOx_abs="5.536087" fuel_abs="5.962875" electricity_abs="0"
            CO_normed="6.727045" CO2_normed="456.819341" HC_normed="0.041207" PMx_normed="0.007231" NOx_normed="0.182313" fuel_normed="0.196368" electricity_normed="0"
            traveltime="0.57" CO_perVeh="4.229645" CO2_perVeh="287.226247" HC_perVeh="0.025909" PMx_perVeh="0.004547" NOx_perVeh="0.114630" fuel_perVeh="0.123467" electricity_perVeh="0"/>
        <edge id=":126_1" sampledSeconds="80.85" CO_abs="1387.798920" CO2_abs="203550.181428" HC_abs="11.103069" PMx_abs="3.340569" NOx_abs="75.990749" fuel_abs="87.496980" electricity_abs="0"
            CO_normed="40.664022" CO2_normed="5964.242358" HC_normed="0.325332" PMx_normed="0.097882" NOx_normed="2.226612" fuel_normed="2.563757" electricity_normed="0"
            traveltime="0.35" CO_perVeh="6.005244" CO2_perVeh="880.796608" HC_perVeh="0.048045" PMx_perVeh="0.014455" NOx_perVeh="0.328825" fuel_perVeh="0.378614" electricity_perVeh="0"/>
        <edge id=":127_0" sampledSeconds="234.29" CO_abs="5002.645728" CO2_abs="651515.624005" HC_abs="37.925442" PMx_abs="11.109101" NOx_abs="246.285410" fuel_abs="280.056744" electricity_abs="0"
            CO_normed="115.685585" CO2_normed="15066.220963" HC_normed="0.877021" PMx_normed="0.256897" NOx_normed="5.695321" fuel_normed="6.476279" electricity_normed="0"
            traveltime="0.44" CO_perVeh="9.355082" CO2_perVeh="1218.351685" HC_perVeh="0.070922" PMx_perVeh="0.020774" NOx_perVeh="0.460560" fuel_perVeh="0.523714" electricity_perVeh="0"/>
        <edge id=":128_0" sampledSeconds="229.28" CO_abs="359.202404" CO2_abs="39097.733723" HC_abs="2.531803" PMx_abs="0.680164" NOx_abs="15.237864" fuel_abs="16.806316" electricity_abs="0"
            CO_normed="5.551281" CO2_normed="604.234581" HC_normed="0.039128" PMx_normed="0.010512" NOx_normed="0.235493" fuel_normed="0.259733" electricity_normed="0"
            traveltime="0.75" CO_perVeh="1.180829" CO2_perVeh="128.528482" HC_perVeh="0.008323" PMx_perVeh="0.002236" NOx_perVeh="0.050092" fuel_perVeh="0.055248" electricity_perVeh="0"/>
        <edge id=":128_1" sampledSeconds="142.82" CO_abs="110.220572" CO2_abs="19907.726378" HC_abs="0.941590" PMx_abs="0.234165" NOx_abs="7.105579" fuel_abs="8.557518" electricity_abs="0"
            CO_normed="1.759604" CO2_normed="317.814599" HC_normed="0.015032" PMx_normed="0.003738" NOx_normed="0.113436" fuel_normed="0.136616" electricity_normed="0"
            traveltime="0.86" CO_perVeh="0.660710" CO2_perVeh="119.335503" HC_perVeh="0.005644" PMx_perVeh="0.001404" NOx_perVeh="0.042594" fuel_perVeh="0.051297" electricity_perVeh="0"/>
        <edge id=":129_0" sampledSeconds="104.24" CO_abs="6562.794924" CO2_abs="567002.071475" HC_abs="43.386098" PMx_abs="10.871095" NOx_abs="231.467936" fuel_abs="243.727370" electricity_abs="0"
            CO_normed="152.888025" CO2_normed="13208.980011" HC_normed="1.010730" PMx_normed="0.253255" NOx_normed="5.392318" fuel_normed="5.677916" electricity_normed="0"
            traveltime="0.49" CO_perVeh="31.104203" CO2_perVeh="2687.292226" HC_perVeh="0.205627" PMx_perVeh="0.051523" NOx_perVeh="1.097037" fuel_perVeh="1.155140" electricity_perVeh="0"/>
        <edge id=":13_0" sampledSeconds="60.23" CO_abs="4647.416957" CO2_abs="342700.723570" HC_abs="29.323354" PMx_abs="6.463847" NOx_abs="142.358638" fuel_abs="147.311265" electricity_abs="0"
            CO_normed="32.857364" CO2_normed="2422.903425" HC_normed="0.207317" PMx_normed="0.045700" NOx_normed="1.006479" fuel_normed="1.041495" electricity_normed="0"
            traveltime="2.13" CO_perVeh="164.386608" CO2_perVeh="12121.875414" HC_perVeh="1.037214" PMx_perVeh="0.228637" NOx_perVeh="5.035454" fuel_perVeh="5.210636" electricity_perVeh="0"/>
        <edge id=":13_1" sampledSeconds="532.83" CO_abs="13086.703896" CO2_abs="998952.582897" HC_abs="82.562066" PMx_abs="14.584330" NOx_abs="388.518168" fuel_abs="429.409731" electricity_abs="0"
            CO_normed="130.382696" CO2_normed="9952.554301" HC_normed="0.822565" PMx_normed="0.145304" NOx_normed="3.870803" fuel_normed="4.278205" electricity_normed="0"
            traveltime="1.86" CO_perVeh="45.688795" CO2_perVeh="3487.581022" HC_perVeh="0.288244" PMx_perVeh="0.050917" NOx_perVeh="1.356409" fuel_perVeh="1.499171" electricity_perVeh="0"/>
        <edge id=":132_0" sampledSeconds="40.96" CO_abs="653.089714" CO2_abs="106179.240758" HC_abs="5.347161" PMx_abs="1.534128" NOx_abs="39.109428" fuel_abs="45.641793" electricity_abs="0"
            CO_normed="1232.373923" CO2_normed="200359.192121" HC_normed="10.090041" PMx_normed="2.894884" NOx_normed="73.799110" fuel_normed="86.125619" electricity_normed="0"
            traveltime="6.350371e-03" CO_perVeh="0.101246" CO2_perVeh="16.460622" HC_perVeh="0.000829" PMx_perVeh="0.000238" NOx_perVeh="0.006063" fuel_perVeh="0.007076" electricity_perVeh="0"/>