<?xml version="1.0" encoding="UTF-8"?>

<!-- generated on ter 01 set 2020 19:00:46 by Eclipse SUMO GUI Version 1.6.0
<configuration xmlns:xsi="http://www.w3.org/2001/XMLSchema-instance" xsi:noNamespaceSchemaLocation="http://sumo.dlr.de/xsd/sumoConfiguration.xsd">

    <input>
        <net-file value="../dataSets/Angeja_Estarreja/angeja_estarreja.net.xml"/>
        <route-files value="../results/angeja_estarreja/length-ttime/solution15/angeja_estarreja.rou.xml"/>
        <additional-files value="moreOutputInfo.xml"/>
    </input>

    <output>
        <emission-output.precision value="6"/>
        <tripinfo-output value="../results/angeja_estarreja/length-ttime/solution15/angeja_estarreja-tripinfo"/>
    </output>

    <processing>
        <collision.action value="warn"/>
        <time-to-teleport value="-1"/>
    </processing>

    <emissions>
        <device.emissions.probability value="1"/>
    </emissions>

    <gui_only>
        <gui-settings-file value="gui-settings.xml"/>
        <quit-on-end value="true"/>
        <start value="true"/>
    </gui_only>

</configuration>
-->

<meandata xmlns:xsi="http://www.w3.org/2001/XMLSchema-instance" xsi:noNamespaceSchemaLocation="http://sumo.dlr.de/xsd/meandata_file.xsd">
    <interval begin="0.00" end="19079.00" id="emissions-detector">
        <edge id=":10_0" sampledSeconds="387.17" CO_abs="39564.604000" CO2_abs="2169234.417512" HC_abs="231.659588" PMx_abs="42.743811" NOx_abs="926.922791" fuel_abs="932.458450" electricity_abs="0"
            CO_normed="426.838816" CO2_normed="23402.570903" HC_normed="2.499237" PMx_normed="0.461137" NOx_normed="10.000015" fuel_normed="10.059736" electricity_normed="0"
            traveltime="1.91" CO_perVeh="194.727845" CO2_perVeh="10676.470902" HC_perVeh="1.140175" PMx_perVeh="0.210375" NOx_perVeh="4.562100" fuel_perVeh="4.589345" electricity_perVeh="0"/>
        <edge id=":10_1" sampledSeconds="0.00" CO_abs="0" CO2_abs="0" HC_abs="0" PMx_abs="0" NOx_abs="0" fuel_abs="0" electricity_abs="0"
            CO_normed="0" CO2_normed="0" HC_normed="0" PMx_normed="0" NOx_normed="0" fuel_normed="0" electricity_normed="0"/>
        <edge id=":100_0" sampledSeconds="0.00" CO_abs="0" CO2_abs="0" HC_abs="0" PMx_abs="0" NOx_abs="0" fuel_abs="0" electricity_abs="0"
            CO_normed="0" CO2_normed="0" HC_normed="0" PMx_normed="0" NOx_normed="0" fuel_normed="0" electricity_normed="0"/>
        <edge id=":100_1" sampledSeconds="912.08" CO_abs="20990.839213" CO2_abs="2651325.402578" HC_abs="159.898196" PMx_abs="47.922445" NOx_abs="989.699039" fuel_abs="1139.683285" electricity_abs="0"
            CO_normed="133.989962" CO2_normed="16924.096613" HC_normed="1.020672" PMx_normed="0.305901" NOx_normed="6.317505" fuel_normed="7.274894" electricity_normed="0"
            traveltime="1.37" CO_perVeh="31.561591" CO2_perVeh="3986.503251" HC_perVeh="0.240421" PMx_perVeh="0.072056" NOx_perVeh="1.488100" fuel_perVeh="1.713615" electricity_perVeh="0"/>
        <edge id=":101_0" sampledSeconds="438.64" CO_abs="9829.335293" CO2_abs="1268871.549382" HC_abs="75.580285" PMx_abs="22.808116" NOx_abs="471.957984" fuel_abs="545.429837" electricity_abs="0"
            CO_normed="227.012089" CO2_normed="29305.051975" HC_normed="1.745554" PMx_normed="0.526762" NOx_normed="10.900042" fuel_normed="12.596901" electricity_normed="0"
            traveltime="0.38" CO_perVeh="8.491273" CO2_perVeh="1096.140784" HC_perVeh="0.065292" PMx_perVeh="0.019703" NOx_perVeh="0.407711" fuel_perVeh="0.471181" electricity_perVeh="0"/>
        <edge id=":102_0" sampledSeconds="341.45" CO_abs="8723.890991" CO2_abs="1107238.272173" HC_abs="66.643062" PMx_abs="19.989146" NOx_abs="413.248496" fuel_abs="475.950994" electricity_abs="0"
            CO_normed="203.222647" CO2_normed="25793.065608" HC_normed="1.552447" PMx_normed="0.465646" NOx_normed="9.626605" fuel_normed="11.087257" electricity_normed="0"
            traveltime="0.38" CO_perVeh="9.597057" CO2_perVeh="1218.060747" HC_perVeh="0.073313" PMx_perVeh="0.021990" NOx_perVeh="0.454610" fuel_perVeh="0.523588" electricity_perVeh="0"/>
        <edge id=":103_0" sampledSeconds="434.33" CO_abs="10114.781424" CO2_abs="1269958.219854" HC_abs="76.955380" PMx_abs="23.004270" NOx_abs="474.688850" fuel_abs="545.896799" electricity_abs="0"
            CO_normed="237.086876" CO2_normed="29767.368639" HC_normed="1.803807" PMx_normed="0.539212" NOx_normed="11.126538" fuel_normed="12.795627" electricity_normed="0"
            traveltime="0.37" CO_perVeh="8.690231" CO2_perVeh="1091.099265" HC_perVeh="0.066117" PMx_perVeh="0.019764" NOx_perVeh="0.407834" fuel_perVeh="0.469014" electricity_perVeh="0"/>
        <edge id=":104_0" sampledSeconds="341.19" CO_abs="8404.226359" CO2_abs="1039375.475230" HC_abs="63.540667" PMx_abs="18.905187" NOx_abs="389.418678" fuel_abs="446.779793" electricity_abs="0"
            CO_normed="196.018072" CO2_normed="24242.133374" HC_normed="1.482007" PMx_normed="0.440940" NOx_normed="9.082704" fuel_normed="10.420580" electricity_normed="0"
            traveltime="0.38" CO_perVeh="9.241172" CO2_perVeh="1142.882987" HC_perVeh="0.069868" PMx_perVeh="0.020788" NOx_perVeh="0.428199" fuel_perVeh="0.491273" electricity_perVeh="0"/>
        <edge id=":105_0" sampledSeconds="168.56" CO_abs="4168.091979" CO2_abs="508760.609257" HC_abs="31.339466" PMx_abs="9.289248" NOx_abs="190.941987" fuel_abs="218.692805" electricity_abs="0"
            CO_normed="3574.880312" CO2_normed="436352.723205" HC_normed="26.879167" PMx_normed="7.967182" NOx_normed="163.766720" fuel_normed="187.567983" electricity_normed="0"
            traveltime="0.01" CO_perVeh="0.252053" CO2_perVeh="30.765834" HC_perVeh="0.001895" PMx_perVeh="0.000562" NOx_perVeh="0.011547" fuel_perVeh="0.013225" electricity_perVeh="0"/>
        <edge id=":106_0" sampledSeconds="134.39" CO_abs="3133.550367" CO2_abs="407358.147097" HC_abs="24.162598" PMx_abs="7.306259" NOx_abs="151.405771" fuel_abs="175.104640" electricity_abs="0"
            CO_normed="1907.312604" CO2_normed="247948.568608" HC_normed="14.707160" PMx_normed="4.447134" NOx_normed="92.156851" fuel_normed="106.581752" electricity_normed="0"
            traveltime="0.01" CO_perVeh="0.335037" CO2_perVeh="43.554493" HC_perVeh="0.002583" PMx_perVeh="0.000781" NOx_perVeh="0.016188" fuel_perVeh="0.018722" electricity_perVeh="0"/>
        <edge id=":107_0" sampledSeconds="438.52" CO_abs="10896.209893" CO2_abs="1348969.071323" HC_abs="82.380017" PMx_abs="24.519513" NOx_abs="505.384703" fuel_abs="579.859866" electricity_abs="0"
            CO_normed="251.651948" CO2_normed="31154.933505" HC_normed="1.902597" PMx_normed="0.566287" NOx_normed="11.672044" fuel_normed="13.392075" electricity_normed="0"
            traveltime="0.38" CO_perVeh="9.412953" CO2_perVeh="1165.339365" HC_perVeh="0.071166" PMx_perVeh="0.021182" NOx_perVeh="0.436589" fuel_perVeh="0.500926" electricity_perVeh="0"/>
        <edge id=":108_0" sampledSeconds="90.73" CO_abs="8178.009865" CO2_abs="598819.274310" HC_abs="51.566002" PMx_abs="11.981015" NOx_abs="252.164647" fuel_abs="257.403932" electricity_abs="0"
            CO_normed="128.271123" CO2_normed="9392.409865" HC_normed="0.808807" PMx_normed="0.187921" NOx_normed="3.955173" fuel_normed="4.037350" electricity_normed="0"
            traveltime="0.85" CO_perVeh="76.298662" CO2_perVeh="5586.824909" HC_perVeh="0.481097" PMx_perVeh="0.111780" NOx_perVeh="2.352629" fuel_perVeh="2.401510" electricity_perVeh="0"/>
        <edge id=":108_1" sampledSeconds="403.47" CO_abs="9528.530584" CO2_abs="1183980.148975" HC_abs="72.132180" PMx_abs="21.497771" NOx_abs="443.262039" fuel_abs="508.938724" electricity_abs="0"
            CO_normed="139.374433" CO2_normed="17318.154244" HC_normed="1.055082" PMx_normed="0.314449" NOx_normed="6.483623" fuel_normed="7.444280" electricity_normed="0"
            traveltime="0.60" CO_perVeh="14.154868" CO2_perVeh="1758.831839" HC_perVeh="0.107154" PMx_perVeh="0.031935" NOx_perVeh="0.658477" fuel_perVeh="0.756041" electricity_perVeh="0"/>
        <edge id=":109_0" sampledSeconds="305.34" CO_abs="128.929850" CO2_abs="21656.060003" HC_abs="1.088383" PMx_abs="0.278441" NOx_abs="7.791854" fuel_abs="9.309039" electricity_abs="0"
            CO_normed="1.938459" CO2_normed="325.598663" HC_normed="0.016364" PMx_normed="0.004186" NOx_normed="0.117150" fuel_normed="0.139961" electricity_normed="0"
            traveltime="0.85" CO_perVeh="0.358353" CO2_perVeh="60.191693" HC_perVeh="0.003025" PMx_perVeh="0.000774" NOx_perVeh="0.021657" fuel_perVeh="0.025874" electricity_perVeh="0"/>
        <edge id=":109_1" sampledSeconds="524.89" CO_abs="13148.283625" CO2_abs="1657334.238662" HC_abs="100.175590" PMx_abs="29.976594" NOx_abs="619.306267" fuel_abs="712.411995" electricity_abs="0"
            CO_normed="128.946895" CO2_normed="16253.688322" HC_normed="0.982435" PMx_normed="0.293984" NOx_normed="6.073616" fuel_normed="6.986715" electricity_normed="0"
            traveltime="0.89" CO_perVeh="22.388396" CO2_perVeh="2822.045522" HC_perVeh="0.170575" PMx_perVeh="0.051043" NOx_perVeh="1.054531" fuel_perVeh="1.213068" electricity_perVeh="0"/>
        <edge id=":11_0" sampledSeconds="273.29" CO_abs="16951.813607" CO2_abs="1217215.501860" HC_abs="105.935365" PMx_abs="21.878874" NOx_abs="500.227483" fuel_abs="523.226778" electricity_abs="0"
            CO_normed="175.267016" CO2_normed="12584.950122" HC_normed="1.095280" PMx_normed="0.226209" NOx_normed="5.171917" fuel_normed="5.409710" electricity_normed="0"
            traveltime="1.59" CO_perVeh="98.903887" CO2_perVeh="7101.738352" HC_perVeh="0.618071" PMx_perVeh="0.127650" NOx_perVeh="2.918534" fuel_perVeh="3.052721" electricity_perVeh="0"/>
        <edge id=":11_1" sampledSeconds="50.34" CO_abs="1222.212178" CO2_abs="101983.908125" HC_abs="7.904328" PMx_abs="1.428657" NOx_abs="39.147337" fuel_abs="43.838808" electricity_abs="0"
            CO_normed="12.956076" CO2_normed="1081.081762" HC_normed="0.083790" PMx_normed="0.015144" NOx_normed="0.414982" fuel_normed="0.464714" electricity_normed="0"
            traveltime="1.66" CO_perVeh="40.198405" CO2_perVeh="3354.237924" HC_perVeh="0.259972" PMx_perVeh="0.046988" NOx_perVeh="1.287551" fuel_perVeh="1.441853" electricity_perVeh="0"/>
        <edge id=":110_0" sampledSeconds="95.62" CO_abs="1.394323" CO2_abs="113.899310" HC_abs="0.008824" PMx_abs="0.000895" NOx_abs="0.039300" fuel_abs="0.048962" electricity_abs="0"
            CO_normed="0.018082" CO2_normed="1.477083" HC_normed="0.000114" PMx_normed="0.000012" NOx_normed="0.000510" fuel_normed="0.000635" electricity_normed="0"
            traveltime="0.94" CO_perVeh="0.013651" CO2_perVeh="1.115157" HC_perVeh="0.000086" PMx_perVeh="0.000009" NOx_perVeh="0.000385" fuel_perVeh="0.000479" electricity_perVeh="0"/>
        <edge id=":110_1" sampledSeconds="443.94" CO_abs="9951.539545" CO2_abs="1276680.354755" HC_abs="76.342552" PMx_abs="22.988129" NOx_abs="475.400357" fuel_abs="548.786451" electricity_abs="0"
            CO_normed="127.737917" CO2_normed="16387.463358" HC_normed="0.979933" PMx_normed="0.295076" NOx_normed="6.102237" fuel_normed="7.044220" electricity_normed="0"
            traveltime="0.68" CO_perVeh="15.287048" CO2_perVeh="1961.171368" HC_perVeh="0.117274" PMx_perVeh="0.035313" NOx_perVeh="0.730286" fuel_perVeh="0.843018" electricity_perVeh="0"/>
        <edge id=":111_0" sampledSeconds="341.05" CO_abs="8010.299709" CO2_abs="1008542.060832" HC_abs="60.953519" PMx_abs="18.244323" NOx_abs="376.776620" fuel_abs="433.525992" electricity_abs="0"
            CO_normed="185.000798" CO2_normed="23292.647334" HC_normed="1.407744" PMx_normed="0.421359" NOx_normed="8.701794" fuel_normed="10.012441" electricity_normed="0"
            traveltime="0.38" CO_perVeh="8.902213" CO2_perVeh="1120.838949" HC_perVeh="0.067740" PMx_perVeh="0.020276" NOx_perVeh="0.418729" fuel_perVeh="0.481797" electricity_perVeh="0"/>
        <edge id=":114_0" sampledSeconds="108.21" CO_abs="9914.259324" CO2_abs="717241.037514" HC_abs="62.404777" PMx_abs="14.472599" NOx_abs="303.022133" fuel_abs="308.307727" electricity_abs="0"
            CO_normed="131.740353" CO2_normed="9530.675402" HC_normed="0.829233" PMx_normed="0.192311" NOx_normed="4.026548" fuel_normed="4.096783" electricity_normed="0"
            traveltime="1.00" CO_perVeh="91.717960" CO2_perVeh="6635.279802" HC_perVeh="0.577314" PMx_perVeh="0.133888" NOx_perVeh="2.803293" fuel_perVeh="2.852190" electricity_perVeh="0"/>
        <edge id=":114_1" sampledSeconds="415.89" CO_abs="10571.401420" CO2_abs="1266142.624653" HC_abs="78.929174" PMx_abs="23.238079" NOx_abs="476.991776" fuel_abs="544.256413" electricity_abs="0"
            CO_normed="139.587725" CO2_normed="16718.499383" HC_normed="1.042203" PMx_normed="0.306842" NOx_normed="6.298332" fuel_normed="7.186513" electricity_normed="0"
            traveltime="0.66" CO_perVeh="16.845230" CO2_perVeh="2017.562546" HC_perVeh="0.125771" PMx_perVeh="0.037029" NOx_perVeh="0.760073" fuel_perVeh="0.867257" electricity_perVeh="0"/>
        <edge id=":115_0" sampledSeconds="79.99" CO_abs="138.113984" CO2_abs="16379.501009" HC_abs="1.009720" PMx_abs="0.236751" NOx_abs="6.204200" fuel_abs="7.040846" electricity_abs="0"
            CO_normed="3.121031" CO2_normed="370.135793" HC_normed="0.022817" PMx_normed="0.005350" NOx_normed="0.140199" fuel_normed="0.159106" electricity_normed="0"
            traveltime="0.63" CO_perVeh="1.086846" CO2_perVeh="128.893444" HC_perVeh="0.007946" PMx_perVeh="0.001863" NOx_perVeh="0.048822" fuel_perVeh="0.055406" electricity_perVeh="0"/>
        <edge id=":115_1" sampledSeconds="72.40" CO_abs="979.035726" CO2_abs="154584.693529" HC_abs="7.913572" PMx_abs="2.259942" NOx_abs="57.182931" fuel_abs="66.449147" electricity_abs="0"
            CO_normed="19.757583" CO2_normed="3119.620540" HC_normed="0.159701" PMx_normed="0.045607" NOx_normed="1.153989" fuel_normed="1.340987" electricity_normed="0"
            traveltime="0.59" CO_perVeh="8.015046" CO2_perVeh="1265.534440" HC_perVeh="0.064786" PMx_perVeh="0.018501" NOx_perVeh="0.468138" fuel_perVeh="0.543997" electricity_perVeh="0"/>
        <edge id=":116_0" sampledSeconds="74.88" CO_abs="115.159800" CO2_abs="13074.839096" HC_abs="0.826003" PMx_abs="0.179324" NOx_abs="4.913109" fuel_abs="5.620330" electricity_abs="0"
            CO_normed="2.905000" CO2_normed="329.823539" HC_normed="0.020837" PMx_normed="0.004524" NOx_normed="0.123937" fuel_normed="0.141777" electricity_normed="0"
            traveltime="0.57" CO_perVeh="0.869543" CO2_perVeh="98.724848" HC_perVeh="0.006237" PMx_perVeh="0.001354" NOx_perVeh="0.037098" fuel_perVeh="0.042438" electricity_perVeh="0"/>
        <edge id=":117_0" sampledSeconds="239.82" CO_abs="13452.767071" CO2_abs="1115835.371559" HC_abs="87.826367" PMx_abs="20.567722" NOx_abs="456.082164" fuel_abs="479.646002" electricity_abs="0"
            CO_normed="303.998919" CO2_normed="25215.091098" HC_normed="1.984656" PMx_normed="0.464779" NOx_normed="10.306317" fuel_normed="10.838801" electricity_normed="0"
            traveltime="0.60" CO_perVeh="33.883705" CO2_perVeh="2810.472876" HC_perVeh="0.221210" PMx_perVeh="0.051804" NOx_perVeh="1.148742" fuel_perVeh="1.208092" electricity_perVeh="0"/>
        <edge id=":117_1" sampledSeconds="76.34" CO_abs="4811.576770" CO2_abs="377144.470357" HC_abs="30.925847" PMx_abs="7.155404" NOx_abs="155.919518" fuel_abs="162.116830" electricity_abs="0"
            CO_normed="102.470909" CO2_normed="8031.948505" HC_normed="0.658620" PMx_normed="0.152387" NOx_normed="3.320578" fuel_normed="3.452560" electricity_normed="0"
            traveltime="0.65" CO_perVeh="40.679189" CO2_perVeh="3188.545481" HC_perVeh="0.261461" PMx_perVeh="0.060495" NOx_perVeh="1.318212" fuel_perVeh="1.370607" electricity_perVeh="0"/>
        <edge id=":118_0" sampledSeconds="898.71" CO_abs="13659.267852" CO2_abs="2077100.488218" HC_abs="108.990296" PMx_abs="30.869175" NOx_abs="771.739406" fuel_abs="892.853667" electricity_abs="0"
            CO_normed="41.443245" CO2_normed="6302.079011" HC_normed="0.330685" PMx_normed="0.093659" NOx_normed="2.341515" fuel_normed="2.708985" electricity_normed="0"
            traveltime="3.92" CO_perVeh="59.593028" CO2_perVeh="9062.030855" HC_perVeh="0.475506" PMx_perVeh="0.134677" NOx_perVeh="3.366966" fuel_perVeh="3.895366" electricity_perVeh="0"/>
        <edge id=":118_4" sampledSeconds="282.28" CO_abs="3994.170427" CO2_abs="656527.299216" HC_abs="32.703261" PMx_abs="9.432968" NOx_abs="240.943947" fuel_abs="282.212327" electricity_abs="0"
            CO_normed="12.142042" CO2_normed="1995.804220" HC_normed="0.099416" PMx_normed="0.028676" NOx_normed="0.732455" fuel_normed="0.857909" electricity_normed="0"
            traveltime="3.91" CO_perVeh="55.376699" CO2_perVeh="9102.344338" HC_perVeh="0.453410" PMx_perVeh="0.130782" NOx_perVeh="3.340539" fuel_perVeh="3.912699" electricity_perVeh="0"/>
        <edge id=":118_5" sampledSeconds="238.07" CO_abs="3786.465777" CO2_abs="541214.838313" HC_abs="29.498166" PMx_abs="8.354991" NOx_abs="203.174294" fuel_abs="232.644044" electricity_abs="0"
            CO_normed="11.624877" CO2_normed="1661.590620" HC_normed="0.090563" PMx_normed="0.025651" NOx_normed="0.623768" fuel_normed="0.714243" electricity_normed="0"
            traveltime="3.81" CO_perVeh="60.600333" CO2_perVeh="8661.850216" HC_perVeh="0.472102" PMx_perVeh="0.133717" NOx_perVeh="3.251694" fuel_perVeh="3.723342" electricity_perVeh="0"/>
        <edge id=":119_0" sampledSeconds="139.32" CO_abs="1630.165875" CO2_abs="281242.660354" HC_abs="13.795063" PMx_abs="4.044709" NOx_abs="103.150053" fuel_abs="120.893862" electricity_abs="0"
            CO_normed="34.953930" CO2_normed="6030.390251" HC_normed="0.295793" PMx_normed="0.086726" NOx_normed="2.211738" fuel_normed="2.592200" electricity_normed="0"
            traveltime="0.56" CO_perVeh="6.535219" CO2_perVeh="1127.481851" HC_perVeh="0.055303" PMx_perVeh="0.016215" NOx_perVeh="0.413521" fuel_perVeh="0.484655" electricity_perVeh="0"/>
        <edge id=":12_0" sampledSeconds="593.45" CO_abs="55419.071557" CO2_abs="3137514.632968" HC_abs="326.904804" PMx_abs="61.754856" NOx_abs="1338.849519" fuel_abs="1348.678222" electricity_abs="0"
            CO_normed="519.214332" CO2_normed="29394.981184" HC_normed="3.062730" PMx_normed="0.578574" NOx_normed="12.543513" fuel_normed="12.635597" electricity_normed="0"
            traveltime="2.12" CO_perVeh="198.389034" CO2_perVeh="11231.665903" HC_perVeh="1.170253" PMx_perVeh="0.221070" NOx_perVeh="4.792810" fuel_perVeh="4.827994" electricity_perVeh="0"/>
        <edge id=":12_1" sampledSeconds="56.30" CO_abs="1130.118547" CO2_abs="101155.031835" HC_abs="7.447059" PMx_abs="1.299031" NOx_abs="37.977539" fuel_abs="43.482627" electricity_abs="0"
            CO_normed="10.577435" CO2_normed="946.768622" HC_normed="0.069701" PMx_normed="0.012158" NOx_normed="0.355454" fuel_normed="0.406979" electricity_normed="0"
            traveltime="1.90" CO_perVeh="38.109176" CO2_perVeh="3411.088990" HC_perVeh="0.251125" PMx_perVeh="0.043805" NOx_perVeh="1.280656" fuel_perVeh="1.466295" electricity_perVeh="0"/>
        <edge id=":120_0" sampledSeconds="39.20" CO_abs="493.418086" CO2_abs="83524.212163" HC_abs="4.094566" PMx_abs="1.198604" NOx_abs="30.565289" fuel_abs="35.903398" electricity_abs="0"
            CO_normed="387.927632" CO2_normed="65667.130481" HC_normed="3.219167" PMx_normed="0.942349" NOx_normed="24.030575" fuel_normed="28.227421" electricity_normed="0"
            traveltime="0.02" CO_perVeh="0.189852" CO2_perVeh="32.137573" HC_perVeh="0.001575" PMx_perVeh="0.000461" NOx_perVeh="0.011761" fuel_perVeh="0.013815" electricity_perVeh="0"/>
        <edge id=":121_0" sampledSeconds="373.19" CO_abs="53089.875236" CO2_abs="1423145.085096" HC_abs="275.157021" PMx_abs="30.707707" NOx_abs="629.327081" fuel_abs="611.766196" electricity_abs="0"
            CO_normed="30356.007931" CO2_normed="813733.377543" HC_normed="157.330728" PMx_normed="17.558214" NOx_normed="359.839946" fuel_normed="349.798891" electricity_normed="0"
            traveltime="0.11" CO_perVeh="16.298576" CO2_perVeh="436.905127" HC_perVeh="0.084473" PMx_perVeh="0.009427" NOx_perVeh="0.193203" fuel_perVeh="0.187812" electricity_perVeh="0"/>
        <edge id=":122_0" sampledSeconds="135.41" CO_abs="694.341298" CO2_abs="82502.366910" HC_abs="5.036127" PMx_abs="1.363297" NOx_abs="31.775592" fuel_abs="35.464015" electricity_abs="0"
            CO_normed="15.287591" CO2_normed="1816.487773" HC_normed="0.110882" PMx_normed="0.030016" NOx_normed="0.699616" fuel_normed="0.780825" electricity_normed="0"
            traveltime="0.54" CO_perVeh="2.764610" CO2_perVeh="328.493855" HC_perVeh="0.020052" PMx_perVeh="0.005428" NOx_perVeh="0.126519" fuel_perVeh="0.141205" electricity_perVeh="0"/>
        <edge id=":123_0" sampledSeconds="321.45" CO_abs="40721.141721" CO2_abs="2464154.298329" HC_abs="244.526584" PMx_abs="50.367707" NOx_abs="1056.727202" fuel_abs="1059.225976" electricity_abs="0"
            CO_normed="155.287732" CO2_normed="9396.910715" HC_normed="0.932488" PMx_normed="0.192074" NOx_normed="4.029768" fuel_normed="4.039297" electricity_normed="0"
            traveltime="4.38" CO_perVeh="554.543003" CO2_perVeh="33557.004214" HC_perVeh="3.329978" PMx_perVeh="0.685911" NOx_perVeh="14.390576" fuel_perVeh="14.424604" electricity_perVeh="0"/>
        <edge id=":123_1" sampledSeconds="0.00" CO_abs="0" CO2_abs="0" HC_abs="0" PMx_abs="0" NOx_abs="0" fuel_abs="0" electricity_abs="0"
            CO_normed="0" CO2_normed="0" HC_normed="0" PMx_normed="0" NOx_normed="0" fuel_normed="0" electricity_normed="0"/>
        <edge id=":123_2" sampledSeconds="267.93" CO_abs="35160.089393" CO2_abs="2156886.319896" HC_abs="211.900380" PMx_abs="44.354862" NOx_abs="926.066085" fuel_abs="927.144922" electricity_abs="0"
            CO_normed="135.366799" CO2_normed="8304.040262" HC_normed="0.815819" PMx_normed="0.170767" NOx_normed="3.565366" fuel_normed="3.569520" electricity_normed="0"
            traveltime="4.21" CO_perVeh="552.646494" CO2_perVeh="33901.952015" HC_perVeh="3.330651" PMx_perVeh="0.697170" NOx_perVeh="14.555912" fuel_perVeh="14.572869" electricity_perVeh="0"/>
        <edge id=":123_3" sampledSeconds="468.58" CO_abs="23838.765173" CO2_abs="2176207.137545" HC_abs="160.097782" PMx_abs="41.106495" NOx_abs="877.997858" fuel_abs="935.448910" electricity_abs="0"
            CO_normed="93.906388" CO2_normed="8572.581244" HC_normed="0.630662" PMx_normed="0.161928" NOx_normed="3.458636" fuel_normed="3.684949" electricity_normed="0"
            traveltime="2.80" CO_perVeh="142.684667" CO2_perVeh="13025.481318" HC_perVeh="0.958250" PMx_perVeh="0.246039" NOx_perVeh="5.255173" fuel_perVeh="5.599041" electricity_perVeh="0"/>
        <edge id=":123_5" sampledSeconds="0.00" CO_abs="0" CO2_abs="0" HC_abs="0" PMx_abs="0" NOx_abs="0" fuel_abs="0" electricity_abs="0"
            CO_normed="0" CO2_normed="0" HC_normed="0" PMx_normed="0" NOx_normed="0" fuel_normed="0" electricity_normed="0"/>
        <edge id=":123_6" sampledSeconds="194.75" CO_abs="9062.692584" CO2_abs="885185.416013" HC_abs="62.115322" PMx_abs="16.243531" NOx_abs="352.823755" fuel_abs="380.499804" electricity_abs="0"
            CO_normed="34.483396" CO2_normed="3368.115954" HC_normed="0.236348" PMx_normed="0.061806" NOx_normed="1.342489" fuel_normed="1.447795" electricity_normed="0"
            traveltime="2.91" CO_perVeh="135.581954" CO2_perVeh="13242.771614" HC_perVeh="0.929273" PMx_perVeh="0.243011" NOx_perVeh="5.278402" fuel_perVeh="5.692448" electricity_perVeh="0"/>
        <edge id=":124_0" sampledSeconds="117.92" CO_abs="4573.240889" CO2_abs="387274.200218" HC_abs="29.975189" PMx_abs="7.575043" NOx_abs="158.469759" fuel_abs="166.470750" electricity_abs="0"
            CO_normed="107.062142" CO2_normed="9066.306912" HC_normed="0.701736" PMx_normed="0.177336" NOx_normed="3.709866" fuel_normed="3.897174" electricity_normed="0"
            traveltime="0.46" CO_perVeh="17.812158" CO2_perVeh="1508.380892" HC_perVeh="0.116749" PMx_perVeh="0.029504" NOx_perVeh="0.617218" fuel_perVeh="0.648381" electricity_perVeh="0"/>
        <edge id=":125_0" sampledSeconds="141.07" CO_abs="6176.528856" CO2_abs="606998.388576" HC_abs="42.614830" PMx_abs="11.442172" NOx_abs="240.955217" fuel_abs="260.920041" electricity_abs="0"
            CO_normed="388.481295" CO2_normed="38178.000225" HC_normed="2.680318" PMx_normed="0.719671" NOx_normed="15.155210" fuel_normed="16.410926" electricity_normed="0"
            traveltime="0.16" CO_perVeh="7.073711" CO2_perVeh="695.168989" HC_perVeh="0.048805" PMx_perVeh="0.013104" NOx_perVeh="0.275956" fuel_perVeh="0.298820" electricity_perVeh="0"/>
        <edge id=":125_3" sampledSeconds="0.00" CO_abs="0" CO2_abs="0" HC_abs="0" PMx_abs="0" NOx_abs="0" fuel_abs="0" electricity_abs="0"
            CO_normed="0" CO2_normed="0" HC_normed="0" PMx_normed="0" NOx_normed="0" fuel_normed="0" electricity_normed="0"/>
        <edge id=":126_0" sampledSeconds="25.20" CO_abs="135.722484" CO2_abs="9777.629923" HC_abs="0.842820" PMx_abs="0.144732" NOx_abs="3.827890" fuel_abs="4.203014" electricity_abs="0"
            CO_normed="4.469347" CO2_normed="321.977754" HC_normed="0.027754" PMx_normed="0.004766" NOx_normed="0.126053" fuel_normed="0.138405" electricity_normed="0"
            traveltime="0.56" CO_perVeh="3.020006" CO2_perVeh="217.565256" HC_perVeh="0.018754" PMx_perVeh="0.003220" NOx_perVeh="0.085176" fuel_perVeh="0.093523" electricity_perVeh="0"/>
        <edge id=":126_1" sampledSeconds="80.84" CO_abs="1281.089813" CO2_abs="206955.906744" HC_abs="10.503155" PMx_abs="3.271692" NOx_abs="76.033131" fuel_abs="88.961036" electricity_abs="0"
            CO_normed="37.535362" CO2_normed="6063.715987" HC_normed="0.307738" PMx_normed="0.095859" NOx_normed="2.227737" fuel_normed="2.606519" electricity_normed="0"
            traveltime="0.35" CO_perVeh="5.543501" CO2_perVeh="895.534538" HC_perVeh="0.045449" PMx_perVeh="0.014157" NOx_perVeh="0.329009" fuel_perVeh="0.384950" electricity_perVeh="0"/>
        <edge id=":127_0" sampledSeconds="234.82" CO_abs="4748.916736" CO2_abs="660969.429668" HC_abs="36.787138" PMx_abs="11.010478" NOx_abs="247.339495" fuel_abs="284.120675" electricity_abs="0"
            CO_normed="109.812376" CO2_normed="15284.037955" HC_normed="0.850654" PMx_normed="0.254603" NOx_normed="5.719396" fuel_normed="6.569912" electricity_normed="0"
            traveltime="0.44" CO_perVeh="8.880623" CO2_perVeh="1236.033599" HC_perVeh="0.068793" PMx_perVeh="0.020590" NOx_perVeh="0.462533" fuel_perVeh="0.531315" electricity_perVeh="0"/>
        <edge id=":128_0" sampledSeconds="229.82" CO_abs="654.400894" CO2_abs="64632.520818" HC_abs="4.483591" PMx_abs="1.133382" NOx_abs="25.639853" fuel_abs="27.782548" electricity_abs="0"
            CO_normed="10.112886" CO2_normed="998.808716" HC_normed="0.069288" PMx_normed="0.017515" NOx_normed="0.396229" fuel_normed="0.429342" electricity_normed="0"
            traveltime="0.76" CO_perVeh="2.151254" CO2_perVeh="212.470622" HC_perVeh="0.014739" PMx_perVeh="0.003726" NOx_perVeh="0.084288" fuel_perVeh="0.091331" electricity_perVeh="0"/>
        <edge id=":128_1" sampledSeconds="141.79" CO_abs="271.473651" CO2_abs="30243.037368" HC_abs="1.934900" PMx_abs="0.442747" NOx_abs="11.535472" fuel_abs="13.000186" electricity_abs="0"
            CO_normed="4.333683" CO2_normed="482.786172" HC_normed="0.030888" PMx_normed="0.007068" NOx_normed="0.184147" fuel_normed="0.207529" electricity_normed="0"
            traveltime="0.85" CO_perVeh="1.627330" CO2_perVeh="181.289818" HC_perVeh="0.011599" PMx_perVeh="0.002654" NOx_perVeh="0.069149" fuel_perVeh="0.077929" electricity_perVeh="0"/>
        <edge id=":129_0" sampledSeconds="104.64" CO_abs="5899.322136" CO2_abs="535880.158414" HC_abs="39.521826" PMx_abs="10.027878" NOx_abs="216.561388" fuel_abs="230.349699" electricity_abs="0"
            CO_normed="137.424443" CO2_normed="12483.304119" HC_normed="0.920659" PMx_normed="0.233599" NOx_normed="5.044788" fuel_normed="5.365986" electricity_normed="0"
            traveltime="0.50" CO_perVeh="27.959691" CO2_perVeh="2539.790693" HC_perVeh="0.187313" PMx_perVeh="0.047527" NOx_perVeh="1.026387" fuel_perVeh="1.091737" electricity_perVeh="0"/>
        <edge id=":13_0" sampledSeconds="59.27" CO_abs="5122.130512" CO2_abs="364219.934886" HC_abs="32.038666" PMx_abs="7.113996" NOx_abs="153.023515" fuel_abs="156.561152" electricity_abs="0"
            CO_normed="36.211704" CO2_normed="2574.909866" HC_normed="0.226502" PMx_normed="0.050294" NOx_normed="1.081824" fuel_normed="1.106834" electricity_normed="0"
            traveltime="2.10" CO_perVeh="181.177989" CO2_perVeh="12883.044506" HC_perVeh="1.133259" PMx_perVeh="0.251633" NOx_perVeh="5.412688" fuel_perVeh="5.537820" electricity_perVeh="0"/>
        <edge id=":13_1" sampledSeconds="529.48" CO_abs="14002.421032" CO2_abs="1054417.608251" HC_abs="88.074535" PMx_abs="15.791125" NOx_abs="412.888959" fuel_abs="453.251457" electricity_abs="0"
            CO_normed="139.498665" CO2_normed="10504.601165" HC_normed="0.877440" PMx_normed="0.157319" NOx_normed="4.113393" fuel_normed="4.515503" electricity_normed="0"
            traveltime="1.85" CO_perVeh="48.885782" CO2_perVeh="3681.222615" HC_perVeh="0.307489" PMx_perVeh="0.055131" NOx_perVeh="1.441494" fuel_perVeh="1.582409" electricity_perVeh="0"/>
        <edge id=":132_0" sampledSeconds="41.08" CO_abs="567.837353" CO2_abs="86153.662811" HC_abs="4.556790" PMx_abs="1.283905" NOx_abs="32.085427" fuel_abs="37.033647" electricity_abs="0"
            CO_normed="1071.447388" CO2_normed="162562.600828" HC_normed="8.598167" PMx_normed="2.422589" NOx_normed="60.541714" fuel_normed="69.878467" electricity_normed="0"
            traveltime="6.368496e-03" CO_perVeh="0.088030" CO2_perVeh="13.356122" HC_perVeh="0.000706" PMx_perVeh="0.000199" NOx_perVeh="0.004974" fuel_perVeh="0.005741" electricity_perVeh="0"/>