<?xml version="1.0" encoding="UTF-8"?>

<!-- generated on Wed Sep 30 00:16:21 2020 by Eclipse SUMO Version 1.1.0
<configuration xmlns:xsi="http://www.w3.org/2001/XMLSchema-instance" xsi:noNamespaceSchemaLocation="http://sumo.dlr.de/xsd/sumoConfiguration.xsd">

    <input>
        <net-file value="../dataSets/Angeja_Estarreja/angeja_estarreja.net.xml"/>
        <route-files value="../results/angeja_estarreja/length-ttime/solution15/angeja_estarreja.rou.xml"/>
        <additional-files value="moreOutputInfo.xml"/>
    </input>

    <output>
        <emission-output.precision value="6"/>
        <tripinfo-output value="../results/angeja_estarreja/length-ttime/solution15/angeja_estarreja-tripinfo"/>
    </output>

    <processing>
        <collision.action value="warn"/>
        <time-to-teleport value="-1"/>
    </processing>

    <emissions>
        <device.emissions.probability value="1"/>
    </emissions>

    <gui_only>
        <quit-on-end value="true"/>
        <start value="true"/>
    </gui_only>

</configuration>
-->

<meandata xmlns:xsi="http://www.w3.org/2001/XMLSchema-instance" xsi:noNamespaceSchemaLocation="http://sumo.dlr.de/xsd/meandata_file.xsd">
    <interval begin="0.00" end="19077.00" id="emissions-detector">
        <edge id=":10_0" sampledSeconds="389.91" CO_abs="39533.176839" CO2_abs="2164169.534682" HC_abs="231.363835" PMx_abs="42.495097" NOx_abs="923.915673" fuel_abs="930.281546" electricity_abs="0"
            CO_normed="426.544481" CO2_normed="23350.376673" HC_normed="2.496308" PMx_normed="0.458502" NOx_normed="9.968618" fuel_normed="10.037303" electricity_normed="0"
            traveltime="1.92" CO_perVeh="194.310719" CO2_perVeh="10637.175461" HC_perVeh="1.137183" PMx_perVeh="0.208869" NOx_perVeh="4.541166" fuel_perVeh="4.572455" electricity_perVeh="0"/>
        <edge id=":10_1" sampledSeconds="0.00" CO_abs="0" CO2_abs="0" HC_abs="0" PMx_abs="0" NOx_abs="0" fuel_abs="0" electricity_abs="0"
            CO_normed="0" CO2_normed="0" HC_normed="0" PMx_normed="0" NOx_normed="0" fuel_normed="0" electricity_normed="0"/>
        <edge id=":100_0" sampledSeconds="0.00" CO_abs="0" CO2_abs="0" HC_abs="0" PMx_abs="0" NOx_abs="0" fuel_abs="0" electricity_abs="0"
            CO_normed="0" CO2_normed="0" HC_normed="0" PMx_normed="0" NOx_normed="0" fuel_normed="0" electricity_normed="0"/>
        <edge id=":100_1" sampledSeconds="911.49" CO_abs="22929.542984" CO2_abs="2772704.898572" HC_abs="171.860905" PMx_abs="50.765411" NOx_abs="1042.629750" fuel_abs="1191.858284" electricity_abs="0"
            CO_normed="146.380555" CO2_normed="17700.748889" HC_normed="1.097148" PMx_normed="0.324083" NOx_normed="6.656073" fuel_normed="7.608738" electricity_normed="0"
            traveltime="1.37" CO_perVeh="34.476605" CO2_perVeh="4169.008105" HC_perVeh="0.258408" PMx_perVeh="0.076330" NOx_perVeh="1.567686" fuel_perVeh="1.792065" electricity_perVeh="0"/>
        <edge id=":101_0" sampledSeconds="438.60" CO_abs="10492.046645" CO2_abs="1297812.982639" HC_abs="79.233119" PMx_abs="23.587718" NOx_abs="486.156717" fuel_abs="557.870216" electricity_abs="0"
            CO_normed="242.343054" CO2_normed="29976.607316" HC_normed="1.830110" PMx_normed="0.544824" NOx_normed="11.229144" fuel_normed="12.885567" electricity_normed="0"
            traveltime="0.38" CO_perVeh="9.063766" CO2_perVeh="1121.141881" HC_perVeh="0.068447" PMx_perVeh="0.020377" NOx_perVeh="0.419976" fuel_perVeh="0.481927" electricity_perVeh="0"/>
        <edge id=":102_0" sampledSeconds="341.33" CO_abs="8679.929367" CO2_abs="1083067.324716" HC_abs="65.865700" PMx_abs="19.651561" NOx_abs="405.220874" fuel_abs="465.560949" electricity_abs="0"
            CO_normed="202.219761" CO2_normed="25232.649548" HC_normed="1.534499" PMx_normed="0.457830" NOx_normed="9.440592" fuel_normed="10.846358" electricity_normed="0"
            traveltime="0.38" CO_perVeh="9.548683" CO2_perVeh="1191.468933" HC_perVeh="0.072458" PMx_perVeh="0.021618" NOx_perVeh="0.445778" fuel_perVeh="0.512158" electricity_perVeh="0"/>
        <edge id=":103_0" sampledSeconds="434.01" CO_abs="10843.931444" CO2_abs="1310001.393322" HC_abs="81.263821" PMx_abs="23.996987" NOx_abs="492.626956" fuel_abs="563.109334" electricity_abs="0"
            CO_normed="254.204541" CO2_normed="30709.185533" HC_normed="1.904995" PMx_normed="0.562540" NOx_normed="11.548211" fuel_normed="13.200466" electricity_normed="0"
            traveltime="0.37" CO_perVeh="9.316689" CO2_perVeh="1125.502819" HC_perVeh="0.069819" PMx_perVeh="0.020617" NOx_perVeh="0.423246" fuel_perVeh="0.483802" electricity_perVeh="0"/>
        <edge id=":104_0" sampledSeconds="341.01" CO_abs="8171.665760" CO2_abs="1032296.100273" HC_abs="62.293863" PMx_abs="18.664226" NOx_abs="385.389295" fuel_abs="443.736782" electricity_abs="0"
            CO_normed="190.613868" CO2_normed="24079.539998" HC_normed="1.453079" PMx_normed="0.435365" NOx_normed="8.989666" fuel_normed="10.350691" electricity_normed="0"
            traveltime="0.37" CO_perVeh="8.985443" CO2_perVeh="1135.097488" HC_perVeh="0.068497" PMx_perVeh="0.020523" NOx_perVeh="0.423768" fuel_perVeh="0.487926" electricity_perVeh="0"/>
        <edge id=":105_0" sampledSeconds="168.61" CO_abs="4057.861705" CO2_abs="517597.281715" HC_abs="31.054333" PMx_abs="9.332847" NOx_abs="192.953613" fuel_abs="222.491367" electricity_abs="0"
            CO_normed="3480.703116" CO2_normed="443978.282791" HC_normed="26.637407" PMx_normed="8.005415" NOx_normed="165.509397" fuel_normed="190.845931" electricity_normed="0"
            traveltime="0.01" CO_perVeh="0.245388" CO2_perVeh="31.300206" HC_perVeh="0.001878" PMx_perVeh="0.000564" NOx_perVeh="0.011668" fuel_perVeh="0.013455" electricity_perVeh="0"/>
        <edge id=":106_0" sampledSeconds="134.61" CO_abs="2734.611475" CO2_abs="365634.906498" HC_abs="21.335483" PMx_abs="6.509038" NOx_abs="135.305823" fuel_abs="157.169765" electricity_abs="0"
            CO_normed="1664.663124" CO2_normed="222576.022705" HC_normed="12.987729" PMx_normed="3.962302" NOx_normed="82.365856" fuel_normed="95.675278" electricity_normed="0"
            traveltime="0.01" CO_perVeh="0.292384" CO2_perVeh="39.093538" HC_perVeh="0.002281" PMx_perVeh="0.000696" NOx_perVeh="0.014467" fuel_perVeh="0.016805" electricity_perVeh="0"/>
        <edge id=":107_0" sampledSeconds="438.19" CO_abs="11712.936144" CO2_abs="1404356.520522" HC_abs="87.480702" PMx_abs="25.764971" NOx_abs="528.988058" fuel_abs="603.668207" electricity_abs="0"
            CO_normed="270.542899" CO2_normed="32437.527217" HC_normed="2.020611" PMx_normed="0.595114" NOx_normed="12.218453" fuel_normed="13.943399" electricity_normed="0"
            traveltime="0.38" CO_perVeh="10.118466" CO2_perVeh="1213.182907" HC_perVeh="0.075572" PMx_perVeh="0.022258" NOx_perVeh="0.456977" fuel_perVeh="0.521491" electricity_perVeh="0"/>
        <edge id=":108_0" sampledSeconds="93.42" CO_abs="8612.504109" CO2_abs="623547.618076" HC_abs="54.236200" PMx_abs="12.573667" NOx_abs="263.300830" fuel_abs="268.033411" electricity_abs="0"
            CO_normed="135.100276" CO2_normed="9781.296375" HC_normed="0.850778" PMx_normed="0.197237" NOx_normed="4.130276" fuel_normed="4.204513" electricity_normed="0"
            traveltime="0.85" CO_perVeh="78.262346" CO2_perVeh="5666.214959" HC_perVeh="0.492848" PMx_perVeh="0.114258" NOx_perVeh="2.392631" fuel_perVeh="2.435636" electricity_perVeh="0"/>
        <edge id=":108_1" sampledSeconds="402.68" CO_abs="9117.261107" CO2_abs="1168912.529037" HC_abs="69.829818" PMx_abs="21.030996" NOx_abs="435.343614" fuel_abs="502.461990" electricity_abs="0"
            CO_normed="133.372749" CO2_normed="17099.551693" HC_normed="1.021512" PMx_normed="0.307654" NOx_normed="6.368467" fuel_normed="7.350315" electricity_normed="0"
            traveltime="0.60" CO_perVeh="13.543917" CO2_perVeh="1736.448516" HC_perVeh="0.103734" PMx_perVeh="0.031242" NOx_perVeh="0.646714" fuel_perVeh="0.746420" electricity_perVeh="0"/>
        <edge id=":109_0" sampledSeconds="307.97" CO_abs="160.128494" CO2_abs="27633.237302" HC_abs="1.344357" PMx_abs="0.367310" NOx_abs="9.858058" fuel_abs="11.878368" electricity_abs="0"
            CO_normed="2.407783" CO2_normed="415.509026" HC_normed="0.020215" PMx_normed="0.005523" NOx_normed="0.148231" fuel_normed="0.178610" electricity_normed="0"
            traveltime="0.86" CO_perVeh="0.445067" CO2_perVeh="76.804907" HC_perVeh="0.003737" PMx_perVeh="0.001021" NOx_perVeh="0.027400" fuel_perVeh="0.033015" electricity_perVeh="0"/>
        <edge id=":109_1" sampledSeconds="524.91" CO_abs="11836.660211" CO2_abs="1544329.698625" HC_abs="91.423814" PMx_abs="27.671890" NOx_abs="573.730193" fuel_abs="663.836738" electricity_abs="0"
            CO_normed="116.095807" CO2_normed="15147.026203" HC_normed="0.896699" PMx_normed="0.271410" NOx_normed="5.627235" fuel_normed="6.511014" electricity_normed="0"
            traveltime="0.89" CO_perVeh="20.155013" CO2_perVeh="2629.625702" HC_perVeh="0.155673" PMx_perVeh="0.047119" NOx_perVeh="0.976926" fuel_perVeh="1.130356" electricity_perVeh="0"/>
        <edge id=":11_0" sampledSeconds="271.02" CO_abs="16950.399024" CO2_abs="1221936.746786" HC_abs="106.078004" PMx_abs="22.127165" NOx_abs="503.103143" fuel_abs="525.255937" electricity_abs="0"
            CO_normed="175.270764" CO2_normed="12635.088192" HC_normed="1.096869" PMx_normed="0.228800" NOx_normed="5.202194" fuel_normed="5.431259" electricity_normed="0"
            traveltime="1.58" CO_perVeh="98.895391" CO2_perVeh="7129.266505" HC_perVeh="0.618901" PMx_perVeh="0.129099" NOx_perVeh="2.935304" fuel_perVeh="3.064553" electricity_perVeh="0"/>
        <edge id=":11_1" sampledSeconds="51.63" CO_abs="1130.377956" CO2_abs="98514.737724" HC_abs="7.384425" PMx_abs="1.252821" NOx_abs="36.937873" fuel_abs="42.347707" electricity_abs="0"
            CO_normed="11.983843" CO2_normed="1044.416259" HC_normed="0.078287" PMx_normed="0.013282" NOx_normed="0.391601" fuel_normed="0.448954" electricity_normed="0"
            traveltime="1.70" CO_perVeh="37.177989" CO2_perVeh="3240.137346" HC_perVeh="0.242873" PMx_perVeh="0.041205" NOx_perVeh="1.214882" fuel_perVeh="1.392811" electricity_perVeh="0"/>
        <edge id=":110_0" sampledSeconds="94.38" CO_abs="1.157798" CO2_abs="1215.044490" HC_abs="0.033211" PMx_abs="0.012789" NOx_abs="0.407361" fuel_abs="0.522297" electricity_abs="0"
            CO_normed="0.015016" CO2_normed="15.758744" HC_normed="0.000431" PMx_normed="0.000166" NOx_normed="0.005283" fuel_normed="0.006774" electricity_normed="0"
            traveltime="0.92" CO_perVeh="0.011336" CO2_perVeh="11.896169" HC_perVeh="0.000325" PMx_perVeh="0.000125" NOx_perVeh="0.003988" fuel_perVeh="0.005114" electricity_perVeh="0"/>
        <edge id=":110_1" sampledSeconds="443.52" CO_abs="11311.327081" CO2_abs="1382401.079873" HC_abs="85.172977" PMx_abs="25.240367" NOx_abs="518.927473" fuel_abs="594.230688" electricity_abs="0"
            CO_normed="145.207366" CO2_normed="17746.354418" HC_normed="1.093395" PMx_normed="0.324019" NOx_normed="6.661649" fuel_normed="7.628342" electricity_normed="0"
            traveltime="0.68" CO_perVeh="17.375860" CO2_perVeh="2123.571103" HC_perVeh="0.130838" PMx_perVeh="0.038773" NOx_perVeh="0.797149" fuel_perVeh="0.912826" electricity_perVeh="0"/>
        <edge id=":111_0" sampledSeconds="340.89" CO_abs="8630.380667" CO2_abs="1054175.351875" HC_abs="64.930148" PMx_abs="19.242322" NOx_abs="395.765356" fuel_abs="453.141529" electricity_abs="0"
            CO_normed="199.342691" CO2_normed="24349.117313" HC_normed="1.499743" PMx_normed="0.444455" NOx_normed="9.141304" fuel_normed="10.466566" electricity_normed="0"
            traveltime="0.38" CO_perVeh="9.591321" CO2_perVeh="1171.551343" HC_perVeh="0.072160" PMx_perVeh="0.021385" NOx_perVeh="0.439831" fuel_perVeh="0.503596" electricity_perVeh="0"/>
        <edge id=":114_0" sampledSeconds="107.39" CO_abs="11020.066215" CO2_abs="775310.305718" HC_abs="68.900103" PMx_abs="15.969255" NOx_abs="330.023058" fuel_abs="333.268664" electricity_abs="0"
            CO_normed="146.449631" CO2_normed="10303.378010" HC_normed="0.915638" PMx_normed="0.212221" NOx_normed="4.385795" fuel_normed="4.428927" electricity_normed="0"
            traveltime="0.99" CO_perVeh="101.947907" CO2_perVeh="7172.485320" HC_perVeh="0.637403" PMx_perVeh="0.147733" NOx_perVeh="3.053081" fuel_perVeh="3.083107" electricity_perVeh="0"/>
        <edge id=":114_1" sampledSeconds="416.52" CO_abs="10221.727219" CO2_abs="1268606.824590" HC_abs="77.300634" PMx_abs="23.032873" NOx_abs="475.030119" fuel_abs="545.315842" electricity_abs="0"
            CO_normed="134.984679" CO2_normed="16752.793515" HC_normed="1.020806" PMx_normed="0.304164" NOx_normed="6.273087" fuel_normed="7.201257" electricity_normed="0"
            traveltime="0.66" CO_perVeh="16.288034" CO2_perVeh="2021.489179" HC_perVeh="0.123176" PMx_perVeh="0.036702" NOx_perVeh="0.756947" fuel_perVeh="0.868945" electricity_perVeh="0"/>
        <edge id=":115_0" sampledSeconds="80.35" CO_abs="148.307338" CO2_abs="16745.812063" HC_abs="1.065346" PMx_abs="0.248209" NOx_abs="6.401217" fuel_abs="7.198302" electricity_abs="0"
            CO_normed="3.351727" CO2_normed="378.453180" HC_normed="0.024077" PMx_normed="0.005609" NOx_normed="0.144667" fuel_normed="0.162681" electricity_normed="0"
            traveltime="0.63" CO_perVeh="1.167059" CO2_perVeh="131.776016" HC_perVeh="0.008383" PMx_perVeh="0.001953" NOx_perVeh="0.050372" fuel_perVeh="0.056645" electricity_perVeh="0"/>
        <edge id=":115_1" sampledSeconds="72.45" CO_abs="1069.639394" CO2_abs="158322.867241" HC_abs="8.477833" PMx_abs="2.393302" NOx_abs="59.152845" fuel_abs="68.055963" electricity_abs="0"
            CO_normed="21.588288" CO2_normed="3195.394303" HC_normed="0.171106" PMx_normed="0.048303" NOx_normed="1.193868" fuel_normed="1.373558" electricity_normed="0"
            traveltime="0.59" CO_perVeh="8.756789" CO2_perVeh="1296.137649" HC_perVeh="0.069405" PMx_perVeh="0.019593" NOx_perVeh="0.484265" fuel_perVeh="0.557152" electricity_perVeh="0"/>
        <edge id=":116_0" sampledSeconds="75.13" CO_abs="59.015967" CO2_abs="8273.958259" HC_abs="0.458009" PMx_abs="0.101673" NOx_abs="3.015466" fuel_abs="3.556639" electricity_abs="0"
            CO_normed="1.488882" CO2_normed="208.739264" HC_normed="0.011555" PMx_normed="0.002565" NOx_normed="0.076076" fuel_normed="0.089729" electricity_normed="0"
            traveltime="0.57" CO_perVeh="0.445615" CO2_perVeh="62.474595" HC_perVeh="0.003458" PMx_perVeh="0.000768" NOx_perVeh="0.022769" fuel_perVeh="0.026855" electricity_perVeh="0"/>
        <edge id=":117_0" sampledSeconds="240.32" CO_abs="12778.704480" CO2_abs="1090093.309238" HC_abs="84.031950" PMx_abs="19.681099" NOx_abs="442.418437" fuel_abs="468.581039" electricity_abs="0"
            CO_normed="288.797063" CO2_normed="24635.967337" HC_normed="1.899111" PMx_normed="0.444790" NOx_normed="9.998599" fuel_normed="10.589871" electricity_normed="0"
            traveltime="0.60" CO_perVeh="32.144671" CO2_perVeh="2742.116102" HC_perVeh="0.211381" PMx_perVeh="0.049508" NOx_perVeh="1.112898" fuel_perVeh="1.178710" electricity_perVeh="0"/>
        <edge id=":117_1" sampledSeconds="76.05" CO_abs="4615.839245" CO2_abs="380187.750968" HC_abs="30.070685" PMx_abs="7.016509" NOx_abs="155.562297" fuel_abs="163.425128" electricity_abs="0"
            CO_normed="98.312644" CO2_normed="8097.609317" HC_normed="0.640475" PMx_normed="0.149444" NOx_normed="3.313317" fuel_normed="3.480788" electricity_normed="0"
            traveltime="0.64" CO_perVeh="39.024338" CO2_perVeh="3214.274715" HC_perVeh="0.254231" PMx_perVeh="0.059321" NOx_perVeh="1.315192" fuel_perVeh="1.381668" electricity_perVeh="0"/>
        <edge id=":118_0" sampledSeconds="897.96" CO_abs="13277.116447" CO2_abs="1993488.500791" HC_abs="105.287091" PMx_abs="29.809234" NOx_abs="741.638367" fuel_abs="856.912436" electricity_abs="0"
            CO_normed="40.287993" CO2_normed="6049.028060" HC_normed="0.319482" PMx_normed="0.090453" NOx_normed="2.250422" fuel_normed="2.600209" electricity_normed="0"
            traveltime="3.92" CO_perVeh="57.924349" CO2_perVeh="8697.033351" HC_perVeh="0.459338" PMx_perVeh="0.130049" NOx_perVeh="3.235561" fuel_perVeh="3.738470" electricity_perVeh="0"/>
        <edge id=":118_4" sampledSeconds="283.44" CO_abs="4264.863270" CO2_abs="641852.120864" HC_abs="33.569145" PMx_abs="9.470187" NOx_abs="237.921842" fuel_abs="275.903947" electricity_abs="0"
            CO_normed="12.966292" CO2_normed="1951.397105" HC_normed="0.102059" PMx_normed="0.028792" NOx_normed="0.723344" fuel_normed="0.838820" electricity_normed="0"
            traveltime="3.93" CO_perVeh="59.129688" CO2_perVeh="8898.882081" HC_perVeh="0.465415" PMx_perVeh="0.131298" NOx_perVeh="3.298639" fuel_perVeh="3.825237" electricity_perVeh="0"/>
        <edge id=":118_5" sampledSeconds="237.69" CO_abs="4258.056150" CO2_abs="597681.969171" HC_abs="32.985426" PMx_abs="9.307361" NOx_abs="224.967012" fuel_abs="256.916681" electricity_abs="0"
            CO_normed="13.074083" CO2_normed="1835.143456" HC_normed="0.101280" PMx_normed="0.028578" NOx_normed="0.690747" fuel_normed="0.788846" electricity_normed="0"
            traveltime="3.80" CO_perVeh="68.147881" CO2_perVeh="9565.576047" HC_perVeh="0.527914" PMx_perVeh="0.148959" NOx_perVeh="3.600475" fuel_perVeh="4.111812" electricity_perVeh="0"/>
        <edge id=":119_0" sampledSeconds="138.92" CO_abs="2278.147253" CO2_abs="330977.823237" HC_abs="17.801099" PMx_abs="5.005253" NOx_abs="123.749160" fuel_abs="142.272658" electricity_abs="0"
            CO_normed="48.853034" CO2_normed="7097.553001" HC_normed="0.381730" PMx_normed="0.107334" NOx_normed="2.653701" fuel_normed="3.050923" electricity_normed="0"
            traveltime="0.56" CO_perVeh="9.132931" CO2_perVeh="1326.866587" HC_perVeh="0.071363" PMx_perVeh="0.020066" NOx_perVeh="0.496102" fuel_perVeh="0.570361" electricity_perVeh="0"/>
        <edge id=":12_0" sampledSeconds="602.88" CO_abs="54625.683216" CO2_abs="3081601.467570" HC_abs="321.872042" PMx_abs="60.220771" NOx_abs="1312.311663" fuel_abs="1324.644451" electricity_abs="0"
            CO_normed="511.834831" CO2_normed="28874.164549" HC_normed="3.015895" PMx_normed="0.564260" NOx_normed="12.296172" fuel_normed="12.411729" electricity_normed="0"
            traveltime="2.13" CO_perVeh="193.271493" CO2_perVeh="10903.034670" HC_perVeh="1.138818" PMx_perVeh="0.213068" NOx_perVeh="4.643099" fuel_perVeh="4.686733" electricity_perVeh="0"/>
        <edge id=":12_1" sampledSeconds="56.10" CO_abs="1156.985572" CO2_abs="101448.451962" HC_abs="7.582530" PMx_abs="1.340964" NOx_abs="38.346538" fuel_abs="43.608717" electricity_abs="0"
            CO_normed="10.830034" CO2_normed="949.614457" HC_normed="0.070977" PMx_normed="0.012552" NOx_normed="0.358945" fuel_normed="0.408202" electricity_normed="0"
            traveltime="1.89" CO_perVeh="39.015170" CO2_perVeh="3420.983527" HC_perVeh="0.255693" PMx_perVeh="0.045219" NOx_perVeh="1.293099" fuel_perVeh="1.470547" electricity_perVeh="0"/>
        <edge id=":120_0" sampledSeconds="39.23" CO_abs="467.213179" CO2_abs="75671.439174" HC_abs="3.785852" PMx_abs="1.086823" NOx_abs="27.778514" fuel_abs="32.527840" electricity_abs="0"
            CO_normed="367.363720" CO2_normed="59499.480401" HC_normed="2.976766" PMx_normed="0.854555" NOx_normed="21.841888" fuel_normed="25.576222" electricity_normed="0"
            traveltime="0.02" CO_perVeh="0.179769" CO2_perVeh="29.116065" HC_perVeh="0.001457" PMx_perVeh="0.000418" NOx_perVeh="0.010688" fuel_perVeh="0.012516" electricity_perVeh="0"/>
        <edge id=":121_0" sampledSeconds="374.60" CO_abs="53134.825072" CO2_abs="1413269.794378" HC_abs="275.113575" PMx_abs="30.473831" NOx_abs="624.800405" fuel_abs="607.521501" electricity_abs="0"
            CO_normed="30384.894750" CO2_normed="808171.550345" HC_normed="157.322378" PMx_normed="17.426314" NOx_normed="357.289113" fuel_normed="347.408255" electricity_normed="0"
            traveltime="0.12" CO_perVeh="16.415695" CO2_perVeh="436.621471" HC_perVeh="0.084995" PMx_perVeh="0.009415" NOx_perVeh="0.193028" fuel_perVeh="0.187690" electricity_perVeh="0"/>
        <edge id=":122_0" sampledSeconds="134.29" CO_abs="1101.427179" CO2_abs="115754.537598" HC_abs="7.698047" PMx_abs="2.023070" NOx_abs="45.547169" fuel_abs="49.757533" electricity_abs="0"
            CO_normed="24.253107" CO2_normed="2548.881373" HC_normed="0.169509" PMx_normed="0.044547" NOx_normed="1.002935" fuel_normed="1.095646" electricity_normed="0"
            traveltime="0.54" CO_perVeh="4.401110" CO2_perVeh="462.534864" HC_perVeh="0.030760" PMx_perVeh="0.008084" NOx_perVeh="0.181999" fuel_perVeh="0.198822" electricity_perVeh="0"/>
        <edge id=":123_0" sampledSeconds="309.16" CO_abs="40777.702324" CO2_abs="2504361.478129" HC_abs="245.847353" PMx_abs="51.603797" NOx_abs="1075.293603" fuel_abs="1076.508167" electricity_abs="0"
            CO_normed="155.519726" CO2_normed="9551.239714" HC_normed="0.937623" PMx_normed="0.196809" NOx_normed="4.101000" fuel_normed="4.105632" electricity_normed="0"
            traveltime="4.21" CO_perVeh="555.313249" CO2_perVeh="34104.548052" HC_perVeh="3.347964" PMx_perVeh="0.702744" NOx_perVeh="14.643414" fuel_perVeh="14.659954" electricity_perVeh="0"/>
        <edge id=":123_1" sampledSeconds="0.00" CO_abs="0" CO2_abs="0" HC_abs="0" PMx_abs="0" NOx_abs="0" fuel_abs="0" electricity_abs="0"
            CO_normed="0" CO2_normed="0" HC_normed="0" PMx_normed="0" NOx_normed="0" fuel_normed="0" electricity_normed="0"/>
        <edge id=":123_2" sampledSeconds="259.95" CO_abs="34518.857362" CO2_abs="2149649.193594" HC_abs="208.871011" PMx_abs="44.365941" NOx_abs="923.457951" fuel_abs="924.033384" electricity_abs="0"
            CO_normed="132.911981" CO2_normed="8277.044892" HC_normed="0.804240" PMx_normed="0.170827" NOx_normed="3.555698" fuel_normed="3.557913" electricity_normed="0"
            traveltime="4.09" CO_perVeh="542.567605" CO2_perVeh="33788.198820" HC_perVeh="3.283036" PMx_perVeh="0.697344" NOx_perVeh="14.514918" fuel_perVeh="14.523962" electricity_perVeh="0"/>
        <edge id=":123_3" sampledSeconds="469.26" CO_abs="23419.385194" CO2_abs="2156580.019340" HC_abs="157.816434" PMx_abs="40.696470" NOx_abs="869.002595" fuel_abs="927.012123" electricity_abs="0"
            CO_normed="92.264025" CO2_normed="8496.156133" HC_normed="0.621740" PMx_normed="0.160330" NOx_normed="3.423560" fuel_normed="3.652097" electricity_normed="0"
            traveltime="2.81" CO_perVeh="140.174577" CO2_perVeh="12908.011462" HC_perVeh="0.944596" PMx_perVeh="0.243585" NOx_perVeh="5.201335" fuel_perVeh="5.548546" electricity_perVeh="0"/>
        <edge id=":123_5" sampledSeconds="0.00" CO_abs="0" CO2_abs="0" HC_abs="0" PMx_abs="0" NOx_abs="0" fuel_abs="0" electricity_abs="0"
            CO_normed="0" CO2_normed="0" HC_normed="0" PMx_normed="0" NOx_normed="0" fuel_normed="0" electricity_normed="0"/>
        <edge id=":123_6" sampledSeconds="194.40" CO_abs="9517.595354" CO2_abs="884910.184215" HC_abs="64.090413" PMx_abs="16.598346" NOx_abs="355.622923" fuel_abs="380.381250" electricity_abs="0"
            CO_normed="36.218090" CO2_normed="3367.421699" HC_normed="0.243889" PMx_normed="0.063163" NOx_normed="1.353281" fuel_normed="1.447496" electricity_normed="0"
            traveltime="2.91" CO_perVeh="142.387504" CO2_perVeh="13238.654023" HC_perVeh="0.958821" PMx_perVeh="0.248319" NOx_perVeh="5.320279" fuel_perVeh="5.690674" electricity_perVeh="0"/>
        <edge id=":124_0" sampledSeconds="119.07" CO_abs="3904.190952" CO2_abs="351682.667821" HC_abs="26.127991" PMx_abs="6.683842" NOx_abs="142.305028" fuel_abs="151.171777" electricity_abs="0"
            CO_normed="91.408889" CO2_normed="8233.952257" HC_normed="0.611735" PMx_normed="0.156489" NOx_normed="3.331790" fuel_normed="3.539387" electricity_normed="0"
            traveltime="0.46" CO_perVeh="15.174595" CO2_perVeh="1366.900853" HC_perVeh="0.101553" PMx_perVeh="0.025978" NOx_perVeh="0.553103" fuel_perVeh="0.587566" electricity_perVeh="0"/>
        <edge id=":125_0" sampledSeconds="141.66" CO_abs="5244.643028" CO2_abs="521558.734167" HC_abs="36.237474" PMx_abs="9.772276" NOx_abs="206.524190" fuel_abs="224.193589" electricity_abs="0"
            CO_normed="329.903634" CO2_normed="32807.594538" HC_normed="2.279445" PMx_normed="0.614705" NOx_normed="12.990985" fuel_normed="14.102443" electricity_normed="0"
            traveltime="0.16" CO_perVeh="6.006463" CO2_perVeh="597.318650" HC_perVeh="0.041501" PMx_perVeh="0.011192" NOx_perVeh="0.236523" fuel_perVeh="0.256759" electricity_perVeh="0"/>
        <edge id=":125_3" sampledSeconds="0.00" CO_abs="0" CO2_abs="0" HC_abs="0" PMx_abs="0" NOx_abs="0" fuel_abs="0" electricity_abs="0"
            CO_normed="0" CO2_normed="0" HC_normed="0" PMx_normed="0" NOx_normed="0" fuel_normed="0" electricity_normed="0"/>
        <edge id=":126_0" sampledSeconds="26.82" CO_abs="199.610815" CO2_abs="13330.604509" HC_abs="1.219633" PMx_abs="0.222500" NOx_abs="5.395091" fuel_abs="5.730269" electricity_abs="0"
            CO_normed="6.573881" CO2_normed="439.023374" HC_normed="0.040167" PMx_normed="0.007328" NOx_normed="0.177679" fuel_normed="0.188718" electricity_normed="0"
            traveltime="0.56" CO_perVeh="4.175940" CO2_perVeh="278.881718" HC_perVeh="0.025515" PMx_perVeh="0.004655" NOx_perVeh="0.112868" fuel_perVeh="0.119880" electricity_perVeh="0"/>
        <edge id=":126_1" sampledSeconds="80.88" CO_abs="1272.718898" CO2_abs="194512.670498" HC_abs="10.384263" PMx_abs="3.149704" NOx_abs="72.243941" fuel_abs="83.612198" electricity_abs="0"
            CO_normed="37.294007" CO2_normed="5699.732189" HC_normed="0.304286" PMx_normed="0.092295" NOx_normed="2.116937" fuel_normed="2.450057" electricity_normed="0"
            traveltime="0.35" CO_perVeh="5.507273" CO2_perVeh="841.689746" HC_perVeh="0.044934" PMx_perVeh="0.013629" NOx_perVeh="0.312612" fuel_perVeh="0.361804" electricity_perVeh="0"/>
        <edge id=":127_0" sampledSeconds="234.28" CO_abs="5492.139787" CO2_abs="722977.759684" HC_abs="41.729872" PMx_abs="12.242922" NOx_abs="272.775089" fuel_abs="310.775108" electricity_abs="0"
            CO_normed="127.011734" CO2_normed="16719.650696" HC_normed="0.965049" PMx_normed="0.283131" NOx_normed="6.308222" fuel_normed="7.187014" electricity_normed="0"
            traveltime="0.44" CO_perVeh="10.270434" CO2_perVeh="1351.985874" HC_perVeh="0.078036" PMx_perVeh="0.022895" NOx_perVeh="0.510096" fuel_perVeh="0.581157" electricity_perVeh="0"/>
        <edge id=":128_0" sampledSeconds="229.47" CO_abs="310.045099" CO2_abs="38899.620875" HC_abs="2.288679" PMx_abs="0.618788" NOx_abs="14.817446" fuel_abs="16.721200" electricity_abs="0"
            CO_normed="4.791832" CO2_normed="601.204366" HC_normed="0.035372" PMx_normed="0.009564" NOx_normed="0.229008" fuel_normed="0.258431" electricity_normed="0"
            traveltime="0.75" CO_perVeh="1.019226" CO2_perVeh="127.876597" HC_perVeh="0.007524" PMx_perVeh="0.002034" NOx_perVeh="0.048710" fuel_perVeh="0.054968" electricity_perVeh="0"/>
        <edge id=":128_1" sampledSeconds="141.87" CO_abs="167.489617" CO2_abs="19526.301760" HC_abs="1.210530" PMx_abs="0.282974" NOx_abs="7.412281" fuel_abs="8.393520" electricity_abs="0"
            CO_normed="2.674009" CO2_normed="311.741730" HC_normed="0.019326" PMx_normed="0.004518" NOx_normed="0.118339" fuel_normed="0.134004" electricity_normed="0"
            traveltime="0.85" CO_perVeh="1.004005" CO2_perVeh="117.049080" HC_perVeh="0.007256" PMx_perVeh="0.001696" NOx_perVeh="0.044432" fuel_perVeh="0.050314" electricity_perVeh="0"/>
        <edge id=":129_0" sampledSeconds="104.91" CO_abs="5661.201549" CO2_abs="521602.139624" HC_abs="38.221463" PMx_abs="9.700712" NOx_abs="210.432202" fuel_abs="224.212294" electricity_abs="0"
            CO_normed="131.891261" CO2_normed="12151.972174" HC_normed="0.890461" PMx_normed="0.226001" NOx_normed="4.902523" fuel_normed="5.223563" electricity_normed="0"
            traveltime="0.50" CO_perVeh="26.831580" CO2_perVeh="2472.162357" HC_perVeh="0.181153" PMx_perVeh="0.045977" NOx_perVeh="0.997355" fuel_perVeh="1.062667" electricity_perVeh="0"/>
        <edge id=":13_0" sampledSeconds="60.01" CO_abs="4732.622317" CO2_abs="348954.768627" HC_abs="29.852080" PMx_abs="6.530762" NOx_abs="144.638551" fuel_abs="149.999669" electricity_abs="0"
            CO_normed="33.461522" CO2_normed="2467.249018" HC_normed="0.211066" PMx_normed="0.046175" NOx_normed="1.022652" fuel_normed="1.060557" electricity_normed="0"
            traveltime="2.12" CO_perVeh="167.400458" CO2_perVeh="12343.091039" HC_perVeh="1.055916" PMx_perVeh="0.231004" NOx_perVeh="5.116098" fuel_perVeh="5.305729" electricity_perVeh="0"/>
        <edge id=":13_1" sampledSeconds="543.12" CO_abs="12577.209009" CO2_abs="939054.798322" HC_abs="78.818569" PMx_abs="13.547562" NOx_abs="364.596246" fuel_abs="403.662511" electricity_abs="0"
            CO_normed="125.313172" CO2_normed="9356.283713" HC_normed="0.785310" PMx_normed="0.134981" NOx_normed="3.632659" fuel_normed="4.021896" electricity_normed="0"
            traveltime="1.90" CO_perVeh="43.910028" CO2_perVeh="3278.463612" HC_perVeh="0.275174" PMx_perVeh="0.047298" NOx_perVeh="1.272892" fuel_perVeh="1.409282" electricity_perVeh="0"/>
        <edge id=":132_0" sampledSeconds="41.14" CO_abs="423.630422" CO2_abs="77807.926329" HC_abs="3.657907" PMx_abs="1.084396" NOx_abs="28.297136" fuel_abs="33.446235" electricity_abs="0"
            CO_normed="799.428380" CO2_normed="146830.494724" HC_normed="6.902797" PMx_normed="2.046352" NOx_normed="53.399219" fuel_normed="63.116027" electricity_normed="0"
            traveltime="6.378212e-03" CO_perVeh="0.065674" CO2_perVeh="12.062309" HC_perVeh="0.000567" PMx_perVeh="0.000168" NOx_perVeh="0.004387" fuel_perVeh="0.005185" electricity_perVeh="0"/>