<?xml version="1.0" encoding="UTF-8"?>

<!-- generated on Sun Nov  1 00:13:11 2020 by Eclipse SUMO sumo Version 1.7.0
<configuration xmlns:xsi="http://www.w3.org/2001/XMLSchema-instance" xsi:noNamespaceSchemaLocation="http://sumo.dlr.de/xsd/sumoConfiguration.xsd">

    <input>
        <net-file value="../dataSets/Porto/8AM9AM_Routing_SaoBento/Porto.net.xml"/>
        <route-files value="../results/Porto/8AM9AM_Routing_SaoBento_fewerv/cost_co-ttime/solution7/Porto.rou.xml"/>
        <additional-files value="moreOutputInfo.xml"/>
    </input>

    <output>
        <emission-output.precision value="6"/>
        <tripinfo-output value="../results/Porto/8AM9AM_Routing_SaoBento_fewerv/cost_co-ttime/solution7/Porto-tripinfo"/>
    </output>

    <processing>
        <collision.action value="warn"/>
        <time-to-teleport value="-1"/>
    </processing>

    <emissions>
        <device.emissions.probability value="1"/>
    </emissions>

    <gui_only>
        <quit-on-end value="true"/>
        <start value="true"/>
    </gui_only>

</configuration>
-->

<meandata xmlns:xsi="http://www.w3.org/2001/XMLSchema-instance" xsi:noNamespaceSchemaLocation="http://sumo.dlr.de/xsd/meandata_file.xsd">
    <interval begin="0.00" end="8471.00" id="emissions-detector">
        <edge id=":1092997347_0" sampledSeconds="590.49" CO_abs="72951.401821" CO2_abs="3123852.499468" HC_abs="406.088664" PMx_abs="63.217764" NOx_abs="1351.843151" fuel_abs="1342.817244" electricity_abs="0"
            CO_normed="70460.997026" CO2_normed="3017210.857923" HC_normed="392.225666" PMx_normed="61.059645" NOx_normed="1305.694117" fuel_normed="1296.976336" electricity_normed="0"
            traveltime="0.07" CO_perVeh="8.354846" CO2_perVeh="357.762916" HC_perVeh="0.046508" PMx_perVeh="0.007240" NOx_perVeh="0.154821" fuel_perVeh="0.153788" electricity_perVeh="0"/>
        <edge id=":1103427051_0" sampledSeconds="19.35" CO_abs="1580.490203" CO2_abs="88161.419798" HC_abs="9.289365" PMx_abs="1.730831" NOx_abs="37.640561" fuel_abs="37.896701" electricity_abs="0"
            CO_normed="2316.123054" CO2_normed="129195.800387" HC_normed="13.613063" PMx_normed="2.536439" NOx_normed="55.160210" fuel_normed="55.535569" electricity_normed="0"
            traveltime="0.03" CO_perVeh="2.457862" CO2_perVeh="137.102165" HC_perVeh="0.014446" PMx_perVeh="0.002692" NOx_perVeh="0.058536" fuel_perVeh="0.058934" electricity_perVeh="0"/>
        <edge id=":1105984386_0" sampledSeconds="10.61" CO_abs="259.132906" CO2_abs="17781.213657" HC_abs="1.584583" PMx_abs="0.244044" NOx_abs="6.846180" fuel_abs="7.643475" electricity_abs="0"
            CO_normed="11.341517" CO2_normed="778.233622" HC_normed="0.069353" PMx_normed="0.010681" NOx_normed="0.299638" fuel_normed="0.334533" electricity_normed="0"
            traveltime="1.02" CO_perVeh="24.858531" CO2_perVeh="1705.745748" HC_perVeh="0.152009" PMx_perVeh="0.023411" NOx_perVeh="0.656752" fuel_perVeh="0.733236" electricity_perVeh="0"/>
        <edge id=":1105984390_0" sampledSeconds="10.96" CO_abs="36.322864" CO2_abs="2928.072288" HC_abs="0.234574" PMx_abs="0.051445" NOx_abs="1.188115" fuel_abs="1.258647" electricity_abs="0"
            CO_normed="1.229018" CO2_normed="99.074063" HC_normed="0.007937" PMx_normed="0.001741" NOx_normed="0.040201" fuel_normed="0.042587" electricity_normed="0"
            traveltime="1.14" CO_perVeh="3.765084" CO2_perVeh="303.512321" HC_perVeh="0.024315" PMx_perVeh="0.005333" NOx_perVeh="0.123155" fuel_perVeh="0.130466" electricity_perVeh="0"/>
        <edge id=":1105984390_1" sampledSeconds="2397.94" CO_abs="61930.460044" CO2_abs="7433906.493751" HC_abs="459.155891" PMx_abs="133.736658" NOx_abs="2823.404856" fuel_abs="3195.493432" electricity_abs="0"
            CO_normed="2004.506178" CO2_normed="240613.608901" HC_normed="14.861521" PMx_normed="4.328661" NOx_normed="91.385281" fuel_normed="103.428690" electricity_normed="0"
            traveltime="0.65" CO_perVeh="16.724444" CO2_perVeh="2007.541197" HC_perVeh="0.123996" PMx_perVeh="0.036116" NOx_perVeh="0.762466" fuel_perVeh="0.862949" electricity_perVeh="0"/>
        <edge id=":1105984395_0" sampledSeconds="4.22" CO_abs="87.529255" CO2_abs="5259.802305" HC_abs="0.515470" PMx_abs="0.060237" NOx_abs="1.957506" fuel_abs="2.261018" electricity_abs="0"
            CO_normed="40.432745" CO2_normed="2429.681869" HC_normed="0.238113" PMx_normed="0.027825" NOx_normed="0.904239" fuel_normed="1.044441" electricity_normed="0"
            traveltime="0.10" CO_perVeh="2.028897" CO2_perVeh="121.920336" HC_perVeh="0.011948" PMx_perVeh="0.001396" NOx_perVeh="0.045374" fuel_perVeh="0.052410" electricity_perVeh="0"/>
        <edge id=":1105984398_0" sampledSeconds="11.80" CO_abs="489.226435" CO2_abs="32343.173861" HC_abs="2.986230" PMx_abs="0.564879" NOx_abs="13.250655" fuel_abs="13.902943" electricity_abs="0"
            CO_normed="17.196950" CO2_normed="1136.904940" HC_normed="0.104970" PMx_normed="0.019856" NOx_normed="0.465778" fuel_normed="0.488707" electricity_normed="0"
            traveltime="1.21" CO_perVeh="50.176006" CO2_perVeh="3317.178249" HC_perVeh="0.306273" PMx_perVeh="0.057935" NOx_perVeh="1.359013" fuel_perVeh="1.425913" electricity_perVeh="0"/>
        <edge id=":1105984398_1" sampledSeconds="643.65" CO_abs="12613.504167" CO2_abs="1408283.310240" HC_abs="89.901365" PMx_abs="20.768191" NOx_abs="537.208528" fuel_abs="605.360491" electricity_abs="0"
            CO_normed="429.181641" CO2_normed="47917.639193" HC_normed="3.058945" PMx_normed="0.706649" NOx_normed="18.278825" fuel_normed="20.597734" electricity_normed="0"
            traveltime="0.95" CO_perVeh="18.679558" CO2_perVeh="2085.551245" HC_perVeh="0.133136" PMx_perVeh="0.030756" NOx_perVeh="0.795561" fuel_perVeh="0.896489" electricity_perVeh="0"/>
        <edge id=":1106006327_0" sampledSeconds="101.27" CO_abs="13685.236675" CO2_abs="449131.210791" HC_abs="72.891046" PMx_abs="9.369769" NOx_abs="196.612811" fuel_abs="193.065517" electricity_abs="0"
            CO_normed="656.426960" CO2_normed="21543.057123" HC_normed="3.496297" PMx_normed="0.449431" NOx_normed="9.430743" fuel_normed="9.260593" electricity_normed="0"
            traveltime="2.06" CO_perVeh="278.405577" CO2_perVeh="9136.899632" HC_perVeh="1.482859" PMx_perVeh="0.190614" NOx_perVeh="3.999792" fuel_perVeh="3.927628" electricity_perVeh="0"/>
        <edge id=":1106006327_1" sampledSeconds="680.51" CO_abs="92385.890523" CO2_abs="3098021.022974" HC_abs="493.705639" PMx_abs="64.698374" NOx_abs="1356.278769" fuel_abs="1331.727149" electricity_abs="0"
            CO_normed="3864.379419" CO2_normed="129586.115514" HC_normed="20.651053" PMx_normed="2.706247" NOx_normed="56.731344" fuel_normed="55.704383" electricity_normed="0"
            traveltime="2.28" CO_perVeh="310.117073" CO2_perVeh="10399.306708" HC_perVeh="1.657250" PMx_perVeh="0.217177" NOx_perVeh="4.552700" fuel_perVeh="4.470286" electricity_perVeh="0"/>
        <edge id=":1106006327_2" sampledSeconds="0.00" CO_abs="0" CO2_abs="0" HC_abs="0" PMx_abs="0" NOx_abs="0" fuel_abs="0" electricity_abs="0"
            CO_normed="0" CO2_normed="0" HC_normed="0" PMx_normed="0" NOx_normed="0" fuel_normed="0" electricity_normed="0"/>
        <edge id=":1106006327_3" sampledSeconds="0.00" CO_abs="0" CO2_abs="0" HC_abs="0" PMx_abs="0" NOx_abs="0" fuel_abs="0" electricity_abs="0"
            CO_normed="0" CO2_normed="0" HC_normed="0" PMx_normed="0" NOx_normed="0" fuel_normed="0" electricity_normed="0"/>
        <edge id=":1107381198_0" sampledSeconds="0.00" CO_abs="0" CO2_abs="0" HC_abs="0" PMx_abs="0" NOx_abs="0" fuel_abs="0" electricity_abs="0"
            CO_normed="0" CO2_normed="0" HC_normed="0" PMx_normed="0" NOx_normed="0" fuel_normed="0" electricity_normed="0"/>
        <edge id=":1107381198_1" sampledSeconds="103.13" CO_abs="5293.439912" CO2_abs="208819.689880" HC_abs="28.910147" PMx_abs="3.611844" NOx_abs="86.569611" fuel_abs="89.764376" electricity_abs="0"
            CO_normed="245.321985" CO2_normed="9677.650409" HC_normed="1.339827" PMx_normed="0.167389" NOx_normed="4.012028" fuel_normed="4.160088" electricity_normed="0"
            traveltime="1.54" CO_perVeh="79.252945" CO2_perVeh="3126.431159" HC_perVeh="0.432840" PMx_perVeh="0.054076" NOx_perVeh="1.296113" fuel_perVeh="1.343945" electricity_perVeh="0"/>
        <edge id=":1110338277_0" sampledSeconds="160.48" CO_abs="2666.879513" CO2_abs="319121.296308" HC_abs="19.444307" PMx_abs="4.388553" NOx_abs="119.581946" fuel_abs="137.176866" electricity_abs="0"
            CO_normed="4047.745353" CO2_normed="484356.993907" HC_normed="29.512246" PMx_normed="6.660873" NOx_normed="181.499488" fuel_normed="208.204765" electricity_normed="0"
            traveltime="0.02" CO_perVeh="0.361809" CO2_perVeh="43.294345" HC_perVeh="0.002638" PMx_perVeh="0.000595" NOx_perVeh="0.016223" fuel_perVeh="0.018610" electricity_perVeh="0"/>
        <edge id=":1110338293_0" sampledSeconds="7101.03" CO_abs="683241.275702" CO2_abs="11811050.156761" HC_abs="3387.379503" PMx_abs="283.198824" NOx_abs="5346.732096" fuel_abs="5077.376820" electricity_abs="0"
            CO_normed="967878.090948" CO2_normed="16731507.718231" HC_normed="4798.554367" PMx_normed="401.178832" NOx_normed="7574.168947" fuel_normed="7192.600854" electricity_normed="0"
            traveltime="0.47" CO_perVeh="45.656457" CO2_perVeh="789.253705" HC_perVeh="0.226356" PMx_perVeh="0.018924" NOx_perVeh="0.357286" fuel_perVeh="0.339287" electricity_perVeh="0"/>
        <edge id=":1110338295_0" sampledSeconds="0.00" CO_abs="0" CO2_abs="0" HC_abs="0" PMx_abs="0" NOx_abs="0" fuel_abs="0" electricity_abs="0"
            CO_normed="0" CO2_normed="0" HC_normed="0" PMx_normed="0" NOx_normed="0" fuel_normed="0" electricity_normed="0"/>
        <edge id=":1110673403_0" sampledSeconds="200.60" CO_abs="3213.122671" CO2_abs="391680.393857" HC_abs="23.635919" PMx_abs="5.417912" NOx_abs="146.789572" fuel_abs="168.366906" electricity_abs="0"
            CO_normed="4551.702521" CO2_normed="554853.585915" HC_normed="33.482590" PMx_normed="7.675002" NOx_normed="207.941786" fuel_normed="238.508190" electricity_normed="0"
            traveltime="0.02" CO_perVeh="0.371359" CO2_perVeh="45.268759" HC_perVeh="0.002732" PMx_perVeh="0.000626" NOx_perVeh="0.016965" fuel_perVeh="0.019459" electricity_perVeh="0"/>
        <edge id=":1110673412_0" sampledSeconds="951.77" CO_abs="168323.997079" CO2_abs="11511977.699476" HC_abs="1048.156368" PMx_abs="252.730256" NOx_abs="4944.641603" fuel_abs="4948.432364" electricity_abs="0"
            CO_normed="246669.728967" CO2_normed="16870181.722679" HC_normed="1536.016561" PMx_normed="370.362543" NOx_normed="7246.105280" fuel_normed="7251.660436" electricity_normed="0"
            traveltime="0.02" CO_perVeh="2.745836" CO2_perVeh="187.792633" HC_perVeh="0.017098" PMx_perVeh="0.004123" NOx_perVeh="0.080661" fuel_perVeh="0.080723" electricity_perVeh="0"/>
        <edge id=":1110673414_0" sampledSeconds="0.00" CO_abs="0" CO2_abs="0" HC_abs="0" PMx_abs="0" NOx_abs="0" fuel_abs="0" electricity_abs="0"
            CO_normed="0" CO2_normed="0" HC_normed="0" PMx_normed="0" NOx_normed="0" fuel_normed="0" electricity_normed="0"/>
        <edge id=":1110673414_1" sampledSeconds="7.19" CO_abs="409.387336" CO2_abs="15845.314235" HC_abs="2.228577" PMx_abs="0.274028" NOx_abs="6.571392" fuel_abs="6.811360" electricity_abs="0"
            CO_normed="19.267017" CO2_normed="745.728816" HC_normed="0.104884" PMx_normed="0.012897" NOx_normed="0.309270" fuel_normed="0.320563" electricity_normed="0"
            traveltime="1.57" CO_perVeh="89.423504" CO2_perVeh="3461.131774" HC_perVeh="0.486794" PMx_perVeh="0.059857" NOx_perVeh="1.435406" fuel_perVeh="1.487822" electricity_perVeh="0"/>
        <edge id=":1110673417_0" sampledSeconds="28.98" CO_abs="374.592214" CO2_abs="44070.232500" HC_abs="2.713911" PMx_abs="0.612733" NOx_abs="16.570127" fuel_abs="18.943939" electricity_abs="0"
            CO_normed="568.549830" CO2_normed="66889.065636" HC_normed="4.119129" PMx_normed="0.929997" NOx_normed="25.149863" fuel_normed="28.752795" electricity_normed="0"
            traveltime="0.02" CO_perVeh="0.285645" CO2_perVeh="33.605668" HC_perVeh="0.002069" PMx_perVeh="0.000467" NOx_perVeh="0.012636" fuel_perVeh="0.014446" electricity_perVeh="0"/>
        <edge id=":1110673446_0" sampledSeconds="1329.07" CO_abs="13513.510035" CO2_abs="1097568.277098" HC_abs="87.480552" PMx_abs="20.072376" NOx_abs="448.477435" fuel_abs="471.794188" electricity_abs="0"
            CO_normed="19143.208644" CO2_normed="1554812.811378" HC_normed="123.924758" PMx_normed="28.434484" NOx_normed="635.312150" fuel_normed="668.342611" electricity_normed="0"
            traveltime="0.02" CO_perVeh="0.231975" CO2_perVeh="18.841067" HC_perVeh="0.001502" PMx_perVeh="0.000345" NOx_perVeh="0.007699" fuel_perVeh="0.008099" electricity_perVeh="0"/>
        <edge id=":1110673451_0" sampledSeconds="36.26" CO_abs="327.104288" CO2_abs="22685.782703" HC_abs="2.008276" PMx_abs="0.324006" NOx_abs="8.814189" fuel_abs="9.751743" electricity_abs="0"
            CO_normed="514.861351" CO2_normed="35707.366628" HC_normed="3.161021" PMx_normed="0.509984" NOx_normed="13.873512" fuel_normed="15.349219" electricity_normed="0"
            traveltime="0.03" CO_perVeh="0.241004" CO2_perVeh="16.714406" HC_perVeh="0.001480" PMx_perVeh="0.000239" NOx_perVeh="0.006494" fuel_perVeh="0.007185" electricity_perVeh="0"/>
        <edge id=":1110673464_0" sampledSeconds="1028.39" CO_abs="3864.594913" CO2_abs="284288.581697" HC_abs="24.089238" PMx_abs="4.002875" NOx_abs="109.711118" fuel_abs="122.204616" electricity_abs="0"
            CO_normed="116.315368" CO2_normed="8556.428767" HC_normed="0.725030" PMx_normed="0.120477" NOx_normed="3.302051" fuel_normed="3.678076" electricity_normed="0"
            traveltime="1.22" CO_perVeh="4.582869" CO2_perVeh="337.126471" HC_perVeh="0.028566" PMx_perVeh="0.004747" NOx_perVeh="0.130102" fuel_perVeh="0.144918" electricity_perVeh="0"/>
        <edge id=":1110673464_1" sampledSeconds="2608.55" CO_abs="64672.992513" CO2_abs="7784368.247287" HC_abs="480.427968" PMx_abs="139.576394" NOx_abs="2959.033687" fuel_abs="3346.140867" electricity_abs="0"
            CO_normed="1907.334195" CO2_normed="229576.383763" HC_normed="14.168769" PMx_normed="4.116383" NOx_normed="87.267744" fuel_normed="98.684299" electricity_normed="0"
            traveltime="0.72" CO_perVeh="17.829355" CO2_perVeh="2146.031226" HC_perVeh="0.132447" PMx_perVeh="0.038479" NOx_perVeh="0.815760" fuel_perVeh="0.922480" electricity_perVeh="0"/>
        <edge id=":1110673479_0" sampledSeconds="135.57" CO_abs="5865.109214" CO2_abs="412494.091780" HC_abs="36.361968" PMx_abs="7.006521" NOx_abs="167.202780" fuel_abs="177.313547" electricity_abs="0"
            CO_normed="8308.500834" CO2_normed="584338.224692" HC_normed="51.510284" PMx_normed="9.925423" NOx_normed="236.859091" fuel_normed="251.181982" electricity_normed="0"
            traveltime="0.03" CO_perVeh="1.239937" CO2_perVeh="87.204980" HC_perVeh="0.007687" PMx_perVeh="0.001481" NOx_perVeh="0.035348" fuel_perVeh="0.037486" electricity_perVeh="0"/>
        <edge id=":1110673511_0" sampledSeconds="63.58" CO_abs="1067.150253" CO2_abs="112389.956126" HC_abs="7.459246" PMx_abs="1.616813" NOx_abs="42.813202" fuel_abs="48.311710" electricity_abs="0"
            CO_normed="1511.722705" CO2_normed="159211.365070" HC_normed="10.566751" PMx_normed="2.290374" NOx_normed="60.649088" fuel_normed="68.438263" electricity_normed="0"
            traveltime="0.02" CO_perVeh="0.409001" CO2_perVeh="43.075137" HC_perVeh="0.002859" PMx_perVeh="0.000620" NOx_perVeh="0.016409" fuel_perVeh="0.018516" electricity_perVeh="0"/>
        <edge id=":1110673517_0" sampledSeconds="182.85" CO_abs="7941.281411" CO2_abs="572438.854776" HC_abs="49.562328" PMx_abs="9.685511" NOx_abs="231.530890" fuel_abs="246.066868" electricity_abs="0"
            CO_normed="11249.601810" CO2_normed="810915.624756" HC_normed="70.209885" PMx_normed="13.720474" NOx_normed="327.986150" fuel_normed="348.577784" electricity_normed="0"
            traveltime="0.03" CO_perVeh="1.215874" CO2_perVeh="87.645022" HC_perVeh="0.007588" PMx_perVeh="0.001483" NOx_perVeh="0.035449" fuel_perVeh="0.037675" electricity_perVeh="0"/>
        <edge id=":1110673534_0" sampledSeconds="738.29" CO_abs="4849.788241" CO2_abs="408572.048309" HC_abs="31.402847" PMx_abs="5.482338" NOx_abs="155.029431" fuel_abs="175.629154" electricity_abs="0"
            CO_normed="133.143399" CO2_normed="11216.710592" HC_normed="0.862116" PMx_normed="0.150509" NOx_normed="4.256092" fuel_normed="4.821625" electricity_normed="0"
            traveltime="1.46" CO_perVeh="9.564592" CO2_perVeh="805.772267" HC_perVeh="0.061932" PMx_perVeh="0.010812" NOx_perVeh="0.305744" fuel_perVeh="0.346370" electricity_perVeh="0"/>
        <edge id=":1110673534_1" sampledSeconds="199.66" CO_abs="2842.924033" CO2_abs="366467.403770" HC_abs="21.352898" PMx_abs="4.947822" NOx_abs="136.178008" fuel_abs="157.528988" electricity_abs="0"
            CO_normed="75.890954" CO2_normed="9782.730895" HC_normed="0.570009" PMx_normed="0.132081" NOx_normed="3.635229" fuel_normed="4.205186" electricity_normed="0"
            traveltime="1.22" CO_perVeh="17.377962" CO2_perVeh="2240.107928" HC_perVeh="0.130524" PMx_perVeh="0.030245" NOx_perVeh="0.832416" fuel_perVeh="0.962929" electricity_perVeh="0"/>
        <edge id=":1110673549_0" sampledSeconds="654.76" CO_abs="2147.180099" CO2_abs="198444.457173" HC_abs="14.278370" PMx_abs="2.901175" NOx_abs="75.924933" fuel_abs="85.303051" electricity_abs="0"
            CO_normed="57.103078" CO2_normed="5277.521570" HC_normed="0.379725" PMx_normed="0.077155" NOx_normed="2.019182" fuel_normed="2.268588" electricity_normed="0"
            traveltime="1.30" CO_perVeh="4.265935" CO2_perVeh="394.261818" HC_perVeh="0.028368" PMx_perVeh="0.005764" NOx_perVeh="0.150845" fuel_perVeh="0.169477" electricity_perVeh="0"/>
        <edge id=":1110673549_1" sampledSeconds="3197.51" CO_abs="70283.563668" CO2_abs="9154017.939735" HC_abs="538.294586" PMx_abs="161.257014" NOx_abs="3426.633061" fuel_abs="3934.893045" electricity_abs="0"
            CO_normed="1808.054636" CO2_normed="235488.408845" HC_normed="13.847705" PMx_normed="4.148360" NOx_normed="88.150621" fuel_normed="101.225681" electricity_normed="0"
            traveltime="0.81" CO_perVeh="17.727990" CO2_perVeh="2308.965675" HC_perVeh="0.135777" PMx_perVeh="0.040675" NOx_perVeh="0.864318" fuel_perVeh="0.992519" electricity_perVeh="0"/>
        <edge id=":1110673556_0" sampledSeconds="467.56" CO_abs="56993.040320" CO2_abs="2737193.010124" HC_abs="324.475617" PMx_abs="55.070953" NOx_abs="1179.052741" fuel_abs="1176.602959" electricity_abs="0"
            CO_normed="1123.938039" CO2_normed="53979.140715" HC_normed="6.398860" PMx_normed="1.086033" NOx_normed="23.251650" fuel_normed="23.203339" electricity_normed="0"
            traveltime="2.76" CO_perVeh="335.968493" CO2_perVeh="16135.489610" HC_perVeh="1.912753" PMx_perVeh="0.324638" NOx_perVeh="6.950403" fuel_perVeh="6.935961" electricity_perVeh="0"/>
        <edge id=":1110673556_2" sampledSeconds="174.91" CO_abs="17230.508024" CO2_abs="735955.234243" HC_abs="95.729917" PMx_abs="14.157398" NOx_abs="313.536850" fuel_abs="316.358430" electricity_abs="0"
            CO_normed="355.294030" CO2_normed="15175.437684" HC_normed="1.973956" PMx_normed="0.291926" NOx_normed="6.465147" fuel_normed="6.523328" electricity_normed="0"
            traveltime="3.02" CO_perVeh="297.940105" CO2_perVeh="12725.717647" HC_perVeh="1.655307" PMx_perVeh="0.244802" NOx_perVeh="5.421500" fuel_perVeh="5.470289" electricity_perVeh="0"/>
        <edge id=":1110673556_3" sampledSeconds="351.91" CO_abs="34993.265461" CO2_abs="1214525.647929" HC_abs="187.751456" PMx_abs="24.061302" NOx_abs="523.640854" fuel_abs="522.081539" electricity_abs="0"
            CO_normed="1641.436524" CO2_normed="56970.012122" HC_normed="8.806897" PMx_normed="1.128649" NOx_normed="24.562533" fuel_normed="24.489389" electricity_normed="0"
            traveltime="1.83" CO_perVeh="182.200031" CO2_perVeh="6323.691350" HC_perVeh="0.977569" PMx_perVeh="0.125280" NOx_perVeh="2.726450" fuel_perVeh="2.718331" electricity_perVeh="0"/>
        <edge id=":1110673556_4" sampledSeconds="78.49" CO_abs="9509.094896" CO2_abs="366445.193220" HC_abs="51.923104" PMx_abs="7.343060" NOx_abs="158.295258" fuel_abs="157.520803" electricity_abs="0"
            CO_normed="272.499588" CO2_normed="10501.121836" HC_normed="1.487946" PMx_normed="0.210428" NOx_normed="4.536225" fuel_normed="4.514031" electricity_normed="0"
            traveltime="2.58" CO_perVeh="313.140910" CO2_perVeh="12067.287417" HC_perVeh="1.709863" PMx_perVeh="0.241812" NOx_perVeh="5.212770" fuel_perVeh="5.187266" electricity_perVeh="0"/>
        <edge id=":1110673556_5" sampledSeconds="23.59" CO_abs="1556.687455" CO2_abs="65223.548578" HC_abs="8.604442" PMx_abs="1.187034" NOx_abs="27.388707" fuel_abs="28.037182" electricity_abs="0"
            CO_normed="62.176693" CO2_normed="2605.137285" HC_normed="0.343676" PMx_normed="0.047412" NOx_normed="1.093951" fuel_normed="1.119852" electricity_normed="0"
            traveltime="1.63" CO_perVeh="107.622836" CO2_perVeh="4509.282371" HC_perVeh="0.594875" PMx_perVeh="0.082067" NOx_perVeh="1.893540" fuel_perVeh="1.938373" electricity_perVeh="0"/>
        <edge id=":1110673556_6" sampledSeconds="543.55" CO_abs="64352.115501" CO2_abs="3120275.575819" HC_abs="367.111878" PMx_abs="62.818616" NOx_abs="1343.735872" fuel_abs="1341.273346" electricity_abs="0"
            CO_normed="1301.061829" CO2_normed="63085.283484" HC_normed="7.422215" PMx_normed="1.270058" NOx_normed="27.167459" fuel_normed="27.117672" electricity_normed="0"
            traveltime="2.64" CO_perVeh="312.443749" CO2_perVeh="15149.627798" HC_perVeh="1.782409" PMx_perVeh="0.304998" NOx_perVeh="6.524135" fuel_perVeh="6.512179" electricity_perVeh="0"/>
        <edge id=":1110673561_0" sampledSeconds="104.70" CO_abs="9619.310684" CO2_abs="680653.192384" HC_abs="60.157907" PMx_abs="13.764213" NOx_abs="288.236195" fuel_abs="292.580438" electricity_abs="0"
            CO_normed="244.351962" CO2_normed="17290.110301" HC_normed="1.528145" PMx_normed="0.349642" NOx_normed="7.321843" fuel_normed="7.432196" electricity_normed="0"
            traveltime="1.24" CO_perVeh="113.517652" CO2_perVeh="8032.400123" HC_perVeh="0.709925" PMx_perVeh="0.162432" NOx_perVeh="3.401480" fuel_perVeh="3.452747" electricity_perVeh="0"/>
        <edge id=":1110673561_1" sampledSeconds="5258.77" CO_abs="486170.143310" CO2_abs="33692553.441503" HC_abs="3028.706862" PMx_abs="703.784363" NOx_abs="14401.895447" fuel_abs="14482.802050" electricity_abs="0"
            CO_normed="12040.341915" CO2_normed="834419.531916" HC_normed="75.008033" PMx_normed="17.429709" NOx_normed="356.672963" fuel_normed="358.676671" electricity_normed="0"
            traveltime="1.19" CO_perVeh="110.382451" CO2_perVeh="7649.722377" HC_perVeh="0.687652" PMx_perVeh="0.159791" NOx_perVeh="3.269877" fuel_perVeh="3.288246" electricity_perVeh="0"/>
        <edge id=":1110673562_0" sampledSeconds="300.78" CO_abs="6416.141008" CO2_abs="490069.399521" HC_abs="40.393298" PMx_abs="6.681416" NOx_abs="187.603998" fuel_abs="210.661933" electricity_abs="0"
            CO_normed="10098.990293" CO2_normed="771368.039225" HC_normed="63.578953" PMx_normed="10.516533" NOx_normed="295.288234" fuel_normed="331.581368" electricity_normed="0"
            traveltime="0.03" CO_perVeh="0.575152" CO2_perVeh="43.930524" HC_perVeh="0.003621" PMx_perVeh="0.000599" NOx_perVeh="0.016817" fuel_perVeh="0.018884" electricity_perVeh="0"/>
        <edge id=":1110673564_0" sampledSeconds="27.87" CO_abs="311.360585" CO2_abs="44311.288208" HC_abs="2.405978" PMx_abs="0.525702" NOx_abs="15.994756" fuel_abs="19.047647" electricity_abs="0"
            CO_normed="1323.218164" CO2_normed="188313.820741" HC_normed="10.224909" PMx_normed="2.234127" NOx_normed="67.974408" fuel_normed="80.948566" electricity_normed="0"
            traveltime="7.872016e-03" CO_perVeh="0.087943" CO2_perVeh="12.515545" HC_perVeh="0.000680" PMx_perVeh="0.000148" NOx_perVeh="0.004518" fuel_perVeh="0.005380" electricity_perVeh="0"/>
        <edge id=":1110673588_0" sampledSeconds="62.90" CO_abs="1151.200522" CO2_abs="120587.292307" HC_abs="8.003656" PMx_abs="1.736975" NOx_abs="45.933514" fuel_abs="51.835398" electricity_abs="0"
            CO_normed="1956.945759" CO2_normed="204988.432206" HC_normed="13.605553" PMx_normed="2.952714" NOx_normed="78.083178" fuel_normed="88.115894" electricity_normed="0"
            traveltime="0.02" CO_perVeh="0.371355" CO2_perVeh="38.899127" HC_perVeh="0.002582" PMx_perVeh="0.000560" NOx_perVeh="0.014817" fuel_perVeh="0.016721" electricity_perVeh="0"/>
        <edge id=":1110673601_0" sampledSeconds="28.86" CO_abs="439.892470" CO2_abs="52564.001358" HC_abs="3.196626" PMx_abs="0.712674" NOx_abs="19.630572" fuel_abs="22.595075" electricity_abs="0"
            CO_normed="667.661472" CO2_normed="79780.766687" HC_normed="4.851786" PMx_normed="1.081685" NOx_normed="29.794955" fuel_normed="34.294429" electricity_normed="0"
            traveltime="0.02" CO_perVeh="0.335439" CO2_perVeh="40.082574" HC_perVeh="0.002438" PMx_perVeh="0.000543" NOx_perVeh="0.014969" fuel_perVeh="0.017230" electricity_perVeh="0"/>
        <edge id=":1110673617_0" sampledSeconds="855.37" CO_abs="30616.439083" CO2_abs="3157300.618063" HC_abs="214.884985" PMx_abs="59.097201" NOx_abs="1233.352357" fuel_abs="1357.176075" electricity_abs="0"
            CO_normed="43371.180380" CO2_normed="4472625.122979" HC_normed="304.405597" PMx_normed="83.716966" NOx_normed="1747.164241" fuel_normed="1922.572647" electricity_normed="0"
            traveltime="0.02" CO_perVeh="0.543059" CO2_perVeh="56.002574" HC_perVeh="0.003812" PMx_perVeh="0.001048" NOx_perVeh="0.021877" fuel_perVeh="0.024073" electricity_perVeh="0"/>
        <edge id=":1110673621_0" sampledSeconds="26.19" CO_abs="745.746828" CO2_abs="67068.745868" HC_abs="4.965938" PMx_abs="1.080573" NOx_abs="26.458635" fuel_abs="28.829930" electricity_abs="0"
            CO_normed="1267.707983" CO2_normed="114011.325759" HC_normed="8.441685" PMx_normed="1.836885" NOx_normed="44.977493" fuel_normed="49.008499" electricity_normed="0"
            traveltime="0.02" CO_perVeh="0.564960" CO2_perVeh="50.809656" HC_perVeh="0.003762" PMx_perVeh="0.000819" NOx_perVeh="0.020044" fuel_perVeh="0.021841" electricity_perVeh="0"/>
        <edge id=":1110673630_0" sampledSeconds="287.11" CO_abs="1347.877665" CO2_abs="120928.787513" HC_abs="8.890424" PMx_abs="1.588487" NOx_abs="45.570652" fuel_abs="51.982546" electricity_abs="0"
            CO_normed="40.857358" CO2_normed="3665.637408" HC_normed="0.269490" PMx_normed="0.048151" NOx_normed="1.381354" fuel_normed="1.575714" electricity_normed="0"
            traveltime="1.29" CO_perVeh="6.064935" CO2_perVeh="544.133358" HC_perVeh="0.040004" PMx_perVeh="0.007148" NOx_perVeh="0.205051" fuel_perVeh="0.233902" electricity_perVeh="0"/>
        <edge id=":1110673630_1" sampledSeconds="340.44" CO_abs="1197.127312" CO2_abs="99852.751862" HC_abs="7.714681" PMx_abs="1.261908" NOx_abs="37.452609" fuel_abs="42.922918" electricity_abs="0"
            CO_normed="44.239511" CO2_normed="3690.031018" HC_normed="0.285094" PMx_normed="0.046633" NOx_normed="1.384051" fuel_normed="1.586205" electricity_normed="0"
            traveltime="1.09" CO_perVeh="3.816213" CO2_perVeh="318.311463" HC_perVeh="0.024593" PMx_perVeh="0.004023" NOx_perVeh="0.119392" fuel_perVeh="0.136830" electricity_perVeh="0"/>
        <edge id=":1110673650_0" sampledSeconds="200.07" CO_abs="2811.620371" CO2_abs="368288.692422" HC_abs="21.180725" PMx_abs="4.847954" NOx_abs="136.118099" fuel_abs="158.312019" electricity_abs="0"
            CO_normed="3982.935244" CO2_normed="521716.953024" HC_normed="30.004569" PMx_normed="6.867601" NOx_normed="192.824600" fuel_normed="224.264458" electricity_normed="0"
            traveltime="0.02" CO_perVeh="0.325469" CO2_perVeh="42.632494" HC_perVeh="0.002452" PMx_perVeh="0.000561" NOx_perVeh="0.015757" fuel_perVeh="0.018326" electricity_perVeh="0"/>
        <edge id=":1110673655_0" sampledSeconds="20.60" CO_abs="389.523024" CO2_abs="45946.230463" HC_abs="2.830434" PMx_abs="0.627607" NOx_abs="17.203809" fuel_abs="19.750369" electricity_abs="0"
            CO_normed="551.797460" CO2_normed="65087.329189" HC_normed="4.009587" PMx_normed="0.889067" NOx_normed="24.370878" fuel_normed="27.978330" electricity_normed="0"
            traveltime="0.02" CO_perVeh="0.445000" CO2_perVeh="52.489981" HC_perVeh="0.003234" PMx_perVeh="0.000717" NOx_perVeh="0.019654" fuel_perVeh="0.022563" electricity_perVeh="0"/>
        <edge id=":1110673663_0" sampledSeconds="111.55" CO_abs="1743.446156" CO2_abs="193870.868856" HC_abs="12.402321" PMx_abs="2.711358" NOx_abs="73.176695" fuel_abs="83.336975" electricity_abs="0"
            CO_normed="45.233736" CO2_normed="5029.982548" HC_normed="0.321778" PMx_normed="0.070346" NOx_normed="1.898570" fuel_normed="2.162179" electricity_normed="0"
            traveltime="1.31" CO_perVeh="20.477598" CO2_perVeh="2277.104814" HC_perVeh="0.145671" PMx_perVeh="0.031846" NOx_perVeh="0.859495" fuel_perVeh="0.978832" electricity_perVeh="0"/>
        <edge id=":1110673663_1" sampledSeconds="171.04" CO_abs="2595.878368" CO2_abs="308194.569406" HC_abs="18.926555" PMx_abs="4.193644" NOx_abs="115.302824" fuel_abs="132.480012" electricity_abs="0"
            CO_normed="67.432438" CO2_normed="8005.887842" HC_normed="0.491650" PMx_normed="0.108937" NOx_normed="2.995191" fuel_normed="3.441398" electricity_normed="0"
            traveltime="1.28" CO_perVeh="19.426449" CO2_perVeh="2306.396982" HC_perVeh="0.141638" PMx_perVeh="0.031383" NOx_perVeh="0.862877" fuel_perVeh="0.991424" electricity_perVeh="0"/>