<?xml version="1.0" encoding="UTF-8"?>

<!-- generated on Tue Nov 10 16:10:13 2020 by Eclipse SUMO sumo Version 1.7.0
<configuration xmlns:xsi="http://www.w3.org/2001/XMLSchema-instance" xsi:noNamespaceSchemaLocation="http://sumo.dlr.de/xsd/sumoConfiguration.xsd">

    <input>
        <net-file value="../dataSets/Porto/8AM9AM_Routing_SaoBento/Porto.net.xml"/>
        <route-files value="../results/Porto/8AM9AM_Routing_SaoBento/cost_co-cost_co2/solution5/Porto.rou.xml"/>
        <additional-files value="moreOutputInfo.xml"/>
    </input>

    <output>
        <emission-output.precision value="6"/>
        <tripinfo-output value="../results/Porto/8AM9AM_Routing_SaoBento/cost_co-cost_co2/solution5/Porto-tripinfo"/>
    </output>

    <processing>
        <collision.action value="warn"/>
        <time-to-teleport value="-1"/>
    </processing>

    <emissions>
        <device.emissions.probability value="1"/>
    </emissions>

    <gui_only>
        <quit-on-end value="true"/>
        <start value="true"/>
    </gui_only>

</configuration>
-->

<meandata xmlns:xsi="http://www.w3.org/2001/XMLSchema-instance" xsi:noNamespaceSchemaLocation="http://sumo.dlr.de/xsd/meandata_file.xsd">
    <interval begin="0.00" end="8472.00" id="emissions-detector">
        <edge id=":1092997347_0" sampledSeconds="598.26" CO_abs="71714.116263" CO2_abs="3051457.097901" HC_abs="398.695435" PMx_abs="61.579786" NOx_abs="1319.349292" fuel_abs="1311.698060" electricity_abs="0"
            CO_normed="69257.773883" CO2_normed="2946938.994883" HC_normed="385.039372" PMx_normed="59.470564" NOx_normed="1274.159115" fuel_normed="1266.769953" electricity_normed="0"
            traveltime="0.07" CO_perVeh="8.209679" CO2_perVeh="349.324288" HC_perVeh="0.045642" PMx_perVeh="0.007050" NOx_perVeh="0.151036" fuel_perVeh="0.150160" electricity_perVeh="0"/>
        <edge id=":1103427051_0" sampledSeconds="19.18" CO_abs="1580.622031" CO2_abs="88712.567703" HC_abs="9.305068" PMx_abs="1.750155" NOx_abs="37.925410" fuel_abs="38.133595" electricity_abs="0"
            CO_normed="2316.042831" CO2_normed="129988.132808" HC_normed="13.634465" PMx_normed="2.564455" NOx_normed="55.571080" fuel_normed="55.876128" electricity_normed="0"
            traveltime="0.03" CO_perVeh="2.458067" CO2_perVeh="137.959270" HC_perVeh="0.014471" PMx_perVeh="0.002722" NOx_perVeh="0.058979" fuel_perVeh="0.059303" electricity_perVeh="0"/>
        <edge id=":1105984386_0" sampledSeconds="10.59" CO_abs="231.416060" CO2_abs="16659.177043" HC_abs="1.427780" PMx_abs="0.199537" NOx_abs="6.212426" fuel_abs="7.161190" electricity_abs="0"
            CO_normed="10.127233" CO2_normed="729.039178" HC_normed="0.062483" PMx_normed="0.008732" NOx_normed="0.271868" fuel_normed="0.313388" electricity_normed="0"
            traveltime="1.02" CO_perVeh="22.199664" CO2_perVeh="1598.109159" HC_perVeh="0.136966" PMx_perVeh="0.019141" NOx_perVeh="0.595956" fuel_perVeh="0.686970" electricity_perVeh="0"/>
        <edge id=":1105984390_0" sampledSeconds="10.27" CO_abs="0" CO2_abs="0" HC_abs="0" PMx_abs="0" NOx_abs="0" fuel_abs="0" electricity_abs="0"
            CO_normed="0" CO2_normed="0" HC_normed="0" PMx_normed="0" NOx_normed="0" fuel_normed="0" electricity_normed="0"
            traveltime="1.06" CO_perVeh="0" CO2_perVeh="0" HC_perVeh="0" PMx_perVeh="0" NOx_perVeh="0" fuel_perVeh="0" electricity_perVeh="0"/>
        <edge id=":1105984390_1" sampledSeconds="2400.39" CO_abs="63783.855265" CO2_abs="7364603.347521" HC_abs="466.735285" PMx_abs="134.217542" NOx_abs="2816.358598" fuel_abs="3165.701925" electricity_abs="0"
            CO_normed="2064.251426" CO2_normed="238342.334366" HC_normed="15.105060" PMx_normed="4.343713" NOx_normed="91.146454" fuel_normed="102.452332" electricity_normed="0"
            traveltime="0.65" CO_perVeh="17.225857" CO2_perVeh="1988.929688" HC_perVeh="0.126049" PMx_perVeh="0.036248" NOx_perVeh="0.760603" fuel_perVeh="0.854949" electricity_perVeh="0"/>
        <edge id=":1105984395_0" sampledSeconds="4.20" CO_abs="53.547705" CO2_abs="3950.546490" HC_abs="0.332824" PMx_abs="0.048614" NOx_abs="1.481072" fuel_abs="1.698197" electricity_abs="0"
            CO_normed="24.732590" CO2_normed="1824.676603" HC_normed="0.153725" PMx_normed="0.022454" NOx_normed="0.684077" fuel_normed="0.784362" electricity_normed="0"
            traveltime="0.10" CO_perVeh="1.241217" CO2_perVeh="91.572254" HC_perVeh="0.007715" PMx_perVeh="0.001127" NOx_perVeh="0.034331" fuel_perVeh="0.039364" electricity_perVeh="0"/>
        <edge id=":1105984398_0" sampledSeconds="10.80" CO_abs="755.671466" CO2_abs="48741.870068" HC_abs="4.591141" PMx_abs="0.892148" NOx_abs="20.250444" fuel_abs="20.951990" electricity_abs="0"
            CO_normed="26.559707" CO2_normed="1713.138363" HC_normed="0.161366" PMx_normed="0.031356" NOx_normed="0.711746" fuel_normed="0.736403" electricity_normed="0"
            traveltime="1.16" CO_perVeh="81.435635" CO2_perVeh="5252.712736" HC_perVeh="0.494769" PMx_perVeh="0.096143" NOx_perVeh="2.182308" fuel_perVeh="2.257911" electricity_perVeh="0"/>
        <edge id=":1105984398_1" sampledSeconds="646.47" CO_abs="12375.285598" CO2_abs="1394247.588431" HC_abs="88.521389" PMx_abs="20.490494" NOx_abs="531.242425" fuel_abs="599.327172" electricity_abs="0"
            CO_normed="421.026417" CO2_normed="47434.466160" HC_normed="3.011635" PMx_normed="0.697118" NOx_normed="18.073692" fuel_normed="20.390040" electricity_normed="0"
            traveltime="0.95" CO_perVeh="18.246370" CO2_perVeh="2055.706645" HC_perVeh="0.130518" PMx_perVeh="0.030212" NOx_perVeh="0.783275" fuel_perVeh="0.883660" electricity_perVeh="0"/>
        <edge id=":1106006327_0" sampledSeconds="669.34" CO_abs="90365.911379" CO2_abs="2941512.079585" HC_abs="480.728358" PMx_abs="61.403209" NOx_abs="1287.849707" fuel_abs="1264.451896" electricity_abs="0"
            CO_normed="4333.985608" CO2_normed="141076.107386" HC_normed="23.055926" PMx_normed="2.944923" NOx_normed="61.765792" fuel_normed="60.643624" electricity_normed="0"
            traveltime="2.08" CO_perVeh="281.471186" CO2_perVeh="9162.203778" HC_perVeh="1.497370" PMx_perVeh="0.191258" NOx_perVeh="4.011386" fuel_perVeh="3.938507" electricity_perVeh="0"/>
        <edge id=":1106006327_1" sampledSeconds="680.53" CO_abs="92180.195401" CO2_abs="3088721.080243" HC_abs="492.536428" PMx_abs="64.448981" NOx_abs="1351.885493" fuel_abs="1327.729582" electricity_abs="0"
            CO_normed="3855.320345" CO2_normed="129181.861334" HC_normed="20.599715" PMx_normed="2.695497" NOx_normed="56.540905" fuel_normed="55.530614" electricity_normed="0"
            traveltime="2.28" CO_perVeh="309.426604" CO2_perVeh="10368.089052" HC_perVeh="1.653326" PMx_perVeh="0.216340" NOx_perVeh="4.537952" fuel_perVeh="4.456867" electricity_perVeh="0"/>
        <edge id=":1106006327_2" sampledSeconds="0.00" CO_abs="0" CO2_abs="0" HC_abs="0" PMx_abs="0" NOx_abs="0" fuel_abs="0" electricity_abs="0"
            CO_normed="0" CO2_normed="0" HC_normed="0" PMx_normed="0" NOx_normed="0" fuel_normed="0" electricity_normed="0"/>
        <edge id=":1106006327_3" sampledSeconds="0.00" CO_abs="0" CO2_abs="0" HC_abs="0" PMx_abs="0" NOx_abs="0" fuel_abs="0" electricity_abs="0"
            CO_normed="0" CO2_normed="0" HC_normed="0" PMx_normed="0" NOx_normed="0" fuel_normed="0" electricity_normed="0"/>
        <edge id=":1107381198_0" sampledSeconds="0.00" CO_abs="0" CO2_abs="0" HC_abs="0" PMx_abs="0" NOx_abs="0" fuel_abs="0" electricity_abs="0"
            CO_normed="0" CO2_normed="0" HC_normed="0" PMx_normed="0" NOx_normed="0" fuel_normed="0" electricity_normed="0"/>
        <edge id=":1107381198_1" sampledSeconds="103.53" CO_abs="5126.507896" CO2_abs="206231.041717" HC_abs="28.108961" PMx_abs="3.646937" NOx_abs="86.011565" fuel_abs="88.651397" electricity_abs="0"
            CO_normed="237.557556" CO2_normed="9556.552577" HC_normed="1.302543" PMx_normed="0.168996" NOx_normed="3.985695" fuel_normed="4.108022" electricity_normed="0"
            traveltime="1.55" CO_perVeh="76.753653" CO2_perVeh="3087.674132" HC_perVeh="0.420845" PMx_perVeh="0.054602" NOx_perVeh="1.287758" fuel_perVeh="1.327281" electricity_perVeh="0"/>
        <edge id=":1110338277_0" sampledSeconds="161.58" CO_abs="2320.606583" CO2_abs="294298.011923" HC_abs="17.267605" PMx_abs="3.949643" NOx_abs="109.402555" fuel_abs="126.506429" electricity_abs="0"
            CO_normed="3521.762317" CO2_normed="446627.901542" HC_normed="26.205390" PMx_normed="5.993994" NOx_normed="166.029777" fuel_normed="191.986689" electricity_normed="0"
            traveltime="0.02" CO_perVeh="0.314304" CO2_perVeh="39.859840" HC_perVeh="0.002339" PMx_perVeh="0.000535" NOx_perVeh="0.014818" fuel_perVeh="0.017134" electricity_perVeh="0"/>
        <edge id=":1110338293_0" sampledSeconds="6897.14" CO_abs="665381.783948" CO2_abs="11559783.285633" HC_abs="3300.187186" PMx_abs="276.693489" NOx_abs="5229.877068" fuel_abs="4969.359201" electricity_abs="0"
            CO_normed="942467.116074" CO2_normed="16373630.716194" HC_normed="4674.486099" PMx_normed="391.917123" NOx_normed="7407.757886" fuel_normed="7038.752410" electricity_normed="0"
            traveltime="0.46" CO_perVeh="44.463126" CO2_perVeh="772.464933" HC_perVeh="0.220530" PMx_perVeh="0.018490" NOx_perVeh="0.349479" fuel_perVeh="0.332070" electricity_perVeh="0"/>
        <edge id=":1110338295_0" sampledSeconds="0.00" CO_abs="0" CO2_abs="0" HC_abs="0" PMx_abs="0" NOx_abs="0" fuel_abs="0" electricity_abs="0"
            CO_normed="0" CO2_normed="0" HC_normed="0" PMx_normed="0" NOx_normed="0" fuel_normed="0" electricity_normed="0"/>
        <edge id=":1110673403_0" sampledSeconds="201.08" CO_abs="3137.270617" CO2_abs="377918.572260" HC_abs="22.969114" PMx_abs="5.222901" NOx_abs="141.751038" fuel_abs="162.451302" electricity_abs="0"
            CO_normed="4443.726086" CO2_normed="535295.428130" HC_normed="32.534155" PMx_normed="7.397877" NOx_normed="200.780507" fuel_normed="230.100994" electricity_normed="0"
            traveltime="0.02" CO_perVeh="0.362592" CO2_perVeh="43.678226" HC_perVeh="0.002655" PMx_perVeh="0.000604" NOx_perVeh="0.016383" fuel_perVeh="0.018775" electricity_perVeh="0"/>
        <edge id=":1110673412_0" sampledSeconds="952.66" CO_abs="168182.499238" CO2_abs="11485584.496859" HC_abs="1046.855042" PMx_abs="252.298444" NOx_abs="4935.108222" fuel_abs="4937.087118" electricity_abs="0"
            CO_normed="246433.280118" CO2_normed="16829517.187935" HC_normed="1533.928459" PMx_normed="369.686106" NOx_normed="7231.280974" fuel_normed="7234.180596" electricity_normed="0"
            traveltime="0.02" CO_perVeh="2.745712" CO2_perVeh="187.511259" HC_perVeh="0.017091" PMx_perVeh="0.004119" NOx_perVeh="0.080570" fuel_perVeh="0.080602" electricity_perVeh="0"/>
        <edge id=":1110673414_0" sampledSeconds="0.00" CO_abs="0" CO2_abs="0" HC_abs="0" PMx_abs="0" NOx_abs="0" fuel_abs="0" electricity_abs="0"
            CO_normed="0" CO2_normed="0" HC_normed="0" PMx_normed="0" NOx_normed="0" fuel_normed="0" electricity_normed="0"/>
        <edge id=":1110673414_1" sampledSeconds="240.22" CO_abs="17435.780657" CO2_abs="670460.568023" HC_abs="94.944996" PMx_abs="12.286423" NOx_abs="282.451346" fuel_abs="288.207171" electricity_abs="0"
            CO_normed="820.484158" CO2_normed="31550.194725" HC_normed="4.467874" PMx_normed="0.578168" NOx_normed="13.291453" fuel_normed="13.562307" electricity_normed="0"
            traveltime="1.56" CO_perVeh="113.124991" CO2_perVeh="4350.011445" HC_perVeh="0.616012" PMx_perVeh="0.079715" NOx_perVeh="1.832571" fuel_perVeh="1.869915" electricity_perVeh="0"/>
        <edge id=":1110673417_0" sampledSeconds="28.96" CO_abs="422.472341" CO2_abs="51898.200983" HC_abs="3.118726" PMx_abs="0.703639" NOx_abs="19.359961" fuel_abs="22.308871" electricity_abs="0"
            CO_normed="641.145803" CO2_normed="78760.928241" HC_normed="4.732992" PMx_normed="1.067846" NOx_normed="29.380758" fuel_normed="33.856036" electricity_normed="0"
            traveltime="0.02" CO_perVeh="0.322155" CO2_perVeh="39.574869" HC_perVeh="0.002378" PMx_perVeh="0.000537" NOx_perVeh="0.014763" fuel_perVeh="0.017012" electricity_perVeh="0"/>
        <edge id=":1110673446_0" sampledSeconds="1327.29" CO_abs="14562.808644" CO2_abs="1174521.114489" HC_abs="94.196564" PMx_abs="21.585487" NOx_abs="480.827893" fuel_abs="504.872600" electricity_abs="0"
            CO_normed="20627.207711" CO2_normed="1663627.640919" HC_normed="133.422895" PMx_normed="30.574345" NOx_normed="681.059339" fuel_normed="715.116997" electricity_normed="0"
            traveltime="0.02" CO_perVeh="0.249862" CO2_perVeh="20.151886" HC_perVeh="0.001616" PMx_perVeh="0.000370" NOx_perVeh="0.008250" fuel_perVeh="0.008662" electricity_perVeh="0"/>
        <edge id=":1110673451_0" sampledSeconds="36.55" CO_abs="389.130266" CO2_abs="27146.727391" HC_abs="2.394236" PMx_abs="0.394539" NOx_abs="10.583549" fuel_abs="11.669319" electricity_abs="0"
            CO_normed="612.417793" CO2_normed="42723.839142" HC_normed="3.768076" PMx_normed="0.620930" NOx_normed="16.656513" fuel_normed="18.365312" electricity_normed="0"
            traveltime="0.03" CO_perVeh="0.286703" CO2_perVeh="20.001136" HC_perVeh="0.001764" PMx_perVeh="0.000291" NOx_perVeh="0.007798" fuel_perVeh="0.008598" electricity_perVeh="0"/>
        <edge id=":1110673464_0" sampledSeconds="1028.78" CO_abs="3462.501413" CO2_abs="266310.502889" HC_abs="21.801747" PMx_abs="3.606386" NOx_abs="101.658904" fuel_abs="114.476637" electricity_abs="0"
            CO_normed="104.200983" CO2_normed="8014.384080" HC_normed="0.656105" PMx_normed="0.108531" NOx_normed="3.059337" fuel_normed="3.445075" electricity_normed="0"
            traveltime="1.22" CO_perVeh="4.106042" CO2_perVeh="315.806985" HC_perVeh="0.025854" PMx_perVeh="0.004277" NOx_perVeh="0.120553" fuel_perVeh="0.135753" electricity_perVeh="0"/>
        <edge id=":1110673464_1" sampledSeconds="2606.42" CO_abs="64048.261140" CO2_abs="7832945.278286" HC_abs="478.081475" PMx_abs="139.717200" NOx_abs="2969.330458" fuel_abs="3367.022373" electricity_abs="0"
            CO_normed="1888.686675" CO2_normed="230981.748932" HC_normed="14.097902" PMx_normed="4.120050" NOx_normed="87.561079" fuel_normed="99.288414" electricity_normed="0"
            traveltime="0.72" CO_perVeh="17.657097" CO2_perVeh="2159.419681" HC_perVeh="0.131800" PMx_perVeh="0.038518" NOx_perVeh="0.818598" fuel_perVeh="0.928235" electricity_perVeh="0"/>
        <edge id=":1110673479_0" sampledSeconds="135.68" CO_abs="5738.788691" CO2_abs="397408.609828" HC_abs="35.432444" PMx_abs="6.800662" NOx_abs="161.532148" fuel_abs="170.828929" electricity_abs="0"
            CO_normed="8128.595879" CO2_normed="562901.713637" HC_normed="50.187597" PMx_normed="9.632665" NOx_normed="228.799076" fuel_normed="241.967322" electricity_normed="0"
            traveltime="0.03" CO_perVeh="1.213232" CO2_perVeh="84.015773" HC_perVeh="0.007491" PMx_perVeh="0.001438" NOx_perVeh="0.034149" fuel_perVeh="0.036115" electricity_perVeh="0"/>
        <edge id=":1110673511_0" sampledSeconds="63.64" CO_abs="1180.646453" CO2_abs="120730.216001" HC_abs="8.122774" PMx_abs="1.739144" NOx_abs="46.064605" fuel_abs="51.896848" electricity_abs="0"
            CO_normed="1672.303757" CO2_normed="171005.971673" HC_normed="11.505346" PMx_normed="2.463377" NOx_normed="65.247316" fuel_normed="73.508283" electricity_normed="0"
            traveltime="0.02" CO_perVeh="0.452499" CO2_perVeh="46.271562" HC_perVeh="0.003113" PMx_perVeh="0.000667" NOx_perVeh="0.017655" fuel_perVeh="0.019890" electricity_perVeh="0"/>
        <edge id=":1110673517_0" sampledSeconds="182.77" CO_abs="7749.810875" CO2_abs="552542.923040" HC_abs="48.261062" PMx_abs="9.560252" NOx_abs="224.889813" fuel_abs="237.514206" electricity_abs="0"
            CO_normed="10977.069228" CO2_normed="782638.701190" HC_normed="68.358444" PMx_normed="13.541434" NOx_normed="318.540811" fuel_normed="336.422389" electricity_normed="0"
            traveltime="0.03" CO_perVeh="1.186559" CO2_perVeh="84.598794" HC_perVeh="0.007389" PMx_perVeh="0.001464" NOx_perVeh="0.034432" fuel_perVeh="0.036365" electricity_perVeh="0"/>
        <edge id=":1110673534_0" sampledSeconds="738.43" CO_abs="5103.354179" CO2_abs="426040.807670" HC_abs="32.958455" PMx_abs="5.697849" NOx_abs="161.709155" fuel_abs="183.138343" electricity_abs="0"
            CO_normed="140.088120" CO2_normed="11694.907648" HC_normed="0.904716" PMx_normed="0.156407" NOx_normed="4.438950" fuel_normed="5.027185" electricity_normed="0"
            traveltime="1.46" CO_perVeh="10.064659" CO2_perVeh="840.222965" HC_perVeh="0.065000" PMx_perVeh="0.011237" NOx_perVeh="0.318917" fuel_perVeh="0.361179" electricity_perVeh="0"/>
        <edge id=":1110673534_1" sampledSeconds="200.03" CO_abs="2684.293416" CO2_abs="364521.717592" HC_abs="20.495896" PMx_abs="4.818241" NOx_abs="134.492324" fuel_abs="156.692670" electricity_abs="0"
            CO_normed="71.647902" CO2_normed="9729.642839" HC_normed="0.547067" PMx_normed="0.128606" NOx_normed="3.589806" fuel_normed="4.182367" electricity_normed="0"
            traveltime="1.22" CO_perVeh="16.408241" CO2_perVeh="2228.206566" HC_perVeh="0.125285" PMx_perVeh="0.029452" NOx_perVeh="0.822109" fuel_perVeh="0.957813" electricity_perVeh="0"/>
        <edge id=":1110673549_0" sampledSeconds="652.63" CO_abs="1417.142773" CO2_abs="131339.139155" HC_abs="9.395739" PMx_abs="1.949193" NOx_abs="50.404952" fuel_abs="56.457203" electricity_abs="0"
            CO_normed="37.683687" CO2_normed="3492.480132" HC_normed="0.249845" PMx_normed="0.051832" NOx_normed="1.340334" fuel_normed="1.501271" electricity_normed="0"
            traveltime="1.30" CO_perVeh="2.815525" CO2_perVeh="260.939552" HC_perVeh="0.018667" PMx_perVeh="0.003873" NOx_perVeh="0.100143" fuel_perVeh="0.112167" electricity_perVeh="0"/>
        <edge id=":1110673549_1" sampledSeconds="3197.78" CO_abs="70746.555431" CO2_abs="9204163.104245" HC_abs="542.145542" PMx_abs="162.278208" NOx_abs="3446.824051" fuel_abs="3956.448056" electricity_abs="0"
            CO_normed="1819.750344" CO2_normed="236750.451961" HC_normed="13.945125" PMx_normed="4.174137" NOx_normed="88.659571" fuel_normed="101.768173" electricity_normed="0"
            traveltime="0.81" CO_perVeh="17.844077" CO2_perVeh="2321.523508" HC_perVeh="0.136743" PMx_perVeh="0.040931" NOx_perVeh="0.869376" fuel_perVeh="0.997917" electricity_perVeh="0"/>
        <edge id=":1110673556_0" sampledSeconds="468.31" CO_abs="57238.834969" CO2_abs="2744030.638584" HC_abs="325.763782" PMx_abs="55.244795" NOx_abs="1182.044631" fuel_abs="1179.542217" electricity_abs="0"
            CO_normed="1128.652024" CO2_normed="54107.595589" HC_normed="6.423505" PMx_normed="1.089333" NOx_normed="23.307900" fuel_normed="23.258557" electricity_normed="0"
            traveltime="2.76" CO_perVeh="337.417429" CO2_perVeh="16175.796773" HC_perVeh="1.920346" PMx_perVeh="0.325663" NOx_perVeh="6.968039" fuel_perVeh="6.953288" electricity_perVeh="0"/>
        <edge id=":1110673556_2" sampledSeconds="175.14" CO_abs="17739.425566" CO2_abs="762039.728783" HC_abs="98.680884" PMx_abs="14.753345" NOx_abs="325.244835" fuel_abs="327.570906" electricity_abs="0"
            CO_normed="365.744761" CO2_normed="15711.446672" HC_normed="2.034565" PMx_normed="0.304179" NOx_normed="6.705775" fuel_normed="6.753733" electricity_normed="0"
            traveltime="3.03" CO_perVeh="306.740017" CO2_perVeh="13176.755831" HC_perVeh="1.706333" PMx_perVeh="0.255106" NOx_perVeh="5.623948" fuel_perVeh="5.664169" electricity_perVeh="0"/>
        <edge id=":1110673556_3" sampledSeconds="242.88" CO_abs="25873.351415" CO2_abs="885063.114024" HC_abs="138.519604" PMx_abs="17.606535" NOx_abs="382.076506" fuel_abs="380.457477" electricity_abs="0"
            CO_normed="1213.503528" CO2_normed="41510.942819" HC_normed="6.496802" PMx_normed="0.825776" NOx_normed="17.920028" fuel_normed="17.844093" electricity_normed="0"
            traveltime="1.87" CO_perVeh="199.695501" CO2_perVeh="6831.087288" HC_perVeh="1.069121" PMx_perVeh="0.135891" NOx_perVeh="2.948940" fuel_perVeh="2.936444" electricity_perVeh="0"/>
        <edge id=":1110673556_4" sampledSeconds="45.32" CO_abs="5432.310099" CO2_abs="214646.099360" HC_abs="29.789031" PMx_abs="4.286914" NOx_abs="92.605964" fuel_abs="92.268073" electricity_abs="0"
            CO_normed="155.653882" CO2_normed="6150.329782" HC_normed="0.853556" PMx_normed="0.122834" NOx_normed="2.653471" fuel_normed="2.643789" electricity_normed="0"
            traveltime="2.49" CO_perVeh="298.817989" CO2_perVeh="11807.152870" HC_perVeh="1.638621" PMx_perVeh="0.235813" NOx_perVeh="5.094026" fuel_perVeh="5.075439" electricity_perVeh="0"/>
        <edge id=":1110673556_5" sampledSeconds="22.23" CO_abs="1213.884586" CO2_abs="55793.793197" HC_abs="6.816975" PMx_abs="0.955664" NOx_abs="23.003218" fuel_abs="23.983675" electricity_abs="0"
            CO_normed="48.478852" CO2_normed="2228.234089" HC_normed="0.272249" PMx_normed="0.038166" NOx_normed="0.918678" fuel_normed="0.957835" electricity_normed="0"
            traveltime="1.54" CO_perVeh="83.922885" CO2_perVeh="3857.348665" HC_perVeh="0.471297" PMx_perVeh="0.066071" NOx_perVeh="1.590346" fuel_perVeh="1.658131" electricity_perVeh="0"/>
        <edge id=":1110673556_6" sampledSeconds="210.98" CO_abs="25611.041134" CO2_abs="1303784.260656" HC_abs="147.635076" PMx_abs="26.300920" NOx_abs="561.130151" fuel_abs="560.440126" electricity_abs="0"
            CO_normed="517.739233" CO2_normed="26356.611550" HC_normed="2.984512" PMx_normed="0.531685" NOx_normed="11.343510" fuel_normed="11.329561" electricity_normed="0"
            traveltime="2.46" CO_perVeh="298.433441" CO2_perVeh="15192.386030" HC_perVeh="1.720322" PMx_perVeh="0.306472" NOx_perVeh="6.538586" fuel_perVeh="6.530546" electricity_perVeh="0"/>
        <edge id=":1110673561_0" sampledSeconds="102.52" CO_abs="10018.653353" CO2_abs="708991.664065" HC_abs="62.674425" PMx_abs="14.429015" NOx_abs="300.755026" fuel_abs="304.761666" electricity_abs="0"
            CO_normed="254.466117" CO2_normed="18007.844911" HC_normed="1.591882" PMx_normed="0.366486" NOx_normed="7.638947" fuel_normed="7.740713" electricity_normed="0"
            traveltime="1.21" CO_perVeh="118.229834" CO2_perVeh="8366.789783" HC_perVeh="0.739619" PMx_perVeh="0.170276" NOx_perVeh="3.549201" fuel_perVeh="3.596483" electricity_perVeh="0"/>
        <edge id=":1110673561_1" sampledSeconds="5249.97" CO_abs="486845.427495" CO2_abs="33802511.830095" HC_abs="3034.532659" PMx_abs="705.433513" NOx_abs="14442.880554" fuel_abs="14530.068283" electricity_abs="0"
            CO_normed="12055.642631" CO2_normed="837043.915046" HC_normed="75.143442" PMx_normed="17.468490" NOx_normed="357.645767" fuel_normed="359.804777" electricity_normed="0"
            traveltime="1.19" CO_perVeh="110.549480" CO2_perVeh="7675.639708" HC_perVeh="0.689061" PMx_perVeh="0.160185" NOx_perVeh="3.279589" fuel_perVeh="3.299387" electricity_perVeh="0"/>
        <edge id=":1110673562_0" sampledSeconds="301.93" CO_abs="6666.553718" CO2_abs="504449.231009" HC_abs="41.888327" PMx_abs="7.028780" NOx_abs="194.118939" fuel_abs="216.843086" electricity_abs="0"
            CO_normed="10491.900721" CO2_normed="793908.138194" HC_normed="65.924342" PMx_normed="11.061977" NOx_normed="305.506672" fuel_normed="341.270202" electricity_normed="0"
            traveltime="0.03" CO_perVeh="0.597599" CO2_perVeh="45.219553" HC_perVeh="0.003755" PMx_perVeh="0.000630" NOx_perVeh="0.017401" fuel_perVeh="0.019438" electricity_perVeh="0"/>
        <edge id=":1110673564_0" sampledSeconds="27.43" CO_abs="403.213773" CO2_abs="53493.625287" HC_abs="3.054968" PMx_abs="0.699753" NOx_abs="19.730777" fuel_abs="22.994693" electricity_abs="0"
            CO_normed="1713.372973" CO2_normed="227310.022467" HC_normed="12.981449" PMx_normed="2.973455" NOx_normed="83.841831" fuel_normed="97.711159" electricity_normed="0"
            traveltime="7.747556e-03" CO_perVeh="0.113886" CO2_perVeh="15.109060" HC_perVeh="0.000863" PMx_perVeh="0.000198" NOx_perVeh="0.005573" fuel_perVeh="0.006495" electricity_perVeh="0"/>
        <edge id=":1110673588_0" sampledSeconds="63.02" CO_abs="1128.179502" CO2_abs="121506.134190" HC_abs="7.932882" PMx_abs="1.705126" NOx_abs="46.001732" fuel_abs="52.230414" electricity_abs="0"
            CO_normed="1917.585555" CO2_normed="206526.007122" HC_normed="13.483651" PMx_normed="2.898231" NOx_normed="78.189912" fuel_normed="88.776908" electricity_normed="0"
            traveltime="0.02" CO_perVeh="0.363929" CO2_perVeh="39.195527" HC_perVeh="0.002559" PMx_perVeh="0.000550" NOx_perVeh="0.014839" fuel_perVeh="0.016849" electricity_perVeh="0"/>
        <edge id=":1110673601_0" sampledSeconds="28.85" CO_abs="461.315371" CO2_abs="54756.014666" HC_abs="3.341500" PMx_abs="0.734868" NOx_abs="20.404029" fuel_abs="23.537344" electricity_abs="0"
            CO_normed="700.094148" CO2_normed="83097.958316" HC_normed="5.071074" PMx_normed="1.115239" NOx_normed="30.965240" fuel_normed="35.720373" electricity_normed="0"
            traveltime="0.02" CO_perVeh="0.351775" CO2_perVeh="41.754089" HC_perVeh="0.002548" PMx_perVeh="0.000560" NOx_perVeh="0.015559" fuel_perVeh="0.017948" electricity_perVeh="0"/>
        <edge id=":1110673617_0" sampledSeconds="854.67" CO_abs="33355.967983" CO2_abs="3328611.158415" HC_abs="231.795454" PMx_abs="63.127393" NOx_abs="1309.105025" fuel_abs="1430.813824" electricity_abs="0"
            CO_normed="47246.413574" CO2_normed="4714746.683307" HC_normed="328.322172" PMx_normed="89.415571" NOx_normed="1854.256409" fuel_normed="2026.648476" electricity_normed="0"
            traveltime="0.02" CO_perVeh="0.590671" CO2_perVeh="58.943432" HC_perVeh="0.004105" PMx_perVeh="0.001118" NOx_perVeh="0.023182" fuel_perVeh="0.025337" electricity_perVeh="0"/>
        <edge id=":1110673621_0" sampledSeconds="26.20" CO_abs="648.277040" CO2_abs="63495.916043" HC_abs="4.427554" PMx_abs="0.968360" NOx_abs="24.608635" fuel_abs="27.294169" electricity_abs="0"
            CO_normed="1101.887320" CO2_normed="107925.069762" HC_normed="7.525588" PMx_normed="1.645937" NOx_normed="41.827708" fuel_normed="46.392355" electricity_normed="0"
            traveltime="0.02" CO_perVeh="0.491119" CO2_perVeh="48.102967" HC_perVeh="0.003354" PMx_perVeh="0.000734" NOx_perVeh="0.018643" fuel_perVeh="0.020677" electricity_perVeh="0"/>
        <edge id=":1110673630_0" sampledSeconds="287.61" CO_abs="1296.479786" CO2_abs="114082.372016" HC_abs="8.497426" PMx_abs="1.462703" NOx_abs="42.822856" fuel_abs="49.039611" electricity_abs="0"
            CO_normed="39.294728" CO2_normed="3457.698190" HC_normed="0.257547" PMx_normed="0.044333" NOx_normed="1.297909" fuel_normed="1.486331" electricity_normed="0"
            traveltime="1.29" CO_perVeh="5.833664" CO2_perVeh="513.327104" HC_perVeh="0.038235" PMx_perVeh="0.006582" NOx_perVeh="0.192686" fuel_perVeh="0.220660" electricity_perVeh="0"/>
        <edge id=":1110673630_1" sampledSeconds="336.72" CO_abs="1403.825937" CO2_abs="118128.727751" HC_abs="9.083226" PMx_abs="1.571189" NOx_abs="44.798083" fuel_abs="50.778939" electricity_abs="0"
            CO_normed="51.871878" CO2_normed="4364.899412" HC_normed="0.335628" PMx_normed="0.058056" NOx_normed="1.655305" fuel_normed="1.876300" electricity_normed="0"
            traveltime="1.07" CO_perVeh="4.475121" CO2_perVeh="376.571135" HC_perVeh="0.028956" PMx_perVeh="0.005009" NOx_perVeh="0.142807" fuel_perVeh="0.161873" electricity_perVeh="0"/>
        <edge id=":1110673650_0" sampledSeconds="199.87" CO_abs="2911.246865" CO2_abs="362831.621006" HC_abs="21.545351" PMx_abs="4.998661" NOx_abs="135.644338" fuel_abs="155.966020" electricity_abs="0"
            CO_normed="4123.579129" CO2_normed="513925.808790" HC_normed="30.517494" PMx_normed="7.080256" NOx_normed="192.130790" fuel_normed="220.915042" electricity_normed="0"
            traveltime="0.02" CO_perVeh="0.336470" CO2_perVeh="41.934540" HC_perVeh="0.002490" PMx_perVeh="0.000578" NOx_perVeh="0.015677" fuel_perVeh="0.018026" electricity_perVeh="0"/>
        <edge id=":1110673655_0" sampledSeconds="20.75" CO_abs="335.100821" CO2_abs="37560.986894" HC_abs="2.380202" PMx_abs="0.525637" NOx_abs="14.155140" fuel_abs="16.145894" electricity_abs="0"
            CO_normed="474.647056" CO2_normed="53202.531012" HC_normed="3.371390" PMx_normed="0.744529" NOx_normed="20.049773" fuel_normed="22.869539" electricity_normed="0"
            traveltime="0.02" CO_perVeh="0.382827" CO2_perVeh="42.910495" HC_perVeh="0.002719" PMx_perVeh="0.000600" NOx_perVeh="0.016171" fuel_perVeh="0.018445" electricity_perVeh="0"/>
        <edge id=":1110673663_0" sampledSeconds="110.59" CO_abs="1934.611653" CO2_abs="220414.791783" HC_abs="13.906088" PMx_abs="3.113605" NOx_abs="83.279312" fuel_abs="94.747024" electricity_abs="0"
            CO_normed="50.187603" CO2_normed="5717.990012" HC_normed="0.360751" PMx_normed="0.080773" NOx_normed="2.160428" fuel_normed="2.457923" electricity_normed="0"
            traveltime="1.30" CO_perVeh="22.722927" CO2_perVeh="2588.875711" HC_perVeh="0.163334" PMx_perVeh="0.036571" NOx_perVeh="0.978155" fuel_perVeh="1.112848" electricity_perVeh="0"/>
        <edge id=":1110673663_1" sampledSeconds="170.69" CO_abs="2796.339105" CO2_abs="322042.074113" HC_abs="20.069837" PMx_abs="4.505824" NOx_abs="121.230302" fuel_abs="138.432345" electricity_abs="0"
            CO_normed="72.631178" CO2_normed="8364.613324" HC_normed="0.521287" PMx_normed="0.117033" NOx_normed="3.148795" fuel_normed="3.595596" electricity_normed="0"
            traveltime="1.28" CO_perVeh="20.903285" CO2_perVeh="2407.339436" HC_perVeh="0.150027" PMx_perVeh="0.033682" NOx_perVeh="0.906225" fuel_perVeh="1.034814" electricity_perVeh="0"/>
        <edge id=":1110673666_0" sampledSeconds="207.18" CO_abs="4186.345694" CO2_abs="345731.446258" HC_abs="26.941548" PMx_abs="4.593898" NOx_abs="131.157095" fuel_abs="148.616549" electricity_abs="0"