<?xml version="1.0" encoding="UTF-8"?>

<!-- generated on Tue Nov 10 06:25:52 2020 by Eclipse SUMO sumo Version 1.7.0
<configuration xmlns:xsi="http://www.w3.org/2001/XMLSchema-instance" xsi:noNamespaceSchemaLocation="http://sumo.dlr.de/xsd/sumoConfiguration.xsd">

    <input>
        <net-file value="../dataSets/Porto/8AM9AM_Routing_SaoBento/Porto.net.xml"/>
        <route-files value="../results/Porto/8AM9AM_Routing_SaoBento/cost_co-length/solution6/Porto.rou.xml"/>
        <additional-files value="moreOutputInfo.xml"/>
    </input>

    <output>
        <emission-output.precision value="6"/>
        <tripinfo-output value="../results/Porto/8AM9AM_Routing_SaoBento/cost_co-length/solution6/Porto-tripinfo"/>
    </output>

    <processing>
        <collision.action value="warn"/>
        <time-to-teleport value="-1"/>
    </processing>

    <emissions>
        <device.emissions.probability value="1"/>
    </emissions>

    <gui_only>
        <quit-on-end value="true"/>
        <start value="true"/>
    </gui_only>

</configuration>
-->

<meandata xmlns:xsi="http://www.w3.org/2001/XMLSchema-instance" xsi:noNamespaceSchemaLocation="http://sumo.dlr.de/xsd/meandata_file.xsd">
    <interval begin="0.00" end="8562.00" id="emissions-detector">
        <edge id=":1092997347_0" sampledSeconds="604.73" CO_abs="72810.031483" CO2_abs="3078751.729083" HC_abs="404.324427" PMx_abs="62.187353" NOx_abs="1331.757370" fuel_abs="1323.431196" electricity_abs="0"
            CO_normed="69577.019319" CO2_normed="2942044.717860" HC_normed="386.371052" PMx_normed="59.426023" NOx_normed="1272.622829" fuel_normed="1264.666366" electricity_normed="0"
            traveltime="0.07" CO_perVeh="8.329692" CO2_perVeh="352.218698" HC_perVeh="0.046256" PMx_perVeh="0.007114" NOx_perVeh="0.152357" fuel_perVeh="0.151405" electricity_perVeh="0"/>
        <edge id=":1103427051_0" sampledSeconds="19.46" CO_abs="1597.223642" CO2_abs="89355.395149" HC_abs="9.391578" PMx_abs="1.741200" NOx_abs="38.062179" fuel_abs="38.409955" electricity_abs="0"
            CO_normed="2315.767792" CO2_normed="129553.771087" HC_normed="13.616574" PMx_normed="2.524515" NOx_normed="55.185239" fuel_normed="55.689469" electricity_normed="0"
            traveltime="0.03" CO_perVeh="2.483885" CO2_perVeh="138.958948" HC_perVeh="0.014605" PMx_perVeh="0.002708" NOx_perVeh="0.059192" fuel_perVeh="0.059732" electricity_perVeh="0"/>
        <edge id=":1105984386_0" sampledSeconds="10.41" CO_abs="331.133831" CO2_abs="25253.011780" HC_abs="2.081151" PMx_abs="0.331315" NOx_abs="9.590781" fuel_abs="10.855315" electricity_abs="0"
            CO_normed="14.338760" CO2_normed="1093.506147" HC_normed="0.090118" PMx_normed="0.014347" NOx_normed="0.415300" fuel_normed="0.470057" electricity_normed="0"
            traveltime="1.00" CO_perVeh="31.765555" CO2_perVeh="2422.512788" HC_perVeh="0.199644" PMx_perVeh="0.031783" NOx_perVeh="0.920040" fuel_perVeh="1.041347" electricity_perVeh="0"/>
        <edge id=":1105984390_0" sampledSeconds="10.67" CO_abs="50.978645" CO2_abs="3083.753891" HC_abs="0.302388" PMx_abs="0.044221" NOx_abs="1.206023" fuel_abs="1.325591" electricity_abs="0"
            CO_normed="1.706577" CO2_normed="103.232715" HC_normed="0.010123" PMx_normed="0.001480" NOx_normed="0.040373" fuel_normed="0.044376" electricity_normed="0"
            traveltime="1.11" CO_perVeh="5.284244" CO2_perVeh="319.649656" HC_perVeh="0.031344" PMx_perVeh="0.004584" NOx_perVeh="0.125012" fuel_perVeh="0.137406" electricity_perVeh="0"/>
        <edge id=":1105984390_1" sampledSeconds="2401.36" CO_abs="64026.243256" CO2_abs="7611070.198390" HC_abs="473.849891" PMx_abs="137.488219" NOx_abs="2896.994350" fuel_abs="3271.647492" electricity_abs="0"
            CO_normed="2050.314917" CO2_normed="243729.601673" HC_normed="15.174114" PMx_normed="4.402791" NOx_normed="92.770565" fuel_normed="104.768097" electricity_normed="0"
            traveltime="0.65" CO_perVeh="17.284800" CO2_perVeh="2054.717226" HC_perVeh="0.127923" PMx_perVeh="0.037117" NOx_perVeh="0.782085" fuel_perVeh="0.883228" electricity_perVeh="0"/>
        <edge id=":1105984395_0" sampledSeconds="4.12" CO_abs="135.767758" CO2_abs="9870.695663" HC_abs="0.842190" PMx_abs="0.130063" NOx_abs="3.755219" fuel_abs="4.243043" electricity_abs="0"
            CO_normed="62.049187" CO2_normed="4511.149415" HC_normed="0.384902" PMx_normed="0.059442" NOx_normed="1.716227" fuel_normed="1.939175" electricity_normed="0"
            traveltime="0.10" CO_perVeh="3.147048" CO2_perVeh="228.799194" HC_perVeh="0.019522" PMx_perVeh="0.003015" NOx_perVeh="0.087045" fuel_perVeh="0.098352" electricity_perVeh="0"/>
        <edge id=":1105984398_0" sampledSeconds="11.66" CO_abs="595.611388" CO2_abs="39638.452753" HC_abs="3.639969" PMx_abs="0.682739" NOx_abs="16.181503" fuel_abs="17.038881" electricity_abs="0"
            CO_normed="20.714000" CO2_normed="1378.534598" HC_normed="0.126590" PMx_normed="0.023744" NOx_normed="0.562756" fuel_normed="0.592573" electricity_normed="0"
            traveltime="1.23" CO_perVeh="62.714031" CO2_perVeh="4173.672956" HC_perVeh="0.383265" PMx_perVeh="0.071888" NOx_perVeh="1.703808" fuel_perVeh="1.794084" electricity_perVeh="0"/>
        <edge id=":1105984398_1" sampledSeconds="645.32" CO_abs="12633.386935" CO2_abs="1441943.908486" HC_abs="90.486920" PMx_abs="21.012049" NOx_abs="547.840263" fuel_abs="619.829894" electricity_abs="0"
            CO_normed="425.289477" CO2_normed="48541.501461" HC_normed="3.046145" PMx_normed="0.707348" NOx_normed="18.442457" fuel_normed="20.865911" electricity_normed="0"
            traveltime="0.95" CO_perVeh="18.671078" CO2_perVeh="2131.071200" HC_perVeh="0.133732" PMx_perVeh="0.031054" NOx_perVeh="0.809662" fuel_perVeh="0.916056" electricity_perVeh="0"/>
        <edge id=":1106006327_0" sampledSeconds="379.21" CO_abs="51264.279828" CO2_abs="1674945.743328" HC_abs="272.865904" PMx_abs="34.954552" NOx_abs="733.296572" fuel_abs="719.999719" electricity_abs="0"
            CO_normed="2432.811254" CO2_normed="79486.669219" HC_normed="12.949197" PMx_normed="1.658813" NOx_normed="34.799517" fuel_normed="34.168498" electricity_normed="0"
            traveltime="2.07" CO_perVeh="280.442284" CO2_perVeh="9162.824719" HC_perVeh="1.492718" PMx_perVeh="0.191220" NOx_perVeh="4.011514" fuel_perVeh="3.938773" electricity_perVeh="0"/>
        <edge id=":1106006327_1" sampledSeconds="677.53" CO_abs="91342.103016" CO2_abs="3065174.254717" HC_abs="488.144022" PMx_abs="63.833595" NOx_abs="1340.871422" fuel_abs="1317.607717" electricity_abs="0"
            CO_normed="3780.111200" CO2_normed="126849.493792" HC_normed="20.201404" PMx_normed="2.641696" NOx_normed="55.490764" fuel_normed="54.528016" electricity_normed="0"
            traveltime="2.27" CO_perVeh="306.613331" CO2_perVeh="10289.048058" HC_perVeh="1.638581" PMx_perVeh="0.214274" NOx_perVeh="4.500981" fuel_perVeh="4.422890" electricity_perVeh="0"/>
        <edge id=":1106006327_2" sampledSeconds="0.00" CO_abs="0" CO2_abs="0" HC_abs="0" PMx_abs="0" NOx_abs="0" fuel_abs="0" electricity_abs="0"
            CO_normed="0" CO2_normed="0" HC_normed="0" PMx_normed="0" NOx_normed="0" fuel_normed="0" electricity_normed="0"/>
        <edge id=":1106006327_3" sampledSeconds="0.00" CO_abs="0" CO2_abs="0" HC_abs="0" PMx_abs="0" NOx_abs="0" fuel_abs="0" electricity_abs="0"
            CO_normed="0" CO2_normed="0" HC_normed="0" PMx_normed="0" NOx_normed="0" fuel_normed="0" electricity_normed="0"/>
        <edge id=":1107381198_0" sampledSeconds="0.00" CO_abs="0" CO2_abs="0" HC_abs="0" PMx_abs="0" NOx_abs="0" fuel_abs="0" electricity_abs="0"
            CO_normed="0" CO2_normed="0" HC_normed="0" PMx_normed="0" NOx_normed="0" fuel_normed="0" electricity_normed="0"/>
        <edge id=":1107381198_1" sampledSeconds="103.87" CO_abs="5355.604574" CO2_abs="210119.940449" HC_abs="29.229669" PMx_abs="3.673313" NOx_abs="87.367116" fuel_abs="90.323274" electricity_abs="0"
            CO_normed="245.564987" CO2_normed="9634.411919" HC_normed="1.340238" PMx_normed="0.168429" NOx_normed="4.005954" fuel_normed="4.141499" electricity_normed="0"
            traveltime="1.56" CO_perVeh="80.183670" CO2_perVeh="3145.898403" HC_perVeh="0.437624" PMx_perVeh="0.054997" NOx_perVeh="1.308053" fuel_perVeh="1.352313" electricity_perVeh="0"/>
        <edge id=":1110338277_0" sampledSeconds="160.75" CO_abs="2358.394460" CO2_abs="297659.652767" HC_abs="17.554525" PMx_abs="4.020596" NOx_abs="110.825084" fuel_abs="127.951434" electricity_abs="0"
            CO_normed="3541.487326" CO2_normed="446981.158425" HC_normed="26.360785" PMx_normed="6.037536" NOx_normed="166.420689" fuel_normed="192.138503" electricity_normed="0"
            traveltime="0.02" CO_perVeh="0.319791" CO2_perVeh="40.361687" HC_perVeh="0.002380" PMx_perVeh="0.000545" NOx_perVeh="0.015028" fuel_perVeh="0.017350" electricity_perVeh="0"/>
        <edge id=":1110338293_0" sampledSeconds="6280.81" CO_abs="592557.593538" CO2_abs="10416974.429091" HC_abs="2941.774143" PMx_abs="247.917160" NOx_abs="4705.075283" fuel_abs="4478.080617" electricity_abs="0"
            CO_normed="830494.174545" CO2_normed="14599824.007135" HC_normed="4123.019121" PMx_normed="347.466236" NOx_normed="6594.359191" fuel_normed="6276.216702" electricity_normed="0"
            traveltime="0.42" CO_perVeh="39.600629" CO2_perVeh="696.166492" HC_perVeh="0.196599" PMx_perVeh="0.016568" NOx_perVeh="0.314440" fuel_perVeh="0.299270" electricity_perVeh="0"/>
        <edge id=":1110338295_0" sampledSeconds="0.00" CO_abs="0" CO2_abs="0" HC_abs="0" PMx_abs="0" NOx_abs="0" fuel_abs="0" electricity_abs="0"
            CO_normed="0" CO2_normed="0" HC_normed="0" PMx_normed="0" NOx_normed="0" fuel_normed="0" electricity_normed="0"/>
        <edge id=":1110673403_0" sampledSeconds="200.90" CO_abs="3099.078648" CO2_abs="375413.133889" HC_abs="22.718536" PMx_abs="5.184196" NOx_abs="140.710963" fuel_abs="161.374315" electricity_abs="0"
            CO_normed="4343.487944" CO2_normed="526157.160321" HC_normed="31.840975" PMx_normed="7.265866" NOx_normed="197.212282" fuel_normed="226.172831" electricity_normed="0"
            traveltime="0.02" CO_perVeh="0.358178" CO2_perVeh="43.388658" HC_perVeh="0.002626" PMx_perVeh="0.000599" NOx_perVeh="0.016263" fuel_perVeh="0.018651" electricity_perVeh="0"/>
        <edge id=":1110673412_0" sampledSeconds="951.58" CO_abs="167748.709235" CO2_abs="11476338.334901" HC_abs="1044.633117" PMx_abs="251.910343" NOx_abs="4929.082504" fuel_abs="4933.112763" electricity_abs="0"
            CO_normed="243213.941814" CO2_normed="16639206.922990" HC_normed="1514.582969" PMx_normed="365.237431" NOx_normed="7146.532399" fuel_normed="7152.375753" electricity_normed="0"
            traveltime="0.02" CO_perVeh="2.737780" CO2_perVeh="187.302115" HC_perVeh="0.017049" PMx_perVeh="0.004111" NOx_perVeh="0.080446" fuel_perVeh="0.080512" electricity_perVeh="0"/>
        <edge id=":1110673414_0" sampledSeconds="0.00" CO_abs="0" CO2_abs="0" HC_abs="0" PMx_abs="0" NOx_abs="0" fuel_abs="0" electricity_abs="0"
            CO_normed="0" CO2_normed="0" HC_normed="0" PMx_normed="0" NOx_normed="0" fuel_normed="0" electricity_normed="0"/>
        <edge id=":1110673414_1" sampledSeconds="237.72" CO_abs="15973.301746" CO2_abs="626424.538732" HC_abs="87.309635" PMx_abs="11.657951" NOx_abs="264.967588" fuel_abs="269.277112" electricity_abs="0"
            CO_normed="743.762406" CO2_normed="29168.109978" HC_normed="4.065385" PMx_normed="0.542827" NOx_normed="12.337645" fuel_normed="12.538309" electricity_normed="0"
            traveltime="1.54" CO_perVeh="103.636289" CO2_perVeh="4064.301531" HC_perVeh="0.566473" PMx_perVeh="0.075638" NOx_perVeh="1.719135" fuel_perVeh="1.747095" electricity_perVeh="0"/>
        <edge id=":1110673417_0" sampledSeconds="28.87" CO_abs="510.175481" CO2_abs="59176.686054" HC_abs="3.683737" PMx_abs="0.806052" NOx_abs="22.147670" fuel_abs="25.437601" electricity_abs="0"
            CO_normed="766.105937" CO2_normed="88862.778137" HC_normed="5.531690" PMx_normed="1.210410" NOx_normed="33.258089" fuel_normed="38.198420" electricity_normed="0"
            traveltime="0.02" CO_perVeh="0.389033" CO2_perVeh="45.125064" HC_perVeh="0.002809" PMx_perVeh="0.000615" NOx_perVeh="0.016889" fuel_perVeh="0.019397" electricity_perVeh="0"/>
        <edge id=":1110673446_0" sampledSeconds="1329.78" CO_abs="14156.260692" CO2_abs="1170736.605962" HC_abs="92.096869" PMx_abs="21.122606" NOx_abs="476.295508" fuel_abs="503.246134" electricity_abs="0"
            CO_normed="19840.589618" CO2_normed="1640836.168132" HC_normed="129.077603" PMx_normed="29.604214" NOx_normed="667.548014" fuel_normed="705.320440" electricity_normed="0"
            traveltime="0.02" CO_perVeh="0.242746" CO2_perVeh="20.075300" HC_perVeh="0.001579" PMx_perVeh="0.000362" NOx_perVeh="0.008167" fuel_perVeh="0.008629" electricity_perVeh="0"/>
        <edge id=":1110673451_0" sampledSeconds="36.53" CO_abs="408.514175" CO2_abs="28381.565030" HC_abs="2.512577" PMx_abs="0.421516" NOx_abs="11.118182" fuel_abs="12.200116" electricity_abs="0"
            CO_normed="636.166277" CO2_normed="44197.718648" HC_normed="3.912757" PMx_normed="0.656414" NOx_normed="17.313996" fuel_normed="18.998857" electricity_normed="0"
            traveltime="0.03" CO_perVeh="0.300985" CO2_perVeh="20.910939" HC_perVeh="0.001851" PMx_perVeh="0.000311" NOx_perVeh="0.008192" fuel_perVeh="0.008989" electricity_perVeh="0"/>
        <edge id=":1110673464_0" sampledSeconds="1039.11" CO_abs="4743.770896" CO2_abs="338781.786340" HC_abs="29.356052" PMx_abs="4.847606" NOx_abs="131.456558" fuel_abs="145.629107" electricity_abs="0"
            CO_normed="141.259052" CO2_normed="10088.175624" HC_normed="0.874159" PMx_normed="0.144351" NOx_normed="3.914487" fuel_normed="4.336514" electricity_normed="0"
            traveltime="1.23" CO_perVeh="5.625448" CO2_perVeh="401.747785" HC_perVeh="0.034812" PMx_perVeh="0.005749" NOx_perVeh="0.155889" fuel_perVeh="0.172696" electricity_perVeh="0"/>
        <edge id=":1110673464_1" sampledSeconds="2615.31" CO_abs="66731.392742" CO2_abs="7883005.370283" HC_abs="491.765206" PMx_abs="141.895817" NOx_abs="3005.366207" fuel_abs="3388.540013" electricity_abs="0"
            CO_normed="1947.123442" CO2_normed="230014.449310" HC_normed="14.348982" PMx_normed="4.140310" NOx_normed="87.692145" fuel_normed="98.872591" electricity_normed="0"
            traveltime="0.72" CO_perVeh="18.397484" CO2_perVeh="2173.301962" HC_perVeh="0.135577" PMx_perVeh="0.039120" NOx_perVeh="0.828563" fuel_perVeh="0.934202" electricity_perVeh="0"/>
        <edge id=":1110673479_0" sampledSeconds="135.00" CO_abs="6700.385285" CO2_abs="463740.025747" HC_abs="41.377637" PMx_abs="7.969353" NOx_abs="188.693073" fuel_abs="199.341917" electricity_abs="0"
            CO_normed="9390.869356" CO2_normed="649950.982126" HC_normed="57.992483" PMx_normed="11.169380" NOx_normed="264.461209" fuel_normed="279.386009" electricity_normed="0"
            traveltime="0.03" CO_perVeh="1.416522" CO2_perVeh="98.038834" HC_perVeh="0.008748" PMx_perVeh="0.001685" NOx_perVeh="0.039891" fuel_perVeh="0.042143" electricity_perVeh="0"/>
        <edge id=":1110673511_0" sampledSeconds="63.67" CO_abs="1223.324782" CO2_abs="125162.440186" HC_abs="8.468574" PMx_abs="1.814104" NOx_abs="47.850652" fuel_abs="53.802064" electricity_abs="0"
            CO_normed="1714.540689" CO2_normed="175420.378677" HC_normed="11.869059" PMx_normed="2.542542" NOx_normed="67.064685" fuel_normed="75.405837" electricity_normed="0"
            traveltime="0.02" CO_perVeh="0.468857" CO2_perVeh="47.970274" HC_perVeh="0.003246" PMx_perVeh="0.000695" NOx_perVeh="0.018339" fuel_perVeh="0.020620" electricity_perVeh="0"/>
        <edge id=":1110673517_0" sampledSeconds="182.74" CO_abs="8251.696363" CO2_abs="582195.471215" HC_abs="51.232939" PMx_abs="10.054437" NOx_abs="236.999415" fuel_abs="250.260634" electricity_abs="0"
            CO_normed="11565.096514" CO2_normed="815971.228052" HC_normed="71.805100" PMx_normed="14.091713" NOx_normed="332.164561" fuel_normed="350.750714" electricity_normed="0"
            traveltime="0.03" CO_perVeh="1.263411" CO2_perVeh="89.139534" HC_perVeh="0.007844" PMx_perVeh="0.001539" NOx_perVeh="0.036287" fuel_perVeh="0.038317" electricity_perVeh="0"/>
        <edge id=":1110673534_0" sampledSeconds="735.31" CO_abs="4888.398099" CO2_abs="415048.938069" HC_abs="31.727414" PMx_abs="5.550276" NOx_abs="157.447509" fuel_abs="178.413305" electricity_abs="0"
            CO_normed="132.777011" CO2_normed="11273.418460" HC_normed="0.861769" PMx_normed="0.150755" NOx_normed="4.276536" fuel_normed="4.846002" electricity_normed="0"
            traveltime="1.45" CO_perVeh="9.640730" CO2_perVeh="818.545179" HC_perVeh="0.062572" PMx_perVeh="0.010946" NOx_perVeh="0.310513" fuel_perVeh="0.351861" electricity_perVeh="0"/>
        <edge id=":1110673534_1" sampledSeconds="199.95" CO_abs="2869.976540" CO2_abs="379374.753666" HC_abs="21.619589" PMx_abs="4.991820" NOx_abs="140.025300" fuel_abs="163.077440" electricity_abs="0"
            CO_normed="75.798840" CO2_normed="10019.652053" HC_normed="0.570994" PMx_normed="0.131839" NOx_normed="3.698203" fuel_normed="4.307032" electricity_normed="0"
            traveltime="1.22" CO_perVeh="17.543264" CO2_perVeh="2318.998502" HC_perVeh="0.132154" PMx_perVeh="0.030513" NOx_perVeh="0.855931" fuel_perVeh="0.996841" electricity_perVeh="0"/>
        <edge id=":1110673549_0" sampledSeconds="647.29" CO_abs="1345.855631" CO2_abs="134306.232993" HC_abs="9.217438" PMx_abs="1.863270" NOx_abs="50.580055" fuel_abs="57.732774" electricity_abs="0"
            CO_normed="35.411880" CO2_normed="3533.838277" HC_normed="0.242527" PMx_normed="0.049026" NOx_normed="1.330852" fuel_normed="1.519053" electricity_normed="0"
            traveltime="1.29" CO_perVeh="2.673897" CO2_perVeh="266.834748" HC_perVeh="0.018313" PMx_perVeh="0.003702" NOx_perVeh="0.100491" fuel_perVeh="0.114701" electricity_perVeh="0"/>
        <edge id=":1110673549_1" sampledSeconds="3200.15" CO_abs="68471.246492" CO2_abs="9125463.514228" HC_abs="529.047065" PMx_abs="159.658187" NOx_abs="3403.982245" fuel_abs="3922.619583" electricity_abs="0"
            CO_normed="1742.711385" CO2_normed="232258.794358" HC_normed="13.465161" PMx_normed="4.063576" NOx_normed="86.637222" fuel_normed="99.837438" electricity_normed="0"
            traveltime="0.81" CO_perVeh="17.271884" CO2_perVeh="2301.899837" HC_perVeh="0.133452" PMx_perVeh="0.040274" NOx_perVeh="0.858655" fuel_perVeh="0.989482" electricity_perVeh="0"/>
        <edge id=":1110673556_0" sampledSeconds="466.42" CO_abs="58219.995595" CO2_abs="2803312.797856" HC_abs="331.706610" PMx_abs="56.758526" NOx_abs="1209.748948" fuel_abs="1205.024381" electricity_abs="0"
            CO_normed="1135.931573" CO2_normed="54695.495676" HC_normed="6.471935" PMx_normed="1.107417" NOx_normed="23.603437" fuel_normed="23.511256" electricity_normed="0"
            traveltime="2.75" CO_perVeh="343.201276" CO2_perVeh="16525.259401" HC_perVeh="1.955379" PMx_perVeh="0.334586" NOx_perVeh="7.131354" fuel_perVeh="7.103503" electricity_perVeh="0"/>
        <edge id=":1110673556_2" sampledSeconds="177.40" CO_abs="18039.204413" CO2_abs="770642.888627" HC_abs="100.249011" PMx_abs="14.950443" NOx_abs="329.239688" fuel_abs="331.269092" electricity_abs="0"
            CO_normed="368.015970" CO2_normed="15721.807002" HC_normed="2.045170" PMx_normed="0.305002" NOx_normed="6.716785" fuel_normed="6.758187" electricity_normed="0"
            traveltime="3.07" CO_perVeh="311.923622" CO2_perVeh="13325.516758" HC_perVeh="1.733449" PMx_perVeh="0.258515" NOx_perVeh="5.693025" fuel_perVeh="5.728116" electricity_perVeh="0"/>
        <edge id=":1110673556_3" sampledSeconds="342.07" CO_abs="35336.724394" CO2_abs="1226575.730671" HC_abs="189.574281" PMx_abs="24.180984" NOx_abs="528.075725" fuel_abs="527.261620" electricity_abs="0"
            CO_normed="1639.930220" CO2_normed="56923.742704" HC_normed="8.797889" PMx_normed="1.122207" NOx_normed="24.507290" fuel_normed="24.469508" electricity_normed="0"
            traveltime="1.82" CO_perVeh="188.475844" CO2_perVeh="6542.199372" HC_perVeh="1.011134" PMx_perVeh="0.128974" NOx_perVeh="2.816603" fuel_perVeh="2.812261" electricity_perVeh="0"/>
        <edge id=":1110673556_4" sampledSeconds="88.02" CO_abs="10041.137050" CO2_abs="387890.622030" HC_abs="54.846564" PMx_abs="7.751155" NOx_abs="167.448102" fuel_abs="166.739384" electricity_abs="0"
            CO_normed="284.687908" CO2_normed="10997.536349" HC_normed="1.555018" PMx_normed="0.219762" NOx_normed="4.747515" fuel_normed="4.727421" electricity_normed="0"
            traveltime="2.56" CO_perVeh="292.508176" CO2_perVeh="11299.634487" HC_perVeh="1.597734" PMx_perVeh="0.225799" NOx_perVeh="4.877928" fuel_perVeh="4.857282" electricity_perVeh="0"/>
        <edge id=":1110673556_5" sampledSeconds="22.16" CO_abs="1474.071301" CO2_abs="65611.092400" HC_abs="8.223317" PMx_abs="1.105493" NOx_abs="26.956334" fuel_abs="28.203832" electricity_abs="0"
            CO_normed="58.251101" CO2_normed="2592.763582" HC_normed="0.324962" PMx_normed="0.043686" NOx_normed="1.065238" fuel_normed="1.114535" electricity_normed="0"
            traveltime="1.53" CO_perVeh="101.911102" CO2_perVeh="4536.075524" HC_perVeh="0.568526" PMx_perVeh="0.076429" NOx_perVeh="1.863648" fuel_perVeh="1.949895" electricity_perVeh="0"/>
        <edge id=":1110673556_6" sampledSeconds="216.95" CO_abs="25993.560189" CO2_abs="1294393.099549" HC_abs="149.125402" PMx_abs="26.068797" NOx_abs="556.977425" fuel_abs="556.403807" electricity_abs="0"
            CO_normed="519.948503" CO2_normed="25891.711225" HC_normed="2.982952" PMx_normed="0.521453" NOx_normed="11.141205" fuel_normed="11.129731" electricity_normed="0"
            traveltime="2.53" CO_perVeh="302.890756" CO2_perVeh="15082.955237" HC_perVeh="1.737688" PMx_perVeh="0.303767" NOx_perVeh="6.490196" fuel_perVeh="6.483512" electricity_perVeh="0"/>
        <edge id=":1110673561_0" sampledSeconds="102.15" CO_abs="10208.960703" CO2_abs="724366.021594" HC_abs="63.942310" PMx_abs="14.724689" NOx_abs="307.046906" fuel_abs="311.370390" electricity_abs="0"
            CO_normed="256.574132" CO2_normed="18204.946485" HC_normed="1.607014" PMx_normed="0.370065" NOx_normed="7.716779" fuel_normed="7.825438" electricity_normed="0"
            traveltime="1.21" CO_perVeh="120.475645" CO2_perVeh="8548.222124" HC_perVeh="0.754581" PMx_perVeh="0.173766" NOx_perVeh="3.623452" fuel_perVeh="3.674473" electricity_perVeh="0"/>
        <edge id=":1110673561_1" sampledSeconds="5255.82" CO_abs="488330.850852" CO2_abs="33886097.422190" HC_abs="3043.069864" PMx_abs="707.335765" NOx_abs="14480.897434" fuel_abs="14565.997513" electricity_abs="0"
            CO_normed="11965.315539" CO2_normed="830293.329499" HC_normed="74.562750" PMx_normed="17.331478" NOx_normed="354.817859" fuel_normed="356.903022" electricity_normed="0"
            traveltime="1.19" CO_perVeh="110.873668" CO2_perVeh="7693.709940" HC_perVeh="0.690917" PMx_perVeh="0.160598" NOx_perVeh="3.287833" fuel_perVeh="3.307155" electricity_perVeh="0"/>
        <edge id=":1110673562_0" sampledSeconds="302.15" CO_abs="6578.599956" CO2_abs="506651.805313" HC_abs="41.485532" PMx_abs="6.758648" NOx_abs="192.903092" fuel_abs="217.790259" electricity_abs="0"
            CO_normed="10244.646822" CO2_normed="788992.922701" HC_normed="64.604114" PMx_normed="10.525030" NOx_normed="300.401918" fuel_normed="339.157921" electricity_normed="0"
            traveltime="0.03" CO_perVeh="0.589716" CO2_perVeh="45.417065" HC_perVeh="0.003719" PMx_perVeh="0.000606" NOx_perVeh="0.017292" fuel_perVeh="0.019523" electricity_perVeh="0"/>
        <edge id=":1110673564_0" sampledSeconds="27.71" CO_abs="470.827431" CO2_abs="52642.812827" HC_abs="3.354717" PMx_abs="0.769088" NOx_abs="20.036430" fuel_abs="22.628894" electricity_abs="0"
            CO_normed="1979.652827" CO2_normed="221343.291493" HC_normed="14.105328" PMx_normed="3.233727" NOx_normed="84.245677" fuel_normed="95.146014" electricity_normed="0"
            traveltime="7.827642e-03" CO_perVeh="0.132983" CO2_perVeh="14.868751" HC_perVeh="0.000948" PMx_perVeh="0.000217" NOx_perVeh="0.005659" fuel_perVeh="0.006391" electricity_perVeh="0"/>
        <edge id=":1110673588_0" sampledSeconds="63.24" CO_abs="1212.519755" CO2_abs="125461.921334" HC_abs="8.410300" PMx_abs="1.801735" NOx_abs="47.837288" fuel_abs="53.930812" electricity_abs="0"
            CO_normed="2039.276393" CO2_normed="211008.136791" HC_normed="14.144864" PMx_normed="3.030248" NOx_normed="80.455144" fuel_normed="90.703538" electricity_normed="0"
            traveltime="0.02" CO_perVeh="0.391135" CO2_perVeh="40.471588" HC_perVeh="0.002713" PMx_perVeh="0.000581" NOx_perVeh="0.015431" fuel_perVeh="0.017397" electricity_perVeh="0"/>
        <edge id=":1110673601_0" sampledSeconds="28.90" CO_abs="378.211309" CO2_abs="48994.585735" HC_abs="2.827685" PMx_abs="0.624469" NOx_abs="17.999609" fuel_abs="21.060770" electricity_abs="0"
            CO_normed="567.941699" CO2_normed="73572.808691" HC_normed="4.246198" PMx_normed="0.937736" NOx_normed="27.029146" fuel_normed="31.625943" electricity_normed="0"
            traveltime="0.02" CO_perVeh="0.288404" CO2_perVeh="37.360723" HC_perVeh="0.002156" PMx_perVeh="0.000476" NOx_perVeh="0.013726" fuel_perVeh="0.016060" electricity_perVeh="0"/>
        <edge id=":1110673617_0" sampledSeconds="857.94" CO_abs="31693.849176" CO2_abs="3212043.566247" HC_abs="221.174663" PMx_abs="60.489556" NOx_abs="1259.744277" fuel_abs="1380.707154" electricity_abs="0"
            CO_normed="44420.251123" CO2_normed="4501812.987031" HC_normed="309.985512" PMx_normed="84.778636" NOx_normed="1765.584130" fuel_normed="1935.118647" electricity_normed="0"
            traveltime="0.02" CO_perVeh="0.561147" CO2_perVeh="56.870014" HC_perVeh="0.003916" PMx_perVeh="0.001071" NOx_perVeh="0.022304" fuel_perVeh="0.024446" electricity_perVeh="0"/>
        <edge id=":1110673621_0" sampledSeconds="26.13" CO_abs="568.626903" CO2_abs="57515.421045" HC_abs="3.918108" PMx_abs="0.868912" NOx_abs="22.184889" fuel_abs="24.723411" electricity_abs="0"
            CO_normed="956.345177" CO2_normed="96732.312901" HC_normed="6.589670" PMx_normed="1.461380" NOx_normed="37.311656" fuel_normed="41.581070" electricity_normed="0"
            traveltime="0.02" CO_perVeh="0.430778" CO2_perVeh="43.572289" HC_perVeh="0.002968" PMx_perVeh="0.000658" NOx_perVeh="0.016807" fuel_perVeh="0.018730" electricity_perVeh="0"/>
        <edge id=":1110673630_0" sampledSeconds="286.00" CO_abs="1461.680460" CO2_abs="135045.841886" HC_abs="9.726515" PMx_abs="1.752829" NOx_abs="50.662480" fuel_abs="58.050918" electricity_abs="0"
            CO_normed="43.836079" CO2_normed="4050.050890" HC_normed="0.291700" PMx_normed="0.052568" NOx_normed="1.519378" fuel_normed="1.740958" electricity_normed="0"
            traveltime="1.29" CO_perVeh="6.577004" CO2_perVeh="607.654712" HC_perVeh="0.043766" PMx_perVeh="0.007887" NOx_perVeh="0.227962" fuel_perVeh="0.261207" electricity_perVeh="0"/>
        <edge id=":1110673630_1" sampledSeconds="337.74" CO_abs="1270.627268" CO2_abs="109210.268328" HC_abs="8.251361" PMx_abs="1.318386" NOx_abs="40.522933" fuel_abs="46.945425" electricity_abs="0"
            CO_normed="46.456620" CO2_normed="3992.941166" HC_normed="0.301686" PMx_normed="0.048203" NOx_normed="1.481598" fuel_normed="1.716417" electricity_normed="0"
            traveltime="1.08" CO_perVeh="4.050510" CO2_perVeh="348.140842" HC_perVeh="0.026304" PMx_perVeh="0.004203" NOx_perVeh="0.129179" fuel_perVeh="0.149653" electricity_perVeh="0"/>
        <edge id=":1110673650_0" sampledSeconds="200.86" CO_abs="3126.619492" CO2_abs="392426.989236" HC_abs="23.168723" PMx_abs="5.320269" NOx_abs="146.169420" fuel_abs="168.687929" electricity_abs="0"
            CO_normed="4382.087585" CO2_normed="550002.787997" HC_normed="32.471931" PMx_normed="7.456579" NOx_normed="204.862536" fuel_normed="236.423166" electricity_normed="0"
            traveltime="0.02" CO_perVeh="0.361361" CO2_perVeh="45.355047" HC_perVeh="0.002678" PMx_perVeh="0.000615" NOx_perVeh="0.016894" fuel_perVeh="0.019496" electricity_perVeh="0"/>
        <edge id=":1110673655_0" sampledSeconds="20.77" CO_abs="316.611549" CO2_abs="34627.400676" HC_abs="2.244107" PMx_abs="0.496717" NOx_abs="13.169399" fuel_abs="14.884855" electricity_abs="0"
            CO_normed="443.744287" CO2_normed="48531.745866" HC_normed="3.145209" PMx_normed="0.696169" NOx_normed="18.457461" fuel_normed="20.861745" electricity_normed="0"
            traveltime="0.02" CO_perVeh="0.361704" CO2_perVeh="39.559102" HC_perVeh="0.002564" PMx_perVeh="0.000567" NOx_perVeh="0.015045" fuel_perVeh="0.017005" electricity_perVeh="0"/>
        <edge id=":1110673663_0" sampledSeconds="110.91" CO_abs="1959.965643" CO2_abs="221037.082928" HC_abs="13.997449" PMx_abs="3.072819" NOx_abs="83.265726" fuel_abs="95.014601" electricity_abs="0"
            CO_normed="50.310871" CO2_normed="5673.858756" HC_normed="0.359304" PMx_normed="0.078877" NOx_normed="2.137370" fuel_normed="2.438955" electricity_normed="0"
            traveltime="1.30" CO_perVeh="23.020721" CO2_perVeh="2596.184814" HC_perVeh="0.164407" PMx_perVeh="0.036092" NOx_perVeh="0.977995" fuel_perVeh="1.115991" electricity_perVeh="0"/>
        <edge id=":1110673663_1" sampledSeconds="169.22" CO_abs="2594.475485" CO2_abs="327559.073399" HC_abs="19.370563" PMx_abs="4.431103" NOx_abs="121.989618" fuel_abs="140.803945" electricity_abs="0"
            CO_normed="66.679687" CO2_normed="8418.478592" HC_normed="0.497836" PMx_normed="0.113882" NOx_normed="3.135212" fuel_normed="3.618752" electricity_normed="0"
            traveltime="1.27" CO_perVeh="19.401357" CO2_perVeh="2449.470198" HC_perVeh="0.144852" PMx_perVeh="0.033136" NOx_perVeh="0.912232" fuel_perVeh="1.052925" electricity_perVeh="0"/>