<?xml version="1.0" encoding="UTF-8"?>

<!-- generated on Mon Nov  9 23:33:24 2020 by Eclipse SUMO sumo Version 1.7.0
<configuration xmlns:xsi="http://www.w3.org/2001/XMLSchema-instance" xsi:noNamespaceSchemaLocation="http://sumo.dlr.de/xsd/sumoConfiguration.xsd">

    <input>
        <net-file value="../dataSets/Porto/6AM7AM_Routing_SaoBento/Porto.net.xml"/>
        <route-files value="../results/Porto/6AM7AM_Routing_SaoBento/cost_PMx-length/solution8/Porto.rou.xml"/>
        <additional-files value="moreOutputInfo.xml"/>
    </input>

    <output>
        <emission-output.precision value="6"/>
        <tripinfo-output value="../results/Porto/6AM7AM_Routing_SaoBento/cost_PMx-length/solution8/Porto-tripinfo"/>
    </output>

    <processing>
        <collision.action value="warn"/>
        <time-to-teleport value="-1"/>
    </processing>

    <emissions>
        <device.emissions.probability value="1"/>
    </emissions>

    <gui_only>
        <quit-on-end value="true"/>
        <start value="true"/>
    </gui_only>

</configuration>
-->

<meandata xmlns:xsi="http://www.w3.org/2001/XMLSchema-instance" xsi:noNamespaceSchemaLocation="http://sumo.dlr.de/xsd/meandata_file.xsd">
    <interval begin="0.00" end="4699.00" id="emissions-detector">
        <edge id=":1092997347_0" sampledSeconds="273.99" CO_abs="35029.742926" CO2_abs="1368688.785006" HC_abs="191.835182" PMx_abs="27.946570" NOx_abs="594.393620" fuel_abs="588.345882" electricity_abs="0"
            CO_normed="60993.187397" CO2_normed="2383137.430606" HC_normed="334.020127" PMx_normed="48.660089" NOx_normed="1034.947973" fuel_normed="1024.417757" electricity_normed="0"
            traveltime="0.08" CO_perVeh="9.837040" CO2_perVeh="384.354716" HC_perVeh="0.053871" PMx_perVeh="0.007848" NOx_perVeh="0.166917" fuel_perVeh="0.165219" electricity_perVeh="0"/>
        <edge id=":1103427051_0" sampledSeconds="10.96" CO_abs="878.675517" CO2_abs="49537.333747" HC_abs="5.175901" PMx_abs="0.965435" NOx_abs="21.096372" fuel_abs="21.293916" electricity_abs="0"
            CO_normed="2321.280288" CO2_normed="130867.463722" HC_normed="13.673668" PMx_normed="2.550480" NOx_normed="55.732284" fuel_normed="56.254153" electricity_normed="0"
            traveltime="0.03" CO_perVeh="2.407558" CO2_perVeh="135.731546" HC_perVeh="0.014182" PMx_perVeh="0.002645" NOx_perVeh="0.057804" fuel_perVeh="0.058345" electricity_perVeh="0"/>
        <edge id=":1105984386_0" sampledSeconds="22.77" CO_abs="537.872981" CO2_abs="42335.614933" HC_abs="3.414700" PMx_abs="0.572684" NOx_abs="16.158854" fuel_abs="18.198443" electricity_abs="0"
            CO_normed="42.438259" CO2_normed="3340.286345" HC_normed="0.269420" PMx_normed="0.045185" NOx_normed="1.274936" fuel_normed="1.435860" electricity_normed="0"
            traveltime="0.96" CO_perVeh="22.574112" CO2_perVeh="1776.792968" HC_perVeh="0.143312" PMx_perVeh="0.024035" NOx_perVeh="0.678175" fuel_perVeh="0.763775" electricity_perVeh="0"/>
        <edge id=":1105984390_0" sampledSeconds="23.38" CO_abs="15.913140" CO2_abs="1171.175427" HC_abs="0.098983" PMx_abs="0.015171" NOx_abs="0.444401" fuel_abs="0.503445" electricity_abs="0"
            CO_normed="0.970651" CO2_normed="71.438013" HC_normed="0.006038" PMx_normed="0.000925" NOx_normed="0.027107" fuel_normed="0.030709" electricity_normed="0"
            traveltime="1.06" CO_perVeh="0.721653" CO2_perVeh="53.112230" HC_perVeh="0.004489" PMx_perVeh="0.000688" NOx_perVeh="0.020153" fuel_perVeh="0.022831" electricity_perVeh="0"/>
        <edge id=":1105984390_1" sampledSeconds="645.92" CO_abs="15525.653001" CO2_abs="1926934.841968" HC_abs="116.912890" PMx_abs="34.554585" NOx_abs="726.149398" fuel_abs="828.300669" electricity_abs="0"
            CO_normed="905.904058" CO2_normed="112434.439489" HC_normed="6.821733" PMx_normed="2.016220" NOx_normed="42.369985" fuel_normed="48.330395" electricity_normed="0"
            traveltime="0.64" CO_perVeh="15.292926" CO2_perVeh="1898.050345" HC_perVeh="0.115160" PMx_perVeh="0.034037" NOx_perVeh="0.715265" fuel_perVeh="0.815885" electricity_perVeh="0"/>
        <edge id=":1105984395_0" sampledSeconds="9.07" CO_abs="189.576774" CO2_abs="14125.709453" HC_abs="1.185024" PMx_abs="0.192088" NOx_abs="5.414356" fuel_abs="6.072101" electricity_abs="0"
            CO_normed="157.868091" CO2_normed="11763.037934" HC_normed="0.986816" PMx_normed="0.159959" NOx_normed="4.508749" fuel_normed="5.056479" electricity_normed="0"
            traveltime="0.09" CO_perVeh="1.922516" CO2_perVeh="143.250140" HC_perVeh="0.012017" PMx_perVeh="0.001948" NOx_perVeh="0.054907" fuel_perVeh="0.061578" electricity_perVeh="0"/>
        <edge id=":1105984398_0" sampledSeconds="23.67" CO_abs="1588.400564" CO2_abs="108146.475665" HC_abs="9.792556" PMx_abs="1.997620" NOx_abs="44.944021" fuel_abs="46.487330" electricity_abs="0"
            CO_normed="100.653942" CO2_normed="6853.037777" HC_normed="0.620536" PMx_normed="0.126585" NOx_normed="2.848018" fuel_normed="2.945814" electricity_normed="0"
            traveltime="1.10" CO_perVeh="73.935307" CO2_perVeh="5033.895742" HC_perVeh="0.455814" PMx_perVeh="0.092983" NOx_perVeh="2.092010" fuel_perVeh="2.163846" electricity_perVeh="0"/>
        <edge id=":1105984398_1" sampledSeconds="454.60" CO_abs="8156.406852" CO2_abs="937167.804526" HC_abs="58.632010" PMx_abs="13.473263" NOx_abs="355.072005" fuel_abs="402.848511" electricity_abs="0"
            CO_normed="500.303451" CO2_normed="57484.661426" HC_normed="3.596412" PMx_normed="0.826433" NOx_normed="21.779658" fuel_normed="24.710207" electricity_normed="0"
            traveltime="0.96" CO_perVeh="17.149301" CO2_perVeh="1970.447659" HC_perVeh="0.123277" PMx_perVeh="0.028328" NOx_perVeh="0.746559" fuel_perVeh="0.847011" electricity_perVeh="0"/>
        <edge id=":1106006327_0" sampledSeconds="38.00" CO_abs="5013.027108" CO2_abs="164325.862016" HC_abs="26.696450" PMx_abs="3.431548" NOx_abs="71.963228" fuel_abs="70.637837" electricity_abs="0"
            CO_normed="433.474333" CO2_normed="14209.187759" HC_normed="2.308431" PMx_normed="0.296725" NOx_normed="6.222630" fuel_normed="6.108024" electricity_normed="0"
            traveltime="2.06" CO_perVeh="271.953344" CO2_perVeh="8914.567337" HC_perVeh="1.448264" PMx_perVeh="0.186159" NOx_perVeh="3.903957" fuel_perVeh="3.832055" electricity_perVeh="0"/>
        <edge id=":1106006327_1" sampledSeconds="162.46" CO_abs="21915.729300" CO2_abs="728329.996675" HC_abs="116.949235" PMx_abs="15.178489" NOx_abs="318.654554" fuel_abs="313.082930" electricity_abs="0"
            CO_normed="1652.567758" CO2_normed="54920.128508" HC_normed="8.818622" PMx_normed="1.144542" NOx_normed="24.028324" fuel_normed="23.608192" electricity_normed="0"
            traveltime="2.31" CO_perVeh="311.122023" CO2_perVeh="10339.583007" HC_perVeh="1.660245" PMx_perVeh="0.215478" NOx_perVeh="4.523712" fuel_perVeh="4.444616" electricity_perVeh="0"/>
        <edge id=":1106006327_2" sampledSeconds="0.00" CO_abs="0" CO2_abs="0" HC_abs="0" PMx_abs="0" NOx_abs="0" fuel_abs="0" electricity_abs="0"
            CO_normed="0" CO2_normed="0" HC_normed="0" PMx_normed="0" NOx_normed="0" fuel_normed="0" electricity_normed="0"/>
        <edge id=":1106006327_3" sampledSeconds="0.00" CO_abs="0" CO2_abs="0" HC_abs="0" PMx_abs="0" NOx_abs="0" fuel_abs="0" electricity_abs="0"
            CO_normed="0" CO2_normed="0" HC_normed="0" PMx_normed="0" NOx_normed="0" fuel_normed="0" electricity_normed="0"/>
        <edge id=":1107381198_0" sampledSeconds="0.00" CO_abs="0" CO2_abs="0" HC_abs="0" PMx_abs="0" NOx_abs="0" fuel_abs="0" electricity_abs="0"
            CO_normed="0" CO2_normed="0" HC_normed="0" PMx_normed="0" NOx_normed="0" fuel_normed="0" electricity_normed="0"/>
        <edge id=":1107381198_1" sampledSeconds="35.98" CO_abs="1283.345383" CO2_abs="53432.049500" HC_abs="7.077618" PMx_abs="0.932558" NOx_abs="22.188599" fuel_abs="22.968522" electricity_abs="0"
            CO_normed="107.218882" CO2_normed="4464.055166" HC_normed="0.591309" PMx_normed="0.077912" NOx_normed="1.853777" fuel_normed="1.918937" electricity_normed="0"
            traveltime="1.48" CO_perVeh="52.838888" CO2_perVeh="2199.945644" HC_perVeh="0.291405" PMx_perVeh="0.038396" NOx_perVeh="0.913566" fuel_perVeh="0.945678" electricity_perVeh="0"/>
        <edge id=":1110338277_0" sampledSeconds="96.52" CO_abs="1682.422257" CO2_abs="200868.051433" HC_abs="12.267646" PMx_abs="2.767498" NOx_abs="75.311867" fuel_abs="86.344751" electricity_abs="0"
            CO_normed="4603.350352" CO2_normed="549604.007813" HC_normed="33.566052" PMx_normed="7.572275" NOx_normed="206.064148" fuel_normed="236.251711" electricity_normed="0"
            traveltime="0.02" CO_perVeh="0.379165" CO2_perVeh="45.269319" HC_perVeh="0.002765" PMx_perVeh="0.000624" NOx_perVeh="0.016973" fuel_perVeh="0.019459" electricity_perVeh="0"/>
        <edge id=":1110338293_0" sampledSeconds="123.73" CO_abs="6015.367158" CO2_abs="420911.514327" HC_abs="37.271926" PMx_abs="7.309424" NOx_abs="171.726708" fuel_abs="180.931610" electricity_abs="0"
            CO_normed="15361.652670" CO2_normed="1074896.397515" HC_normed="95.182615" PMx_normed="18.666330" NOx_normed="438.544476" fuel_normed="462.051357" electricity_normed="0"
            traveltime="0.03" CO_perVeh="1.379724" CO2_perVeh="96.543029" HC_perVeh="0.008549" PMx_perVeh="0.001677" NOx_perVeh="0.039388" fuel_perVeh="0.041500" electricity_perVeh="0"/>
        <edge id=":1110338295_0" sampledSeconds="0.00" CO_abs="0" CO2_abs="0" HC_abs="0" PMx_abs="0" NOx_abs="0" fuel_abs="0" electricity_abs="0"
            CO_normed="0" CO2_normed="0" HC_normed="0" PMx_normed="0" NOx_normed="0" fuel_normed="0" electricity_normed="0"/>
        <edge id=":1110673403_0" sampledSeconds="143.73" CO_abs="1968.136998" CO2_abs="258360.380041" HC_abs="14.817752" PMx_abs="3.445152" NOx_abs="95.746746" fuel_abs="111.058327" electricity_abs="0"
            CO_normed="5026.100015" CO2_normed="659783.903064" HC_normed="37.840610" PMx_normed="8.798005" NOx_normed="244.511801" fuel_normed="283.613519" electricity_normed="0"
            traveltime="0.02" CO_perVeh="0.315997" CO2_perVeh="41.481463" HC_perVeh="0.002379" PMx_perVeh="0.000553" NOx_perVeh="0.015373" fuel_perVeh="0.017831" electricity_perVeh="0"/>
        <edge id=":1110673412_0" sampledSeconds="252.60" CO_abs="44455.966128" CO2_abs="3039948.174445" HC_abs="276.826736" PMx_abs="66.744372" NOx_abs="1305.739090" fuel_abs="1306.724034" electricity_abs="0"
            CO_normed="117443.533887" CO2_normed="8030918.851408" HC_normed="731.319392" PMx_normed="176.324927" NOx_normed="3449.494554" fuel_normed="3452.096574" electricity_normed="0"
            traveltime="0.02" CO_perVeh="2.734789" CO2_perVeh="187.007914" HC_perVeh="0.017029" PMx_perVeh="0.004106" NOx_perVeh="0.080325" fuel_perVeh="0.080385" electricity_perVeh="0"/>
        <edge id=":1110673414_0" sampledSeconds="0.00" CO_abs="0" CO2_abs="0" HC_abs="0" PMx_abs="0" NOx_abs="0" fuel_abs="0" electricity_abs="0"
            CO_normed="0" CO2_normed="0" HC_normed="0" PMx_normed="0" NOx_normed="0" fuel_normed="0" electricity_normed="0"/>
        <edge id=":1110673414_1" sampledSeconds="13.94" CO_abs="1156.317961" CO2_abs="45224.134523" HC_abs="6.323018" PMx_abs="0.870604" NOx_abs="19.317111" fuel_abs="19.440168" electricity_abs="0"
            CO_normed="98.103969" CO2_normed="3836.891954" HC_normed="0.536455" PMx_normed="0.073864" NOx_normed="1.638896" fuel_normed="1.649337" electricity_normed="0"
            traveltime="1.52" CO_perVeh="126.288718" CO2_perVeh="4939.210628" HC_perVeh="0.690576" PMx_perVeh="0.095084" NOx_perVeh="2.109743" fuel_perVeh="2.123182" electricity_perVeh="0"/>
        <edge id=":1110673417_0" sampledSeconds="29.50" CO_abs="480.959750" CO2_abs="58427.964750" HC_abs="3.516564" PMx_abs="0.798231" NOx_abs="21.840291" fuel_abs="25.115735" electricity_abs="0"
            CO_normed="1315.975360" CO2_normed="159867.352553" HC_normed="9.621827" PMx_normed="2.184075" NOx_normed="59.758191" fuel_normed="68.720278" electricity_normed="0"
            traveltime="0.02" CO_perVeh="0.356975" CO2_perVeh="43.366018" HC_perVeh="0.002610" PMx_perVeh="0.000592" NOx_perVeh="0.016210" fuel_perVeh="0.018641" electricity_perVeh="0"/>
        <edge id=":1110673446_0" sampledSeconds="333.92" CO_abs="3227.038542" CO2_abs="256788.152248" HC_abs="20.790185" PMx_abs="4.737769" NOx_abs="105.342666" fuel_abs="110.381413" electricity_abs="0"
            CO_normed="8241.000747" CO2_normed="655768.850176" HC_normed="53.092621" PMx_normed="12.099007" NOx_normed="269.017235" fuel_normed="281.884859" electricity_normed="0"
            traveltime="0.02" CO_perVeh="0.220099" CO2_perVeh="17.514182" HC_perVeh="0.001418" PMx_perVeh="0.000323" NOx_perVeh="0.007185" fuel_perVeh="0.007529" electricity_perVeh="0"/>
        <edge id=":1110673451_0" sampledSeconds="37.21" CO_abs="348.322355" CO2_abs="26125.624555" HC_abs="2.180577" PMx_abs="0.350520" NOx_abs="9.970599" fuel_abs="11.230412" electricity_abs="0"
            CO_normed="988.358813" CO2_normed="74131.019521" HC_normed="6.187351" PMx_normed="0.994594" NOx_normed="28.291406" fuel_normed="31.866104" electricity_normed="0"
            traveltime="0.03" CO_perVeh="0.249793" CO2_perVeh="18.735508" HC_perVeh="0.001564" PMx_perVeh="0.000251" NOx_perVeh="0.007150" fuel_perVeh="0.008054" electricity_perVeh="0"/>
        <edge id=":1110673464_0" sampledSeconds="325.15" CO_abs="914.968284" CO2_abs="69502.987183" HC_abs="5.762695" PMx_abs="1.004532" NOx_abs="26.951918" fuel_abs="29.876573" electricity_abs="0"
            CO_normed="49.644187" CO2_normed="3771.080729" HC_normed="0.312671" PMx_normed="0.054504" NOx_normed="1.462352" fuel_normed="1.621038" electricity_normed="0"
            traveltime="1.18" CO_perVeh="3.307492" CO2_perVeh="251.244330" HC_perVeh="0.020831" PMx_perVeh="0.003631" NOx_perVeh="0.097428" fuel_perVeh="0.108000" electricity_perVeh="0"/>
        <edge id=":1110673464_1" sampledSeconds="710.26" CO_abs="17102.201942" CO2_abs="2111930.316062" HC_abs="128.318317" PMx_abs="37.823460" NOx_abs="797.080101" fuel_abs="907.821670" electricity_abs="0"
            CO_normed="909.253759" CO2_normed="112282.651392" HC_normed="6.822157" PMx_normed="2.010918" NOx_normed="42.377472" fuel_normed="48.265146" electricity_normed="0"
            traveltime="0.70" CO_perVeh="16.873389" CO2_perVeh="2083.674494" HC_perVeh="0.126602" PMx_perVeh="0.037317" NOx_perVeh="0.786416" fuel_perVeh="0.895676" electricity_perVeh="0"/>
        <edge id=":1110673479_0" sampledSeconds="133.72" CO_abs="6860.155333" CO2_abs="467842.297145" HC_abs="42.270859" PMx_abs="8.425978" NOx_abs="192.979609" fuel_abs="201.104791" electricity_abs="0"
            CO_normed="17519.017662" CO2_normed="1194745.172534" HC_normed="107.948564" PMx_normed="21.517714" NOx_normed="492.818750" fuel_normed="513.568311" electricity_normed="0"
            traveltime="0.03" CO_perVeh="1.445156" CO2_perVeh="98.555361" HC_perVeh="0.008905" PMx_perVeh="0.001775" NOx_perVeh="0.040653" fuel_perVeh="0.042365" electricity_perVeh="0"/>
        <edge id=":1110673511_0" sampledSeconds="11.76" CO_abs="159.107636" CO2_abs="23441.847838" HC_abs="1.251716" PMx_abs="0.280295" NOx_abs="8.459242" fuel_abs="10.076705" electricity_abs="0"
            CO_normed="406.318713" CO2_normed="59864.263471" HC_normed="3.196552" PMx_normed="0.715800" NOx_normed="21.602662" fuel_normed="25.733234" electricity_normed="0"
            traveltime="0.02" CO_perVeh="0.315065" CO2_perVeh="46.419501" HC_perVeh="0.002479" PMx_perVeh="0.000555" NOx_perVeh="0.016751" fuel_perVeh="0.019954" electricity_perVeh="0"/>
        <edge id=":1110673517_0" sampledSeconds="17.04" CO_abs="732.938522" CO2_abs="51981.755836" HC_abs="4.560483" PMx_abs="0.913958" NOx_abs="21.261295" fuel_abs="22.344679" electricity_abs="0"
            CO_normed="1871.730636" CO2_normed="132747.620777" HC_normed="11.646264" PMx_normed="2.334007" NOx_normed="54.295708" fuel_normed="57.062386" electricity_normed="0"
            traveltime="0.03" CO_perVeh="1.176781" CO2_perVeh="83.460138" HC_perVeh="0.007322" PMx_perVeh="0.001467" NOx_perVeh="0.034136" fuel_perVeh="0.035876" electricity_perVeh="0"/>
        <edge id=":1110673534_0" sampledSeconds="474.35" CO_abs="2637.549698" CO2_abs="240614.746004" HC_abs="17.466680" PMx_abs="3.095058" NOx_abs="90.215465" fuel_abs="103.430912" electricity_abs="0"
            CO_normed="130.534933" CO2_normed="11908.260837" HC_normed="0.864443" PMx_normed="0.153177" NOx_normed="4.464852" fuel_normed="5.118898" electricity_normed="0"
            traveltime="1.43" CO_perVeh="7.945880" CO2_perVeh="724.875792" HC_perVeh="0.052620" PMx_perVeh="0.009324" NOx_perVeh="0.271783" fuel_perVeh="0.311596" electricity_perVeh="0"/>
        <edge id=":1110673534_1" sampledSeconds="184.59" CO_abs="2712.219324" CO2_abs="354236.361484" HC_abs="20.431569" PMx_abs="4.749455" NOx_abs="131.364843" fuel_abs="152.271393" electricity_abs="0"
            CO_normed="130.520521" CO2_normed="17046.967404" HC_normed="0.983231" PMx_normed="0.228559" NOx_normed="6.321689" fuel_normed="7.327778" electricity_normed="0"
            traveltime="1.23" CO_perVeh="18.008163" CO2_perVeh="2352.002267" HC_perVeh="0.135658" PMx_perVeh="0.031535" NOx_perVeh="0.872215" fuel_perVeh="1.011027" electricity_perVeh="0"/>
        <edge id=":1110673549_0" sampledSeconds="60.27" CO_abs="32.579996" CO2_abs="3864.923453" HC_abs="0.233897" PMx_abs="0.034479" NOx_abs="1.338260" fuel_abs="1.661396" electricity_abs="0"
            CO_normed="1.561965" CO2_normed="185.293924" HC_normed="0.011214" PMx_normed="0.001653" NOx_normed="0.064159" fuel_normed="0.079651" electricity_normed="0"
            traveltime="1.26" CO_perVeh="0.678776" CO2_perVeh="80.522388" HC_perVeh="0.004873" PMx_perVeh="0.000718" NOx_perVeh="0.027882" fuel_perVeh="0.034614" electricity_perVeh="0"/>
        <edge id=":1110673549_1" sampledSeconds="639.20" CO_abs="13604.688242" CO2_abs="1853372.546165" HC_abs="106.184448" PMx_abs="32.296497" NOx_abs="688.832166" fuel_abs="796.680262" electricity_abs="0"
            CO_normed="630.921906" CO2_normed="85950.763392" HC_normed="4.924339" PMx_normed="1.497761" NOx_normed="31.944819" fuel_normed="36.946310" electricity_normed="0"
            traveltime="0.80" CO_perVeh="17.131581" CO2_perVeh="2333.842727" HC_perVeh="0.133712" PMx_perVeh="0.040669" NOx_perVeh="0.867406" fuel_perVeh="1.003212" electricity_perVeh="0"/>
        <edge id=":1110673556_0" sampledSeconds="421.22" CO_abs="51844.100842" CO2_abs="2590610.924859" HC_abs="297.651354" PMx_abs="52.234585" NOx_abs="1115.705055" fuel_abs="1113.591680" electricity_abs="0"
            CO_normed="1843.100971" CO2_normed="92098.376359" HC_normed="10.581754" PMx_normed="1.856983" NOx_normed="39.664244" fuel_normed="39.589112" electricity_normed="0"
            traveltime="2.61" CO_perVeh="321.822898" CO2_perVeh="16081.249404" HC_perVeh="1.847674" PMx_perVeh="0.324247" NOx_perVeh="6.925753" fuel_perVeh="6.912634" electricity_perVeh="0"/>
        <edge id=":1110673556_2" sampledSeconds="247.61" CO_abs="23571.109526" CO2_abs="1013935.290277" HC_abs="131.145854" PMx_abs="19.593979" NOx_abs="432.654295" fuel_abs="435.850915" electricity_abs="0"
            CO_normed="876.191609" CO2_normed="37690.274723" HC_normed="4.874989" PMx_normed="0.728353" NOx_normed="16.082742" fuel_normed="16.201567" electricity_normed="0"
            traveltime="3.00" CO_perVeh="285.913042" CO2_perVeh="12298.840772" HC_perVeh="1.590774" PMx_perVeh="0.237671" NOx_perVeh="5.248014" fuel_perVeh="5.286788" electricity_perVeh="0"/>
        <edge id=":1110673556_3" sampledSeconds="421.64" CO_abs="35580.779018" CO2_abs="1265323.980821" HC_abs="191.448550" PMx_abs="24.071090" NOx_abs="539.164187" fuel_abs="543.918709" electricity_abs="0"
            CO_normed="3008.737580" CO2_normed="106996.752655" HC_normed="16.189034" PMx_normed="2.035470" NOx_normed="45.592131" fuel_normed="45.994177" electricity_normed="0"
            traveltime="1.74" CO_perVeh="146.809056" CO2_perVeh="5220.824972" HC_perVeh="0.789932" PMx_perVeh="0.099319" NOx_perVeh="2.224633" fuel_perVeh="2.244251" electricity_perVeh="0"/>
        <edge id=":1110673556_4" sampledSeconds="192.92" CO_abs="20735.303379" CO2_abs="826788.236001" HC_abs="113.846630" PMx_abs="16.306885" NOx_abs="355.454476" fuel_abs="355.404492" electricity_abs="0"
            CO_normed="1071.189479" CO2_normed="42712.028077" HC_normed="5.881337" PMx_normed="0.842417" NOx_normed="18.362842" fuel_normed="18.360260" electricity_normed="0"
            traveltime="2.44" CO_perVeh="261.751091" CO2_perVeh="10436.920964" HC_perVeh="1.437137" PMx_perVeh="0.205849" NOx_perVeh="4.487062" fuel_perVeh="4.486431" electricity_perVeh="0"/>
        <edge id=":1110673556_5" sampledSeconds="25.44" CO_abs="2340.793124" CO2_abs="92142.030196" HC_abs="12.814877" PMx_abs="1.775463" NOx_abs="39.353023" fuel_abs="39.608407" electricity_abs="0"
            CO_normed="168.546004" CO2_normed="6634.576480" HC_normed="0.922720" PMx_normed="0.127840" NOx_normed="2.833567" fuel_normed="2.851956" electricity_normed="0"
            traveltime="1.76" CO_perVeh="161.832611" CO2_perVeh="6370.313199" HC_perVeh="0.885967" PMx_perVeh="0.122748" NOx_perVeh="2.720703" fuel_perVeh="2.738359" electricity_perVeh="0"/>
        <edge id=":1110673556_6" sampledSeconds="489.09" CO_abs="58952.913937" CO2_abs="2889187.355908" HC_abs="337.090324" PMx_abs="58.308729" NOx_abs="1244.903392" fuel_abs="1241.937645" electricity_abs="0"
            CO_normed="2148.669506" CO2_normed="105302.831617" HC_normed="12.286003" PMx_normed="2.125191" NOx_normed="45.373261" fuel_normed="45.265168" electricity_normed="0"
            traveltime="2.62" CO_perVeh="316.358845" CO2_perVeh="15504.237440" HC_perVeh="1.808927" PMx_perVeh="0.312902" NOx_perVeh="6.680521" fuel_perVeh="6.664606" electricity_perVeh="0"/>
        <edge id=":1110673561_0" sampledSeconds="100.46" CO_abs="9976.122832" CO2_abs="699971.014247" HC_abs="62.317136" PMx_abs="14.378700" NOx_abs="297.730989" fuel_abs="300.884000" electricity_abs="0"
            CO_normed="456.838716" CO2_normed="32053.921652" HC_normed="2.853702" PMx_normed="0.658447" NOx_normed="13.634059" fuel_normed="13.778445" electricity_normed="0"
            traveltime="1.19" CO_perVeh="117.727932" CO2_perVeh="8260.337360" HC_perVeh="0.735403" PMx_perVeh="0.169683" NOx_perVeh="3.513515" fuel_perVeh="3.550723" electricity_perVeh="0"/>
        <edge id=":1110673561_1" sampledSeconds="1313.51" CO_abs="123402.520105" CO2_abs="8499603.238112" HC_abs="767.649895" PMx_abs="178.349019" NOx_abs="3639.385260" fuel_abs="3653.568389" electricity_abs="0"
            CO_normed="5509.393612" CO2_normed="379470.854747" HC_normed="34.272278" PMx_normed="7.962519" NOx_normed="162.482953" fuel_normed="163.116169" electricity_normed="0"
            traveltime="1.19" CO_perVeh="111.886365" CO2_perVeh="7706.404272" HC_perVeh="0.696011" PMx_perVeh="0.161705" NOx_perVeh="3.299751" fuel_perVeh="3.312611" electricity_perVeh="0"/>
        <edge id=":1110673562_0" sampledSeconds="104.57" CO_abs="2213.347481" CO2_abs="176171.067454" HC_abs="14.085754" PMx_abs="2.331252" NOx_abs="66.853878" fuel_abs="75.729188" electricity_abs="0"
            CO_normed="6280.336188" CO2_normed="499882.435850" HC_normed="39.968089" PMx_normed="6.614888" NOx_normed="189.696752" fuel_normed="214.880296" electricity_normed="0"
            traveltime="0.03" CO_perVeh="0.564192" CO2_perVeh="44.906807" HC_perVeh="0.003591" PMx_perVeh="0.000594" NOx_perVeh="0.017041" fuel_perVeh="0.019304" electricity_perVeh="0"/>
        <edge id=":1110673564_0" sampledSeconds="28.33" CO_abs="408.030264" CO2_abs="51403.226229" HC_abs="3.045655" PMx_abs="0.699914" NOx_abs="19.184572" fuel_abs="22.096090" electricity_abs="0"
            CO_normed="3126.003296" CO2_normed="393810.628696" HC_normed="23.333389" PMx_normed="5.362183" NOx_normed="146.976927" fuel_normed="169.282663" electricity_normed="0"
            traveltime="7.788688e-03" CO_perVeh="0.112173" CO2_perVeh="14.131471" HC_perVeh="0.000837" PMx_perVeh="0.000192" NOx_perVeh="0.005274" fuel_perVeh="0.006075" electricity_perVeh="0"/>
        <edge id=":1110673588_0" sampledSeconds="11.57" CO_abs="265.028181" CO2_abs="28080.184311" HC_abs="1.859229" PMx_abs="0.413881" NOx_abs="10.755128" fuel_abs="12.070473" electricity_abs="0"
            CO_normed="812.174038" CO2_normed="86051.213892" HC_normed="5.697573" PMx_normed="1.268332" NOx_normed="32.958895" fuel_normed="36.989746" electricity_normed="0"
            traveltime="0.02" CO_perVeh="0.441714" CO2_perVeh="46.800307" HC_perVeh="0.003099" PMx_perVeh="0.000690" NOx_perVeh="0.017925" fuel_perVeh="0.020117" electricity_perVeh="0"/>
        <edge id=":1110673601_0" sampledSeconds="29.28" CO_abs="496.053281" CO2_abs="62883.886620" HC_abs="3.688447" PMx_abs="0.839768" NOx_abs="23.349810" fuel_abs="27.031164" electricity_abs="0"
            CO_normed="1357.273442" CO2_normed="172059.398528" HC_normed="10.092125" PMx_normed="2.297727" NOx_normed="63.888452" fuel_normed="73.961170" electricity_normed="0"
            traveltime="0.02" CO_perVeh="0.368177" CO2_perVeh="46.673262" HC_perVeh="0.002738" PMx_perVeh="0.000623" NOx_perVeh="0.017331" fuel_perVeh="0.020063" electricity_perVeh="0"/>
        <edge id=":1110673617_0" sampledSeconds="238.50" CO_abs="6179.276947" CO2_abs="743458.496362" HC_abs="46.011509" PMx_abs="13.442890" NOx_abs="281.919733" fuel_abs="319.578508" electricity_abs="0"
            CO_normed="15780.234809" CO2_normed="1898595.862173" HC_normed="117.501193" PMx_normed="34.329576" NOx_normed="719.948242" fuel_normed="816.118770" electricity_normed="0"
            traveltime="0.01" CO_perVeh="0.378440" CO2_perVeh="45.531900" HC_perVeh="0.002818" PMx_perVeh="0.000823" NOx_perVeh="0.017266" fuel_perVeh="0.019572" electricity_perVeh="0"/>
        <edge id=":1110673621_0" sampledSeconds="25.70" CO_abs="544.224436" CO2_abs="58398.163955" HC_abs="3.824291" PMx_abs="0.829202" NOx_abs="22.162918" fuel_abs="25.102921" electricity_abs="0"
            CO_normed="1667.765883" CO2_normed="178960.110866" HC_normed="11.719471" PMx_normed="2.541075" NOx_normed="67.917859" fuel_normed="76.927443" electricity_normed="0"
            traveltime="0.02" CO_perVeh="0.412291" CO2_perVeh="44.241033" HC_perVeh="0.002897" PMx_perVeh="0.000628" NOx_perVeh="0.016790" fuel_perVeh="0.019017" electricity_perVeh="0"/>
        <edge id=":1110673630_0" sampledSeconds="54.03" CO_abs="87.908685" CO2_abs="12267.488793" HC_abs="0.670141" PMx_abs="0.096546" NOx_abs="4.141880" fuel_abs="5.273376" electricity_abs="0"
            CO_normed="4.803755" CO2_normed="670.354782" HC_normed="0.036620" PMx_normed="0.005276" NOx_normed="0.226332" fuel_normed="0.288163" electricity_normed="0"
            traveltime="1.26" CO_perVeh="2.051944" CO2_perVeh="286.344887" HC_perVeh="0.015642" PMx_perVeh="0.002254" NOx_perVeh="0.096679" fuel_perVeh="0.123090" electricity_perVeh="0"/>
        <edge id=":1110673630_1" sampledSeconds="7.48" CO_abs="14.144830" CO2_abs="1346.027042" HC_abs="0.095518" PMx_abs="0.019526" NOx_abs="0.517829" fuel_abs="0.578601" electricity_abs="0"
            CO_normed="0.942317" CO2_normed="89.671204" HC_normed="0.006363" PMx_normed="0.001301" NOx_normed="0.034497" fuel_normed="0.038546" electricity_normed="0"
            traveltime="1.06" CO_perVeh="2.002037" CO2_perVeh="190.514597" HC_perVeh="0.013519" PMx_perVeh="0.002764" NOx_perVeh="0.073293" fuel_perVeh="0.081894" electricity_perVeh="0"/>
        <edge id=":1110673650_0" sampledSeconds="142.80" CO_abs="2202.453247" CO2_abs="277377.485861" HC_abs="16.384856" PMx_abs="3.810692" NOx_abs="103.627508" fuel_abs="119.232890" electricity_abs="0"
            CO_normed="5624.481584" CO2_normed="708348.548699" HC_normed="41.842577" PMx_normed="9.731496" NOx_normed="264.637178" fuel_normed="304.489184" electricity_normed="0"
            traveltime="0.02" CO_perVeh="0.354789" CO2_perVeh="44.682269" HC_perVeh="0.002639" PMx_perVeh="0.000614" NOx_perVeh="0.016693" fuel_perVeh="0.019207" electricity_perVeh="0"/>
        <edge id=":1110673655_0" sampledSeconds="44.93" CO_abs="460.317114" CO2_abs="67741.332182" HC_abs="3.616681" PMx_abs="0.794118" NOx_abs="24.384214" fuel_abs="29.119288" electricity_abs="0"
            CO_normed="1175.527850" CO2_normed="172993.399911" HC_normed="9.236044" PMx_normed="2.027967" NOx_normed="62.270817" fuel_normed="74.362941" electricity_normed="0"
            traveltime="0.02" CO_perVeh="0.246356" CO2_perVeh="36.254392" HC_perVeh="0.001936" PMx_perVeh="0.000425" NOx_perVeh="0.013050" fuel_perVeh="0.015584" electricity_perVeh="0"/>
        <edge id=":1110673663_0" sampledSeconds="108.04" CO_abs="1951.062576" CO2_abs="236619.024077" HC_abs="14.289204" PMx_abs="3.309013" NOx_abs="88.825241" fuel_abs="101.712508" electricity_abs="0"
            CO_normed="91.254514" CO2_normed="11067.074083" HC_normed="0.668330" PMx_normed="0.154768" NOx_normed="4.154508" fuel_normed="4.757267" electricity_normed="0"
            traveltime="1.27" CO_perVeh="22.916150" CO2_perVeh="2779.202064" HC_perVeh="0.167833" PMx_perVeh="0.038866" NOx_perVeh="1.043294" fuel_perVeh="1.194661" electricity_perVeh="0"/>
        <edge id=":1110673663_1" sampledSeconds="153.65" CO_abs="3012.374067" CO2_abs="339461.188585" HC_abs="21.569330" PMx_abs="5.032424" NOx_abs="129.518058" fuel_abs="145.919735" electricity_abs="0"
            CO_normed="141.066099" CO2_normed="15896.586733" HC_normed="1.010068" PMx_normed="0.235663" NOx_normed="6.065185" fuel_normed="6.833258" electricity_normed="0"
            traveltime="1.24" CO_perVeh="24.399038" CO2_perVeh="2749.501278" HC_perVeh="0.174703" PMx_perVeh="0.040761" NOx_perVeh="1.049045" fuel_perVeh="1.181892" electricity_perVeh="0"/>
        <edge id=":1110673666_0" sampledSeconds="191.86" CO_abs="3770.663858" CO2_abs="304996.418833" HC_abs="24.124178" PMx_abs="4.088117" NOx_abs="115.979974" fuel_abs="131.106147" electricity_abs="0"