<?xml version="1.0" encoding="UTF-8"?>

<!-- generated on Tue Nov 10 04:39:37 2020 by Eclipse SUMO sumo Version 1.7.0
<configuration xmlns:xsi="http://www.w3.org/2001/XMLSchema-instance" xsi:noNamespaceSchemaLocation="http://sumo.dlr.de/xsd/sumoConfiguration.xsd">

    <input>
        <net-file value="../dataSets/Porto/8AM9AM_Routing_SaoBento/Porto.net.xml"/>
        <route-files value="../results/Porto/8AM9AM_Routing_SaoBento/cost_PMx-ttime/solution1/Porto.rou.xml"/>
        <additional-files value="moreOutputInfo.xml"/>
    </input>

    <output>
        <emission-output.precision value="6"/>
        <tripinfo-output value="../results/Porto/8AM9AM_Routing_SaoBento/cost_PMx-ttime/solution1/Porto-tripinfo"/>
    </output>

    <processing>
        <collision.action value="warn"/>
        <time-to-teleport value="-1"/>
    </processing>

    <emissions>
        <device.emissions.probability value="1"/>
    </emissions>

    <gui_only>
        <quit-on-end value="true"/>
        <start value="true"/>
    </gui_only>

</configuration>
-->

<meandata xmlns:xsi="http://www.w3.org/2001/XMLSchema-instance" xsi:noNamespaceSchemaLocation="http://sumo.dlr.de/xsd/meandata_file.xsd">
    <interval begin="0.00" end="8471.00" id="emissions-detector">
        <edge id=":1092997347_0" sampledSeconds="590.34" CO_abs="72887.533802" CO2_abs="3118812.502191" HC_abs="405.680020" PMx_abs="63.135887" NOx_abs="1349.846277" fuel_abs="1340.650764" electricity_abs="0"
            CO_normed="70399.309325" CO2_normed="3012342.915371" HC_normed="391.830972" PMx_normed="60.980563" NOx_normed="1303.765413" fuel_normed="1294.883815" electricity_normed="0"
            traveltime="0.07" CO_perVeh="8.355593" CO2_perVeh="357.530679" HC_perVeh="0.046506" PMx_perVeh="0.007238" NOx_perVeh="0.154742" fuel_perVeh="0.153688" electricity_perVeh="0"/>
        <edge id=":1103427051_0" sampledSeconds="19.35" CO_abs="1523.102541" CO2_abs="84556.266197" HC_abs="8.944566" PMx_abs="1.672826" NOx_abs="36.194160" fuel_abs="36.346991" electricity_abs="0"
            CO_normed="2232.024534" CO2_normed="123912.642447" HC_normed="13.107778" PMx_normed="2.451436" NOx_normed="53.040587" fuel_normed="53.264552" electricity_normed="0"
            traveltime="0.03" CO_perVeh="2.368617" CO2_perVeh="131.495695" HC_perVeh="0.013910" PMx_perVeh="0.002601" NOx_perVeh="0.056286" fuel_perVeh="0.056524" electricity_perVeh="0"/>
        <edge id=":1105984386_0" sampledSeconds="39.30" CO_abs="853.087070" CO2_abs="63849.597891" HC_abs="5.336096" PMx_abs="0.850905" NOx_abs="24.342102" fuel_abs="27.446521" electricity_abs="0"
            CO_normed="37.337217" CO2_normed="2794.516998" HC_normed="0.233546" PMx_normed="0.037242" NOx_normed="1.065385" fuel_normed="1.201257" electricity_normed="0"
            traveltime="0.98" CO_perVeh="21.216832" CO2_perVeh="1587.981137" HC_perVeh="0.132712" PMx_perVeh="0.021163" NOx_perVeh="0.605404" fuel_perVeh="0.682613" electricity_perVeh="0"/>
        <edge id=":1105984390_0" sampledSeconds="39.91" CO_abs="12.639201" CO2_abs="1444.941374" HC_abs="0.090078" PMx_abs="0.015899" NOx_abs="0.521263" fuel_abs="0.621126" electricity_abs="0"
            CO_normed="0.427659" CO2_normed="48.890942" HC_normed="0.003048" PMx_normed="0.000538" NOx_normed="0.017637" fuel_normed="0.021016" electricity_normed="0"
            traveltime="1.07" CO_perVeh="0.339663" CO2_perVeh="38.831041" HC_perVeh="0.002421" PMx_perVeh="0.000427" NOx_perVeh="0.014008" fuel_perVeh="0.016692" electricity_perVeh="0"/>
        <edge id=":1105984390_1" sampledSeconds="2404.04" CO_abs="61987.851872" CO2_abs="7418600.992381" HC_abs="459.489252" PMx_abs="133.563845" NOx_abs="2821.548467" fuel_abs="3188.914050" electricity_abs="0"
            CO_normed="2006.363782" CO2_normed="240118.215002" HC_normed="14.872311" PMx_normed="4.323067" NOx_normed="91.325195" fuel_normed="103.215734" electricity_normed="0"
            traveltime="0.65" CO_perVeh="16.734240" CO2_perVeh="2002.725445" HC_perVeh="0.124044" PMx_perVeh="0.036057" NOx_perVeh="0.761705" fuel_perVeh="0.860879" electricity_perVeh="0"/>
        <edge id=":1105984395_0" sampledSeconds="15.63" CO_abs="244.943225" CO2_abs="19939.796813" HC_abs="1.563484" PMx_abs="0.233479" NOx_abs="7.367838" fuel_abs="8.571396" electricity_abs="0"
            CO_normed="113.147620" CO2_normed="9210.871429" HC_normed="0.722227" PMx_normed="0.107852" NOx_normed="3.403455" fuel_normed="3.959420" electricity_normed="0"
            traveltime="0.09" CO_perVeh="1.471995" CO2_perVeh="119.828944" HC_perVeh="0.009396" PMx_perVeh="0.001403" NOx_perVeh="0.044277" fuel_perVeh="0.051510" electricity_perVeh="0"/>
        <edge id=":1105984398_0" sampledSeconds="41.31" CO_abs="2528.152897" CO2_abs="176903.667452" HC_abs="15.668029" PMx_abs="3.089370" NOx_abs="72.292557" fuel_abs="76.043189" electricity_abs="0"
            CO_normed="88.867887" CO2_normed="6218.395704" HC_normed="0.550752" PMx_normed="0.108595" NOx_normed="2.541178" fuel_normed="2.673018" electricity_normed="0"
            traveltime="1.13" CO_perVeh="69.341005" CO2_perVeh="4852.031749" HC_perVeh="0.429735" PMx_perVeh="0.084734" NOx_perVeh="1.982807" fuel_perVeh="2.085677" electricity_perVeh="0"/>
        <edge id=":1105984398_1" sampledSeconds="647.29" CO_abs="11140.091966" CO2_abs="1340383.525229" HC_abs="81.441803" PMx_abs="18.995817" NOx_abs="504.897440" fuel_abs="576.173861" electricity_abs="0"
            CO_normed="379.047954" CO2_normed="45607.310458" HC_normed="2.771104" PMx_normed="0.646343" NOx_normed="17.179422" fuel_normed="19.604643" electricity_normed="0"
            traveltime="0.95" CO_perVeh="16.408987" CO2_perVeh="1974.340602" HC_perVeh="0.119961" PMx_perVeh="0.027980" NOx_perVeh="0.743697" fuel_perVeh="0.848685" electricity_perVeh="0"/>
        <edge id=":1106006327_0" sampledSeconds="66.87" CO_abs="9070.379108" CO2_abs="296882.781805" HC_abs="48.293662" PMx_abs="6.203420" NOx_abs="130.022751" fuel_abs="127.619344" electricity_abs="0"
            CO_normed="435.070399" CO2_normed="14240.298990" HC_normed="2.316457" PMx_normed="0.297554" NOx_normed="6.236680" fuel_normed="6.121398" electricity_normed="0"
            traveltime="2.07" CO_perVeh="281.178261" CO2_perVeh="9203.251974" HC_perVeh="1.497085" PMx_perVeh="0.192304" NOx_perVeh="4.030655" fuel_perVeh="3.956151" electricity_perVeh="0"/>
        <edge id=":1106006327_1" sampledSeconds="685.26" CO_abs="92617.036717" CO2_abs="3085963.145638" HC_abs="494.437582" PMx_abs="64.353271" NOx_abs="1350.415822" fuel_abs="1326.544550" electricity_abs="0"
            CO_normed="3874.047958" CO2_normed="129081.750478" HC_normed="20.681669" PMx_normed="2.691812" NOx_normed="56.486105" fuel_normed="55.487601" electricity_normed="0"
            traveltime="2.30" CO_perVeh="310.893772" CO2_perVeh="10358.857885" HC_perVeh="1.659712" PMx_perVeh="0.216019" NOx_perVeh="4.533031" fuel_perVeh="4.452900" electricity_perVeh="0"/>
        <edge id=":1106006327_2" sampledSeconds="0.00" CO_abs="0" CO2_abs="0" HC_abs="0" PMx_abs="0" NOx_abs="0" fuel_abs="0" electricity_abs="0"
            CO_normed="0" CO2_normed="0" HC_normed="0" PMx_normed="0" NOx_normed="0" fuel_normed="0" electricity_normed="0"/>
        <edge id=":1106006327_3" sampledSeconds="0.00" CO_abs="0" CO2_abs="0" HC_abs="0" PMx_abs="0" NOx_abs="0" fuel_abs="0" electricity_abs="0"
            CO_normed="0" CO2_normed="0" HC_normed="0" PMx_normed="0" NOx_normed="0" fuel_normed="0" electricity_normed="0"/>
        <edge id=":1107381198_0" sampledSeconds="0.00" CO_abs="0" CO2_abs="0" HC_abs="0" PMx_abs="0" NOx_abs="0" fuel_abs="0" electricity_abs="0"
            CO_normed="0" CO2_normed="0" HC_normed="0" PMx_normed="0" NOx_normed="0" fuel_normed="0" electricity_normed="0"/>
        <edge id=":1107381198_1" sampledSeconds="103.95" CO_abs="4861.288537" CO2_abs="193277.147916" HC_abs="26.606558" PMx_abs="3.451574" NOx_abs="80.837799" fuel_abs="83.082974" electricity_abs="0"
            CO_normed="225.294133" CO2_normed="8957.338605" HC_normed="1.233068" PMx_normed="0.159962" NOx_normed="3.746390" fuel_normed="3.850441" electricity_normed="0"
            traveltime="1.56" CO_perVeh="72.782811" CO2_perVeh="2893.729504" HC_perVeh="0.398351" PMx_perVeh="0.051677" NOx_perVeh="1.210297" fuel_perVeh="1.243911" electricity_perVeh="0"/>
        <edge id=":1110338277_0" sampledSeconds="161.70" CO_abs="2675.638045" CO2_abs="318816.643965" HC_abs="19.509766" PMx_abs="4.424899" NOx_abs="119.727190" fuel_abs="137.045862" electricity_abs="0"
            CO_normed="4061.038906" CO2_normed="483894.597650" HC_normed="29.611599" PMx_normed="6.716039" NOx_normed="181.719937" fuel_normed="208.005929" electricity_normed="0"
            traveltime="0.02" CO_perVeh="0.362389" CO2_perVeh="43.180653" HC_perVeh="0.002642" PMx_perVeh="0.000599" NOx_perVeh="0.016216" fuel_perVeh="0.018562" electricity_perVeh="0"/>
        <edge id=":1110338293_0" sampledSeconds="6624.70" CO_abs="614906.028029" CO2_abs="10720368.288972" HC_abs="3050.650324" PMx_abs="255.990591" NOx_abs="4846.690438" fuel_abs="4608.507640" electricity_abs="0"
            CO_normed="871074.529140" CO2_normed="15186450.179159" HC_normed="4321.544550" PMx_normed="362.635709" NOx_normed="6865.811033" fuel_normed="6528.401804" electricity_normed="0"
            traveltime="0.44" CO_perVeh="41.150026" CO2_perVeh="717.416010" HC_perVeh="0.204152" PMx_perVeh="0.017131" NOx_perVeh="0.324345" fuel_perVeh="0.308405" electricity_perVeh="0"/>
        <edge id=":1110338295_0" sampledSeconds="0.00" CO_abs="0" CO2_abs="0" HC_abs="0" PMx_abs="0" NOx_abs="0" fuel_abs="0" electricity_abs="0"
            CO_normed="0" CO2_normed="0" HC_normed="0" PMx_normed="0" NOx_normed="0" fuel_normed="0" electricity_normed="0"/>
        <edge id=":1110673403_0" sampledSeconds="208.99" CO_abs="3085.675037" CO2_abs="398440.849985" HC_abs="23.079167" PMx_abs="5.283203" NOx_abs="147.608299" fuel_abs="171.273141" electricity_abs="0"
            CO_normed="4371.160482" CO2_normed="564430.433222" HC_normed="32.693897" PMx_normed="7.484174" NOx_normed="209.101592" fuel_normed="242.625155" electricity_normed="0"
            traveltime="0.02" CO_perVeh="0.343272" CO2_perVeh="44.325381" HC_perVeh="0.002567" PMx_perVeh="0.000588" NOx_perVeh="0.016421" fuel_perVeh="0.019054" electricity_perVeh="0"/>
        <edge id=":1110673412_0" sampledSeconds="940.06" CO_abs="166377.619931" CO2_abs="11365269.696597" HC_abs="1035.748379" PMx_abs="249.663864" NOx_abs="4883.037631" fuel_abs="4885.369714" electricity_abs="0"
            CO_normed="243817.418353" CO2_normed="16655189.066042" HC_normed="1517.833323" PMx_normed="365.868911" NOx_normed="7155.827986" fuel_normed="7159.245528" electricity_normed="0"
            traveltime="0.02" CO_perVeh="2.747780" CO2_perVeh="187.701104" HC_perVeh="0.017106" PMx_perVeh="0.004123" NOx_perVeh="0.080645" fuel_perVeh="0.080683" electricity_perVeh="0"/>
        <edge id=":1110673414_0" sampledSeconds="0.00" CO_abs="0" CO2_abs="0" HC_abs="0" PMx_abs="0" NOx_abs="0" fuel_abs="0" electricity_abs="0"
            CO_normed="0" CO2_normed="0" HC_normed="0" PMx_normed="0" NOx_normed="0" fuel_normed="0" electricity_normed="0"/>
        <edge id=":1110673414_1" sampledSeconds="298.39" CO_abs="21836.601130" CO2_abs="838574.083033" HC_abs="118.911116" PMx_abs="15.516274" NOx_abs="354.254347" fuel_abs="360.472992" electricity_abs="0"
            CO_normed="1027.697050" CO2_normed="39465.853978" HC_normed="5.596320" PMx_normed="0.730243" NOx_normed="16.672290" fuel_normed="16.964958" electricity_normed="0"
            traveltime="1.56" CO_perVeh="114.475767" CO2_perVeh="4396.124220" HC_perVeh="0.623377" PMx_perVeh="0.081342" NOx_perVeh="1.857136" fuel_perVeh="1.889736" electricity_perVeh="0"/>
        <edge id=":1110673417_0" sampledSeconds="29.06" CO_abs="575.250093" CO2_abs="65137.046597" HC_abs="4.122960" PMx_abs="0.898282" NOx_abs="24.492929" fuel_abs="27.999704" electricity_abs="0"
            CO_normed="873.105021" CO2_normed="98863.925556" HC_normed="6.257759" PMx_normed="1.363398" NOx_normed="37.174960" fuel_normed="42.497485" electricity_normed="0"
            traveltime="0.02" CO_perVeh="0.438656" CO2_perVeh="49.670125" HC_perVeh="0.003144" PMx_perVeh="0.000685" NOx_perVeh="0.018677" fuel_perVeh="0.021351" electricity_perVeh="0"/>
        <edge id=":1110673446_0" sampledSeconds="1312.45" CO_abs="13685.382376" CO2_abs="1105928.438870" HC_abs="88.493228" PMx_abs="20.232577" NOx_abs="452.151869" fuel_abs="475.387870" electricity_abs="0"
            CO_normed="19386.682625" CO2_normed="1566655.798186" HC_normed="125.359313" PMx_normed="28.661424" NOx_normed="640.517344" fuel_normed="673.433413" electricity_normed="0"
            traveltime="0.02" CO_perVeh="0.237381" CO2_perVeh="19.182939" HC_perVeh="0.001535" PMx_perVeh="0.000351" NOx_perVeh="0.007843" fuel_perVeh="0.008246" electricity_perVeh="0"/>
        <edge id=":1110673451_0" sampledSeconds="36.89" CO_abs="431.724051" CO2_abs="29550.594372" HC_abs="2.645480" PMx_abs="0.442348" NOx_abs="11.607134" fuel_abs="12.702635" electricity_abs="0"
            CO_normed="679.532603" CO2_normed="46512.563447" HC_normed="4.163980" PMx_normed="0.696255" NOx_normed="18.269600" fuel_normed="19.993916" electricity_normed="0"
            traveltime="0.03" CO_perVeh="0.318085" CO2_perVeh="21.772255" HC_perVeh="0.001949" PMx_perVeh="0.000326" NOx_perVeh="0.008552" fuel_perVeh="0.009359" electricity_perVeh="0"/>
        <edge id=":1110673464_0" sampledSeconds="1028.35" CO_abs="2909.087346" CO2_abs="228575.658811" HC_abs="18.379052" PMx_abs="3.078814" NOx_abs="86.961824" fuel_abs="98.255861" electricity_abs="0"
            CO_normed="87.556801" CO2_normed="6879.598648" HC_normed="0.553167" PMx_normed="0.092665" NOx_normed="2.617350" fuel_normed="2.957274" electricity_normed="0"
            traveltime="1.22" CO_perVeh="3.449771" CO2_perVeh="271.058811" HC_perVeh="0.021795" PMx_perVeh="0.003651" NOx_perVeh="0.103125" fuel_perVeh="0.116518" electricity_perVeh="0"/>
        <edge id=":1110673464_1" sampledSeconds="2628.83" CO_abs="66288.441336" CO2_abs="7919210.019265" HC_abs="490.536535" PMx_abs="142.163659" NOx_abs="3014.418388" fuel_abs="3404.102891" electricity_abs="0"
            CO_normed="1954.976970" CO2_normed="233553.133759" HC_normed="14.466891" PMx_normed="4.192687" NOx_normed="88.901148" fuel_normed="100.393713" electricity_normed="0"
            traveltime="0.72" CO_perVeh="18.147822" CO2_perVeh="2168.046346" HC_perVeh="0.134294" PMx_perVeh="0.038920" NOx_perVeh="0.825259" fuel_perVeh="0.931943" electricity_perVeh="0"/>
        <edge id=":1110673479_0" sampledSeconds="134.92" CO_abs="6269.128336" CO2_abs="438396.885271" HC_abs="38.807787" PMx_abs="7.454070" NOx_abs="177.787916" fuel_abs="188.448064" electricity_abs="0"
            CO_normed="8880.833435" CO2_normed="621032.065076" HC_normed="54.975025" PMx_normed="10.559420" NOx_normed="251.853972" fuel_normed="266.955114" electricity_normed="0"
            traveltime="0.03" CO_perVeh="1.325350" CO2_perVeh="92.681065" HC_perVeh="0.008204" PMx_perVeh="0.001576" NOx_perVeh="0.037586" fuel_perVeh="0.039840" electricity_perVeh="0"/>
        <edge id=":1110673511_0" sampledSeconds="63.39" CO_abs="985.761892" CO2_abs="109226.609530" HC_abs="6.990156" PMx_abs="1.458360" NOx_abs="40.881859" fuel_abs="46.952048" electricity_abs="0"
            CO_normed="1396.428131" CO2_normed="154730.175229" HC_normed="9.902239" PMx_normed="2.065909" NOx_normed="57.913151" fuel_normed="66.512168" electricity_normed="0"
            traveltime="0.02" CO_perVeh="0.377807" CO2_perVeh="41.862642" HC_perVeh="0.002679" PMx_perVeh="0.000559" NOx_perVeh="0.015669" fuel_perVeh="0.017995" electricity_perVeh="0"/>
        <edge id=":1110673517_0" sampledSeconds="183.54" CO_abs="7741.688660" CO2_abs="551311.711361" HC_abs="48.178534" PMx_abs="9.452778" NOx_abs="223.893199" fuel_abs="236.985095" electricity_abs="0"
            CO_normed="10966.859157" CO2_normed="780986.959785" HC_normed="68.249605" PMx_normed="13.390784" NOx_normed="317.166615" fuel_normed="335.712566" electricity_normed="0"
            traveltime="0.03" CO_perVeh="1.185321" CO2_perVeh="84.410681" HC_perVeh="0.007377" PMx_perVeh="0.001447" NOx_perVeh="0.034280" fuel_perVeh="0.036285" electricity_perVeh="0"/>
        <edge id=":1110673534_0" sampledSeconds="658.53" CO_abs="4770.215237" CO2_abs="392752.641858" HC_abs="30.737960" PMx_abs="5.572939" NOx_abs="151.089844" fuel_abs="168.828629" electricity_abs="0"
            CO_normed="130.958846" CO2_normed="10782.413374" HC_normed="0.843863" PMx_normed="0.152996" NOx_normed="4.147937" fuel_normed="4.634928" electricity_normed="0"
            traveltime="1.45" CO_perVeh="10.488993" CO2_perVeh="863.604595" HC_perVeh="0.067588" PMx_perVeh="0.012254" NOx_perVeh="0.332224" fuel_perVeh="0.371229" electricity_perVeh="0"/>
        <edge id=":1110673534_1" sampledSeconds="297.42" CO_abs="5070.019228" CO2_abs="603393.084747" HC_abs="36.866364" PMx_abs="8.425950" NOx_abs="226.729873" fuel_abs="259.373230" electricity_abs="0"
            CO_normed="135.342552" CO2_normed="16107.386664" HC_normed="0.984136" PMx_normed="0.224928" NOx_normed="6.052482" fuel_normed="6.923886" electricity_normed="0"
            traveltime="1.23" CO_perVeh="20.994196" CO2_perVeh="2498.561083" HC_perVeh="0.152658" PMx_perVeh="0.034891" NOx_perVeh="0.938855" fuel_perVeh="1.074026" electricity_perVeh="0"/>
        <edge id=":1110673549_0" sampledSeconds="653.18" CO_abs="1418.105820" CO2_abs="132254.002743" HC_abs="9.449169" PMx_abs="1.898971" NOx_abs="50.308158" fuel_abs="56.850565" electricity_abs="0"
            CO_normed="37.713747" CO2_normed="3517.222714" HC_normed="0.251295" PMx_normed="0.050502" NOx_normed="1.337918" fuel_normed="1.511910" electricity_normed="0"
            traveltime="1.30" CO_perVeh="2.817438" CO2_perVeh="262.757168" HC_perVeh="0.018773" PMx_perVeh="0.003773" NOx_perVeh="0.099950" fuel_perVeh="0.112949" electricity_perVeh="0"/>
        <edge id=":1110673549_1" sampledSeconds="3197.04" CO_abs="69312.440659" CO2_abs="9245509.795662" HC_abs="535.911916" PMx_abs="161.815238" NOx_abs="3448.180606" fuel_abs="3974.221980" electricity_abs="0"
            CO_normed="1783.072359" CO2_normed="237842.049805" HC_normed="13.786410" PMx_normed="4.162720" NOx_normed="88.704935" fuel_normed="102.237424" electricity_normed="0"
            traveltime="0.81" CO_perVeh="17.483187" CO2_perVeh="2332.062916" HC_perVeh="0.135177" PMx_perVeh="0.040816" NOx_perVeh="0.869760" fuel_perVeh="1.002447" electricity_perVeh="0"/>
        <edge id=":1110673556_0" sampledSeconds="461.60" CO_abs="55935.084296" CO2_abs="2706289.502348" HC_abs="318.962728" PMx_abs="54.562845" NOx_abs="1166.257431" fuel_abs="1163.318348" electricity_abs="0"
            CO_normed="1103.074491" CO2_normed="53369.704410" HC_normed="6.290142" PMx_normed="1.076013" NOx_normed="22.999319" fuel_normed="22.941358" electricity_normed="0"
            traveltime="2.72" CO_perVeh="329.732677" CO2_perVeh="15953.351860" HC_perVeh="1.880259" PMx_perVeh="0.321643" NOx_perVeh="6.874991" fuel_perVeh="6.857665" electricity_perVeh="0"/>
        <edge id=":1110673556_2" sampledSeconds="173.54" CO_abs="17275.765591" CO2_abs="745060.355169" HC_abs="96.197564" PMx_abs="14.557734" NOx_abs="318.916469" fuel_abs="320.271874" electricity_abs="0"
            CO_normed="356.227243" CO2_normed="15363.185781" HC_normed="1.983599" PMx_normed="0.300181" NOx_normed="6.576075" fuel_normed="6.604024" electricity_normed="0"
            traveltime="3.00" CO_perVeh="298.722673" CO2_perVeh="12883.158199" HC_perVeh="1.663393" PMx_perVeh="0.251724" NOx_perVeh="5.514521" fuel_perVeh="5.537958" electricity_perVeh="0"/>
        <edge id=":1110673556_3" sampledSeconds="201.92" CO_abs="20897.359426" CO2_abs="719535.240178" HC_abs="111.999766" PMx_abs="14.346976" NOx_abs="310.826853" fuel_abs="309.302704" electricity_abs="0"
            CO_normed="980.236870" CO2_normed="33751.392097" HC_normed="5.253597" PMx_normed="0.672977" NOx_normed="14.580021" fuel_normed="14.508528" electricity_normed="0"
            traveltime="1.87" CO_perVeh="193.093468" CO2_perVeh="6648.569903" HC_perVeh="1.034888" PMx_perVeh="0.132567" NOx_perVeh="2.872068" fuel_perVeh="2.857985" electricity_perVeh="0"/>
        <edge id=":1110673556_4" sampledSeconds="13.61" CO_abs="1399.358268" CO2_abs="50672.147524" HC_abs="7.562461" PMx_abs="1.019707" NOx_abs="21.931288" fuel_abs="21.782086" electricity_abs="0"
            CO_normed="40.101035" CO2_normed="1452.098171" HC_normed="0.216715" PMx_normed="0.029221" NOx_normed="0.628479" fuel_normed="0.624203" electricity_normed="0"
            traveltime="2.58" CO_perVeh="264.970418" CO2_perVeh="9594.841008" HC_perVeh="1.431962" PMx_perVeh="0.193083" NOx_perVeh="4.152720" fuel_perVeh="4.124468" electricity_perVeh="0"/>
        <edge id=":1110673556_5" sampledSeconds="22.52" CO_abs="1284.394070" CO2_abs="58714.037369" HC_abs="7.220615" PMx_abs="1.087179" NOx_abs="24.762249" fuel_abs="25.238858" electricity_abs="0"
            CO_normed="51.300841" CO2_normed="2345.136553" HC_normed="0.288403" PMx_normed="0.043424" NOx_normed="0.989046" fuel_normed="1.008082" electricity_normed="0"
            traveltime="1.56" CO_perVeh="88.797615" CO2_perVeh="4059.242090" HC_perVeh="0.499203" PMx_perVeh="0.075163" NOx_perVeh="1.711958" fuel_perVeh="1.744909" electricity_perVeh="0"/>
        <edge id=":1110673556_6" sampledSeconds="218.64" CO_abs="26401.370863" CO2_abs="1306312.292797" HC_abs="151.274839" PMx_abs="26.385011" NOx_abs="562.621728" fuel_abs="561.527380" electricity_abs="0"
            CO_normed="533.779125" CO2_normed="26410.834334" HC_normed="3.058453" PMx_normed="0.533448" NOx_normed="11.375005" fuel_normed="11.352880" electricity_normed="0"
            traveltime="2.55" CO_perVeh="307.642783" CO2_perVeh="15221.844002" HC_perVeh="1.762735" PMx_perVeh="0.307452" NOx_perVeh="6.555967" fuel_perVeh="6.543215" electricity_perVeh="0"/>
        <edge id=":1110673561_0" sampledSeconds="105.75" CO_abs="9123.347238" CO2_abs="644873.193515" HC_abs="57.061689" PMx_abs="13.004349" NOx_abs="272.859442" fuel_abs="277.200387" electricity_abs="0"
            CO_normed="231.753383" CO2_normed="16381.218469" HC_normed="1.449494" PMx_normed="0.330339" NOx_normed="6.931239" fuel_normed="7.041509" electricity_normed="0"
            traveltime="1.25" CO_perVeh="107.665413" CO2_perVeh="7610.204580" HC_perVeh="0.673390" PMx_perVeh="0.153465" NOx_perVeh="3.220038" fuel_perVeh="3.271266" electricity_perVeh="0"/>
        <edge id=":1110673561_1" sampledSeconds="5189.77" CO_abs="480748.930731" CO2_abs="33321970.572622" HC_abs="2995.153209" PMx_abs="696.331122" NOx_abs="14244.450915" fuel_abs="14323.505961" electricity_abs="0"
            CO_normed="11906.081813" CO2_normed="825241.789287" HC_normed="74.177053" PMx_normed="17.245125" NOx_normed="352.773739" fuel_normed="354.731593" electricity_normed="0"
            traveltime="1.19" CO_perVeh="110.433669" CO2_perVeh="7654.447515" HC_perVeh="0.688022" PMx_perVeh="0.159955" NOx_perVeh="3.272117" fuel_perVeh="3.290277" electricity_perVeh="0"/>
        <edge id=":1110673562_0" sampledSeconds="301.00" CO_abs="6765.640956" CO2_abs="521709.539221" HC_abs="42.700248" PMx_abs="7.069212" NOx_abs="199.343758" fuel_abs="224.262829" electricity_abs="0"
            CO_normed="10649.102358" CO2_normed="821169.541921" HC_normed="67.210086" PMx_normed="11.126922" NOx_normed="313.766588" fuel_normed="352.989146" electricity_normed="0"
            traveltime="0.03" CO_perVeh="0.606482" CO2_perVeh="46.766791" HC_perVeh="0.003828" PMx_perVeh="0.000634" NOx_perVeh="0.017869" fuel_perVeh="0.020103" electricity_perVeh="0"/>
        <edge id=":1110673564_0" sampledSeconds="27.82" CO_abs="486.440779" CO2_abs="61924.825490" HC_abs="3.632219" PMx_abs="0.842372" NOx_abs="23.071856" fuel_abs="26.618882" electricity_abs="0"
            CO_normed="2067.272820" CO2_normed="263167.715459" HC_normed="15.436179" PMx_normed="3.579906" NOx_normed="98.050623" fuel_normed="113.124747" electricity_normed="0"
            traveltime="7.858193e-03" CO_perVeh="0.137393" CO2_perVeh="17.490418" HC_perVeh="0.001026" PMx_perVeh="0.000238" NOx_perVeh="0.006517" fuel_perVeh="0.007518" electricity_perVeh="0"/>
        <edge id=":1110673588_0" sampledSeconds="62.63" CO_abs="1078.614031" CO2_abs="120967.589536" HC_abs="7.690767" PMx_abs="1.670344" NOx_abs="45.520362" fuel_abs="51.998930" electricity_abs="0"
            CO_normed="1833.554721" CO2_normed="205634.906070" HC_normed="13.073669" PMx_normed="2.839447" NOx_normed="77.380853" fuel_normed="88.393885" electricity_normed="0"
            traveltime="0.02" CO_perVeh="0.347940" CO2_perVeh="39.021803" HC_perVeh="0.002481" PMx_perVeh="0.000539" NOx_perVeh="0.014684" fuel_perVeh="0.016774" electricity_perVeh="0"/>
        <edge id=":1110673601_0" sampledSeconds="29.15" CO_abs="529.324922" CO2_abs="64738.317739" HC_abs="3.903266" PMx_abs="0.872933" NOx_abs="24.134674" fuel_abs="27.828309" electricity_abs="0"
            CO_normed="803.400559" CO2_normed="98258.741530" HC_normed="5.924313" PMx_normed="1.324923" NOx_normed="36.631206" fuel_normed="42.237345" electricity_normed="0"
            traveltime="0.02" CO_perVeh="0.403636" CO2_perVeh="49.366075" HC_perVeh="0.002976" PMx_perVeh="0.000666" NOx_perVeh="0.018404" fuel_perVeh="0.021220" electricity_perVeh="0"/>
        <edge id=":1110673617_0" sampledSeconds="858.89" CO_abs="32276.433101" CO2_abs="3263648.909290" HC_abs="225.361237" PMx_abs="61.618775" NOx_abs="1280.563410" fuel_abs="1402.889793" electricity_abs="0"
            CO_normed="45722.724260" CO2_normed="4623277.878820" HC_normed="319.246233" PMx_normed="87.289021" NOx_normed="1814.043315" fuel_normed="1987.330601" electricity_normed="0"
            traveltime="0.02" CO_perVeh="0.568924" CO2_perVeh="57.527067" HC_perVeh="0.003972" PMx_perVeh="0.001086" NOx_perVeh="0.022572" fuel_perVeh="0.024728" electricity_perVeh="0"/>
        <edge id=":1110673621_0" sampledSeconds="26.48" CO_abs="580.584794" CO2_abs="59245.080846" HC_abs="4.018802" PMx_abs="0.883211" NOx_abs="22.780752" fuel_abs="25.466933" electricity_abs="0"
            CO_normed="986.946173" CO2_normed="100711.741729" HC_normed="6.831632" PMx_normed="1.501385" NOx_normed="38.725396" fuel_normed="43.291681" electricity_normed="0"
            traveltime="0.02" CO_perVeh="0.439837" CO2_perVeh="44.882637" HC_perVeh="0.003045" PMx_perVeh="0.000669" NOx_perVeh="0.017258" fuel_perVeh="0.019293" electricity_perVeh="0"/>
        <edge id=":1110673630_0" sampledSeconds="285.53" CO_abs="1317.527000" CO2_abs="128161.240889" HC_abs="8.903111" PMx_abs="1.594350" NOx_abs="47.593040" fuel_abs="55.091548" electricity_abs="0"
            CO_normed="39.937358" CO2_normed="3884.870166" HC_normed="0.269874" PMx_normed="0.048329" NOx_normed="1.442658" fuel_normed="1.669955" electricity_normed="0"
            traveltime="1.28" CO_perVeh="5.928381" CO2_perVeh="576.677875" HC_perVeh="0.040061" PMx_perVeh="0.007174" NOx_perVeh="0.214151" fuel_perVeh="0.247891" electricity_perVeh="0"/>
        <edge id=":1110673630_1" sampledSeconds="338.32" CO_abs="1309.942713" CO2_abs="108997.714588" HC_abs="8.434499" PMx_abs="1.371832" NOx_abs="40.846664" fuel_abs="46.854002" electricity_abs="0"
            CO_normed="48.408573" CO2_normed="4027.980604" HC_normed="0.311695" PMx_normed="0.050696" NOx_normed="1.509477" fuel_normed="1.731477" electricity_normed="0"
            traveltime="1.08" CO_perVeh="4.175840" CO2_perVeh="347.463262" HC_perVeh="0.026888" PMx_perVeh="0.004373" NOx_perVeh="0.130211" fuel_perVeh="0.149361" electricity_perVeh="0"/>
        <edge id=":1110673650_0" sampledSeconds="208.11" CO_abs="3208.376445" CO2_abs="409290.083436" HC_abs="23.917628" PMx_abs="5.492462" NOx_abs="152.064903" fuel_abs="175.936711" electricity_abs="0"
            CO_normed="4544.979028" CO2_normed="579799.433506" HC_normed="33.881660" PMx_normed="7.780609" NOx_normed="215.414807" fuel_normed="249.231558" electricity_normed="0"
            traveltime="0.02" CO_perVeh="0.356923" CO2_perVeh="45.532327" HC_perVeh="0.002661" PMx_perVeh="0.000611" NOx_perVeh="0.016917" fuel_perVeh="0.019572" electricity_perVeh="0"/>
        <edge id=":1110673655_0" sampledSeconds="20.73" CO_abs="287.519571" CO2_abs="37537.734166" HC_abs="2.149822" PMx_abs="0.457303" NOx_abs="13.662704" fuel_abs="16.135967" electricity_abs="0"
            CO_normed="407.299593" CO2_normed="53175.871796" HC_normed="3.045433" PMx_normed="0.647815" NOx_normed="19.354556" fuel_normed="22.858175" electricity_normed="0"
            traveltime="0.02" CO_perVeh="0.328469" CO2_perVeh="42.883931" HC_perVeh="0.002456" PMx_perVeh="0.000522" NOx_perVeh="0.015609" fuel_perVeh="0.018434" electricity_perVeh="0"/>
        <edge id=":1110673663_0" sampledSeconds="110.68" CO_abs="1805.391444" CO2_abs="219930.813338" HC_abs="13.251370" PMx_abs="2.948383" NOx_abs="81.859279" fuel_abs="94.539133" electricity_abs="0"
            CO_normed="46.840908" CO2_normed="5706.108192" HC_normed="0.343807" PMx_normed="0.076496" NOx_normed="2.123840" fuel_normed="2.452819" electricity_normed="0"
            traveltime="1.30" CO_perVeh="21.205174" CO2_perVeh="2583.191156" HC_perVeh="0.155644" PMx_perVeh="0.034630" NOx_perVeh="0.961476" fuel_perVeh="1.110407" electricity_perVeh="0"/>
        <edge id=":1110673663_1" sampledSeconds="170.69" CO_abs="2804.640035" CO2_abs="328049.165721" HC_abs="20.263939" PMx_abs="4.535660" NOx_abs="123.169008" fuel_abs="141.014589" electricity_abs="0"
            CO_normed="72.855384" CO2_normed="8521.645376" HC_normed="0.526391" PMx_normed="0.117822" NOx_normed="3.199528" fuel_normed="3.663098" electricity_normed="0"
            traveltime="1.27" CO_perVeh="20.931941" CO2_perVeh="2448.337681" HC_perVeh="0.151236" PMx_perVeh="0.033851" NOx_perVeh="0.919250" fuel_perVeh="1.052438" electricity_perVeh="0"/>