<?xml version="1.0" encoding="UTF-8"?>

<!-- generated on Tue Nov 10 12:37:40 2020 by Eclipse SUMO sumo Version 1.7.0
<configuration xmlns:xsi="http://www.w3.org/2001/XMLSchema-instance" xsi:noNamespaceSchemaLocation="http://sumo.dlr.de/xsd/sumoConfiguration.xsd">

    <input>
        <net-file value="../dataSets/Porto/8AM9AM_Routing_SaoBento/Porto.net.xml"/>
        <route-files value="../results/Porto/8AM9AM_Routing_SaoBento/inputdata/cost_PMx-length/solution22/Porto.rou.xml"/>
        <additional-files value="moreOutputInfo.xml"/>
    </input>

    <output>
        <emission-output.precision value="6"/>
        <tripinfo-output value="../results/Porto/8AM9AM_Routing_SaoBento/inputdata/cost_PMx-length/solution22/Porto-tripinfo"/>
    </output>

    <processing>
        <collision.action value="warn"/>
        <time-to-teleport value="-1"/>
    </processing>

    <emissions>
        <device.emissions.probability value="1"/>
    </emissions>

    <gui_only>
        <quit-on-end value="true"/>
        <start value="true"/>
    </gui_only>

</configuration>
-->

<meandata xmlns:xsi="http://www.w3.org/2001/XMLSchema-instance" xsi:noNamespaceSchemaLocation="http://sumo.dlr.de/xsd/meandata_file.xsd">
    <interval begin="0.00" end="8561.00" id="emissions-detector">
        <edge id=":1092997347_0" sampledSeconds="628.61" CO_abs="76594.128281" CO2_abs="3256928.162222" HC_abs="425.788311" PMx_abs="65.808494" NOx_abs="1408.751287" fuel_abs="1400.021680" electricity_abs="0"
            CO_normed="73201.638989" CO2_normed="3112673.058585" HC_normed="406.929395" PMx_normed="62.893719" NOx_normed="1346.355203" fuel_normed="1338.012246" electricity_normed="0"
            traveltime="0.07" CO_perVeh="8.339841" CO2_perVeh="354.625937" HC_perVeh="0.046361" PMx_perVeh="0.007165" NOx_perVeh="0.153390" fuel_perVeh="0.152439" electricity_perVeh="0"/>
        <edge id=":1103427051_0" sampledSeconds="19.31" CO_abs="1723.395068" CO2_abs="96933.606943" HC_abs="10.151552" PMx_abs="1.916469" NOx_abs="41.457677" fuel_abs="41.667446" electricity_abs="0"
            CO_normed="2498.991918" CO2_normed="140557.614923" HC_normed="14.720158" PMx_normed="2.778957" NOx_normed="60.115293" fuel_normed="60.419466" electricity_normed="0"
            traveltime="0.03" CO_perVeh="2.680097" CO2_perVeh="150.744026" HC_perVeh="0.015787" PMx_perVeh="0.002980" NOx_perVeh="0.064472" fuel_perVeh="0.064798" electricity_perVeh="0"/>
        <edge id=":1105984386_0" sampledSeconds="10.43" CO_abs="368.592682" CO2_abs="25262.088254" HC_abs="2.255275" PMx_abs="0.357635" NOx_abs="9.800845" fuel_abs="10.859205" electricity_abs="0"
            CO_normed="15.962668" CO2_normed="1094.026954" HC_normed="0.097669" PMx_normed="0.015488" NOx_normed="0.424446" fuel_normed="0.470280" electricity_normed="0"
            traveltime="1.00" CO_perVeh="35.358970" CO2_perVeh="2423.383491" HC_perVeh="0.216348" PMx_perVeh="0.034308" NOx_perVeh="0.940192" fuel_perVeh="1.041720" electricity_perVeh="0"/>
        <edge id=":1105984390_0" sampledSeconds="10.34" CO_abs="10.639764" CO2_abs="687.351117" HC_abs="0.064213" PMx_abs="0.010249" NOx_abs="0.270850" fuel_abs="0.295466" electricity_abs="0"
            CO_normed="0.356222" CO2_normed="23.012670" HC_normed="0.002150" PMx_normed="0.000343" NOx_normed="0.009068" fuel_normed="0.009892" electricity_normed="0"
            traveltime="1.07" CO_perVeh="1.102876" CO2_perVeh="71.248081" HC_perVeh="0.006656" PMx_perVeh="0.001062" NOx_perVeh="0.028075" fuel_perVeh="0.030627" electricity_perVeh="0"/>
        <edge id=":1105984390_1" sampledSeconds="2391.93" CO_abs="62423.725810" CO2_abs="7435752.118327" HC_abs="462.412255" PMx_abs="134.377860" NOx_abs="2827.655659" fuel_abs="3196.286462" electricity_abs="0"
            CO_normed="1999.230938" CO2_normed="238143.197836" HC_normed="14.809576" PMx_normed="4.303690" NOx_normed="90.560706" fuel_normed="102.366764" electricity_normed="0"
            traveltime="0.65" CO_perVeh="16.863871" CO2_perVeh="2008.780480" HC_perVeh="0.124921" PMx_perVeh="0.036302" NOx_perVeh="0.763896" fuel_perVeh="0.863482" electricity_perVeh="0"/>
        <edge id=":1105984395_0" sampledSeconds="4.24" CO_abs="80.292956" CO2_abs="6021.115582" HC_abs="0.499934" PMx_abs="0.066703" NOx_abs="2.205178" fuel_abs="2.588270" electricity_abs="0"
            CO_normed="36.700132" CO2_normed="2752.118568" HC_normed="0.228509" PMx_normed="0.030489" NOx_normed="1.007938" fuel_normed="1.183041" electricity_normed="0"
            traveltime="0.10" CO_perVeh="1.861162" CO2_perVeh="139.567305" HC_perVeh="0.011588" PMx_perVeh="0.001546" NOx_perVeh="0.051115" fuel_perVeh="0.059995" electricity_perVeh="0"/>
        <edge id=":1105984398_0" sampledSeconds="10.51" CO_abs="631.422540" CO2_abs="42907.939324" HC_abs="3.884119" PMx_abs="0.758384" NOx_abs="17.613648" fuel_abs="18.444256" electricity_abs="0"
            CO_normed="21.961995" CO2_normed="1492.414159" HC_normed="0.135097" PMx_normed="0.026378" NOx_normed="0.612634" fuel_normed="0.641524" electricity_normed="0"
            traveltime="1.16" CO_perVeh="69.467144" CO2_perVeh="4720.598057" HC_perVeh="0.427319" PMx_perVeh="0.083435" NOx_perVeh="1.937799" fuel_perVeh="2.029180" electricity_perVeh="0"/>
        <edge id=":1105984398_1" sampledSeconds="649.10" CO_abs="11875.031405" CO2_abs="1372184.021013" HC_abs="85.647653" PMx_abs="19.795649" NOx_abs="520.063889" fuel_abs="589.843331" electricity_abs="0"
            CO_normed="399.806943" CO2_normed="46198.505125" HC_normed="2.883574" PMx_normed="0.666477" NOx_normed="17.509440" fuel_normed="19.858765" electricity_normed="0"
            traveltime="0.96" CO_perVeh="17.474849" CO2_perVeh="2019.254384" HC_perVeh="0.126036" PMx_perVeh="0.029131" NOx_perVeh="0.765306" fuel_perVeh="0.867991" electricity_perVeh="0"/>
        <edge id=":1106006327_0" sampledSeconds="261.18" CO_abs="34945.095507" CO2_abs="1127685.027270" HC_abs="185.642184" PMx_abs="23.448333" NOx_abs="493.169327" fuel_abs="484.752261" electricity_abs="0"
            CO_normed="1658.557428" CO2_normed="53521.970706" HC_normed="8.810914" PMx_normed="1.112900" NOx_normed="23.406708" fuel_normed="23.007219" electricity_normed="0"
            traveltime="2.10" CO_perVeh="280.851540" CO2_perVeh="9063.133808" HC_perVeh="1.491995" PMx_perVeh="0.188453" NOx_perVeh="3.963571" fuel_perVeh="3.895924" electricity_perVeh="0"/>
        <edge id=":1106006327_1" sampledSeconds="680.30" CO_abs="92158.675238" CO2_abs="3088589.191532" HC_abs="492.436538" PMx_abs="64.448806" NOx_abs="1351.832864" fuel_abs="1327.672870" electricity_abs="0"
            CO_normed="3814.349808" CO2_normed="127833.430324" HC_normed="20.381426" PMx_normed="2.667468" NOx_normed="55.950928" fuel_normed="54.950972" electricity_normed="0"
            traveltime="2.28" CO_perVeh="309.354366" CO2_perVeh="10367.646333" HC_perVeh="1.652990" PMx_perVeh="0.216339" NOx_perVeh="4.537776" fuel_perVeh="4.456676" electricity_perVeh="0"/>
        <edge id=":1106006327_2" sampledSeconds="0.00" CO_abs="0" CO2_abs="0" HC_abs="0" PMx_abs="0" NOx_abs="0" fuel_abs="0" electricity_abs="0"
            CO_normed="0" CO2_normed="0" HC_normed="0" PMx_normed="0" NOx_normed="0" fuel_normed="0" electricity_normed="0"/>
        <edge id=":1106006327_3" sampledSeconds="0.00" CO_abs="0" CO2_abs="0" HC_abs="0" PMx_abs="0" NOx_abs="0" fuel_abs="0" electricity_abs="0"
            CO_normed="0" CO2_normed="0" HC_normed="0" PMx_normed="0" NOx_normed="0" fuel_normed="0" electricity_normed="0"/>
        <edge id=":1107381198_0" sampledSeconds="0.00" CO_abs="0" CO2_abs="0" HC_abs="0" PMx_abs="0" NOx_abs="0" fuel_abs="0" electricity_abs="0"
            CO_normed="0" CO2_normed="0" HC_normed="0" PMx_normed="0" NOx_normed="0" fuel_normed="0" electricity_normed="0"/>
        <edge id=":1107381198_1" sampledSeconds="105.37" CO_abs="4694.124563" CO2_abs="185240.482761" HC_abs="25.651553" PMx_abs="3.272248" NOx_abs="77.241756" fuel_abs="79.628382" electricity_abs="0"
            CO_normed="215.259971" CO2_normed="8494.632056" HC_normed="1.176311" PMx_normed="0.150057" NOx_normed="3.542100" fuel_normed="3.651544" electricity_normed="0"
            traveltime="1.58" CO_perVeh="70.280045" CO2_perVeh="2773.405216" HC_perVeh="0.384053" PMx_perVeh="0.048992" NOx_perVeh="1.156457" fuel_perVeh="1.192190" electricity_perVeh="0"/>
        <edge id=":1110338277_0" sampledSeconds="160.21" CO_abs="2635.707707" CO2_abs="312629.288847" HC_abs="19.136291" PMx_abs="4.286349" NOx_abs="117.123849" fuel_abs="134.386255" electricity_abs="0"
            CO_normed="3958.377586" CO2_normed="469515.176736" HC_normed="28.739403" PMx_normed="6.437356" NOx_normed="175.899785" fuel_normed="201.824937" electricity_normed="0"
            traveltime="0.02" CO_perVeh="0.357568" CO2_perVeh="42.412198" HC_perVeh="0.002596" PMx_perVeh="0.000581" NOx_perVeh="0.015889" fuel_perVeh="0.018231" electricity_perVeh="0"/>
        <edge id=":1110338293_0" sampledSeconds="6580.81" CO_abs="614207.064090" CO2_abs="10743706.666000" HC_abs="3048.014918" PMx_abs="256.257641" NOx_abs="4855.948989" fuel_abs="4618.539059" electricity_abs="0"
            CO_normed="860937.363518" CO2_normed="15059511.738349" HC_normed="4272.418995" PMx_normed="359.197721" NOx_normed="6806.609959" fuel_normed="6473.831177" electricity_normed="0"
            traveltime="0.44" CO_perVeh="41.084181" CO2_perVeh="718.644277" HC_perVeh="0.203881" PMx_perVeh="0.017141" NOx_perVeh="0.324813" fuel_perVeh="0.308933" electricity_perVeh="0"/>
        <edge id=":1110338295_0" sampledSeconds="0.00" CO_abs="0" CO2_abs="0" HC_abs="0" PMx_abs="0" NOx_abs="0" fuel_abs="0" electricity_abs="0"
            CO_normed="0" CO2_normed="0" HC_normed="0" PMx_normed="0" NOx_normed="0" fuel_normed="0" electricity_normed="0"/>
        <edge id=":1110673403_0" sampledSeconds="200.97" CO_abs="3150.004220" CO2_abs="396926.377778" HC_abs="23.385654" PMx_abs="5.382106" NOx_abs="147.841613" fuel_abs="170.622018" electricity_abs="0"
            CO_normed="4415.377951" CO2_normed="556373.850408" HC_normed="32.779798" PMx_normed="7.544127" NOx_normed="207.230388" fuel_normed="239.161805" electricity_normed="0"
            traveltime="0.02" CO_perVeh="0.364064" CO2_perVeh="45.875068" HC_perVeh="0.002703" PMx_perVeh="0.000622" NOx_perVeh="0.017087" fuel_perVeh="0.019720" electricity_perVeh="0"/>
        <edge id=":1110673412_0" sampledSeconds="939.55" CO_abs="167749.914838" CO2_abs="11435765.724791" HC_abs="1043.729960" PMx_abs="251.449963" NOx_abs="4915.492048" fuel_abs="4915.672344" electricity_abs="0"
            CO_normed="243244.099512" CO2_normed="16582318.617808" HC_normed="1513.450273" PMx_normed="364.612525" NOx_normed="7127.660471" fuel_normed="7127.921906" electricity_normed="0"
            traveltime="0.02" CO_perVeh="2.770439" CO2_perVeh="188.865024" HC_perVeh="0.017238" PMx_perVeh="0.004153" NOx_perVeh="0.081181" fuel_perVeh="0.081184" electricity_perVeh="0"/>
        <edge id=":1110673414_0" sampledSeconds="0.00" CO_abs="0" CO2_abs="0" HC_abs="0" PMx_abs="0" NOx_abs="0" fuel_abs="0" electricity_abs="0"
            CO_normed="0" CO2_normed="0" HC_normed="0" PMx_normed="0" NOx_normed="0" fuel_normed="0" electricity_normed="0"/>
        <edge id=":1110673414_1" sampledSeconds="330.36" CO_abs="22656.454561" CO2_abs="889151.318133" HC_abs="123.822301" PMx_abs="16.383452" NOx_abs="375.095862" fuel_abs="382.214023" electricity_abs="0"
            CO_normed="1055.072255" CO2_normed="41406.252870" HC_normed="5.766192" PMx_normed="0.762949" NOx_normed="17.467571" fuel_normed="17.799052" electricity_normed="0"
            traveltime="1.54" CO_perVeh="105.295878" CO2_perVeh="4132.330957" HC_perVeh="0.575464" PMx_perVeh="0.076142" NOx_perVeh="1.743258" fuel_perVeh="1.776340" electricity_perVeh="0"/>
        <edge id=":1110673417_0" sampledSeconds="29.07" CO_abs="477.490549" CO2_abs="50965.131639" HC_abs="3.335272" PMx_abs="0.737883" NOx_abs="19.392063" fuel_abs="21.907753" electricity_abs="0"
            CO_normed="717.108305" CO2_normed="76540.822125" HC_normed="5.009002" PMx_normed="1.108172" NOx_normed="29.123528" fuel_normed="32.901660" electricity_normed="0"
            traveltime="0.02" CO_perVeh="0.364109" CO2_perVeh="38.863359" HC_perVeh="0.002543" PMx_perVeh="0.000563" NOx_perVeh="0.014787" fuel_perVeh="0.016706" electricity_perVeh="0"/>
        <edge id=":1110673446_0" sampledSeconds="1313.59" CO_abs="13452.807859" CO2_abs="1108012.694354" HC_abs="87.469572" PMx_abs="20.074789" NOx_abs="451.392007" fuel_abs="476.283912" electricity_abs="0"
            CO_normed="18856.873532" CO2_normed="1553107.386082" HC_normed="122.606572" PMx_normed="28.138941" NOx_normed="632.718617" fuel_normed="667.609736" electricity_normed="0"
            traveltime="0.02" CO_perVeh="0.233450" CO2_perVeh="19.227659" HC_perVeh="0.001518" PMx_perVeh="0.000348" NOx_perVeh="0.007833" fuel_perVeh="0.008265" electricity_perVeh="0"/>
        <edge id=":1110673451_0" sampledSeconds="36.52" CO_abs="369.962159" CO2_abs="25476.366602" HC_abs="2.267802" PMx_abs="0.366921" NOx_abs="9.915261" fuel_abs="10.951305" electricity_abs="0"
            CO_normed="576.197733" CO2_normed="39678.178721" HC_normed="3.531989" PMx_normed="0.571461" NOx_normed="15.442528" fuel_normed="17.056115" electricity_normed="0"
            traveltime="0.03" CO_perVeh="0.272580" CO2_perVeh="18.770450" HC_perVeh="0.001671" PMx_perVeh="0.000270" NOx_perVeh="0.007305" fuel_perVeh="0.008069" electricity_perVeh="0"/>
        <edge id=":1110673464_0" sampledSeconds="1032.58" CO_abs="3316.736946" CO2_abs="257832.681002" HC_abs="20.971269" PMx_abs="3.490263" NOx_abs="98.307571" fuel_abs="110.832334" electricity_abs="0"
            CO_normed="98.776660" CO2_normed="7678.586332" HC_normed="0.624551" PMx_normed="0.103944" NOx_normed="2.927725" fuel_normed="3.300728" electricity_normed="0"
            traveltime="1.22" CO_perVeh="3.933186" CO2_perVeh="305.753475" HC_perVeh="0.024869" PMx_perVeh="0.004139" NOx_perVeh="0.116579" fuel_perVeh="0.131432" electricity_perVeh="0"/>
        <edge id=":1110673464_1" sampledSeconds="2608.12" CO_abs="65102.872613" CO2_abs="7828048.750776" HC_abs="482.786800" PMx_abs="140.341881" NOx_abs="2975.257823" fuel_abs="3364.917092" electricity_abs="0"
            CO_normed="1899.827522" CO2_normed="228437.576752" HC_normed="14.088651" PMx_normed="4.095447" NOx_normed="86.823768" fuel_normed="98.194778" electricity_normed="0"
            traveltime="0.72" CO_perVeh="17.947051" CO2_perVeh="2157.975316" HC_perVeh="0.133091" PMx_perVeh="0.038688" NOx_perVeh="0.820196" fuel_perVeh="0.927614" electricity_perVeh="0"/>
        <edge id=":1110673479_0" sampledSeconds="134.79" CO_abs="6399.741824" CO2_abs="444948.522204" HC_abs="39.572173" PMx_abs="7.661232" NOx_abs="181.133784" fuel_abs="191.264211" electricity_abs="0"
            CO_normed="8970.552726" CO2_normed="623686.749964" HC_normed="55.468529" PMx_normed="10.738790" NOx_normed="253.896205" fuel_normed="268.096078" electricity_normed="0"
            traveltime="0.03" CO_perVeh="1.352963" CO2_perVeh="94.066140" HC_perVeh="0.008366" PMx_perVeh="0.001620" NOx_perVeh="0.038293" fuel_perVeh="0.040435" electricity_perVeh="0"/>
        <edge id=":1110673511_0" sampledSeconds="63.54" CO_abs="1024.548690" CO2_abs="121011.570184" HC_abs="7.452820" PMx_abs="1.628551" NOx_abs="45.203873" fuel_abs="52.017862" electricity_abs="0"
            CO_normed="1436.115440" CO2_normed="169622.572387" HC_normed="10.446658" PMx_normed="2.282749" NOx_normed="63.362514" fuel_normed="72.913719" electricity_normed="0"
            traveltime="0.02" CO_perVeh="0.392673" CO2_perVeh="46.379395" HC_perVeh="0.002856" PMx_perVeh="0.000624" NOx_perVeh="0.017325" fuel_perVeh="0.019937" electricity_perVeh="0"/>
        <edge id=":1110673517_0" sampledSeconds="182.55" CO_abs="8053.207496" CO2_abs="567978.262504" HC_abs="50.016532" PMx_abs="9.936828" NOx_abs="232.049755" fuel_abs="244.149077" electricity_abs="0"
            CO_normed="11288.224501" CO2_normed="796138.202319" HC_normed="70.108443" PMx_normed="13.928506" NOx_normed="325.265396" fuel_normed="342.225082" electricity_normed="0"
            traveltime="0.03" CO_perVeh="1.233011" CO2_perVeh="86.962069" HC_perVeh="0.007658" PMx_perVeh="0.001521" NOx_perVeh="0.035529" fuel_perVeh="0.037381" electricity_perVeh="0"/>
        <edge id=":1110673534_0" sampledSeconds="656.68" CO_abs="3792.321608" CO2_abs="324611.575014" HC_abs="24.648930" PMx_abs="4.183857" NOx_abs="122.069416" fuel_abs="139.538040" electricity_abs="0"
            CO_normed="103.017785" CO2_normed="8818.019385" HC_normed="0.669584" PMx_normed="0.113654" NOx_normed="3.315995" fuel_normed="3.790528" electricity_normed="0"
            traveltime="1.44" CO_perVeh="8.338752" CO2_perVeh="713.772669" HC_perVeh="0.054199" PMx_perVeh="0.009200" NOx_perVeh="0.268413" fuel_perVeh="0.306823" electricity_perVeh="0"/>
        <edge id=":1110673534_1" sampledSeconds="264.89" CO_abs="4257.411429" CO2_abs="526344.779411" HC_abs="31.312064" PMx_abs="7.239477" NOx_abs="196.716087" fuel_abs="226.253462" electricity_abs="0"
            CO_normed="112.455464" CO2_normed="13902.895551" HC_normed="0.827078" PMx_normed="0.191224" NOx_normed="5.196068" fuel_normed="5.976269" electricity_normed="0"
            traveltime="1.23" CO_perVeh="19.753321" CO2_perVeh="2442.107731" HC_perVeh="0.145280" PMx_perVeh="0.033589" NOx_perVeh="0.912713" fuel_perVeh="1.049759" electricity_perVeh="0"/>
        <edge id=":1110673549_0" sampledSeconds="649.45" CO_abs="1514.555429" CO2_abs="147150.133192" HC_abs="10.251075" PMx_abs="2.135985" NOx_abs="56.102754" fuel_abs="63.253716" electricity_abs="0"
            CO_normed="39.855329" CO2_normed="3872.236624" HC_normed="0.269756" PMx_normed="0.056208" NOx_normed="1.476337" fuel_normed="1.664513" electricity_normed="0"
            traveltime="1.29" CO_perVeh="3.009060" CO2_perVeh="292.352227" HC_perVeh="0.020366" PMx_perVeh="0.004244" NOx_perVeh="0.111463" fuel_perVeh="0.125670" electricity_perVeh="0"/>
        <edge id=":1110673549_1" sampledSeconds="3198.28" CO_abs="68814.257782" CO2_abs="9089035.507973" HC_abs="530.456619" PMx_abs="159.617591" NOx_abs="3395.182694" fuel_abs="3906.960486" electricity_abs="0"
            CO_normed="1751.646198" CO2_normed="231358.660302" HC_normed="13.502613" PMx_normed="4.063018" NOx_normed="86.423352" fuel_normed="99.450502" electricity_normed="0"
            traveltime="0.81" CO_perVeh="17.358171" CO2_perVeh="2292.679478" HC_perVeh="0.133806" PMx_perVeh="0.040263" NOx_perVeh="0.856424" fuel_perVeh="0.985518" electricity_perVeh="0"/>
        <edge id=":1110673556_0" sampledSeconds="472.96" CO_abs="58975.175210" CO2_abs="2810586.538887" HC_abs="335.295296" PMx_abs="56.903014" NOx_abs="1213.122504" fuel_abs="1208.151547" electricity_abs="0"
            CO_normed="1150.800307" CO2_normed="54843.819284" HC_normed="6.542718" PMx_normed="1.110366" NOx_normed="23.672024" fuel_normed="23.575024" electricity_normed="0"
            traveltime="2.79" CO_perVeh="347.653510" CO2_perVeh="16568.162305" HC_perVeh="1.976537" PMx_perVeh="0.335438" NOx_perVeh="7.151251" fuel_perVeh="7.121948" electricity_perVeh="0"/>
        <edge id=":1110673556_2" sampledSeconds="179.98" CO_abs="18725.410036" CO2_abs="789368.681580" HC_abs="103.805856" PMx_abs="15.320550" NOx_abs="337.384504" fuel_abs="339.318766" electricity_abs="0"
            CO_normed="382.059804" CO2_normed="16105.711064" HC_normed="2.117980" PMx_normed="0.312589" NOx_normed="6.883751" fuel_normed="6.923216" electricity_normed="0"
            traveltime="3.11" CO_perVeh="323.789097" CO2_perVeh="13649.312477" HC_perVeh="1.794952" PMx_perVeh="0.264914" NOx_perVeh="5.833860" fuel_perVeh="5.867306" electricity_perVeh="0"/>
        <edge id=":1110673556_3" sampledSeconds="239.53" CO_abs="25323.038505" CO2_abs="863451.508825" HC_abs="135.507064" PMx_abs="17.184234" NOx_abs="372.801618" fuel_abs="371.167466" electricity_abs="0"
            CO_normed="1175.345696" CO2_normed="40076.312903" HC_normed="6.289437" PMx_normed="0.797591" NOx_normed="17.303246" fuel_normed="17.227399" electricity_normed="0"
            traveltime="1.87" CO_perVeh="197.774843" CO2_perVeh="6743.621487" HC_perVeh="1.058320" PMx_perVeh="0.134210" NOx_perVeh="2.911609" fuel_perVeh="2.898846" electricity_perVeh="0"/>
        <edge id=":1110673556_4" sampledSeconds="53.25" CO_abs="6589.875365" CO2_abs="248350.788880" HC_abs="35.862628" PMx_abs="5.061152" NOx_abs="107.867253" fuel_abs="106.756517" electricity_abs="0"
            CO_normed="186.859014" CO2_normed="7042.103383" HC_normed="1.016902" PMx_normed="0.143511" NOx_normed="3.058627" fuel_normed="3.027131" electricity_normed="0"
            traveltime="2.69" CO_perVeh="332.747197" CO2_perVeh="12540.150491" HC_perVeh="1.810837" PMx_perVeh="0.255556" NOx_perVeh="5.446617" fuel_perVeh="5.390532" electricity_perVeh="0"/>
        <edge id=":1110673556_5" sampledSeconds="22.77" CO_abs="1252.311398" CO2_abs="54264.904862" HC_abs="6.951014" PMx_abs="0.913838" NOx_abs="22.297659" fuel_abs="23.326546" electricity_abs="0"
            CO_normed="49.493562" CO2_normed="2144.645036" HC_normed="0.274716" PMx_normed="0.036116" NOx_normed="0.881243" fuel_normed="0.921906" electricity_normed="0"
            traveltime="1.57" CO_perVeh="86.579553" CO2_perVeh="3751.647744" HC_perVeh="0.480564" PMx_perVeh="0.063179" NOx_perVeh="1.541567" fuel_perVeh="1.612699" electricity_perVeh="0"/>
        <edge id=":1110673556_6" sampledSeconds="211.04" CO_abs="24865.026367" CO2_abs="1264291.622797" HC_abs="143.284335" PMx_abs="25.424514" NOx_abs="543.485182" fuel_abs="543.464120" electricity_abs="0"
            CO_normed="497.432568" CO2_normed="25292.546222" HC_normed="2.866448" PMx_normed="0.508625" NOx_normed="10.872590" fuel_normed="10.872168" electricity_normed="0"
            traveltime="2.46" CO_perVeh="289.740481" CO2_perVeh="14732.196857" HC_perVeh="1.669625" PMx_perVeh="0.296260" NOx_perVeh="6.332978" fuel_perVeh="6.332732" electricity_perVeh="0"/>
        <edge id=":1110673561_0" sampledSeconds="105.24" CO_abs="10725.582333" CO2_abs="736498.411484" HC_abs="66.600160" PMx_abs="15.127757" NOx_abs="313.805708" fuel_abs="316.585519" electricity_abs="0"
            CO_normed="269.589482" CO2_normed="18512.022831" HC_normed="1.674007" PMx_normed="0.380239" NOx_normed="7.887564" fuel_normed="7.957435" electricity_normed="0"
            traveltime="1.24" CO_perVeh="126.572282" CO2_perVeh="8691.396101" HC_perVeh="0.785947" PMx_perVeh="0.178522" NOx_perVeh="3.703212" fuel_perVeh="3.736016" electricity_perVeh="0"/>
        <edge id=":1110673561_1" sampledSeconds="5195.02" CO_abs="480824.939851" CO2_abs="33351306.451838" HC_abs="2996.208273" PMx_abs="696.519078" NOx_abs="14254.366951" fuel_abs="14336.116393" electricity_abs="0"
            CO_normed="11782.778297" CO2_normed="817285.080868" HC_normed="73.423100" PMx_normed="17.068436" NOx_normed="349.308099" fuel_normed="351.311397" electricity_normed="0"
            traveltime="1.19" CO_perVeh="110.440118" CO2_perVeh="7660.422560" HC_perVeh="0.688196" PMx_perVeh="0.159983" NOx_perVeh="3.274069" fuel_perVeh="3.292846" electricity_perVeh="0"/>
        <edge id=":1110673562_0" sampledSeconds="302.23" CO_abs="6718.952338" CO2_abs="516882.455798" HC_abs="42.367325" PMx_abs="6.947544" NOx_abs="197.137384" fuel_abs="222.187951" electricity_abs="0"
            CO_normed="10464.435366" CO2_normed="805018.815244" HC_normed="65.985009" PMx_normed="10.820456" NOx_normed="307.031708" fuel_normed="346.046726" electricity_normed="0"
            traveltime="0.03" CO_perVeh="0.602298" CO2_perVeh="46.334181" HC_perVeh="0.003798" PMx_perVeh="0.000623" NOx_perVeh="0.017672" fuel_perVeh="0.019917" electricity_perVeh="0"/>
        <edge id=":1110673564_0" sampledSeconds="27.67" CO_abs="436.281954" CO2_abs="53660.421032" HC_abs="3.196793" PMx_abs="0.703125" NOx_abs="19.871223" fuel_abs="23.066407" electricity_abs="0"
            CO_normed="1834.616324" CO2_normed="225648.307108" HC_normed="13.442888" PMx_normed="2.956721" NOx_normed="83.560804" fuel_normed="96.996923" electricity_normed="0"
            traveltime="7.814717e-03" CO_perVeh="0.123226" CO2_perVeh="15.156170" HC_perVeh="0.000903" PMx_perVeh="0.000199" NOx_perVeh="0.005613" fuel_perVeh="0.006515" electricity_perVeh="0"/>
        <edge id=":1110673588_0" sampledSeconds="62.88" CO_abs="1083.787556" CO2_abs="119634.022166" HC_abs="7.649848" PMx_abs="1.634139" NOx_abs="44.970035" fuel_abs="51.425715" electricity_abs="0"
            CO_normed="1822.981055" CO2_normed="201229.987056" HC_normed="12.867400" PMx_normed="2.748697" NOx_normed="75.641689" fuel_normed="86.500443" electricity_normed="0"
            traveltime="0.02" CO_perVeh="0.349609" CO2_perVeh="38.591620" HC_perVeh="0.002468" PMx_perVeh="0.000527" NOx_perVeh="0.014506" fuel_perVeh="0.016589" electricity_perVeh="0"/>
        <edge id=":1110673601_0" sampledSeconds="28.95" CO_abs="369.452789" CO2_abs="50966.061624" HC_abs="2.823100" PMx_abs="0.635974" NOx_abs="18.588249" fuel_abs="21.908230" electricity_abs="0"
            CO_normed="554.854256" CO2_normed="76542.218802" HC_normed="4.239809" PMx_normed="0.955123" NOx_normed="27.916339" fuel_normed="32.902377" electricity_normed="0"
            traveltime="0.02" CO_perVeh="0.281725" CO2_perVeh="38.864068" HC_perVeh="0.002153" PMx_perVeh="0.000485" NOx_perVeh="0.014174" fuel_perVeh="0.016706" electricity_perVeh="0"/>
        <edge id=":1110673617_0" sampledSeconds="850.94" CO_abs="30024.203910" CO2_abs="3125145.979952" HC_abs="211.584089" PMx_abs="58.480727" NOx_abs="1219.604615" fuel_abs="1343.354221" electricity_abs="0"
            CO_normed="42085.089000" CO2_normed="4380534.021659" HC_normed="296.578562" PMx_normed="81.972752" NOx_normed="1709.526385" fuel_normed="1882.986876" electricity_normed="0"
            traveltime="0.02" CO_perVeh="0.531572" CO2_perVeh="55.330053" HC_perVeh="0.003746" PMx_perVeh="0.001035" NOx_perVeh="0.021593" fuel_perVeh="0.023784" electricity_perVeh="0"/>
        <edge id=":1110673621_0" sampledSeconds="26.65" CO_abs="646.712268" CO2_abs="61094.436914" HC_abs="4.359146" PMx_abs="0.945149" NOx_abs="23.807785" fuel_abs="26.261869" electricity_abs="0"
            CO_normed="1087.800100" CO2_normed="102763.683163" HC_normed="7.332286" PMx_normed="1.589785" NOx_normed="40.045801" fuel_normed="44.173685" electricity_normed="0"
            traveltime="0.02" CO_perVeh="0.489934" CO2_perVeh="46.283664" HC_perVeh="0.003302" PMx_perVeh="0.000716" NOx_perVeh="0.018036" fuel_perVeh="0.019895" electricity_perVeh="0"/>
        <edge id=":1110673630_0" sampledSeconds="287.05" CO_abs="1210.082111" CO2_abs="113382.111135" HC_abs="8.084476" PMx_abs="1.413495" NOx_abs="42.184556" fuel_abs="48.738602" electricity_abs="0"
            CO_normed="36.294835" CO2_normed="3400.748610" HC_normed="0.242483" PMx_normed="0.042396" NOx_normed="1.265271" fuel_normed="1.461851" electricity_normed="0"
            traveltime="1.29" CO_perVeh="5.444907" CO2_perVeh="510.176197" HC_perVeh="0.036377" PMx_perVeh="0.006360" NOx_perVeh="0.189814" fuel_perVeh="0.219305" electricity_perVeh="0"/>
        <edge id=":1110673630_1" sampledSeconds="337.56" CO_abs="1094.389531" CO2_abs="90804.121161" HC_abs="7.031100" PMx_abs="1.113781" NOx_abs="33.841484" fuel_abs="39.033310" electricity_abs="0"
            CO_normed="40.017697" CO2_normed="3320.364201" HC_normed="0.257101" PMx_normed="0.040727" NOx_normed="1.237455" fuel_normed="1.427301" electricity_normed="0"
            traveltime="1.08" CO_perVeh="3.488698" CO2_perVeh="289.465667" HC_perVeh="0.022414" PMx_perVeh="0.003551" NOx_perVeh="0.107880" fuel_perVeh="0.124431" electricity_perVeh="0"/>
        <edge id=":1110673650_0" sampledSeconds="200.46" CO_abs="2826.848273" CO2_abs="352465.539462" HC_abs="20.928537" PMx_abs="4.826885" NOx_abs="131.662088" fuel_abs="151.510115" electricity_abs="0"
            CO_normed="3962.408513" CO2_normed="494052.852885" HC_normed="29.335643" PMx_normed="6.765871" NOx_normed="184.551461" fuel_normed="212.372548" electricity_normed="0"
            traveltime="0.02" CO_perVeh="0.326715" CO2_perVeh="40.736473" HC_perVeh="0.002419" PMx_perVeh="0.000558" NOx_perVeh="0.015217" fuel_perVeh="0.017511" electricity_perVeh="0"/>
        <edge id=":1110673655_0" sampledSeconds="20.64" CO_abs="250.955242" CO2_abs="32794.505498" HC_abs="1.893630" PMx_abs="0.410387" NOx_abs="12.014849" fuel_abs="14.097028" electricity_abs="0"
            CO_normed="351.765320" CO2_normed="45968.235717" HC_normed="2.654312" PMx_normed="0.575242" NOx_normed="16.841279" fuel_normed="19.759880" electricity_normed="0"
            traveltime="0.02" CO_perVeh="0.286697" CO2_perVeh="37.465162" HC_perVeh="0.002163" PMx_perVeh="0.000469" NOx_perVeh="0.013726" fuel_perVeh="0.016105" electricity_perVeh="0"/>
        <edge id=":1110673663_0" sampledSeconds="111.04" CO_abs="1844.467356" CO2_abs="226791.674486" HC_abs="13.572610" PMx_abs="2.988970" NOx_abs="84.159408" fuel_abs="97.488388" electricity_abs="0"
            CO_normed="47.351646" CO2_normed="5822.254884" HC_normed="0.348440" PMx_normed="0.076734" NOx_normed="2.160562" fuel_normed="2.502747" electricity_normed="0"
            traveltime="1.30" CO_perVeh="21.664139" CO2_perVeh="2663.775207" HC_perVeh="0.159417" PMx_perVeh="0.035107" NOx_perVeh="0.988492" fuel_perVeh="1.145047" electricity_perVeh="0"/>
        <edge id=":1110673663_1" sampledSeconds="171.25" CO_abs="2256.472138" CO2_abs="298972.085724" HC_abs="17.039366" PMx_abs="3.800227" NOx_abs="109.701485" fuel_abs="128.515862" electricity_abs="0"
            CO_normed="57.999557" CO2_normed="7684.672179" HC_normed="0.437974" PMx_normed="0.097680" NOx_normed="2.819728" fuel_normed="3.303326" electricity_normed="0"
            traveltime="1.28" CO_perVeh="16.837232" CO2_perVeh="2230.855077" HC_perVeh="0.127143" PMx_perVeh="0.028356" NOx_perVeh="0.818565" fuel_perVeh="0.958953" electricity_perVeh="0"/>