<?xml version="1.0" encoding="UTF-8"?>

<!-- generated on Sat Oct 31 23:59:42 2020 by Eclipse SUMO sumo Version 1.7.0
<configuration xmlns:xsi="http://www.w3.org/2001/XMLSchema-instance" xsi:noNamespaceSchemaLocation="http://sumo.dlr.de/xsd/sumoConfiguration.xsd">

    <input>
        <net-file value="../dataSets/Porto/8AM9AM_Routing_SaoBento/Porto.net.xml"/>
        <route-files value="../results/Porto/8AM9AM_Routing_SaoBento_fewerv/cost_co-ttime/solution3/Porto.rou.xml"/>
        <additional-files value="moreOutputInfo.xml"/>
    </input>

    <output>
        <emission-output.precision value="6"/>
        <tripinfo-output value="../results/Porto/8AM9AM_Routing_SaoBento_fewerv/cost_co-ttime/solution3/Porto-tripinfo"/>
    </output>

    <processing>
        <collision.action value="warn"/>
        <time-to-teleport value="-1"/>
    </processing>

    <emissions>
        <device.emissions.probability value="1"/>
    </emissions>

    <gui_only>
        <quit-on-end value="true"/>
        <start value="true"/>
    </gui_only>

</configuration>
-->

<meandata xmlns:xsi="http://www.w3.org/2001/XMLSchema-instance" xsi:noNamespaceSchemaLocation="http://sumo.dlr.de/xsd/meandata_file.xsd">
    <interval begin="0.00" end="8561.00" id="emissions-detector">
        <edge id=":1092997347_0" sampledSeconds="606.60" CO_abs="72927.285332" CO2_abs="3081683.520236" HC_abs="404.940322" PMx_abs="62.310244" NOx_abs="1333.314402" fuel_abs="1324.691411" electricity_abs="0"
            CO_normed="69697.206994" CO2_normed="2945190.311468" HC_normed="387.004800" PMx_normed="59.550413" NOx_normed="1274.259551" fuel_normed="1266.018488" electricity_normed="0"
            traveltime="0.07" CO_perVeh="8.346304" CO2_perVeh="352.689211" HC_perVeh="0.046344" PMx_perVeh="0.007131" NOx_perVeh="0.152594" fuel_perVeh="0.151607" electricity_perVeh="0"/>
        <edge id=":1103427051_0" sampledSeconds="19.72" CO_abs="1542.745050" CO2_abs="85449.608647" HC_abs="9.050871" PMx_abs="1.668398" NOx_abs="36.433126" fuel_abs="36.731036" electricity_abs="0"
            CO_normed="2237.042152" CO2_normed="123905.357145" HC_normed="13.124126" PMx_normed="2.419244" NOx_normed="52.829493" fuel_normed="53.261474" electricity_normed="0"
            traveltime="0.03" CO_perVeh="2.399164" CO2_perVeh="132.884956" HC_perVeh="0.014075" PMx_perVeh="0.002595" NOx_perVeh="0.056658" fuel_perVeh="0.057121" electricity_perVeh="0"/>
        <edge id=":1105984386_0" sampledSeconds="10.55" CO_abs="195.349797" CO2_abs="14857.911110" HC_abs="1.226971" PMx_abs="0.195708" NOx_abs="5.648851" fuel_abs="6.386854" electricity_abs="0"
            CO_normed="8.460027" CO2_normed="643.452555" HC_normed="0.053137" PMx_normed="0.008476" NOx_normed="0.244635" fuel_normed="0.276596" electricity_normed="0"
            traveltime="1.01" CO_perVeh="18.739839" CO2_perVeh="1425.314334" HC_perVeh="0.117703" PMx_perVeh="0.018774" NOx_perVeh="0.541892" fuel_perVeh="0.612689" electricity_perVeh="0"/>
        <edge id=":1105984390_0" sampledSeconds="10.76" CO_abs="64.612122" CO2_abs="5817.926349" HC_abs="0.427814" PMx_abs="0.080234" NOx_abs="2.208027" fuel_abs="2.500893" electricity_abs="0"
            CO_normed="2.163228" CO2_normed="194.785482" HC_normed="0.014323" PMx_normed="0.002686" NOx_normed="0.073925" fuel_normed="0.083730" electricity_normed="0"
            traveltime="1.11" CO_perVeh="6.697435" CO2_perVeh="603.063093" HC_perVeh="0.044345" PMx_perVeh="0.008317" NOx_perVeh="0.228875" fuel_perVeh="0.259233" electricity_perVeh="0"/>
        <edge id=":1105984390_1" sampledSeconds="2391.87" CO_abs="62561.692799" CO2_abs="7500065.967117" HC_abs="463.939652" PMx_abs="135.119360" NOx_abs="2849.285070" fuel_abs="3223.932218" electricity_abs="0"
            CO_normed="2003.649577" CO2_normed="240202.963328" HC_normed="14.858493" PMx_normed="4.327438" NOx_normed="91.253426" fuel_normed="103.252168" electricity_normed="0"
            traveltime="0.65" CO_perVeh="16.902726" CO2_perVeh="2026.344731" HC_perVeh="0.125346" PMx_perVeh="0.036506" NOx_perVeh="0.769811" fuel_perVeh="0.871032" electricity_perVeh="0"/>
        <edge id=":1105984395_0" sampledSeconds="4.12" CO_abs="134.562062" CO2_abs="10024.243994" HC_abs="0.838926" PMx_abs="0.124980" NOx_abs="3.766936" fuel_abs="4.309056" electricity_abs="0"
            CO_normed="61.505338" CO2_normed="4581.859898" HC_normed="0.383455" PMx_normed="0.057126" NOx_normed="1.721783" fuel_normed="1.969574" electricity_normed="0"
            traveltime="0.10" CO_perVeh="3.119100" CO2_perVeh="232.358389" HC_perVeh="0.019446" PMx_perVeh="0.002897" NOx_perVeh="0.087316" fuel_perVeh="0.099882" electricity_perVeh="0"/>
        <edge id=":1105984398_0" sampledSeconds="9.74" CO_abs="519.693165" CO2_abs="35478.345980" HC_abs="3.197899" PMx_abs="0.612741" NOx_abs="14.475878" fuel_abs="15.250616" electricity_abs="0"
            CO_normed="18.075849" CO2_normed="1233.999738" HC_normed="0.111229" PMx_normed="0.021312" NOx_normed="0.503497" fuel_normed="0.530443" electricity_normed="0"
            traveltime="1.17" CO_perVeh="62.473821" CO2_perVeh="4264.954752" HC_perVeh="0.384429" PMx_perVeh="0.073659" NOx_perVeh="1.740187" fuel_perVeh="1.833321" electricity_perVeh="0"/>
        <edge id=":1105984398_1" sampledSeconds="641.38" CO_abs="12609.376702" CO2_abs="1455026.058549" HC_abs="90.978354" PMx_abs="21.030059" NOx_abs="551.834716" fuel_abs="625.453543" electricity_abs="0"
            CO_normed="424.530781" CO2_normed="48987.619585" HC_normed="3.063047" PMx_normed="0.708037" NOx_normed="18.579096" fuel_normed="21.057685" electricity_normed="0"
            traveltime="0.95" CO_perVeh="18.701240" CO2_perVeh="2157.980719" HC_perVeh="0.134932" PMx_perVeh="0.031190" NOx_perVeh="0.818438" fuel_perVeh="0.927624" electricity_perVeh="0"/>
        <edge id=":1106006327_0" sampledSeconds="68.08" CO_abs="9188.684429" CO2_abs="296441.579175" HC_abs="48.816542" PMx_abs="6.186384" NOx_abs="129.771889" fuel_abs="127.429812" electricity_abs="0"
            CO_normed="436.111580" CO2_normed="14069.653434" HC_normed="2.316921" PMx_normed="0.293617" NOx_normed="6.159209" fuel_normed="6.048049" electricity_normed="0"
            traveltime="2.11" CO_perVeh="284.845681" CO2_perVeh="9189.574863" HC_perVeh="1.513294" PMx_perVeh="0.191776" NOx_perVeh="4.022879" fuel_perVeh="3.950275" electricity_perVeh="0"/>
        <edge id=":1106006327_1" sampledSeconds="682.21" CO_abs="92189.622582" CO2_abs="3081526.908895" HC_abs="492.392201" PMx_abs="64.245750" NOx_abs="1348.426466" fuel_abs="1324.637338" electricity_abs="0"
            CO_normed="3815.630686" CO2_normed="127541.129937" HC_normed="20.379591" PMx_normed="2.659063" NOx_normed="55.809941" fuel_normed="54.825334" electricity_normed="0"
            traveltime="2.29" CO_perVeh="309.458249" CO2_perVeh="10343.939960" HC_perVeh="1.652841" PMx_perVeh="0.215657" NOx_perVeh="4.526341" fuel_perVeh="4.446487" electricity_perVeh="0"/>
        <edge id=":1106006327_2" sampledSeconds="0.00" CO_abs="0" CO2_abs="0" HC_abs="0" PMx_abs="0" NOx_abs="0" fuel_abs="0" electricity_abs="0"
            CO_normed="0" CO2_normed="0" HC_normed="0" PMx_normed="0" NOx_normed="0" fuel_normed="0" electricity_normed="0"/>
        <edge id=":1106006327_3" sampledSeconds="0.00" CO_abs="0" CO2_abs="0" HC_abs="0" PMx_abs="0" NOx_abs="0" fuel_abs="0" electricity_abs="0"
            CO_normed="0" CO2_normed="0" HC_normed="0" PMx_normed="0" NOx_normed="0" fuel_normed="0" electricity_normed="0"/>
        <edge id=":1107381198_0" sampledSeconds="0.00" CO_abs="0" CO2_abs="0" HC_abs="0" PMx_abs="0" NOx_abs="0" fuel_abs="0" electricity_abs="0"
            CO_normed="0" CO2_normed="0" HC_normed="0" PMx_normed="0" NOx_normed="0" fuel_normed="0" electricity_normed="0"/>
        <edge id=":1107381198_1" sampledSeconds="104.17" CO_abs="4370.029537" CO2_abs="170670.067740" HC_abs="23.819665" PMx_abs="2.920181" NOx_abs="70.558986" fuel_abs="73.365255" electricity_abs="0"
            CO_normed="200.397842" CO2_normed="7826.471875" HC_normed="1.092306" PMx_normed="0.133912" NOx_normed="3.235646" fuel_normed="3.364334" electricity_normed="0"
            traveltime="1.56" CO_perVeh="65.427721" CO2_perVeh="2555.258165" HC_perVeh="0.356626" PMx_perVeh="0.043721" NOx_perVeh="1.056403" fuel_perVeh="1.098419" electricity_perVeh="0"/>
        <edge id=":1110338277_0" sampledSeconds="160.89" CO_abs="2673.051194" CO2_abs="317635.068590" HC_abs="19.397082" PMx_abs="4.412131" NOx_abs="119.305114" fuel_abs="136.537939" electricity_abs="0"
            CO_normed="4014.461052" CO2_normed="477032.993026" HC_normed="29.131066" PMx_normed="6.626259" NOx_normed="179.175668" fuel_normed="205.056394" electricity_normed="0"
            traveltime="0.02" CO_perVeh="0.362129" CO2_perVeh="43.031350" HC_perVeh="0.002628" PMx_perVeh="0.000598" NOx_perVeh="0.016163" fuel_perVeh="0.018497" electricity_perVeh="0"/>
        <edge id=":1110338293_0" sampledSeconds="6730.40" CO_abs="640693.273743" CO2_abs="11177777.540665" HC_abs="3178.830589" PMx_abs="267.152620" NOx_abs="5055.153887" fuel_abs="4805.139491" electricity_abs="0"
            CO_normed="898063.226833" CO2_normed="15667951.230929" HC_normed="4455.784029" PMx_normed="374.469272" NOx_normed="7085.836543" fuel_normed="6735.390012" electricity_normed="0"
            traveltime="0.45" CO_perVeh="42.875567" CO2_perVeh="748.023380" HC_perVeh="0.212729" PMx_perVeh="0.017878" NOx_perVeh="0.338294" fuel_perVeh="0.321563" electricity_perVeh="0"/>
        <edge id=":1110338295_0" sampledSeconds="0.00" CO_abs="0" CO2_abs="0" HC_abs="0" PMx_abs="0" NOx_abs="0" fuel_abs="0" electricity_abs="0"
            CO_normed="0" CO2_normed="0" HC_normed="0" PMx_normed="0" NOx_normed="0" fuel_normed="0" electricity_normed="0"/>
        <edge id=":1110673403_0" sampledSeconds="201.08" CO_abs="3155.286591" CO2_abs="392521.687083" HC_abs="23.263640" PMx_abs="5.307948" NOx_abs="146.220475" fuel_abs="168.728663" electricity_abs="0"
            CO_normed="4422.782279" CO2_normed="550199.771638" HC_normed="32.608770" PMx_normed="7.440179" NOx_normed="204.958031" fuel_normed="236.507880" electricity_normed="0"
            traveltime="0.02" CO_perVeh="0.364675" CO2_perVeh="45.365992" HC_perVeh="0.002689" PMx_perVeh="0.000613" NOx_perVeh="0.016900" fuel_perVeh="0.019501" electricity_perVeh="0"/>
        <edge id=":1110673412_0" sampledSeconds="954.15" CO_abs="169429.364589" CO2_abs="11559877.450109" HC_abs="1054.383055" PMx_abs="254.026651" NOx_abs="4967.998019" fuel_abs="4969.021957" electricity_abs="0"
            CO_normed="245679.368958" CO2_normed="16762285.593607" HC_normed="1528.897687" PMx_normed="368.348825" NOx_normed="7203.796233" fuel_normed="7205.280983" electricity_normed="0"
            traveltime="0.02" CO_perVeh="2.760115" CO2_perVeh="188.317983" HC_perVeh="0.017177" PMx_perVeh="0.004138" NOx_perVeh="0.080932" fuel_perVeh="0.080949" electricity_perVeh="0"/>
        <edge id=":1110673414_0" sampledSeconds="0.00" CO_abs="0" CO2_abs="0" HC_abs="0" PMx_abs="0" NOx_abs="0" fuel_abs="0" electricity_abs="0"
            CO_normed="0" CO2_normed="0" HC_normed="0" PMx_normed="0" NOx_normed="0" fuel_normed="0" electricity_normed="0"/>
        <edge id=":1110673414_1" sampledSeconds="7.29" CO_abs="410.361695" CO2_abs="15237.761859" HC_abs="2.216478" PMx_abs="0.252973" NOx_abs="6.252408" fuel_abs="6.550224" electricity_abs="0"
            CO_normed="19.109841" CO2_normed="709.596452" HC_normed="0.103218" PMx_normed="0.011781" NOx_normed="0.291164" fuel_normed="0.305033" electricity_normed="0"
            traveltime="1.59" CO_perVeh="89.636335" CO2_perVeh="3328.422583" HC_perVeh="0.484151" PMx_perVeh="0.055258" NOx_perVeh="1.365729" fuel_perVeh="1.430782" electricity_perVeh="0"/>
        <edge id=":1110673417_0" sampledSeconds="28.78" CO_abs="372.873071" CO2_abs="49325.554821" HC_abs="2.797582" PMx_abs="0.624032" NOx_abs="18.059257" fuel_abs="21.203041" electricity_abs="0"
            CO_normed="559.990929" CO2_normed="74078.461025" HC_normed="4.201485" PMx_normed="0.937189" NOx_normed="27.121883" fuel_normed="31.843304" electricity_normed="0"
            traveltime="0.02" CO_perVeh="0.284334" CO2_perVeh="37.613103" HC_perVeh="0.002133" PMx_perVeh="0.000476" NOx_perVeh="0.013771" fuel_perVeh="0.016168" electricity_perVeh="0"/>
        <edge id=":1110673446_0" sampledSeconds="1329.72" CO_abs="13596.020629" CO2_abs="1114029.753597" HC_abs="88.287375" PMx_abs="20.222353" NOx_abs="454.216512" fuel_abs="478.870362" electricity_abs="0"
            CO_normed="19057.615647" CO2_normed="1561541.530565" HC_normed="123.752891" PMx_normed="28.345782" NOx_normed="636.677742" fuel_normed="671.235177" electricity_normed="0"
            traveltime="0.02" CO_perVeh="0.233150" CO2_perVeh="19.103853" HC_perVeh="0.001514" PMx_perVeh="0.000347" NOx_perVeh="0.007789" fuel_perVeh="0.008212" electricity_perVeh="0"/>
        <edge id=":1110673451_0" sampledSeconds="36.39" CO_abs="333.972714" CO2_abs="24047.189213" HC_abs="2.068638" PMx_abs="0.329190" NOx_abs="9.230260" fuel_abs="10.336972" electricity_abs="0"
            CO_normed="520.145955" CO2_normed="37452.305748" HC_normed="3.221802" PMx_normed="0.512698" NOx_normed="14.375672" fuel_normed="16.099321" electricity_normed="0"
            traveltime="0.03" CO_perVeh="0.246064" CO2_perVeh="17.717462" HC_perVeh="0.001524" PMx_perVeh="0.000243" NOx_perVeh="0.006801" fuel_perVeh="0.007616" electricity_perVeh="0"/>
        <edge id=":1110673464_0" sampledSeconds="1029.91" CO_abs="2926.198837" CO2_abs="217575.061799" HC_abs="18.265436" PMx_abs="2.929056" NOx_abs="83.024686" fuel_abs="93.527251" electricity_abs="0"
            CO_normed="87.145936" CO2_normed="6479.663049" HC_normed="0.543968" PMx_normed="0.087231" NOx_normed="2.472581" fuel_normed="2.785361" electricity_normed="0"
            traveltime="1.22" CO_perVeh="3.470063" CO2_perVeh="258.013643" HC_perVeh="0.021660" PMx_perVeh="0.003473" NOx_perVeh="0.098456" fuel_perVeh="0.110910" electricity_perVeh="0"/>
        <edge id=":1110673464_1" sampledSeconds="2603.23" CO_abs="69011.447573" CO2_abs="8120975.383478" HC_abs="508.430894" PMx_abs="146.662080" NOx_abs="3097.821715" fuel_abs="3490.832064" electricity_abs="0"
            CO_normed="2013.887286" CO2_normed="236985.741470" HC_normed="14.836995" PMx_normed="4.279883" NOx_normed="90.400419" fuel_normed="101.869220" electricity_normed="0"
            traveltime="0.72" CO_perVeh="19.027390" CO2_perVeh="2239.062765" HC_perVeh="0.140181" PMx_perVeh="0.040437" NOx_perVeh="0.854111" fuel_perVeh="0.962470" electricity_perVeh="0"/>
        <edge id=":1110673479_0" sampledSeconds="134.32" CO_abs="6545.022866" CO2_abs="456556.246795" HC_abs="40.511167" PMx_abs="7.899421" NOx_abs="186.051422" fuel_abs="196.253800" electricity_abs="0"
            CO_normed="9174.193948" CO2_normed="639957.360301" HC_normed="56.784721" PMx_normed="11.072661" NOx_normed="260.789284" fuel_normed="275.090012" electricity_normed="0"
            traveltime="0.03" CO_perVeh="1.383677" CO2_perVeh="96.520118" HC_perVeh="0.008564" PMx_perVeh="0.001670" NOx_perVeh="0.039333" fuel_perVeh="0.041490" electricity_perVeh="0"/>
        <edge id=":1110673511_0" sampledSeconds="63.69" CO_abs="1118.913886" CO2_abs="114618.722281" HC_abs="7.742701" PMx_abs="1.660461" NOx_abs="43.831598" fuel_abs="49.269761" electricity_abs="0"
            CO_normed="1568.387646" CO2_normed="160661.682907" HC_normed="10.852986" PMx_normed="2.327476" NOx_normed="61.438988" fuel_normed="69.061691" electricity_normed="0"
            traveltime="0.02" CO_perVeh="0.428840" CO2_perVeh="43.929245" HC_perVeh="0.002967" PMx_perVeh="0.000636" NOx_perVeh="0.016799" fuel_perVeh="0.018883" electricity_perVeh="0"/>
        <edge id=":1110673517_0" sampledSeconds="182.93" CO_abs="8309.007723" CO2_abs="587247.150186" HC_abs="51.629283" PMx_abs="10.216996" NOx_abs="239.491784" fuel_abs="252.432011" electricity_abs="0"
            CO_normed="11646.781063" CO2_normed="823147.506394" HC_normed="72.369045" PMx_normed="14.321219" NOx_normed="335.696929" fuel_normed="353.835315" electricity_normed="0"
            traveltime="0.03" CO_perVeh="1.272176" CO2_perVeh="89.912292" HC_perVeh="0.007905" PMx_perVeh="0.001564" NOx_perVeh="0.036668" fuel_perVeh="0.038649" electricity_perVeh="0"/>
        <edge id=":1110673534_0" sampledSeconds="736.24" CO_abs="4974.712554" CO2_abs="432513.896777" HC_abs="32.515231" PMx_abs="5.753183" NOx_abs="163.674534" fuel_abs="185.920772" electricity_abs="0"
            CO_normed="135.137238" CO2_normed="11749.167989" HC_normed="0.883271" PMx_normed="0.156284" NOx_normed="4.446191" fuel_normed="5.050507" electricity_normed="0"
            traveltime="1.45" CO_perVeh="9.810956" CO2_perVeh="852.988967" HC_perVeh="0.064125" PMx_perVeh="0.011346" NOx_perVeh="0.322793" fuel_perVeh="0.366667" electricity_perVeh="0"/>
        <edge id=":1110673534_1" sampledSeconds="200.34" CO_abs="3170.298898" CO2_abs="391757.010698" HC_abs="23.333944" PMx_abs="5.343071" NOx_abs="146.160742" fuel_abs="168.399918" electricity_abs="0"
            CO_normed="83.740423" CO2_normed="10347.887951" HC_normed="0.616344" PMx_normed="0.141132" NOx_normed="3.860697" fuel_normed="4.448123" electricity_normed="0"
            traveltime="1.22" CO_perVeh="19.379040" CO2_perVeh="2394.687343" HC_perVeh="0.142633" PMx_perVeh="0.032661" NOx_perVeh="0.893435" fuel_perVeh="1.029376" electricity_perVeh="0"/>
        <edge id=":1110673549_0" sampledSeconds="646.57" CO_abs="1756.402291" CO2_abs="173104.711719" HC_abs="11.986405" PMx_abs="2.673152" NOx_abs="66.658057" fuel_abs="74.410283" electricity_abs="0"
            CO_normed="46.219498" CO2_normed="4555.227984" HC_normed="0.315421" PMx_normed="0.070344" NOx_normed="1.754098" fuel_normed="1.958097" electricity_normed="0"
            traveltime="1.28" CO_perVeh="3.489553" CO2_perVeh="343.917786" HC_perVeh="0.023814" PMx_perVeh="0.005311" NOx_perVeh="0.132434" fuel_perVeh="0.147835" electricity_perVeh="0"/>
        <edge id=":1110673549_1" sampledSeconds="3196.26" CO_abs="71956.109977" CO2_abs="9262521.995597" HC_abs="548.906284" PMx_abs="163.738542" NOx_abs="3474.441868" fuel_abs="3981.533522" electricity_abs="0"
            CO_normed="1831.621099" CO2_normed="235774.706572" HC_normed="13.972244" PMx_normed="4.167915" NOx_normed="88.440871" fuel_normed="101.348736" electricity_normed="0"
            traveltime="0.81" CO_perVeh="18.150423" CO2_perVeh="2336.406017" HC_perVeh="0.138458" PMx_perVeh="0.041302" NOx_perVeh="0.876404" fuel_perVeh="1.004314" electricity_perVeh="0"/>
        <edge id=":1110673556_0" sampledSeconds="466.72" CO_abs="56349.624060" CO2_abs="2707311.325707" HC_abs="320.836451" PMx_abs="54.455804" NOx_abs="1165.971273" fuel_abs="1163.758108" electricity_abs="0"
            CO_normed="1099.567139" CO2_normed="52828.579031" HC_normed="6.260578" PMx_normed="1.062612" NOx_normed="22.751948" fuel_normed="22.708761" electricity_normed="0"
            traveltime="2.75" CO_perVeh="332.175616" CO2_perVeh="15959.339954" HC_perVeh="1.891300" PMx_perVeh="0.321012" NOx_perVeh="6.873289" fuel_perVeh="6.860242" electricity_perVeh="0"/>
        <edge id=":1110673556_2" sampledSeconds="173.71" CO_abs="16988.627980" CO2_abs="731025.614679" HC_abs="94.538092" PMx_abs="14.175977" NOx_abs="312.201888" fuel_abs="314.239094" electricity_abs="0"
            CO_normed="346.623751" CO2_normed="14915.321072" HC_normed="1.928887" PMx_normed="0.289236" NOx_normed="6.369943" fuel_normed="6.411509" electricity_normed="0"
            traveltime="3.00" CO_perVeh="293.757654" CO2_perVeh="12640.477480" HC_perVeh="1.634699" PMx_perVeh="0.245123" NOx_perVeh="5.398417" fuel_perVeh="5.433643" electricity_perVeh="0"/>
        <edge id=":1110673556_3" sampledSeconds="354.43" CO_abs="35805.682857" CO2_abs="1241163.357949" HC_abs="192.037587" PMx_abs="24.410514" NOx_abs="534.004732" fuel_abs="533.532454" electricity_abs="0"
            CO_normed="1661.888057" CO2_normed="57607.463290" HC_normed="8.913249" PMx_normed="1.132992" NOx_normed="24.785342" fuel_normed="24.763421" electricity_normed="0"
            traveltime="1.83" CO_perVeh="184.962747" CO2_perVeh="6411.523715" HC_perVeh="0.992016" PMx_perVeh="0.126098" NOx_perVeh="2.758528" fuel_perVeh="2.756088" electricity_perVeh="0"/>
        <edge id=":1110673556_4" sampledSeconds="74.05" CO_abs="8436.461337" CO2_abs="325088.907559" HC_abs="46.056882" PMx_abs="6.470489" NOx_abs="140.165852" fuel_abs="139.743380" electricity_abs="0"
            CO_normed="239.219828" CO2_normed="9218.048818" HC_normed="1.305965" PMx_normed="0.183474" NOx_normed="3.974469" fuel_normed="3.962489" electricity_normed="0"
            traveltime="2.55" CO_perVeh="290.446470" CO2_perVeh="11192.005987" HC_perVeh="1.585624" PMx_perVeh="0.222763" NOx_perVeh="4.825563" fuel_perVeh="4.811018" electricity_perVeh="0"/>
        <edge id=":1110673556_5" sampledSeconds="22.00" CO_abs="1115.659520" CO2_abs="52213.993094" HC_abs="6.288792" PMx_abs="0.900396" NOx_abs="21.564101" fuel_abs="22.444826" electricity_abs="0"
            CO_normed="44.092838" CO2_normed="2063.589375" HC_normed="0.248544" PMx_normed="0.035585" NOx_normed="0.852251" fuel_normed="0.887059" electricity_normed="0"
            traveltime="1.52" CO_perVeh="77.132016" CO2_perVeh="3609.856313" HC_perVeh="0.434781" PMx_perVeh="0.062250" NOx_perVeh="1.490851" fuel_perVeh="1.551741" electricity_perVeh="0"/>
        <edge id=":1110673556_6" sampledSeconds="548.05" CO_abs="65938.596706" CO2_abs="3183679.065090" HC_abs="375.877752" PMx_abs="64.346596" NOx_abs="1372.900486" fuel_abs="1368.527631" electricity_abs="0"
            CO_normed="1319.122088" CO2_normed="63690.487588" HC_normed="7.519551" PMx_normed="1.287274" NOx_normed="27.465300" fuel_normed="27.377820" electricity_normed="0"
            traveltime="2.66" CO_perVeh="320.146466" CO2_perVeh="15457.465757" HC_perVeh="1.824970" PMx_perVeh="0.312417" NOx_perVeh="6.665735" fuel_perVeh="6.644504" electricity_perVeh="0"/>
        <edge id=":1110673561_0" sampledSeconds="125.85" CO_abs="10648.954174" CO2_abs="754715.168058" HC_abs="66.615158" PMx_abs="15.164023" NOx_abs="318.910464" fuel_abs="324.416302" electricity_abs="0"
            CO_normed="267.663419" CO2_normed="18969.904353" HC_normed="1.674384" PMx_normed="0.381151" NOx_normed="8.015873" fuel_normed="8.154263" electricity_normed="0"
            traveltime="1.27" CO_perVeh="107.806403" CO2_perVeh="7640.480557" HC_perVeh="0.674389" PMx_perVeh="0.153515" NOx_perVeh="3.228541" fuel_perVeh="3.284281" electricity_perVeh="0"/>
        <edge id=":1110673561_1" sampledSeconds="5259.48" CO_abs="482193.297897" CO2_abs="33462582.727443" HC_abs="3005.033971" PMx_abs="698.316667" NOx_abs="14298.806489" fuel_abs="14383.949264" electricity_abs="0"
            CO_normed="11816.310376" CO2_normed="820011.943758" HC_normed="73.639377" PMx_normed="17.112487" NOx_normed="350.397105" fuel_normed="352.483557" electricity_normed="0"
            traveltime="1.19" CO_perVeh="109.542150" CO2_perVeh="7601.854452" HC_perVeh="0.682668" PMx_perVeh="0.158640" NOx_perVeh="3.248328" fuel_perVeh="3.267670" electricity_perVeh="0"/>
        <edge id=":1110673562_0" sampledSeconds="302.36" CO_abs="6862.323197" CO2_abs="525350.394771" HC_abs="43.221560" PMx_abs="7.126921" NOx_abs="200.862715" fuel_abs="225.827914" electricity_abs="0"
            CO_normed="10687.728376" CO2_normed="818207.210639" HC_normed="67.315438" PMx_normed="11.099826" NOx_normed="312.833726" fuel_normed="351.715787" electricity_normed="0"
            traveltime="0.03" CO_perVeh="0.615148" CO2_perVeh="47.093163" HC_perVeh="0.003874" PMx_perVeh="0.000639" NOx_perVeh="0.018006" fuel_perVeh="0.020244" electricity_perVeh="0"/>
        <edge id=":1110673564_0" sampledSeconds="27.79" CO_abs="468.028952" CO2_abs="53961.323347" HC_abs="3.360658" PMx_abs="0.748489" NOx_abs="20.278505" fuel_abs="23.195713" electricity_abs="0"
            CO_normed="1968.116139" CO2_normed="226913.636315" HC_normed="14.131956" PMx_normed="3.147484" NOx_normed="85.273472" fuel_normed="97.540668" electricity_normed="0"
            traveltime="7.847928e-03" CO_perVeh="0.132193" CO2_perVeh="15.241159" HC_perVeh="0.000949" PMx_perVeh="0.000211" NOx_perVeh="0.005728" fuel_perVeh="0.006552" electricity_perVeh="0"/>
        <edge id=":1110673588_0" sampledSeconds="63.05" CO_abs="1118.652545" CO2_abs="120561.190318" HC_abs="7.848259" PMx_abs="1.664354" NOx_abs="45.473341" fuel_abs="51.824260" electricity_abs="0"
            CO_normed="1881.625586" CO2_normed="202789.526992" HC_normed="13.201136" PMx_normed="2.799521" NOx_normed="76.488273" fuel_normed="87.170815" electricity_normed="0"
            traveltime="0.02" CO_perVeh="0.360856" CO2_perVeh="38.890707" HC_perVeh="0.002532" PMx_perVeh="0.000537" NOx_perVeh="0.014669" fuel_perVeh="0.016718" electricity_perVeh="0"/>
        <edge id=":1110673601_0" sampledSeconds="28.66" CO_abs="742.009569" CO2_abs="74628.433638" HC_abs="5.114069" PMx_abs="1.127415" NOx_abs="28.783696" fuel_abs="32.079567" electricity_abs="0"
            CO_normed="1114.370170" CO2_normed="112079.013256" HC_normed="7.680448" PMx_normed="1.693183" NOx_normed="43.228139" fuel_normed="48.177967" electricity_normed="0"
            traveltime="0.02" CO_perVeh="0.565831" CO2_perVeh="56.909107" HC_perVeh="0.003900" PMx_perVeh="0.000860" NOx_perVeh="0.021949" fuel_perVeh="0.024463" electricity_perVeh="0"/>
        <edge id=":1110673617_0" sampledSeconds="854.15" CO_abs="31808.677407" CO2_abs="3230736.775541" HC_abs="221.961572" PMx_abs="60.832023" NOx_abs="1265.447904" fuel_abs="1388.742569" electricity_abs="0"
            CO_normed="44586.395151" CO2_normed="4528541.210898" HC_normed="311.124736" PMx_normed="85.268575" NOx_normed="1773.785171" fuel_normed="1946.607970" electricity_normed="0"
            traveltime="0.02" CO_perVeh="0.563513" CO2_perVeh="57.234811" HC_perVeh="0.003932" PMx_perVeh="0.001078" NOx_perVeh="0.022418" fuel_perVeh="0.024603" electricity_perVeh="0"/>
        <edge id=":1110673621_0" sampledSeconds="30.89" CO_abs="565.716214" CO2_abs="60768.103278" HC_abs="3.978804" PMx_abs="0.883165" NOx_abs="23.178366" fuel_abs="26.121628" electricity_abs="0"
            CO_normed="951.560971" CO2_normed="102214.774817" HC_normed="6.692534" PMx_normed="1.485525" NOx_normed="38.987089" fuel_normed="43.937792" electricity_normed="0"
            traveltime="0.02" CO_perVeh="0.367348" CO2_perVeh="39.459807" HC_perVeh="0.002584" PMx_perVeh="0.000573" NOx_perVeh="0.015051" fuel_perVeh="0.016962" electricity_perVeh="0"/>
        <edge id=":1110673630_0" sampledSeconds="287.72" CO_abs="1607.948723" CO2_abs="132659.079142" HC_abs="10.373469" PMx_abs="1.906067" NOx_abs="51.196480" fuel_abs="57.024785" electricity_abs="0"
            CO_normed="48.228326" CO2_normed="3978.936135" HC_normed="0.311139" PMx_normed="0.057170" NOx_normed="1.535572" fuel_normed="1.710384" electricity_normed="0"
            traveltime="1.29" CO_perVeh="7.235155" CO2_perVeh="596.915191" HC_perVeh="0.046677" PMx_perVeh="0.008577" NOx_perVeh="0.230365" fuel_perVeh="0.256590" electricity_perVeh="0"/>
        <edge id=":1110673630_1" sampledSeconds="337.62" CO_abs="1424.352632" CO2_abs="117672.115027" HC_abs="9.161324" PMx_abs="1.532158" NOx_abs="44.444063" fuel_abs="50.582729" electricity_abs="0"
            CO_normed="52.083203" CO2_normed="4302.825392" HC_normed="0.334995" PMx_normed="0.056025" NOx_normed="1.625152" fuel_normed="1.849620" electricity_normed="0"
            traveltime="1.08" CO_perVeh="4.540556" CO2_perVeh="375.115543" HC_perVeh="0.029204" PMx_perVeh="0.004884" NOx_perVeh="0.141679" fuel_perVeh="0.161248" electricity_perVeh="0"/>
        <edge id=":1110673650_0" sampledSeconds="200.32" CO_abs="3138.600623" CO2_abs="388344.788579" HC_abs="23.151400" PMx_abs="5.263261" NOx_abs="144.801634" fuel_abs="166.933190" electricity_abs="0"
            CO_normed="4399.393468" CO2_normed="544344.990415" HC_normed="32.451443" PMx_normed="7.377541" NOx_normed="202.969234" fuel_normed="233.991155" electricity_normed="0"
            traveltime="0.02" CO_perVeh="0.362970" CO2_perVeh="44.910930" HC_perVeh="0.002677" PMx_perVeh="0.000609" NOx_perVeh="0.016746" fuel_perVeh="0.019305" electricity_perVeh="0"/>
        <edge id=":1110673655_0" sampledSeconds="20.88" CO_abs="336.574143" CO2_abs="35998.197249" HC_abs="2.353877" PMx_abs="0.517429" NOx_abs="13.683847" fuel_abs="15.474106" electricity_abs="0"
            CO_normed="471.777796" CO2_normed="50458.867771" HC_normed="3.299443" PMx_normed="0.725284" NOx_normed="19.180722" fuel_normed="21.690138" electricity_normed="0"
            traveltime="0.02" CO_perVeh="0.384510" CO2_perVeh="41.125130" HC_perVeh="0.002689" PMx_perVeh="0.000591" NOx_perVeh="0.015633" fuel_perVeh="0.017678" electricity_perVeh="0"/>
        <edge id=":1110673663_0" sampledSeconds="128.89" CO_abs="2277.482799" CO2_abs="262452.897498" HC_abs="16.363954" PMx_abs="3.639671" NOx_abs="98.688275" fuel_abs="112.817506" electricity_abs="0"
            CO_normed="58.468131" CO2_normed="6737.759081" HC_normed="0.420100" PMx_normed="0.093439" NOx_normed="2.533551" fuel_normed="2.896280" electricity_normed="0"
            traveltime="1.30" CO_perVeh="22.928666" CO2_perVeh="2642.256938" HC_perVeh="0.164745" PMx_perVeh="0.036643" NOx_perVeh="0.993549" fuel_perVeh="1.135796" electricity_perVeh="0"/>
        <edge id=":1110673663_1" sampledSeconds="170.99" CO_abs="2543.194595" CO2_abs="312004.388385" HC_abs="18.739599" PMx_abs="4.209755" NOx_abs="116.280541" fuel_abs="134.117693" electricity_abs="0"
            CO_normed="65.369370" CO2_normed="8019.649852" HC_normed="0.481676" PMx_normed="0.108206" NOx_normed="2.988834" fuel_normed="3.447313" electricity_normed="0"
            traveltime="1.27" CO_perVeh="18.952663" CO2_perVeh="2325.152072" HC_perVeh="0.139653" PMx_perVeh="0.031372" NOx_perVeh="0.866558" fuel_perVeh="0.999486" electricity_perVeh="0"/>