<?xml version="1.0" encoding="UTF-8"?>

<!-- generated on ter 01 set 2020 17:21:09 by Eclipse SUMO GUI Version 1.6.0
<configuration xmlns:xsi="http://www.w3.org/2001/XMLSchema-instance" xsi:noNamespaceSchemaLocation="http://sumo.dlr.de/xsd/sumoConfiguration.xsd">

    <input>
        <net-file value="../dataSets/Angeja_Estarreja/angeja_estarreja.net.xml"/>
        <route-files value="../results/angeja_estarreja/length-ttime/solution14/angeja_estarreja.rou.xml"/>
        <additional-files value="moreOutputInfo.xml"/>
    </input>

    <output>
        <emission-output.precision value="6"/>
        <tripinfo-output value="../results/angeja_estarreja/length-ttime/solution14/angeja_estarreja-tripinfo"/>
    </output>

    <processing>
        <collision.action value="warn"/>
        <time-to-teleport value="-1"/>
    </processing>

    <emissions>
        <device.emissions.probability value="1"/>
    </emissions>

    <gui_only>
        <gui-settings-file value="gui-settings.xml"/>
        <quit-on-end value="true"/>
        <start value="true"/>
    </gui_only>

</configuration>
-->

<meandata xmlns:xsi="http://www.w3.org/2001/XMLSchema-instance" xsi:noNamespaceSchemaLocation="http://sumo.dlr.de/xsd/meandata_file.xsd">
    <interval begin="0.00" end="19078.00" id="emissions-detector">
        <edge id=":10_0" sampledSeconds="400.23" CO_abs="41273.267486" CO2_abs="2262846.385456" HC_abs="241.640407" PMx_abs="44.476069" NOx_abs="966.225193" fuel_abs="972.698286" electricity_abs="0"
            CO_normed="445.295903" CO2_normed="24413.773973" HC_normed="2.607050" PMx_normed="0.479851" NOx_normed="10.424571" fuel_normed="10.494409" electricity_normed="0"
            traveltime="1.91" CO_perVeh="197.278816" CO2_perVeh="10815.999889" HC_perVeh="1.154998" PMx_perVeh="0.212588" NOx_perVeh="4.618383" fuel_perVeh="4.649323" electricity_perVeh="0"/>
        <edge id=":10_1" sampledSeconds="0.00" CO_abs="0" CO2_abs="0" HC_abs="0" PMx_abs="0" NOx_abs="0" fuel_abs="0" electricity_abs="0"
            CO_normed="0" CO2_normed="0" HC_normed="0" PMx_normed="0" NOx_normed="0" fuel_normed="0" electricity_normed="0"/>
        <edge id=":100_0" sampledSeconds="0.00" CO_abs="0" CO2_abs="0" HC_abs="0" PMx_abs="0" NOx_abs="0" fuel_abs="0" electricity_abs="0"
            CO_normed="0" CO2_normed="0" HC_normed="0" PMx_normed="0" NOx_normed="0" fuel_normed="0" electricity_normed="0"/>
        <edge id=":100_1" sampledSeconds="911.82" CO_abs="21801.065630" CO2_abs="2744963.434483" HC_abs="165.887026" PMx_abs="49.656782" NOx_abs="1025.368332" fuel_abs="1179.933938" electricity_abs="0"
            CO_normed="139.169142" CO2_normed="17522.730849" HC_normed="1.058955" PMx_normed="0.316989" NOx_normed="6.545535" fuel_normed="7.532219" electricity_normed="0"
            traveltime="1.37" CO_perVeh="32.780654" CO2_perVeh="4127.398965" HC_perVeh="0.249432" PMx_perVeh="0.074665" NOx_perVeh="1.541771" fuel_perVeh="1.774180" electricity_perVeh="0"/>
        <edge id=":101_0" sampledSeconds="437.93" CO_abs="11012.211424" CO2_abs="1334786.623803" HC_abs="82.613112" PMx_abs="24.423822" NOx_abs="501.666917" fuel_abs="573.763382" electricity_abs="0"
            CO_normed="254.344377" CO2_normed="30829.000559" HC_normed="1.908080" PMx_normed="0.564107" NOx_normed="11.586788" fuel_normed="13.251970" electricity_normed="0"
            traveltime="0.38" CO_perVeh="9.513121" CO2_perVeh="1153.082305" HC_perVeh="0.071367" PMx_perVeh="0.021099" NOx_perVeh="0.433375" fuel_perVeh="0.495657" electricity_perVeh="0"/>
        <edge id=":102_0" sampledSeconds="341.52" CO_abs="8319.978191" CO2_abs="1028807.385329" HC_abs="62.832127" PMx_abs="18.702492" NOx_abs="385.393978" fuel_abs="442.237061" electricity_abs="0"
            CO_normed="193.823676" CO2_normed="23967.277849" HC_normed="1.463748" PMx_normed="0.435697" NOx_normed="8.978206" fuel_normed="10.302432" electricity_normed="0"
            traveltime="0.38" CO_perVeh="9.152707" CO2_perVeh="1131.778480" HC_perVeh="0.069121" PMx_perVeh="0.020574" NOx_perVeh="0.423967" fuel_perVeh="0.486500" electricity_perVeh="0"/>
        <edge id=":103_0" sampledSeconds="433.97" CO_abs="10463.061072" CO2_abs="1307534.357959" HC_abs="79.463721" PMx_abs="23.723958" NOx_abs="488.938863" fuel_abs="562.049045" electricity_abs="0"
            CO_normed="245.263282" CO2_normed="30649.746407" HC_normed="1.862699" PMx_normed="0.556110" NOx_normed="11.461154" fuel_normed="13.174920" electricity_normed="0"
            traveltime="0.37" CO_perVeh="8.989460" CO2_perVeh="1123.383237" HC_perVeh="0.068272" PMx_perVeh="0.020383" NOx_perVeh="0.420077" fuel_perVeh="0.482891" electricity_perVeh="0"/>
        <edge id=":104_0" sampledSeconds="341.23" CO_abs="8609.118441" CO2_abs="1050722.807926" HC_abs="64.681910" PMx_abs="19.174526" NOx_abs="394.394229" fuel_abs="451.657444" electricity_abs="0"
            CO_normed="200.807448" CO2_normed="24508.080279" HC_normed="1.508704" PMx_normed="0.447245" NOx_normed="9.199234" fuel_normed="10.534897" electricity_normed="0"
            traveltime="0.38" CO_perVeh="9.466459" CO2_perVeh="1155.359223" HC_perVeh="0.071123" PMx_perVeh="0.021084" NOx_perVeh="0.433670" fuel_perVeh="0.496636" electricity_perVeh="0"/>
        <edge id=":105_0" sampledSeconds="168.82" CO_abs="3886.381360" CO2_abs="487232.443752" HC_abs="29.555898" PMx_abs="8.829289" NOx_abs="182.191067" fuel_abs="209.438879" electricity_abs="0"
            CO_normed="3333.438062" CO2_normed="417910.395960" HC_normed="25.350769" PMx_normed="7.573083" NOx_normed="156.269440" fuel_normed="179.640510" electricity_normed="0"
            traveltime="0.01" CO_perVeh="0.235018" CO2_perVeh="29.463980" HC_perVeh="0.001787" PMx_perVeh="0.000534" NOx_perVeh="0.011017" fuel_perVeh="0.012665" electricity_perVeh="0"/>
        <edge id=":106_0" sampledSeconds="134.51" CO_abs="3369.353454" CO2_abs="406083.579481" HC_abs="25.230935" PMx_abs="7.443098" NOx_abs="152.810680" fuel_abs="174.556643" electricity_abs="0"
            CO_normed="2050.947457" CO2_normed="247185.727545" HC_normed="15.358235" PMx_normed="4.530662" NOx_normed="93.016859" fuel_normed="106.253769" electricity_normed="0"
            traveltime="0.01" CO_perVeh="0.360249" CO2_perVeh="43.418217" HC_perVeh="0.002698" PMx_perVeh="0.000796" NOx_perVeh="0.016338" fuel_perVeh="0.018663" electricity_perVeh="0"/>
        <edge id=":107_0" sampledSeconds="438.62" CO_abs="10822.042856" CO2_abs="1335674.047171" HC_abs="81.775970" PMx_abs="24.301634" NOx_abs="500.847746" fuel_abs="574.144919" electricity_abs="0"
            CO_normed="249.952134" CO2_normed="30849.497000" HC_normed="1.888745" PMx_normed="0.561285" NOx_normed="11.567868" fuel_normed="13.260782" electricity_normed="0"
            traveltime="0.38" CO_perVeh="9.348840" CO2_perVeh="1153.848924" HC_perVeh="0.070644" PMx_perVeh="0.020993" NOx_perVeh="0.432667" fuel_perVeh="0.495987" electricity_perVeh="0"/>
        <edge id=":108_0" sampledSeconds="92.47" CO_abs="8361.717049" CO2_abs="615742.941255" HC_abs="52.832231" PMx_abs="12.286029" NOx_abs="258.962388" fuel_abs="264.678639" electricity_abs="0"
            CO_normed="131.159423" CO2_normed="9658.361820" HC_normed="0.828711" PMx_normed="0.192715" NOx_normed="4.062007" fuel_normed="4.151671" electricity_normed="0"
            traveltime="0.85" CO_perVeh="76.447812" CO2_perVeh="5629.489774" HC_perVeh="0.483024" PMx_perVeh="0.112326" NOx_perVeh="2.367589" fuel_perVeh="2.419850" electricity_perVeh="0"/>
        <edge id=":108_1" sampledSeconds="402.86" CO_abs="9772.872547" CO2_abs="1230011.009345" HC_abs="74.381745" PMx_abs="22.260277" NOx_abs="459.472162" fuel_abs="528.725343" electricity_abs="0"
            CO_normed="142.955932" CO2_normed="17992.393664" HC_normed="1.088044" PMx_normed="0.325620" NOx_normed="6.721081" fuel_normed="7.734105" electricity_normed="0"
            traveltime="0.60" CO_perVeh="14.517844" CO2_perVeh="1827.211822" HC_perVeh="0.110496" PMx_perVeh="0.033068" NOx_perVeh="0.682557" fuel_perVeh="0.785435" electricity_perVeh="0"/>
        <edge id=":109_0" sampledSeconds="307.52" CO_abs="106.695999" CO2_abs="19558.418015" HC_abs="0.917336" PMx_abs="0.230578" NOx_abs="6.882210" fuel_abs="8.407372" electricity_abs="0"
            CO_normed="1.604257" CO2_normed="294.076049" HC_normed="0.013793" PMx_normed="0.003467" NOx_normed="0.103479" fuel_normed="0.126411" electricity_normed="0"
            traveltime="0.85" CO_perVeh="0.296555" CO2_perVeh="54.361426" HC_perVeh="0.002550" PMx_perVeh="0.000641" NOx_perVeh="0.019129" fuel_perVeh="0.023368" electricity_perVeh="0"/>
        <edge id=":109_1" sampledSeconds="523.99" CO_abs="11973.319206" CO2_abs="1550070.575277" HC_abs="92.103656" PMx_abs="27.825900" NOx_abs="576.322502" fuel_abs="666.304449" electricity_abs="0"
            CO_normed="117.430024" CO2_normed="15202.536711" HC_normed="0.903320" PMx_normed="0.272906" NOx_normed="5.652365" fuel_normed="6.534875" electricity_normed="0"
            traveltime="0.89" CO_perVeh="20.387711" CO2_perVeh="2639.401048" HC_perVeh="0.156831" PMx_perVeh="0.047381" NOx_perVeh="0.981340" fuel_perVeh="1.134558" electricity_perVeh="0"/>
        <edge id=":11_0" sampledSeconds="282.46" CO_abs="17331.433161" CO2_abs="1249084.809043" HC_abs="108.436626" PMx_abs="22.535308" NOx_abs="513.816928" fuel_abs="536.925798" electricity_abs="0"
            CO_normed="179.201345" CO2_normed="12915.127982" HC_normed="1.121199" PMx_normed="0.233008" NOx_normed="5.312699" fuel_normed="5.551637" electricity_normed="0"
            traveltime="1.59" CO_perVeh="97.532876" CO2_perVeh="7029.241767" HC_perVeh="0.610229" PMx_perVeh="0.126818" NOx_perVeh="2.891512" fuel_perVeh="3.021557" electricity_perVeh="0"/>
        <edge id=":11_1" sampledSeconds="50.76" CO_abs="1003.469323" CO2_abs="96145.782975" HC_abs="6.740443" PMx_abs="1.134394" NOx_abs="35.367893" fuel_abs="41.329446" electricity_abs="0"
            CO_normed="10.637847" CO2_normed="1019.248062" HC_normed="0.071456" PMx_normed="0.012026" NOx_normed="0.374937" fuel_normed="0.438136" electricity_normed="0"
            traveltime="1.67" CO_perVeh="33.003980" CO2_perVeh="3162.222722" HC_perVeh="0.221692" PMx_perVeh="0.037310" NOx_perVeh="1.163246" fuel_perVeh="1.359320" electricity_perVeh="0"/>
        <edge id=":110_0" sampledSeconds="94.83" CO_abs="0" CO2_abs="0" HC_abs="0" PMx_abs="0" NOx_abs="0" fuel_abs="0" electricity_abs="0"
            CO_normed="0" CO2_normed="0" HC_normed="0" PMx_normed="0" NOx_normed="0" fuel_normed="0" electricity_normed="0"
            traveltime="0.93" CO_perVeh="0" CO2_perVeh="0" HC_perVeh="0" PMx_perVeh="0" NOx_perVeh="0" fuel_perVeh="0" electricity_perVeh="0"/>
        <edge id=":110_1" sampledSeconds="444.16" CO_abs="9586.273838" CO2_abs="1248759.579491" HC_abs="74.013913" PMx_abs="22.388335" NOx_abs="464.080042" fuel_abs="536.784645" electricity_abs="0"
            CO_normed="123.055818" CO2_normed="16029.912597" HC_normed="0.950092" PMx_normed="0.287392" NOx_normed="5.957242" fuel_normed="6.890526" electricity_normed="0"
            traveltime="0.68" CO_perVeh="14.725922" CO2_perVeh="1918.277754" HC_perVeh="0.113696" PMx_perVeh="0.034392" NOx_perVeh="0.712895" fuel_perVeh="0.824580" electricity_perVeh="0"/>
        <edge id=":111_0" sampledSeconds="340.77" CO_abs="8243.345708" CO2_abs="1062727.172788" HC_abs="63.359070" PMx_abs="19.105148" NOx_abs="395.541631" fuel_abs="456.817782" electricity_abs="0"
            CO_normed="190.393060" CO2_normed="24545.358801" HC_normed="1.463378" PMx_normed="0.441263" NOx_normed="9.135657" fuel_normed="10.550927" electricity_normed="0"
            traveltime="0.38" CO_perVeh="9.161265" CO2_perVeh="1181.064750" HC_perVeh="0.070414" PMx_perVeh="0.021233" NOx_perVeh="0.439586" fuel_perVeh="0.507686" electricity_perVeh="0"/>
        <edge id=":114_0" sampledSeconds="106.21" CO_abs="10984.859954" CO2_abs="774361.655067" HC_abs="68.704280" PMx_abs="15.979060" NOx_abs="329.628923" fuel_abs="332.860836" electricity_abs="0"
            CO_normed="145.974110" CO2_normed="10290.231644" HC_normed="0.912988" PMx_normed="0.212340" NOx_normed="4.380328" fuel_normed="4.423276" electricity_normed="0"
            traveltime="0.98" CO_perVeh="101.622210" CO2_perVeh="7163.709243" HC_perVeh="0.635591" PMx_perVeh="0.147824" NOx_perVeh="3.049435" fuel_perVeh="3.079334" electricity_perVeh="0"/>
        <edge id=":114_1" sampledSeconds="415.77" CO_abs="10284.984180" CO2_abs="1265754.156712" HC_abs="77.551405" PMx_abs="23.043559" NOx_abs="474.551889" fuel_abs="544.089575" electricity_abs="0"
            CO_normed="135.812910" CO2_normed="16714.245999" HC_normed="1.024064" PMx_normed="0.304290" NOx_normed="6.266444" fuel_normed="7.184687" electricity_normed="0"
            traveltime="0.66" CO_perVeh="16.388832" CO2_perVeh="2016.943534" HC_perVeh="0.123576" PMx_perVeh="0.036719" NOx_perVeh="0.756185" fuel_perVeh="0.866991" electricity_perVeh="0"/>
        <edge id=":115_0" sampledSeconds="80.19" CO_abs="149.516366" CO2_abs="20516.528407" HC_abs="1.151978" PMx_abs="0.272193" NOx_abs="7.584527" fuel_abs="8.819196" electricity_abs="0"
            CO_normed="3.378873" CO2_normed="463.646576" HC_normed="0.026033" PMx_normed="0.006151" NOx_normed="0.171400" fuel_normed="0.199302" electricity_normed="0"
            traveltime="0.63" CO_perVeh="1.176573" CO2_perVeh="161.448508" HC_perVeh="0.009065" PMx_perVeh="0.002142" NOx_perVeh="0.059684" fuel_perVeh="0.069400" electricity_perVeh="0"/>
        <edge id=":115_1" sampledSeconds="72.43" CO_abs="763.333545" CO2_abs="145449.903214" HC_abs="6.744881" PMx_abs="2.022064" NOx_abs="52.763508" fuel_abs="62.522571" electricity_abs="0"
            CO_normed="15.405379" CO2_normed="2935.428335" HC_normed="0.136123" PMx_normed="0.040809" NOx_normed="1.064858" fuel_normed="1.261813" electricity_normed="0"
            traveltime="0.59" CO_perVeh="6.249163" CO2_perVeh="1190.750893" HC_perVeh="0.055218" PMx_perVeh="0.016554" NOx_perVeh="0.431958" fuel_perVeh="0.511852" electricity_perVeh="0"/>
        <edge id=":116_0" sampledSeconds="75.11" CO_abs="125.631114" CO2_abs="17648.314154" HC_abs="0.966929" PMx_abs="0.221334" NOx_abs="6.444882" fuel_abs="7.586286" electricity_abs="0"
            CO_normed="3.169314" CO2_normed="445.216534" HC_normed="0.024393" PMx_normed="0.005584" NOx_normed="0.162586" fuel_normed="0.191380" electricity_normed="0"
            traveltime="0.57" CO_perVeh="0.948609" CO2_perVeh="133.258017" HC_perVeh="0.007301" PMx_perVeh="0.001671" NOx_perVeh="0.048664" fuel_perVeh="0.057282" electricity_perVeh="0"/>
        <edge id=":117_0" sampledSeconds="241.99" CO_abs="13703.818223" CO2_abs="1152357.606863" HC_abs="89.782128" PMx_abs="21.008473" NOx_abs="469.331220" fuel_abs="495.345429" electricity_abs="0"
            CO_normed="309.688280" CO2_normed="26041.767297" HC_normed="2.028958" PMx_normed="0.474764" NOx_normed="10.606269" fuel_normed="11.194156" electricity_normed="0"
            traveltime="0.60" CO_perVeh="34.165687" CO2_perVeh="2873.001457" HC_perVeh="0.223840" PMx_perVeh="0.052377" NOx_perVeh="1.170114" fuel_perVeh="1.234971" electricity_perVeh="0"/>
        <edge id=":117_1" sampledSeconds="75.88" CO_abs="4876.685201" CO2_abs="395925.315644" HC_abs="31.622362" PMx_abs="7.355827" NOx_abs="162.395631" fuel_abs="170.189952" electricity_abs="0"
            CO_normed="103.862951" CO2_normed="8432.361293" HC_normed="0.673489" PMx_normed="0.156663" NOx_normed="3.458679" fuel_normed="3.624682" electricity_normed="0"
            traveltime="0.64" CO_perVeh="41.229645" CO2_perVeh="3347.327019" HC_perVeh="0.267349" PMx_perVeh="0.062189" NOx_perVeh="1.372964" fuel_perVeh="1.438861" electricity_perVeh="0"/>
        <edge id=":118_0" sampledSeconds="898.93" CO_abs="13053.919198" CO2_abs="2031472.477192" HC_abs="104.945698" PMx_abs="30.003121" NOx_abs="752.390470" fuel_abs="873.240304" electricity_abs="0"
            CO_normed="39.608648" CO2_normed="6163.963272" HC_normed="0.318430" PMx_normed="0.091036" NOx_normed="2.282929" fuel_normed="2.649616" electricity_normed="0"
            traveltime="3.92" CO_perVeh="56.940870" CO2_perVeh="8861.232250" HC_perVeh="0.457771" PMx_perVeh="0.130873" NOx_perVeh="3.281908" fuel_perVeh="3.809052" electricity_perVeh="0"/>
        <edge id=":118_4" sampledSeconds="283.55" CO_abs="3817.925268" CO2_abs="623433.665003" HC_abs="31.339742" PMx_abs="8.978575" NOx_abs="228.848217" fuel_abs="267.986853" electricity_abs="0"
            CO_normed="11.606876" CO2_normed="1895.300866" HC_normed="0.095276" PMx_normed="0.027296" NOx_normed="0.695722" fuel_normed="0.814707" electricity_normed="0"
            traveltime="3.93" CO_perVeh="52.933169" CO2_perVeh="8643.521599" HC_perVeh="0.434506" PMx_perVeh="0.124482" NOx_perVeh="3.172839" fuel_perVeh="3.715472" electricity_perVeh="0"/>
        <edge id=":118_5" sampledSeconds="238.45" CO_abs="3414.138177" CO2_abs="557921.633026" HC_abs="27.818099" PMx_abs="8.167864" NOx_abs="205.532688" fuel_abs="239.825859" electricity_abs="0"
            CO_normed="10.482339" CO2_normed="1712.972148" HC_normed="0.085409" PMx_normed="0.025078" NOx_normed="0.631042" fuel_normed="0.736331" electricity_normed="0"
            traveltime="3.82" CO_perVeh="54.641431" CO2_perVeh="8929.233412" HC_perVeh="0.445214" PMx_perVeh="0.130722" NOx_perVeh="3.289439" fuel_perVeh="3.838283" electricity_perVeh="0"/>
        <edge id=":119_0" sampledSeconds="138.90" CO_abs="2388.596927" CO2_abs="341414.548037" HC_abs="18.585582" PMx_abs="5.226572" NOx_abs="128.047195" fuel_abs="146.758887" electricity_abs="0"
            CO_normed="51.218854" CO2_normed="7320.976404" HC_normed="0.398532" PMx_normed="0.112074" NOx_normed="2.745725" fuel_normed="3.146961" electricity_normed="0"
            traveltime="0.56" CO_perVeh="9.575715" CO2_perVeh="1368.706675" HC_perVeh="0.074508" PMx_perVeh="0.020953" NOx_perVeh="0.513332" fuel_perVeh="0.588346" electricity_perVeh="0"/>
        <edge id=":12_0" sampledSeconds="590.08" CO_abs="55592.414860" CO2_abs="3145394.598303" HC_abs="327.870346" PMx_abs="61.851997" NOx_abs="1341.757746" fuel_abs="1352.065595" electricity_abs="0"
            CO_normed="520.865665" CO2_normed="29470.352240" HC_normed="3.071937" PMx_normed="0.579514" NOx_normed="12.571419" fuel_normed="12.667997" electricity_normed="0"
            traveltime="2.12" CO_perVeh="199.701245" CO2_perVeh="11299.009393" HC_perVeh="1.177789" PMx_perVeh="0.222187" NOx_perVeh="4.819915" fuel_perVeh="4.856943" electricity_perVeh="0"/>
        <edge id=":12_1" sampledSeconds="56.44" CO_abs="1014.078597" CO2_abs="87806.841913" HC_abs="6.613242" PMx_abs="1.126107" NOx_abs="32.988323" fuel_abs="37.744784" electricity_abs="0"
            CO_normed="9.491847" CO2_normed="821.878247" HC_normed="0.061900" PMx_normed="0.010540" NOx_normed="0.308773" fuel_normed="0.353294" electricity_normed="0"
            traveltime="1.90" CO_perVeh="34.196147" CO2_perVeh="2960.969378" HC_perVeh="0.223008" PMx_perVeh="0.037974" NOx_perVeh="1.112412" fuel_perVeh="1.272807" electricity_perVeh="0"/>
        <edge id=":120_0" sampledSeconds="39.11" CO_abs="472.173621" CO2_abs="75210.847134" HC_abs="3.820575" PMx_abs="1.096462" NOx_abs="27.721357" fuel_abs="32.329836" electricity_abs="0"
            CO_normed="371.244591" CO2_normed="59134.223032" HC_normed="3.003912" PMx_normed="0.862089" NOx_normed="21.795804" fuel_normed="25.419202" electricity_normed="0"
            traveltime="0.02" CO_perVeh="0.181678" CO2_perVeh="28.938843" HC_perVeh="0.001470" PMx_perVeh="0.000422" NOx_perVeh="0.010666" fuel_perVeh="0.012440" electricity_perVeh="0"/>
        <edge id=":121_0" sampledSeconds="373.17" CO_abs="53064.676979" CO2_abs="1425394.038814" HC_abs="275.095895" PMx_abs="30.744865" NOx_abs="630.269981" fuel_abs="612.732874" electricity_abs="0"
            CO_normed="30343.190336" CO2_normed="815062.016495" HC_normed="157.304022" PMx_normed="17.580382" NOx_normed="360.397973" fuel_normed="350.369988" electricity_normed="0"
            traveltime="0.11" CO_perVeh="16.225168" CO2_perVeh="435.831503" HC_perVeh="0.084114" PMx_perVeh="0.009401" NOx_perVeh="0.192713" fuel_perVeh="0.187351" electricity_perVeh="0"/>
        <edge id=":122_0" sampledSeconds="134.73" CO_abs="901.276207" CO2_abs="90991.215958" HC_abs="6.267914" PMx_abs="1.626446" NOx_abs="36.130245" fuel_abs="39.112899" electricity_abs="0"
            CO_normed="19.844801" CO2_normed="2003.495186" HC_normed="0.138010" PMx_normed="0.035812" NOx_normed="0.795536" fuel_normed="0.861210" electricity_normed="0"
            traveltime="0.54" CO_perVeh="3.592067" CO2_perVeh="362.648566" HC_perVeh="0.024981" PMx_perVeh="0.006482" NOx_perVeh="0.143998" fuel_perVeh="0.155886" electricity_perVeh="0"/>
        <edge id=":123_0" sampledSeconds="312.49" CO_abs="41337.331438" CO2_abs="2512523.958377" HC_abs="248.617292" PMx_abs="51.921437" NOx_abs="1080.451381" fuel_abs="1080.016906" electricity_abs="0"
            CO_normed="157.645799" CO2_normed="9581.867853" HC_normed="0.948137" PMx_normed="0.198010" NOx_normed="4.120455" fuel_normed="4.118798" electricity_normed="0"
            traveltime="4.26" CO_perVeh="562.934312" CO2_perVeh="34215.705208" HC_perVeh="3.385686" PMx_perVeh="0.707069" NOx_perVeh="14.713653" fuel_perVeh="14.707736" electricity_perVeh="0"/>
        <edge id=":123_1" sampledSeconds="0.00" CO_abs="0" CO2_abs="0" HC_abs="0" PMx_abs="0" NOx_abs="0" fuel_abs="0" electricity_abs="0"
            CO_normed="0" CO2_normed="0" HC_normed="0" PMx_normed="0" NOx_normed="0" fuel_normed="0" electricity_normed="0"/>
        <edge id=":123_2" sampledSeconds="270.53" CO_abs="35753.855755" CO2_abs="2171179.754247" HC_abs="214.952607" PMx_abs="44.764983" NOx_abs="933.326625" fuel_abs="933.289096" electricity_abs="0"
            CO_normed="137.660023" CO2_normed="8359.508322" HC_normed="0.827614" PMx_normed="0.172355" NOx_normed="3.593508" fuel_normed="3.593363" electricity_normed="0"
            traveltime="4.25" CO_perVeh="561.979318" CO2_perVeh="34126.616301" HC_perVeh="3.378626" PMx_perVeh="0.703616" NOx_perVeh="14.670033" fuel_perVeh="14.669444" electricity_perVeh="0"/>
        <edge id=":123_3" sampledSeconds="468.86" CO_abs="23086.752804" CO2_abs="2184824.917020" HC_abs="156.832368" PMx_abs="40.661653" NOx_abs="875.572042" fuel_abs="939.153701" electricity_abs="0"
            CO_normed="90.948805" CO2_normed="8606.979786" HC_normed="0.617831" PMx_normed="0.160184" NOx_normed="3.449261" fuel_normed="3.699737" electricity_normed="0"
            traveltime="2.81" CO_perVeh="138.183568" CO2_perVeh="13077.062219" HC_perVeh="0.938705" PMx_perVeh="0.243376" NOx_perVeh="5.240653" fuel_perVeh="5.621215" electricity_perVeh="0"/>
        <edge id=":123_5" sampledSeconds="0.00" CO_abs="0" CO2_abs="0" HC_abs="0" PMx_abs="0" NOx_abs="0" fuel_abs="0" electricity_abs="0"
            CO_normed="0" CO2_normed="0" HC_normed="0" PMx_normed="0" NOx_normed="0" fuel_normed="0" electricity_normed="0"/>
        <edge id=":123_6" sampledSeconds="194.76" CO_abs="9128.378227" CO2_abs="887302.308473" HC_abs="62.514057" PMx_abs="16.340538" NOx_abs="354.010398" fuel_abs="381.409717" electricity_abs="0"
            CO_normed="34.735150" CO2_normed="3376.347662" HC_normed="0.237877" PMx_normed="0.062179" NOx_normed="1.347074" fuel_normed="1.451334" electricity_normed="0"
            traveltime="2.91" CO_perVeh="136.564640" CO2_perVeh="13274.441277" HC_perVeh="0.935238" PMx_perVeh="0.244462" NOx_perVeh="5.296155" fuel_perVeh="5.706061" electricity_perVeh="0"/>
        <edge id=":124_0" sampledSeconds="118.94" CO_abs="4546.553153" CO2_abs="395651.166487" HC_abs="29.980507" PMx_abs="7.644015" NOx_abs="160.843622" fuel_abs="170.071681" electricity_abs="0"
            CO_normed="106.442946" CO2_normed="9262.901908" HC_normed="0.701897" PMx_normed="0.178960" NOx_normed="3.765637" fuel_normed="3.981682" electricity_normed="0"
            traveltime="0.46" CO_perVeh="17.658474" CO2_perVeh="1536.679678" HC_perVeh="0.116442" PMx_perVeh="0.029689" NOx_perVeh="0.624705" fuel_perVeh="0.660546" electricity_perVeh="0"/>
        <edge id=":125_0" sampledSeconds="141.16" CO_abs="5618.227591" CO2_abs="582118.310040" HC_abs="39.221806" PMx_abs="10.729021" NOx_abs="228.494077" fuel_abs="250.225439" electricity_abs="0"
            CO_normed="353.384690" CO2_normed="36615.052524" HC_normed="2.467039" PMx_normed="0.674852" NOx_normed="14.372203" fuel_normed="15.739099" electricity_normed="0"
            traveltime="0.16" CO_perVeh="6.434313" CO2_perVeh="666.674911" HC_perVeh="0.044919" PMx_perVeh="0.012287" NOx_perVeh="0.261684" fuel_perVeh="0.286572" electricity_perVeh="0"/>
        <edge id=":125_3" sampledSeconds="0.00" CO_abs="0" CO2_abs="0" HC_abs="0" PMx_abs="0" NOx_abs="0" fuel_abs="0" electricity_abs="0"
            CO_normed="0" CO2_normed="0" HC_normed="0" PMx_normed="0" NOx_normed="0" fuel_normed="0" electricity_normed="0"/>
        <edge id=":126_0" sampledSeconds="28.19" CO_abs="315.128679" CO2_abs="23758.652789" HC_abs="1.981686" PMx_abs="0.350070" NOx_abs="9.267753" fuel_abs="10.212892" electricity_abs="0"
            CO_normed="10.377744" CO2_normed="782.414418" HC_normed="0.065260" PMx_normed="0.011528" NOx_normed="0.305203" fuel_normed="0.336329" electricity_normed="0"
            traveltime="0.56" CO_perVeh="6.232449" CO2_perVeh="469.886139" HC_perVeh="0.039193" PMx_perVeh="0.006923" NOx_perVeh="0.183293" fuel_perVeh="0.201985" electricity_perVeh="0"/>
        <edge id=":126_1" sampledSeconds="80.81" CO_abs="1337.933631" CO2_abs="191044.152089" HC_abs="10.487565" PMx_abs="3.144634" NOx_abs="71.356566" fuel_abs="82.121206" electricity_abs="0"
            CO_normed="39.202915" CO2_normed="5597.802056" HC_normed="0.307297" PMx_normed="0.092141" NOx_normed="2.090825" fuel_normed="2.406241" electricity_normed="0"
            traveltime="0.35" CO_perVeh="5.789469" CO2_perVeh="826.680871" HC_perVeh="0.045381" PMx_perVeh="0.013607" NOx_perVeh="0.308772" fuel_perVeh="0.355353" electricity_perVeh="0"/>
        <edge id=":127_0" sampledSeconds="234.94" CO_abs="5038.540009" CO2_abs="642726.968673" HC_abs="37.856909" PMx_abs="10.999515" NOx_abs="243.773191" fuel_abs="276.278869" electricity_abs="0"
            CO_normed="116.515636" CO2_normed="14862.984358" HC_normed="0.875436" PMx_normed="0.254362" NOx_normed="5.637226" fuel_normed="6.388916" electricity_normed="0"
            traveltime="0.44" CO_perVeh="9.422192" CO2_perVeh="1201.914956" HC_perVeh="0.070793" PMx_perVeh="0.020569" NOx_perVeh="0.455862" fuel_perVeh="0.516648" electricity_perVeh="0"/>
        <edge id=":128_0" sampledSeconds="229.99" CO_abs="301.765097" CO2_abs="40134.195041" HC_abs="2.286072" PMx_abs="0.625192" NOx_abs="15.181371" fuel_abs="17.251897" electricity_abs="0"
            CO_normed="4.663618" CO2_normed="620.252537" HC_normed="0.035330" PMx_normed="0.009662" NOx_normed="0.234620" fuel_normed="0.266619" electricity_normed="0"
            traveltime="0.76" CO_perVeh="0.992012" CO2_perVeh="131.935708" HC_perVeh="0.007515" PMx_perVeh="0.002055" NOx_perVeh="0.049907" fuel_perVeh="0.056713" electricity_perVeh="0"/>
        <edge id=":128_1" sampledSeconds="142.02" CO_abs="145.396651" CO2_abs="20942.204587" HC_abs="1.141646" PMx_abs="0.263556" NOx_abs="7.659413" fuel_abs="9.002192" electricity_abs="0"
            CO_normed="2.321168" CO2_normed="334.329407" HC_normed="0.018226" PMx_normed="0.004208" NOx_normed="0.122278" fuel_normed="0.143714" electricity_normed="0"
            traveltime="0.85" CO_perVeh="0.871570" CO2_perVeh="125.536612" HC_perVeh="0.006844" PMx_perVeh="0.001580" NOx_perVeh="0.045914" fuel_perVeh="0.053963" electricity_perVeh="0"/>
        <edge id=":129_0" sampledSeconds="104.62" CO_abs="6061.145012" CO2_abs="534199.517019" HC_abs="40.137892" PMx_abs="10.145779" NOx_abs="217.015421" fuel_abs="229.627159" electricity_abs="0"
            CO_normed="141.201501" CO2_normed="12444.805932" HC_normed="0.935059" PMx_normed="0.236358" NOx_normed="5.055629" fuel_normed="5.349435" electricity_normed="0"
            traveltime="0.50" CO_perVeh="28.726646" CO2_perVeh="2531.825334" HC_perVeh="0.190233" PMx_perVeh="0.048086" NOx_perVeh="1.028539" fuel_perVeh="1.088312" electricity_perVeh="0"/>
        <edge id=":13_0" sampledSeconds="60.73" CO_abs="5202.161863" CO2_abs="363111.698000" HC_abs="32.387838" PMx_abs="7.179821" NOx_abs="153.300816" fuel_abs="156.084702" electricity_abs="0"
            CO_normed="36.779426" CO2_normed="2567.209569" HC_normed="0.228983" PMx_normed="0.050762" NOx_normed="1.083841" fuel_normed="1.103523" electricity_normed="0"
            traveltime="2.15" CO_perVeh="184.008826" CO2_perVeh="12843.844386" HC_perVeh="1.145610" PMx_perVeh="0.253962" NOx_perVeh="5.422496" fuel_perVeh="5.520967" electricity_perVeh="0"/>
        <edge id=":13_1" sampledSeconds="531.28" CO_abs="13725.198917" CO2_abs="1043986.826623" HC_abs="86.502987" PMx_abs="15.262880" NOx_abs="406.262304" fuel_abs="448.768149" electricity_abs="0"
            CO_normed="136.744016" CO2_normed="10401.230008" HC_normed="0.861828" PMx_normed="0.152064" NOx_normed="4.047587" fuel_normed="4.471072" electricity_normed="0"
            traveltime="1.85" CO_perVeh="47.917933" CO2_perVeh="3644.806276" HC_perVeh="0.302002" PMx_perVeh="0.053286" NOx_perVeh="1.418358" fuel_perVeh="1.566756" electricity_perVeh="0"/>
        <edge id=":132_0" sampledSeconds="41.16" CO_abs="391.864398" CO2_abs="76089.179978" HC_abs="3.424482" PMx_abs="1.032311" NOx_abs="27.420372" fuel_abs="32.707443" electricity_abs="0"
            CO_normed="739.444298" CO2_normed="143579.540792" HC_normed="6.461964" PMx_normed="1.947960" NOx_normed="51.741974" fuel_normed="61.718625" electricity_normed="0"
            traveltime="6.381073e-03" CO_perVeh="0.060750" CO2_perVeh="11.796036" HC_perVeh="0.000531" PMx_perVeh="0.000160" NOx_perVeh="0.004251" fuel_perVeh="0.005071" electricity_perVeh="0"/>
        <edge id=":133_0" sampledSeconds="44.93" CO_abs="555.763121" CO2_abs="78927.424986" HC_abs="4.318486" PMx_abs="1.012779" NOx_abs="28.926612" fuel_abs="33.927630" electricity_abs="0"