<?xml version="1.0" encoding="UTF-8"?>

<!-- generated on Tue Nov 10 01:37:52 2020 by Eclipse SUMO sumo Version 1.7.0
<configuration xmlns:xsi="http://www.w3.org/2001/XMLSchema-instance" xsi:noNamespaceSchemaLocation="http://sumo.dlr.de/xsd/sumoConfiguration.xsd">

    <input>
        <net-file value="../dataSets/Porto/6AM7AM_Routing_SaoBento/Porto.net.xml"/>
        <route-files value="../results/Porto/6AM7AM_Routing_SaoBento/cost_PMx-cost_co2/solution7/Porto.rou.xml"/>
        <additional-files value="moreOutputInfo.xml"/>
    </input>

    <output>
        <emission-output.precision value="6"/>
        <tripinfo-output value="../results/Porto/6AM7AM_Routing_SaoBento/cost_PMx-cost_co2/solution7/Porto-tripinfo"/>
    </output>

    <processing>
        <collision.action value="warn"/>
        <time-to-teleport value="-1"/>
    </processing>

    <emissions>
        <device.emissions.probability value="1"/>
    </emissions>

    <gui_only>
        <quit-on-end value="true"/>
        <start value="true"/>
    </gui_only>

</configuration>
-->

<meandata xmlns:xsi="http://www.w3.org/2001/XMLSchema-instance" xsi:noNamespaceSchemaLocation="http://sumo.dlr.de/xsd/meandata_file.xsd">
    <interval begin="0.00" end="4789.00" id="emissions-detector">
        <edge id=":1092997347_0" sampledSeconds="299.49" CO_abs="38502.344636" CO2_abs="1535523.033259" HC_abs="211.613934" PMx_abs="31.345931" NOx_abs="666.617161" fuel_abs="660.060761" electricity_abs="0"
            CO_normed="65779.741779" CO2_normed="2623380.720843" HC_normed="361.534084" PMx_normed="53.553290" NOx_normed="1138.889206" fuel_normed="1127.687855" electricity_normed="0"
            traveltime="0.07" CO_perVeh="9.553486" CO2_perVeh="381.005301" HC_perVeh="0.052507" PMx_perVeh="0.007778" NOx_perVeh="0.165406" fuel_perVeh="0.163779" electricity_perVeh="0"/>
        <edge id=":1103427051_0" sampledSeconds="11.09" CO_abs="933.211526" CO2_abs="52865.421840" HC_abs="5.504583" PMx_abs="1.036238" NOx_abs="22.543006" fuel_abs="22.724502" electricity_abs="0"
            CO_normed="2419.021676" CO2_normed="137034.956995" HC_normed="14.268689" PMx_normed="2.686082" NOx_normed="58.434790" fuel_normed="58.905256" electricity_normed="0"
            traveltime="0.03" CO_perVeh="2.556985" CO2_perVeh="144.850457" HC_perVeh="0.015082" PMx_perVeh="0.002839" NOx_perVeh="0.061767" fuel_perVeh="0.062265" electricity_perVeh="0"/>
        <edge id=":1105984386_0" sampledSeconds="23.05" CO_abs="478.897557" CO2_abs="38391.633493" HC_abs="3.050363" PMx_abs="0.487249" NOx_abs="14.441412" fuel_abs="16.503120" electricity_abs="0"
            CO_normed="37.074991" CO2_normed="2972.179434" HC_normed="0.236151" PMx_normed="0.037722" NOx_normed="1.118016" fuel_normed="1.277628" electricity_normed="0"
            traveltime="0.97" CO_perVeh="20.098960" CO2_perVeh="1611.267121" HC_perVeh="0.128021" PMx_perVeh="0.020449" NOx_perVeh="0.606095" fuel_perVeh="0.692623" electricity_perVeh="0"/>
        <edge id=":1105984390_0" sampledSeconds="23.54" CO_abs="28.938773" CO2_abs="2344.902289" HC_abs="0.184560" PMx_abs="0.027999" NOx_abs="0.870868" fuel_abs="1.007988" electricity_abs="0"
            CO_normed="1.732001" CO2_normed="140.343652" HC_normed="0.011046" PMx_normed="0.001676" NOx_normed="0.052122" fuel_normed="0.060329" electricity_normed="0"
            traveltime="1.07" CO_perVeh="1.312359" CO2_perVeh="106.340167" HC_perVeh="0.008370" PMx_perVeh="0.001270" NOx_perVeh="0.039493" fuel_perVeh="0.045712" electricity_perVeh="0"/>
        <edge id=":1105984390_1" sampledSeconds="645.94" CO_abs="15591.457182" CO2_abs="1956365.837346" HC_abs="118.015773" PMx_abs="34.980748" NOx_abs="736.226989" fuel_abs="840.951766" electricity_abs="0"
            CO_normed="892.646783" CO2_normed="112006.443658" HC_normed="6.756674" PMx_normed="2.002728" NOx_normed="42.150688" fuel_normed="48.146423" electricity_normed="0"
            traveltime="0.64" CO_perVeh="15.341201" CO2_perVeh="1924.964471" HC_perVeh="0.116122" PMx_perVeh="0.034419" NOx_perVeh="0.724410" fuel_perVeh="0.827454" electricity_perVeh="0"/>
        <edge id=":1105984395_0" sampledSeconds="8.98" CO_abs="146.751132" CO2_abs="12131.905438" HC_abs="0.943771" PMx_abs="0.156672" NOx_abs="4.577753" fuel_abs="5.215042" electricity_abs="0"
            CO_normed="119.908866" CO2_normed="9912.857268" HC_normed="0.771146" PMx_normed="0.128015" NOx_normed="3.740435" fuel_normed="4.261158" electricity_normed="0"
            traveltime="0.09" CO_perVeh="1.488217" CO2_perVeh="123.030787" HC_perVeh="0.009571" PMx_perVeh="0.001589" NOx_perVeh="0.046423" fuel_perVeh="0.052886" electricity_perVeh="0"/>
        <edge id=":1105984398_0" sampledSeconds="23.20" CO_abs="1683.966935" CO2_abs="115156.634325" HC_abs="10.386107" PMx_abs="2.086111" NOx_abs="47.582755" fuel_abs="49.500741" electricity_abs="0"
            CO_normed="104.704398" CO2_normed="7160.120416" HC_normed="0.645779" PMx_normed="0.129709" NOx_normed="2.958564" fuel_normed="3.077819" electricity_normed="0"
            traveltime="1.10" CO_perVeh="79.581352" CO2_perVeh="5442.102466" HC_perVeh="0.490829" PMx_perVeh="0.098586" NOx_perVeh="2.248678" fuel_perVeh="2.339319" electricity_perVeh="0"/>
        <edge id=":1105984398_1" sampledSeconds="450.97" CO_abs="8308.051300" CO2_abs="952752.866622" HC_abs="59.690526" PMx_abs="13.823519" NOx_abs="361.705252" fuel_abs="409.547693" electricity_abs="0"
            CO_normed="500.028081" CO2_normed="57342.350303" HC_normed="3.592532" PMx_normed="0.831982" NOx_normed="21.769579" fuel_normed="24.649023" electricity_normed="0"
            traveltime="0.95" CO_perVeh="17.529851" CO2_perVeh="2010.292866" HC_perVeh="0.125946" PMx_perVeh="0.029167" NOx_perVeh="0.763192" fuel_perVeh="0.864139" electricity_perVeh="0"/>
        <edge id=":1106006327_0" sampledSeconds="159.81" CO_abs="21795.272876" CO2_abs="713189.315218" HC_abs="116.047103" PMx_abs="14.935299" NOx_abs="312.543880" fuel_abs="306.574666" electricity_abs="0"
            CO_normed="1849.210082" CO2_normed="60510.225295" HC_normed="9.845964" PMx_normed="1.267179" NOx_normed="26.517644" fuel_normed="26.011189" electricity_normed="0"
            traveltime="2.08" CO_perVeh="283.771065" CO2_perVeh="9285.614010" HC_perVeh="1.510915" PMx_perVeh="0.194455" NOx_perVeh="4.069273" fuel_perVeh="3.991554" electricity_perVeh="0"/>
        <edge id=":1106006327_1" sampledSeconds="162.72" CO_abs="22067.612028" CO2_abs="734028.432708" HC_abs="117.782056" PMx_abs="15.329064" NOx_abs="321.336321" fuel_abs="315.532420" electricity_abs="0"
            CO_normed="1632.748509" CO2_normed="54309.629304" HC_normed="8.714512" PMx_normed="1.134174" NOx_normed="23.775178" fuel_normed="23.345756" electricity_normed="0"
            traveltime="2.31" CO_perVeh="313.278194" CO2_perVeh="10420.479651" HC_perVeh="1.672068" PMx_perVeh="0.217616" NOx_perVeh="4.561783" fuel_perVeh="4.479389" electricity_perVeh="0"/>
        <edge id=":1106006327_2" sampledSeconds="0.00" CO_abs="0" CO2_abs="0" HC_abs="0" PMx_abs="0" NOx_abs="0" fuel_abs="0" electricity_abs="0"
            CO_normed="0" CO2_normed="0" HC_normed="0" PMx_normed="0" NOx_normed="0" fuel_normed="0" electricity_normed="0"/>
        <edge id=":1106006327_3" sampledSeconds="0.00" CO_abs="0" CO2_abs="0" HC_abs="0" PMx_abs="0" NOx_abs="0" fuel_abs="0" electricity_abs="0"
            CO_normed="0" CO2_normed="0" HC_normed="0" PMx_normed="0" NOx_normed="0" fuel_normed="0" electricity_normed="0"/>
        <edge id=":1107381198_0" sampledSeconds="0.00" CO_abs="0" CO2_abs="0" HC_abs="0" PMx_abs="0" NOx_abs="0" fuel_abs="0" electricity_abs="0"
            CO_normed="0" CO2_normed="0" HC_normed="0" PMx_normed="0" NOx_normed="0" fuel_normed="0" electricity_normed="0"/>
        <edge id=":1107381198_1" sampledSeconds="36.75" CO_abs="1511.213565" CO2_abs="60678.969795" HC_abs="8.279853" PMx_abs="1.054415" NOx_abs="25.179861" fuel_abs="26.083765" electricity_abs="0"
            CO_normed="123.883701" CO2_normed="4974.237609" HC_normed="0.678752" PMx_normed="0.086437" NOx_normed="2.064152" fuel_normed="2.138251" electricity_normed="0"
            traveltime="1.51" CO_perVeh="62.220853" CO2_perVeh="2498.321449" HC_perVeh="0.340904" PMx_perVeh="0.043413" NOx_perVeh="1.036725" fuel_perVeh="1.073941" electricity_perVeh="0"/>
        <edge id=":1110338277_0" sampledSeconds="96.62" CO_abs="1582.282529" CO2_abs="194015.471650" HC_abs="11.636858" PMx_abs="2.611749" NOx_abs="72.303488" fuel_abs="83.399174" electricity_abs="0"
            CO_normed="4247.991754" CO2_normed="520877.977762" HC_normed="31.241751" PMx_normed="7.011825" NOx_normed="194.114905" fuel_normed="223.903757" electricity_normed="0"
            traveltime="0.02" CO_perVeh="0.356597" CO2_perVeh="43.724964" HC_perVeh="0.002623" PMx_perVeh="0.000589" NOx_perVeh="0.016295" fuel_perVeh="0.018796" electricity_perVeh="0"/>
        <edge id=":1110338293_0" sampledSeconds="124.21" CO_abs="6059.385872" CO2_abs="422136.647628" HC_abs="37.497704" PMx_abs="7.318063" NOx_abs="172.156255" fuel_abs="181.458283" electricity_abs="0"
            CO_normed="15183.259651" CO2_normed="1057765.665388" HC_normed="93.959585" PMx_normed="18.337180" NOx_normed="431.379215" fuel_normed="454.687700" electricity_normed="0"
            traveltime="0.03" CO_perVeh="1.389821" CO2_perVeh="96.824033" HC_perVeh="0.008601" PMx_perVeh="0.001679" NOx_perVeh="0.039487" fuel_perVeh="0.041620" electricity_perVeh="0"/>
        <edge id=":1110338295_0" sampledSeconds="0.00" CO_abs="0" CO2_abs="0" HC_abs="0" PMx_abs="0" NOx_abs="0" fuel_abs="0" electricity_abs="0"
            CO_normed="0" CO2_normed="0" HC_normed="0" PMx_normed="0" NOx_normed="0" fuel_normed="0" electricity_normed="0"/>
        <edge id=":1110673403_0" sampledSeconds="144.13" CO_abs="2048.035862" CO2_abs="258266.213258" HC_abs="15.265734" PMx_abs="3.529521" NOx_abs="96.393632" fuel_abs="111.017788" electricity_abs="0"
            CO_normed="5131.850145" CO2_normed="647148.581978" HC_normed="38.251997" PMx_normed="8.844071" NOx_normed="241.537603" fuel_normed="278.181969" electricity_normed="0"
            traveltime="0.02" CO_perVeh="0.328829" CO2_perVeh="41.466756" HC_perVeh="0.002451" PMx_perVeh="0.000567" NOx_perVeh="0.015477" fuel_perVeh="0.017825" electricity_perVeh="0"/>
        <edge id=":1110673412_0" sampledSeconds="252.76" CO_abs="44617.903779" CO2_abs="3045609.370277" HC_abs="277.695471" PMx_abs="66.910669" NOx_abs="1308.740619" fuel_abs="1309.157474" electricity_abs="0"
            CO_normed="115656.175867" CO2_normed="7894667.904894" HC_normed="719.827548" PMx_normed="173.442306" NOx_normed="3392.448375" fuel_normed="3393.528925" electricity_normed="0"
            traveltime="0.02" CO_perVeh="2.748618" CO2_perVeh="187.620096" HC_perVeh="0.017107" PMx_perVeh="0.004122" NOx_perVeh="0.080623" fuel_perVeh="0.080649" electricity_perVeh="0"/>
        <edge id=":1110673414_0" sampledSeconds="0.00" CO_abs="0" CO2_abs="0" HC_abs="0" PMx_abs="0" NOx_abs="0" fuel_abs="0" electricity_abs="0"
            CO_normed="0" CO2_normed="0" HC_normed="0" PMx_normed="0" NOx_normed="0" fuel_normed="0" electricity_normed="0"/>
        <edge id=":1110673414_1" sampledSeconds="231.83" CO_abs="16414.507248" CO2_abs="622317.287881" HC_abs="89.214269" PMx_abs="11.633173" NOx_abs="263.702776" fuel_abs="267.511928" electricity_abs="0"
            CO_normed="1366.462644" CO2_normed="51806.204935" HC_normed="7.426843" PMx_normed="0.968430" NOx_normed="21.952532" fuel_normed="22.269633" electricity_normed="0"
            traveltime="1.60" CO_perVeh="113.225117" CO2_perVeh="4292.662982" HC_perVeh="0.615388" PMx_perVeh="0.080244" NOx_perVeh="1.818987" fuel_perVeh="1.845262" electricity_perVeh="0"/>
        <edge id=":1110673417_0" sampledSeconds="29.95" CO_abs="555.430434" CO2_abs="62304.007509" HC_abs="3.944414" PMx_abs="0.890723" NOx_abs="23.590584" fuel_abs="26.781853" electricity_abs="0"
            CO_normed="1491.177373" CO2_normed="167269.059328" HC_normed="10.589662" PMx_normed="2.391346" NOx_normed="63.334206" fuel_normed="71.901882" electricity_normed="0"
            traveltime="0.02" CO_perVeh="0.412248" CO2_perVeh="46.242868" HC_perVeh="0.002928" PMx_perVeh="0.000661" NOx_perVeh="0.017509" fuel_perVeh="0.019878" electricity_perVeh="0"/>
        <edge id=":1110673446_0" sampledSeconds="334.17" CO_abs="3605.122951" CO2_abs="285170.711906" HC_abs="23.170926" PMx_abs="5.280529" NOx_abs="117.132605" fuel_abs="122.581753" electricity_abs="0"
            CO_normed="9033.509170" CO2_normed="714564.323006" HC_normed="58.060371" PMx_normed="13.231645" NOx_normed="293.504127" fuel_normed="307.158286" electricity_normed="0"
            traveltime="0.02" CO_perVeh="0.245885" CO2_perVeh="19.449880" HC_perVeh="0.001580" PMx_perVeh="0.000360" NOx_perVeh="0.007989" fuel_perVeh="0.008361" electricity_perVeh="0"/>
        <edge id=":1110673451_0" sampledSeconds="37.35" CO_abs="515.235985" CO2_abs="37275.012232" HC_abs="3.196512" PMx_abs="0.516288" NOx_abs="14.355002" fuel_abs="16.023097" electricity_abs="0"
            CO_normed="1434.498462" CO2_normed="103779.528732" HC_normed="8.899595" PMx_normed="1.437426" NOx_normed="39.966595" fuel_normed="44.610837" electricity_normed="0"
            traveltime="0.03" CO_perVeh="0.369492" CO2_perVeh="26.731084" HC_perVeh="0.002292" PMx_perVeh="0.000370" NOx_perVeh="0.010294" fuel_perVeh="0.011491" electricity_perVeh="0"/>
        <edge id=":1110673464_0" sampledSeconds="321.66" CO_abs="564.245129" CO2_abs="44908.974278" HC_abs="3.593810" PMx_abs="0.604710" NOx_abs="17.078017" fuel_abs="19.304634" electricity_abs="0"
            CO_normed="30.039368" CO2_normed="2390.870772" HC_normed="0.191328" PMx_normed="0.032194" NOx_normed="0.909202" fuel_normed="1.027743" electricity_normed="0"
            traveltime="1.16" CO_perVeh="2.039672" CO2_perVeh="162.340017" HC_perVeh="0.012991" PMx_perVeh="0.002186" NOx_perVeh="0.061735" fuel_perVeh="0.069784" electricity_perVeh="0"/>
        <edge id=":1110673464_1" sampledSeconds="710.40" CO_abs="16840.543642" CO2_abs="2141467.768609" HC_abs="127.918313" PMx_abs="38.048745" NOx_abs="804.556636" fuel_abs="920.518695" electricity_abs="0"
            CO_normed="878.516232" CO2_normed="111713.388506" HC_normed="6.673081" PMx_normed="1.984879" NOx_normed="41.971095" fuel_normed="48.020458" electricity_normed="0"
            traveltime="0.70" CO_perVeh="16.611023" CO2_perVeh="2112.281596" HC_perVeh="0.126175" PMx_perVeh="0.037530" NOx_perVeh="0.793591" fuel_perVeh="0.907973" electricity_perVeh="0"/>
        <edge id=":1110673479_0" sampledSeconds="133.84" CO_abs="6548.954756" CO2_abs="455586.236340" HC_abs="40.527727" PMx_abs="7.981961" NOx_abs="186.348189" fuel_abs="195.836693" electricity_abs="0"
            CO_normed="16409.993123" CO2_normed="1141581.715615" HC_normed="101.552041" PMx_normed="20.000736" NOx_normed="466.940545" fuel_normed="490.716291" electricity_normed="0"
            traveltime="0.03" CO_perVeh="1.379605" CO2_perVeh="95.973956" HC_perVeh="0.008538" PMx_perVeh="0.001681" NOx_perVeh="0.039256" fuel_perVeh="0.041255" electricity_perVeh="0"/>
        <edge id=":1110673511_0" sampledSeconds="11.75" CO_abs="196.807528" CO2_abs="25447.246200" HC_abs="1.476638" PMx_abs="0.346626" NOx_abs="9.468998" fuel_abs="10.938700" electricity_abs="0"
            CO_normed="493.148952" CO2_normed="63764.241887" HC_normed="3.700074" PMx_normed="0.868555" NOx_normed="23.726869" fuel_normed="27.409564" electricity_normed="0"
            traveltime="0.02" CO_perVeh="0.389718" CO2_perVeh="50.390587" HC_perVeh="0.002924" PMx_perVeh="0.000686" NOx_perVeh="0.018750" fuel_perVeh="0.021661" electricity_perVeh="0"/>
        <edge id=":1110673517_0" sampledSeconds="17.00" CO_abs="791.687238" CO2_abs="59254.335202" HC_abs="4.994972" PMx_abs="1.008278" NOx_abs="23.953111" fuel_abs="25.470863" electricity_abs="0"
            CO_normed="1983.764222" CO2_normed="148476.095725" HC_normed="12.516112" PMx_normed="2.526486" NOx_normed="60.020325" fuel_normed="63.823420" electricity_normed="0"
            traveltime="0.03" CO_perVeh="1.271106" CO2_perVeh="95.136744" HC_perVeh="0.008020" PMx_perVeh="0.001619" NOx_perVeh="0.038458" fuel_perVeh="0.040895" electricity_perVeh="0"/>
        <edge id=":1110673534_0" sampledSeconds="474.58" CO_abs="2472.769491" CO2_abs="222279.850847" HC_abs="16.310886" PMx_abs="2.820564" NOx_abs="83.169811" fuel_abs="95.549540" electricity_abs="0"
            CO_normed="120.079907" CO2_normed="10794.109119" HC_normed="0.792071" PMx_normed="0.136969" NOx_normed="4.038801" fuel_normed="4.639971" electricity_normed="0"
            traveltime="1.43" CO_perVeh="7.449469" CO2_perVeh="669.640593" HC_perVeh="0.049138" PMx_perVeh="0.008497" NOx_perVeh="0.250557" fuel_perVeh="0.287853" electricity_perVeh="0"/>
        <edge id=":1110673534_1" sampledSeconds="183.95" CO_abs="2683.416546" CO2_abs="337783.134005" HC_abs="19.837346" PMx_abs="4.600116" NOx_abs="125.837177" fuel_abs="145.198783" electricity_abs="0"
            CO_normed="126.707608" CO2_normed="15949.701557" HC_normed="0.936695" PMx_normed="0.217212" NOx_normed="5.941876" fuel_normed="6.856107" electricity_normed="0"
            traveltime="1.22" CO_perVeh="17.816922" CO2_perVeh="2242.758743" HC_perVeh="0.131713" PMx_perVeh="0.030543" NOx_perVeh="0.835514" fuel_perVeh="0.964068" electricity_perVeh="0"/>
        <edge id=":1110673549_0" sampledSeconds="61.18" CO_abs="44.708179" CO2_abs="7410.776228" HC_abs="0.371216" PMx_abs="0.078775" NOx_abs="2.606476" fuel_abs="3.185605" electricity_abs="0"
            CO_normed="2.103138" CO2_normed="348.613811" HC_normed="0.017463" PMx_normed="0.003706" NOx_normed="0.122612" fuel_normed="0.149856" electricity_normed="0"
            traveltime="1.27" CO_perVeh="0.931457" CO2_perVeh="154.397210" HC_perVeh="0.007734" PMx_perVeh="0.001641" NOx_perVeh="0.054304" fuel_perVeh="0.066369" electricity_perVeh="0"/>
        <edge id=":1110673549_1" sampledSeconds="639.18" CO_abs="13670.182241" CO2_abs="1805546.280120" HC_abs="105.411480" PMx_abs="31.717761" NOx_abs="674.315781" fuel_abs="776.121743" electricity_abs="0"
            CO_normed="622.045174" CO2_normed="82159.208280" HC_normed="4.796622" PMx_normed="1.443279" NOx_normed="30.683927" fuel_normed="35.316485" electricity_normed="0"
            traveltime="0.80" CO_perVeh="17.208051" CO2_perVeh="2272.825084" HC_perVeh="0.132692" PMx_perVeh="0.039926" NOx_perVeh="0.848830" fuel_perVeh="0.976984" electricity_perVeh="0"/>
        <edge id=":1110673556_0" sampledSeconds="416.02" CO_abs="51327.985057" CO2_abs="2586082.009300" HC_abs="295.209320" PMx_abs="52.136332" NOx_abs="1113.440181" fuel_abs="1111.644570" electricity_abs="0"
            CO_normed="1790.459926" CO2_normed="90209.584450" HC_normed="10.297705" PMx_normed="1.818657" NOx_normed="38.839826" fuel_normed="38.777190" electricity_normed="0"
            traveltime="2.58" CO_perVeh="318.619103" CO2_perVeh="16053.136105" HC_perVeh="1.832516" PMx_perVeh="0.323637" NOx_perVeh="6.911694" fuel_perVeh="6.900547" electricity_perVeh="0"/>
        <edge id=":1110673556_2" sampledSeconds="248.95" CO_abs="24469.327560" CO2_abs="1052153.974796" HC_abs="136.146810" PMx_abs="20.401621" NOx_abs="449.393731" fuel_abs="452.279529" electricity_abs="0"
            CO_normed="892.486605" CO2_normed="38375.935201" HC_normed="4.965776" PMx_normed="0.744122" NOx_normed="16.391046" fuel_normed="16.496302" electricity_normed="0"
            traveltime="3.02" CO_perVeh="296.808254" CO2_perVeh="12762.426091" HC_perVeh="1.651435" PMx_perVeh="0.247468" NOx_perVeh="5.451060" fuel_perVeh="5.486064" electricity_perVeh="0"/>
        <edge id=":1110673556_3" sampledSeconds="375.01" CO_abs="32466.514368" CO2_abs="1145113.693061" HC_abs="174.499019" PMx_abs="21.967504" NOx_abs="489.115756" fuel_abs="492.244442" electricity_abs="0"
            CO_normed="2693.798650" CO2_normed="95011.915529" HC_normed="14.478463" PMx_normed="1.822679" NOx_normed="40.582717" fuel_normed="40.842309" electricity_normed="0"
            traveltime="1.76" CO_perVeh="152.139557" CO2_perVeh="5366.054649" HC_perVeh="0.817710" PMx_perVeh="0.102941" NOx_perVeh="2.292019" fuel_perVeh="2.306680" electricity_perVeh="0"/>
        <edge id=":1110673556_4" sampledSeconds="172.54" CO_abs="18132.210141" CO2_abs="721762.206307" HC_abs="99.493200" PMx_abs="14.072449" NOx_abs="309.240435" fuel_abs="310.258114" electricity_abs="0"
            CO_normed="919.109503" CO2_normed="36585.639442" HC_normed="5.043243" PMx_normed="0.713323" NOx_normed="15.675189" fuel_normed="15.726775" electricity_normed="0"
            traveltime="2.42" CO_perVeh="254.322888" CO2_perVeh="10123.456966" HC_perVeh="1.395494" PMx_perVeh="0.197381" NOx_perVeh="4.337415" fuel_perVeh="4.351689" electricity_perVeh="0"/>
        <edge id=":1110673556_5" sampledSeconds="23.38" CO_abs="1473.468883" CO2_abs="65333.445240" HC_abs="8.238659" PMx_abs="1.229882" NOx_abs="27.692777" fuel_abs="28.084288" electricity_abs="0"
            CO_normed="104.101504" CO2_normed="4615.849033" HC_normed="0.582066" PMx_normed="0.086892" NOx_normed="1.956512" fuel_normed="1.984173" electricity_normed="0"
            traveltime="1.62" CO_perVeh="101.869454" CO2_perVeh="4516.880165" HC_perVeh="0.569586" PMx_perVeh="0.085029" NOx_perVeh="1.914562" fuel_perVeh="1.941630" electricity_perVeh="0"/>
        <edge id=":1110673556_6" sampledSeconds="309.70" CO_abs="37725.304406" CO2_abs="1929855.586893" HC_abs="217.690735" PMx_abs="38.886001" NOx_abs="830.098991" fuel_abs="829.560879" electricity_abs="0"
            CO_normed="1349.142132" CO2_normed="69015.996586" HC_normed="7.785113" PMx_normed="1.390651" NOx_normed="29.686216" fuel_normed="29.666972" electricity_normed="0"
            traveltime="2.45" CO_perVeh="298.754064" CO2_perVeh="15282.903819" HC_perVeh="1.723936" PMx_perVeh="0.307946" NOx_perVeh="6.573716" fuel_perVeh="6.569455" electricity_perVeh="0"/>
        <edge id=":1110673561_0" sampledSeconds="99.82" CO_abs="9859.773017" CO2_abs="712427.816814" HC_abs="62.010150" PMx_abs="14.349828" NOx_abs="300.762902" fuel_abs="306.238803" electricity_abs="0"
            CO_normed="443.025414" CO2_normed="32011.246890" HC_normed="2.786278" PMx_normed="0.644775" NOx_normed="13.514065" fuel_normed="13.760111" electricity_normed="0"
            traveltime="1.18" CO_perVeh="116.354891" CO2_perVeh="8407.339721" HC_perVeh="0.731780" PMx_perVeh="0.169342" NOx_perVeh="3.549294" fuel_perVeh="3.613915" electricity_perVeh="0"/>
        <edge id=":1110673561_1" sampledSeconds="1316.54" CO_abs="122881.162650" CO2_abs="8485377.674772" HC_abs="764.838005" PMx_abs="177.679509" NOx_abs="3630.655359" fuel_abs="3647.453823" electricity_abs="0"
            CO_normed="5383.016265" CO2_normed="371716.258622" HC_normed="33.505017" PMx_normed="7.783550" NOx_normed="159.046972" fuel_normed="159.782857" electricity_normed="0"
            traveltime="1.19" CO_perVeh="111.294648" CO2_perVeh="7685.287940" HC_perVeh="0.692721" PMx_perVeh="0.160926" NOx_perVeh="3.288319" fuel_perVeh="3.303534" electricity_perVeh="0"/>
        <edge id=":1110673562_0" sampledSeconds="104.11" CO_abs="2193.693388" CO2_abs="179795.409727" HC_abs="14.077105" PMx_abs="2.351536" NOx_abs="67.957387" fuel_abs="77.287150" electricity_abs="0"
            CO_normed="6107.589303" CO2_normed="500578.853560" HC_normed="39.192887" PMx_normed="6.547047" NOx_normed="189.204112" fuel_normed="215.179649" electricity_normed="0"
            traveltime="0.03" CO_perVeh="0.559182" CO2_perVeh="45.830668" HC_perVeh="0.003588" PMx_perVeh="0.000599" NOx_perVeh="0.017323" fuel_perVeh="0.019701" electricity_perVeh="0"/>
        <edge id=":1110673564_0" sampledSeconds="28.99" CO_abs="525.017003" CO2_abs="57865.894684" HC_abs="3.725214" PMx_abs="0.823278" NOx_abs="21.933488" fuel_abs="24.874110" electricity_abs="0"
            CO_normed="3946.671980" CO2_normed="434991.064655" HC_normed="28.003278" PMx_normed="6.188765" NOx_normed="164.879005" fuel_normed="186.984327" electricity_normed="0"
            traveltime="7.970169e-03" CO_perVeh="0.144335" CO2_perVeh="15.908150" HC_perVeh="0.001024" PMx_perVeh="0.000226" NOx_perVeh="0.006030" fuel_perVeh="0.006838" electricity_perVeh="0"/>
        <edge id=":1110673588_0" sampledSeconds="11.67" CO_abs="176.001881" CO2_abs="24643.038160" HC_abs="1.360161" PMx_abs="0.317889" NOx_abs="9.046683" fuel_abs="10.593020" electricity_abs="0"
            CO_normed="529.218437" CO2_normed="74098.924515" HC_normed="4.089855" PMx_normed="0.955858" NOx_normed="27.202387" fuel_normed="31.852055" electricity_normed="0"
            traveltime="0.02" CO_perVeh="0.293336" CO2_perVeh="41.071730" HC_perVeh="0.002267" PMx_perVeh="0.000530" NOx_perVeh="0.015078" fuel_perVeh="0.017655" electricity_perVeh="0"/>
        <edge id=":1110673601_0" sampledSeconds="29.88" CO_abs="526.933808" CO2_abs="54754.638993" HC_abs="3.666714" PMx_abs="0.805043" NOx_abs="20.983333" fuel_abs="23.536692" electricity_abs="0"
            CO_normed="1414.671800" CO2_normed="147001.089083" HC_normed="9.844114" PMx_normed="2.161319" NOx_normed="56.334455" fuel_normed="63.189519" electricity_normed="0"
            traveltime="0.02" CO_perVeh="0.391097" CO2_perVeh="40.639626" HC_perVeh="0.002721" PMx_perVeh="0.000598" NOx_perVeh="0.015574" fuel_perVeh="0.017469" electricity_perVeh="0"/>
        <edge id=":1110673617_0" sampledSeconds="238.74" CO_abs="5956.902178" CO2_abs="707269.877430" HC_abs="44.128708" PMx_abs="12.829280" NOx_abs="268.892054" fuel_abs="304.022651" electricity_abs="0"
            CO_normed="14926.461920" CO2_normed="1772236.067896" HC_normed="110.575171" PMx_normed="32.146870" NOx_normed="673.774200" fuel_normed="761.802423" electricity_normed="0"
            traveltime="0.01" CO_perVeh="0.365160" CO2_perVeh="43.355813" HC_perVeh="0.002705" PMx_perVeh="0.000786" NOx_perVeh="0.016483" fuel_perVeh="0.018637" electricity_perVeh="0"/>
        <edge id=":1110673621_0" sampledSeconds="25.76" CO_abs="550.717554" CO2_abs="55639.061611" HC_abs="3.801650" PMx_abs="0.847456" NOx_abs="21.509309" fuel_abs="23.916836" electricity_abs="0"
            CO_normed="1655.947543" CO2_normed="167300.582000" HC_normed="11.431148" PMx_normed="2.548209" NOx_normed="64.676142" fuel_normed="71.915314" electricity_normed="0"
            traveltime="0.02" CO_perVeh="0.417210" CO2_perVeh="42.150804" HC_perVeh="0.002880" PMx_perVeh="0.000642" NOx_perVeh="0.016295" fuel_perVeh="0.018119" electricity_perVeh="0"/>
        <edge id=":1110673630_0" sampledSeconds="53.94" CO_abs="265.058002" CO2_abs="25983.404781" HC_abs="1.799235" PMx_abs="0.330347" NOx_abs="9.661102" fuel_abs="11.169249" electricity_abs="0"
            CO_normed="14.211849" CO2_normed="1393.175117" HC_normed="0.096471" PMx_normed="0.017713" NOx_normed="0.518008" fuel_normed="0.598871" electricity_normed="0"
            traveltime="1.26" CO_perVeh="6.186923" CO2_perVeh="606.498627" HC_perVeh="0.041997" PMx_perVeh="0.007711" NOx_perVeh="0.225507" fuel_perVeh="0.260710" electricity_perVeh="0"/>
        <edge id=":1110673630_1" sampledSeconds="7.32" CO_abs="2.443647" CO2_abs="190.740129" HC_abs="0.015404" PMx_abs="0.002213" NOx_abs="0.070555" fuel_abs="0.081992" electricity_abs="0"
            CO_normed="0.159734" CO2_normed="12.468146" HC_normed="0.001007" PMx_normed="0.000145" NOx_normed="0.004612" fuel_normed="0.005360" electricity_normed="0"
            traveltime="1.04" CO_perVeh="0.345870" CO2_perVeh="26.997064" HC_perVeh="0.002180" PMx_perVeh="0.000313" NOx_perVeh="0.009986" fuel_perVeh="0.011605" electricity_perVeh="0"/>
        <edge id=":1110673650_0" sampledSeconds="143.48" CO_abs="2095.425724" CO2_abs="264306.473487" HC_abs="15.536132" PMx_abs="3.592489" NOx_abs="98.491976" fuel_abs="113.614259" electricity_abs="0"
            CO_normed="5250.596929" CO2_normed="662283.917695" HC_normed="38.929543" PMx_normed="9.001852" NOx_normed="246.795514" fuel_normed="284.688057" electricity_normed="0"
            traveltime="0.02" CO_perVeh="0.336434" CO2_perVeh="42.436148" HC_perVeh="0.002494" PMx_perVeh="0.000577" NOx_perVeh="0.015814" fuel_perVeh="0.018242" electricity_perVeh="0"/>
        <edge id=":1110673655_0" sampledSeconds="44.85" CO_abs="941.804954" CO2_abs="105578.698691" HC_abs="6.699937" PMx_abs="1.472147" NOx_abs="39.785798" fuel_abs="45.383866" electricity_abs="0"
            CO_normed="2359.920535" CO2_normed="264553.014052" HC_normed="16.788317" PMx_normed="3.688821" NOx_normed="99.692957" fuel_normed="113.720273" electricity_normed="0"
            traveltime="0.02" CO_perVeh="0.504043" CO2_perVeh="56.504522" HC_perVeh="0.003586" PMx_perVeh="0.000788" NOx_perVeh="0.021293" fuel_perVeh="0.024289" electricity_perVeh="0"/>
        <edge id=":1110673663_0" sampledSeconds="108.79" CO_abs="1535.866907" CO2_abs="198163.671948" HC_abs="11.459770" PMx_abs="2.589705" NOx_abs="73.145080" fuel_abs="85.182374" electricity_abs="0"
            CO_normed="70.485105" CO2_normed="9094.269236" HC_normed="0.525920" PMx_normed="0.118849" NOx_normed="3.356826" fuel_normed="3.909251" electricity_normed="0"
            traveltime="1.28" CO_perVeh="18.039481" CO2_perVeh="2327.525812" HC_perVeh="0.134600" PMx_perVeh="0.030417" NOx_perVeh="0.859123" fuel_perVeh="1.000507" electricity_perVeh="0"/>
        <edge id=":1110673663_1" sampledSeconds="153.43" CO_abs="2345.924058" CO2_abs="303068.904617" HC_abs="17.643853" PMx_abs="4.187911" NOx_abs="113.065396" fuel_abs="130.276493" electricity_abs="0"
            CO_normed="107.792443" CO2_normed="13925.658595" HC_normed="0.810714" PMx_normed="0.192430" NOx_normed="5.195222" fuel_normed="5.986051" electricity_normed="0"
            traveltime="1.24" CO_perVeh="18.996579" CO2_perVeh="2454.159703" HC_perVeh="0.142875" PMx_perVeh="0.033912" NOx_perVeh="0.915569" fuel_perVeh="1.054939" electricity_perVeh="0"/>
        <edge id=":1110673666_0" sampledSeconds="191.33" CO_abs="4287.830246" CO2_abs="334946.336212" HC_abs="27.178700" PMx_abs="4.614263" NOx_abs="128.364827" fuel_abs="143.980372" electricity_abs="0"