<?xml version="1.0" encoding="UTF-8"?>

<!-- generated on Mon Nov  9 23:58:58 2020 by Eclipse SUMO sumo Version 1.7.0
<configuration xmlns:xsi="http://www.w3.org/2001/XMLSchema-instance" xsi:noNamespaceSchemaLocation="http://sumo.dlr.de/xsd/sumoConfiguration.xsd">

    <input>
        <net-file value="../dataSets/Porto/6AM7AM_Routing_SaoBento/Porto.net.xml"/>
        <route-files value="../results/Porto/6AM7AM_Routing_SaoBento/cost_hc-length/solution4/Porto.rou.xml"/>
        <additional-files value="moreOutputInfo.xml"/>
    </input>

    <output>
        <emission-output.precision value="6"/>
        <tripinfo-output value="../results/Porto/6AM7AM_Routing_SaoBento/cost_hc-length/solution4/Porto-tripinfo"/>
    </output>

    <processing>
        <collision.action value="warn"/>
        <time-to-teleport value="-1"/>
    </processing>

    <emissions>
        <device.emissions.probability value="1"/>
    </emissions>

    <gui_only>
        <quit-on-end value="true"/>
        <start value="true"/>
    </gui_only>

</configuration>
-->

<meandata xmlns:xsi="http://www.w3.org/2001/XMLSchema-instance" xsi:noNamespaceSchemaLocation="http://sumo.dlr.de/xsd/meandata_file.xsd">
    <interval begin="0.00" end="4700.00" id="emissions-detector">
        <edge id=":1092997347_0" sampledSeconds="268.51" CO_abs="34410.504409" CO2_abs="1359024.364568" HC_abs="188.799660" PMx_abs="27.750160" NOx_abs="590.143606" fuel_abs="584.191212" electricity_abs="0"
            CO_normed="59902.232047" CO2_normed="2365806.437352" HC_normed="328.664785" PMx_normed="48.307823" NOx_normed="1027.329294" fuel_normed="1016.967293" electricity_normed="0"
            traveltime="0.08" CO_perVeh="9.662750" CO2_perVeh="381.625104" HC_perVeh="0.053016" PMx_perVeh="0.007792" NOx_perVeh="0.165717" fuel_perVeh="0.164046" electricity_perVeh="0"/>
        <edge id=":1103427051_0" sampledSeconds="11.06" CO_abs="896.546453" CO2_abs="50856.450743" HC_abs="5.291388" PMx_abs="1.004228" NOx_abs="21.733875" fuel_abs="21.860922" electricity_abs="0"
            CO_normed="2367.987697" CO2_normed="134323.714362" HC_normed="13.975787" PMx_normed="2.652398" NOx_normed="57.404219" fuel_normed="57.739780" electricity_normed="0"
            traveltime="0.03" CO_perVeh="2.456524" CO2_perVeh="139.345906" HC_perVeh="0.014498" PMx_perVeh="0.002752" NOx_perVeh="0.059550" fuel_perVeh="0.059899" electricity_perVeh="0"/>
        <edge id=":1105984386_0" sampledSeconds="22.84" CO_abs="257.808252" CO2_abs="24321.419988" HC_abs="1.719859" PMx_abs="0.271634" NOx_abs="8.861932" fuel_abs="10.454886" electricity_abs="0"
            CO_normed="20.336782" CO2_normed="1918.555382" HC_normed="0.135668" PMx_normed="0.021427" NOx_normed="0.699059" fuel_normed="0.824717" electricity_normed="0"
            traveltime="0.96" CO_perVeh="10.820013" CO2_perVeh="1020.751159" HC_perVeh="0.072181" PMx_perVeh="0.011400" NOx_perVeh="0.371928" fuel_perVeh="0.438783" electricity_perVeh="0"/>
        <edge id=":1105984390_0" sampledSeconds="23.52" CO_abs="43.345695" CO2_abs="3714.361178" HC_abs="0.280781" PMx_abs="0.042619" NOx_abs="1.365072" fuel_abs="1.596669" electricity_abs="0"
            CO_normed="2.643388" CO2_normed="226.516131" HC_normed="0.017123" PMx_normed="0.002599" NOx_normed="0.083247" fuel_normed="0.097371" electricity_normed="0"
            traveltime="1.07" CO_perVeh="1.965706" CO2_perVeh="168.444455" HC_perVeh="0.012733" PMx_perVeh="0.001933" NOx_perVeh="0.061905" fuel_perVeh="0.072408" electricity_perVeh="0"/>
        <edge id=":1105984390_1" sampledSeconds="645.52" CO_abs="16025.254569" CO2_abs="1999599.096728" HC_abs="120.946207" PMx_abs="35.798472" NOx_abs="753.081161" fuel_abs="859.535718" electricity_abs="0"
            CO_normed="934.856289" CO2_normed="116649.491148" HC_normed="7.055571" PMx_normed="2.088355" NOx_normed="43.932073" fuel_normed="50.142253" electricity_normed="0"
            traveltime="0.64" CO_perVeh="15.778523" CO2_perVeh="1968.812378" HC_perVeh="0.119084" PMx_perVeh="0.035247" NOx_perVeh="0.741486" fuel_perVeh="0.846302" electricity_perVeh="0"/>
        <edge id=":1105984395_0" sampledSeconds="8.97" CO_abs="156.554218" CO2_abs="13467.701992" HC_abs="1.013505" PMx_abs="0.145005" NOx_abs="4.885530" fuel_abs="5.789290" electricity_abs="0"
            CO_normed="130.341162" CO2_normed="11212.702861" HC_normed="0.843806" PMx_normed="0.120726" NOx_normed="4.067508" fuel_normed="4.819945" electricity_normed="0"
            traveltime="0.09" CO_perVeh="1.587631" CO2_perVeh="136.577225" HC_perVeh="0.010278" PMx_perVeh="0.001471" NOx_perVeh="0.049545" fuel_perVeh="0.058710" electricity_perVeh="0"/>
        <edge id=":1105984398_0" sampledSeconds="23.41" CO_abs="1475.695206" CO2_abs="101784.339102" HC_abs="9.124401" PMx_abs="1.851859" NOx_abs="42.084586" fuel_abs="43.752562" electricity_abs="0"
            CO_normed="93.492120" CO2_normed="6448.508892" HC_normed="0.578073" PMx_normed="0.117324" NOx_normed="2.666253" fuel_normed="2.771927" electricity_normed="0"
            traveltime="1.11" CO_perVeh="70.175252" CO2_perVeh="4840.255378" HC_perVeh="0.433902" PMx_perVeh="0.088063" NOx_perVeh="2.001292" fuel_perVeh="2.080611" electricity_perVeh="0"/>
        <edge id=":1105984398_1" sampledSeconds="451.23" CO_abs="7731.249628" CO2_abs="903366.633891" HC_abs="55.991594" PMx_abs="13.003139" NOx_abs="342.077946" fuel_abs="388.318733" electricity_abs="0"
            CO_normed="474.123957" CO2_normed="55399.551676" HC_normed="3.433721" PMx_normed="0.797426" NOx_normed="20.978155" fuel_normed="23.813901" electricity_normed="0"
            traveltime="0.95" CO_perVeh="16.356465" CO2_perVeh="1911.189717" HC_perVeh="0.118458" PMx_perVeh="0.027510" NOx_perVeh="0.723710" fuel_perVeh="0.821539" electricity_perVeh="0"/>
        <edge id=":1106006327_0" sampledSeconds="199.74" CO_abs="26804.063321" CO2_abs="866493.576586" HC_abs="142.435156" PMx_abs="18.037905" NOx_abs="379.065071" fuel_abs="372.475142" electricity_abs="0"
            CO_normed="2317.242879" CO2_normed="74909.391377" HC_normed="12.313687" PMx_normed="1.559398" NOx_normed="32.770622" fuel_normed="32.200915" electricity_normed="0"
            traveltime="2.10" CO_perVeh="281.439171" CO2_perVeh="9098.069598" HC_perVeh="1.495551" PMx_perVeh="0.189396" NOx_perVeh="3.980134" fuel_perVeh="3.910940" electricity_perVeh="0"/>
        <edge id=":1106006327_1" sampledSeconds="160.46" CO_abs="21819.898527" CO2_abs="733601.606621" HC_abs="116.652542" PMx_abs="15.328091" NOx_abs="321.214713" fuel_abs="315.348728" electricity_abs="0"
            CO_normed="1644.991512" CO2_normed="55305.867479" HC_normed="8.794378" PMx_normed="1.155577" NOx_normed="24.216221" fuel_normed="23.773987" electricity_normed="0"
            traveltime="2.28" CO_perVeh="309.761582" CO2_perVeh="10414.420304" HC_perVeh="1.656033" PMx_perVeh="0.217602" NOx_perVeh="4.560057" fuel_perVeh="4.476782" electricity_perVeh="0"/>
        <edge id=":1106006327_2" sampledSeconds="0.00" CO_abs="0" CO2_abs="0" HC_abs="0" PMx_abs="0" NOx_abs="0" fuel_abs="0" electricity_abs="0"
            CO_normed="0" CO2_normed="0" HC_normed="0" PMx_normed="0" NOx_normed="0" fuel_normed="0" electricity_normed="0"/>
        <edge id=":1106006327_3" sampledSeconds="0.00" CO_abs="0" CO2_abs="0" HC_abs="0" PMx_abs="0" NOx_abs="0" fuel_abs="0" electricity_abs="0"
            CO_normed="0" CO2_normed="0" HC_normed="0" PMx_normed="0" NOx_normed="0" fuel_normed="0" electricity_normed="0"/>
        <edge id=":1107381198_0" sampledSeconds="0.00" CO_abs="0" CO2_abs="0" HC_abs="0" PMx_abs="0" NOx_abs="0" fuel_abs="0" electricity_abs="0"
            CO_normed="0" CO2_normed="0" HC_normed="0" PMx_normed="0" NOx_normed="0" fuel_normed="0" electricity_normed="0"/>
        <edge id=":1107381198_1" sampledSeconds="35.44" CO_abs="1566.481768" CO2_abs="65165.850596" HC_abs="8.638109" PMx_abs="1.139259" NOx_abs="27.077994" fuel_abs="28.012460" electricity_abs="0"
            CO_normed="130.846061" CO2_normed="5443.213581" HC_normed="0.721529" PMx_normed="0.095161" NOx_normed="2.261787" fuel_normed="2.339842" electricity_normed="0"
            traveltime="1.46" CO_perVeh="64.496398" CO2_perVeh="2683.058773" HC_perVeh="0.355655" PMx_perVeh="0.046906" NOx_perVeh="1.114876" fuel_perVeh="1.153351" electricity_perVeh="0"/>
        <edge id=":1110338277_0" sampledSeconds="97.02" CO_abs="1339.142133" CO2_abs="175811.406997" HC_abs="10.117835" PMx_abs="2.319842" NOx_abs="65.066695" fuel_abs="75.574012" electricity_abs="0"
            CO_normed="3663.306747" CO2_normed="480943.058655" HC_normed="27.677968" PMx_normed="6.346073" NOx_normed="177.993999" fuel_normed="206.737419" electricity_normed="0"
            traveltime="0.02" CO_perVeh="0.301800" CO2_perVeh="39.622342" HC_perVeh="0.002280" PMx_perVeh="0.000523" NOx_perVeh="0.014664" fuel_perVeh="0.017032" electricity_perVeh="0"/>
        <edge id=":1110338293_0" sampledSeconds="123.46" CO_abs="6256.958477" CO2_abs="434805.525380" HC_abs="38.708574" PMx_abs="7.615166" NOx_abs="177.859611" fuel_abs="186.903977" electricity_abs="0"
            CO_normed="15975.213132" CO2_normed="1110141.766928" HC_normed="98.830402" PMx_normed="19.442976" NOx_normed="454.109644" fuel_normed="477.201643" electricity_normed="0"
            traveltime="0.03" CO_perVeh="1.435144" CO2_perVeh="99.730319" HC_perVeh="0.008878" PMx_perVeh="0.001747" NOx_perVeh="0.040795" fuel_perVeh="0.042870" electricity_perVeh="0"/>
        <edge id=":1110338295_0" sampledSeconds="0.00" CO_abs="0" CO2_abs="0" HC_abs="0" PMx_abs="0" NOx_abs="0" fuel_abs="0" electricity_abs="0"
            CO_normed="0" CO2_normed="0" HC_normed="0" PMx_normed="0" NOx_normed="0" fuel_normed="0" electricity_normed="0"/>
        <edge id=":1110673403_0" sampledSeconds="144.00" CO_abs="1824.394491" CO2_abs="240852.919390" HC_abs="13.790159" PMx_abs="3.201888" NOx_abs="89.217753" fuel_abs="103.532610" electricity_abs="0"
            CO_normed="4658.028489" CO2_normed="614943.623974" HC_normed="35.208916" PMx_normed="8.175033" NOx_normed="227.790007" fuel_normed="264.338579" electricity_normed="0"
            traveltime="0.02" CO_perVeh="0.292919" CO2_perVeh="38.670525" HC_perVeh="0.002214" PMx_perVeh="0.000514" NOx_perVeh="0.014324" fuel_perVeh="0.016623" electricity_perVeh="0"/>
        <edge id=":1110673412_0" sampledSeconds="252.48" CO_abs="45120.899003" CO2_abs="3076884.628660" HC_abs="280.753387" PMx_abs="67.641179" NOx_abs="1322.462992" fuel_abs="1322.601138" electricity_abs="0"
            CO_normed="119174.788269" CO2_normed="8126767.911355" HC_normed="741.534992" PMx_normed="178.656084" NOx_normed="3492.932334" fuel_normed="3493.297211" electricity_normed="0"
            traveltime="0.02" CO_perVeh="2.774193" CO2_perVeh="189.177802" HC_perVeh="0.017262" PMx_perVeh="0.004159" NOx_perVeh="0.081310" fuel_perVeh="0.081318" electricity_perVeh="0"/>
        <edge id=":1110673414_0" sampledSeconds="0.00" CO_abs="0" CO2_abs="0" HC_abs="0" PMx_abs="0" NOx_abs="0" fuel_abs="0" electricity_abs="0"
            CO_normed="0" CO2_normed="0" HC_normed="0" PMx_normed="0" NOx_normed="0" fuel_normed="0" electricity_normed="0"/>
        <edge id=":1110673414_1" sampledSeconds="14.72" CO_abs="1097.569363" CO2_abs="40263.093532" HC_abs="5.928325" PMx_abs="0.729203" NOx_abs="16.915439" fuel_abs="17.307728" electricity_abs="0"
            CO_normed="93.099826" CO2_normed="3415.262051" HC_normed="0.502862" PMx_normed="0.061854" NOx_normed="1.434829" fuel_normed="1.468104" electricity_normed="0"
            traveltime="1.61" CO_perVeh="119.872416" CO2_perVeh="4397.384308" HC_perVeh="0.647469" PMx_perVeh="0.079641" NOx_perVeh="1.847441" fuel_perVeh="1.890285" electricity_perVeh="0"/>
        <edge id=":1110673417_0" sampledSeconds="29.50" CO_abs="388.469365" CO2_abs="50506.297848" HC_abs="2.903508" PMx_abs="0.658569" NOx_abs="18.638838" fuel_abs="21.710569" electricity_abs="0"
            CO_normed="1062.682154" CO2_normed="138163.124813" HC_normed="7.942726" PMx_normed="1.801556" NOx_normed="50.987703" fuel_normed="59.390614" electricity_normed="0"
            traveltime="0.02" CO_perVeh="0.288327" CO2_perVeh="37.486450" HC_perVeh="0.002155" PMx_perVeh="0.000489" NOx_perVeh="0.013834" fuel_perVeh="0.016114" electricity_perVeh="0"/>
        <edge id=":1110673446_0" sampledSeconds="333.51" CO_abs="2890.890900" CO2_abs="233864.483832" HC_abs="18.713386" PMx_abs="4.275690" NOx_abs="95.606004" fuel_abs="100.527610" electricity_abs="0"
            CO_normed="7380.998042" CO2_normed="597100.809785" HC_normed="47.778859" PMx_normed="10.916656" NOx_normed="244.100435" fuel_normed="256.666238" electricity_normed="0"
            traveltime="0.02" CO_perVeh="0.197357" CO2_perVeh="15.965607" HC_perVeh="0.001278" PMx_perVeh="0.000292" NOx_perVeh="0.006527" fuel_perVeh="0.006863" electricity_perVeh="0"/>
        <edge id=":1110673451_0" sampledSeconds="37.35" CO_abs="225.171496" CO2_abs="16732.609913" HC_abs="1.405269" PMx_abs="0.221258" NOx_abs="6.372385" fuel_abs="7.192718" electricity_abs="0"
            CO_normed="638.784386" CO2_normed="47468.396917" HC_normed="3.986579" PMx_normed="0.627682" NOx_normed="18.077688" fuel_normed="20.404874" electricity_normed="0"
            traveltime="0.03" CO_perVeh="0.161478" CO2_perVeh="11.999481" HC_perVeh="0.001008" PMx_perVeh="0.000159" NOx_perVeh="0.004570" fuel_perVeh="0.005158" electricity_perVeh="0"/>
        <edge id=":1110673464_0" sampledSeconds="327.31" CO_abs="847.482211" CO2_abs="60485.589399" HC_abs="5.242665" PMx_abs="0.858989" NOx_abs="23.430454" fuel_abs="26.000411" electricity_abs="0"
            CO_normed="45.972756" CO2_normed="3281.118104" HC_normed="0.284395" PMx_normed="0.046597" NOx_normed="1.271015" fuel_normed="1.410426" electricity_normed="0"
            traveltime="1.18" CO_perVeh="3.063536" CO2_perVeh="218.647426" HC_perVeh="0.018952" PMx_perVeh="0.003105" NOx_perVeh="0.084698" fuel_perVeh="0.093988" electricity_perVeh="0"/>
        <edge id=":1110673464_1" sampledSeconds="709.08" CO_abs="15989.335314" CO2_abs="2135784.242000" HC_abs="123.802983" PMx_abs="37.401223" NOx_abs="796.458354" fuel_abs="918.075995" electricity_abs="0"
            CO_normed="849.906347" CO2_normed="113526.706796" HC_normed="6.580695" PMx_normed="1.988046" NOx_normed="42.335406" fuel_normed="48.799941" electricity_normed="0"
            traveltime="0.70" CO_perVeh="15.777998" CO2_perVeh="2107.554693" HC_perVeh="0.122167" PMx_perVeh="0.036907" NOx_perVeh="0.785931" fuel_perVeh="0.905941" electricity_perVeh="0"/>
        <edge id=":1110673479_0" sampledSeconds="133.79" CO_abs="6857.937718" CO2_abs="470136.392141" HC_abs="42.294487" PMx_abs="8.354562" NOx_abs="193.179077" fuel_abs="202.091065" electricity_abs="0"
            CO_normed="17509.628217" CO2_normed="1200348.235255" HC_normed="107.985924" PMx_normed="21.330797" NOx_normed="493.223175" fuel_normed="515.977187" electricity_normed="0"
            traveltime="0.03" CO_perVeh="1.444689" CO2_perVeh="99.038633" HC_perVeh="0.008910" PMx_perVeh="0.001760" NOx_perVeh="0.040695" fuel_perVeh="0.042572" electricity_perVeh="0"/>
        <edge id=":1110673511_0" sampledSeconds="11.85" CO_abs="161.315538" CO2_abs="19321.364664" HC_abs="1.171290" PMx_abs="0.281052" NOx_abs="7.313770" fuel_abs="8.305422" electricity_abs="0"
            CO_normed="411.869459" CO2_normed="49331.143822" HC_normed="2.990528" PMx_normed="0.717580" NOx_normed="18.673456" fuel_normed="21.205333" electricity_normed="0"
            traveltime="0.02" CO_perVeh="0.319437" CO2_perVeh="38.260128" HC_perVeh="0.002319" PMx_perVeh="0.000557" NOx_perVeh="0.014483" fuel_perVeh="0.016446" electricity_perVeh="0"/>
        <edge id=":1110673517_0" sampledSeconds="16.98" CO_abs="749.361966" CO2_abs="56024.102859" HC_abs="4.721990" PMx_abs="0.929256" NOx_abs="22.479329" fuel_abs="24.082366" electricity_abs="0"
            CO_normed="1913.264595" CO2_normed="143040.262618" HC_normed="12.056144" PMx_normed="2.372570" NOx_normed="57.394031" fuel_normed="61.486891" electricity_normed="0"
            traveltime="0.03" CO_perVeh="1.203150" CO2_perVeh="89.950393" HC_perVeh="0.007581" PMx_perVeh="0.001492" NOx_perVeh="0.036092" fuel_perVeh="0.038666" electricity_perVeh="0"/>
        <edge id=":1110673534_0" sampledSeconds="476.17" CO_abs="2939.436517" CO2_abs="259872.699132" HC_abs="19.298458" PMx_abs="3.351636" NOx_abs="97.625320" fuel_abs="111.709211" electricity_abs="0"
            CO_normed="145.444657" CO2_normed="12858.619452" HC_normed="0.954896" PMx_normed="0.165840" NOx_normed="4.830545" fuel_normed="5.527423" electricity_normed="0"
            traveltime="1.43" CO_perVeh="8.855350" CO2_perVeh="782.892793" HC_perVeh="0.058139" PMx_perVeh="0.010097" NOx_perVeh="0.294106" fuel_perVeh="0.336535" electricity_perVeh="0"/>
        <edge id=":1110673534_1" sampledSeconds="184.18" CO_abs="2553.573869" CO2_abs="338554.944151" HC_abs="19.396558" PMx_abs="4.526503" NOx_abs="125.437040" fuel_abs="145.530606" electricity_abs="0"
            CO_normed="122.859857" CO2_normed="16288.861848" HC_normed="0.933225" PMx_normed="0.217783" NOx_normed="6.035140" fuel_normed="7.001900" electricity_normed="0"
            traveltime="1.22" CO_perVeh="16.954814" CO2_perVeh="2247.883285" HC_perVeh="0.128786" PMx_perVeh="0.030054" NOx_perVeh="0.832857" fuel_perVeh="0.966271" electricity_perVeh="0"/>
        <edge id=":1110673549_0" sampledSeconds="59.95" CO_abs="62.943554" CO2_abs="4832.511028" HC_abs="0.396503" PMx_abs="0.064103" NOx_abs="1.838151" fuel_abs="2.077313" electricity_abs="0"
            CO_normed="3.017027" CO2_normed="231.633154" HC_normed="0.019005" PMx_normed="0.003073" NOx_normed="0.088107" fuel_normed="0.099570" electricity_normed="0"
            traveltime="1.25" CO_perVeh="1.311375" CO2_perVeh="100.681251" HC_perVeh="0.008261" PMx_perVeh="0.001336" NOx_perVeh="0.038296" fuel_perVeh="0.043279" electricity_perVeh="0"/>
        <edge id=":1110673549_1" sampledSeconds="638.97" CO_abs="13109.478078" CO2_abs="1733413.546434" HC_abs="101.174913" PMx_abs="30.465293" NOx_abs="647.376223" fuel_abs="745.115163" electricity_abs="0"
            CO_normed="607.827019" CO2_normed="80370.521446" HC_normed="4.691022" PMx_normed="1.412537" NOx_normed="30.015898" fuel_normed="34.547609" electricity_normed="0"
            traveltime="0.80" CO_perVeh="16.507227" CO2_perVeh="2182.684244" HC_perVeh="0.127398" PMx_perVeh="0.038361" NOx_perVeh="0.815165" fuel_perVeh="0.938236" electricity_perVeh="0"/>
        <edge id=":1110673556_0" sampledSeconds="418.18" CO_abs="51278.901753" CO2_abs="2570021.990082" HC_abs="294.603201" PMx_abs="51.869046" NOx_abs="1107.116852" fuel_abs="1104.741184" electricity_abs="0"
            CO_normed="1822.619799" CO2_normed="91346.982913" HC_normed="10.471161" PMx_normed="1.843595" NOx_normed="39.350552" fuel_normed="39.266113" electricity_normed="0"
            traveltime="2.60" CO_perVeh="318.314418" CO2_perVeh="15953.443336" HC_perVeh="1.828753" PMx_perVeh="0.321978" NOx_perVeh="6.872442" fuel_perVeh="6.857695" electricity_perVeh="0"/>
        <edge id=":1110673556_2" sampledSeconds="245.81" CO_abs="23948.839509" CO2_abs="1048698.954040" HC_abs="133.708688" PMx_abs="20.327094" NOx_abs="447.796389" fuel_abs="450.793994" electricity_abs="0"
            CO_normed="890.043278" CO2_normed="38974.224809" HC_normed="4.969198" PMx_normed="0.755443" NOx_normed="16.642066" fuel_normed="16.753470" electricity_normed="0"
            traveltime="2.98" CO_perVeh="290.494834" CO2_perVeh="12720.517352" HC_perVeh="1.621861" PMx_perVeh="0.246564" NOx_perVeh="5.431684" fuel_perVeh="5.468045" electricity_perVeh="0"/>
        <edge id=":1110673556_3" sampledSeconds="416.71" CO_abs="36297.980001" CO2_abs="1285363.935032" HC_abs="195.162006" PMx_abs="24.379925" NOx_abs="547.220868" fuel_abs="552.533431" electricity_abs="0"
            CO_normed="3068.731577" CO2_normed="108668.220518" HC_normed="16.499536" PMx_normed="2.061146" NOx_normed="46.263565" fuel_normed="46.712704" electricity_normed="0"
            traveltime="1.73" CO_perVeh="150.716184" CO2_perVeh="5337.077907" HC_perVeh="0.810350" PMx_perVeh="0.101230" NOx_perVeh="2.272166" fuel_perVeh="2.294225" electricity_perVeh="0"/>
        <edge id=":1110673556_4" sampledSeconds="192.37" CO_abs="20438.419970" CO2_abs="823758.665731" HC_abs="112.406276" PMx_abs="16.120101" NOx_abs="353.301691" fuel_abs="354.102204" electricity_abs="0"
            CO_normed="1055.627780" CO2_normed="42546.465569" HC_normed="5.805693" PMx_normed="0.832590" NOx_normed="18.247745" fuel_normed="18.289091" electricity_normed="0"
            traveltime="2.39" CO_perVeh="253.773312" CO2_perVeh="10228.186183" HC_perVeh="1.395691" PMx_perVeh="0.200155" NOx_perVeh="4.386765" fuel_perVeh="4.396704" electricity_perVeh="0"/>
        <edge id=":1110673556_5" sampledSeconds="24.61" CO_abs="1966.330009" CO2_abs="79755.844730" HC_abs="10.813955" PMx_abs="1.495929" NOx_abs="33.793568" fuel_abs="34.284061" electricity_abs="0"
            CO_normed="141.553112" CO2_normed="5741.502180" HC_normed="0.778480" PMx_normed="0.107690" NOx_normed="2.432748" fuel_normed="2.468058" electricity_normed="0"
            traveltime="1.70" CO_perVeh="135.943803" CO2_perVeh="5513.984327" HC_perVeh="0.747631" PMx_perVeh="0.103422" NOx_perVeh="2.336345" fuel_perVeh="2.370256" electricity_perVeh="0"/>
        <edge id=":1110673556_6" sampledSeconds="300.13" CO_abs="36100.788478" CO2_abs="1884482.255343" HC_abs="209.245156" PMx_abs="37.982584" NOx_abs="810.231009" fuel_abs="810.056256" electricity_abs="0"
            CO_normed="1315.493234" CO2_normed="68669.515550" HC_normed="7.624780" PMx_normed="1.384065" NOx_normed="29.524380" fuel_normed="29.518012" electricity_normed="0"
            traveltime="2.38" CO_perVeh="285.889204" CO2_perVeh="14923.583533" HC_perVeh="1.657053" PMx_perVeh="0.300792" NOx_perVeh="6.416378" fuel_perVeh="6.414994" electricity_perVeh="0"/>
        <edge id=":1110673561_0" sampledSeconds="100.81" CO_abs="9455.865424" CO2_abs="687159.090605" HC_abs="59.583003" PMx_abs="13.797026" NOx_abs="289.711788" fuel_abs="295.377016" electricity_abs="0"
            CO_normed="432.922327" CO2_normed="31460.527352" HC_normed="2.727917" PMx_normed="0.631676" NOx_normed="13.264011" fuel_normed="13.523385" electricity_normed="0"
            traveltime="1.19" CO_perVeh="111.588390" CO2_perVeh="8109.144226" HC_perVeh="0.703137" PMx_perVeh="0.162818" NOx_perVeh="3.418880" fuel_perVeh="3.485735" electricity_perVeh="0"/>
        <edge id=":1110673561_1" sampledSeconds="1318.09" CO_abs="120865.600712" CO2_abs="8356705.519061" HC_abs="752.607765" PMx_abs="174.888628" NOx_abs="3574.489626" fuel_abs="3592.143962" electricity_abs="0"
            CO_normed="5394.982921" CO2_normed="373011.702978" HC_normed="33.593562" PMx_normed="7.806366" NOx_normed="159.551687" fuel_normed="160.339710" electricity_normed="0"
            traveltime="1.19" CO_perVeh="109.451120" CO2_perVeh="7567.502871" HC_perVeh="0.681532" PMx_perVeh="0.158372" NOx_perVeh="3.236917" fuel_perVeh="3.252904" electricity_perVeh="0"/>
        <edge id=":1110673562_0" sampledSeconds="104.87" CO_abs="2009.505176" CO2_abs="161099.697613" HC_abs="12.820598" PMx_abs="2.153179" NOx_abs="61.242094" fuel_abs="69.250542" electricity_abs="0"
            CO_normed="5700.723903" CO2_normed="457020.418759" HC_normed="36.370490" PMx_normed="6.108308" NOx_normed="173.736436" fuel_normed="196.455440" electricity_normed="0"
            traveltime="0.03" CO_perVeh="0.512232" CO2_perVeh="41.065046" HC_perVeh="0.003268" PMx_perVeh="0.000549" NOx_perVeh="0.015611" fuel_perVeh="0.017652" electricity_perVeh="0"/>
        <edge id=":1110673564_0" sampledSeconds="28.29" CO_abs="536.500616" CO2_abs="65761.006789" HC_abs="3.958264" PMx_abs="0.914560" NOx_abs="24.654389" fuel_abs="28.267880" electricity_abs="0"
            CO_normed="4109.366418" CO2_normed="503701.328594" HC_normed="30.318616" PMx_normed="7.005140" NOx_normed="188.842126" fuel_normed="216.519933" electricity_normed="0"
            traveltime="7.776487e-03" CO_perVeh="0.147492" CO2_perVeh="18.078627" HC_perVeh="0.001088" PMx_perVeh="0.000251" NOx_perVeh="0.006778" fuel_perVeh="0.007771" electricity_perVeh="0"/>
        <edge id=":1110673588_0" sampledSeconds="11.68" CO_abs="193.041387" CO2_abs="23952.362740" HC_abs="1.429946" PMx_abs="0.315506" NOx_abs="8.879240" fuel_abs="10.296133" electricity_abs="0"
            CO_normed="591.445951" CO2_normed="73385.962437" HC_normed="4.381111" PMx_normed="0.966658" NOx_normed="27.204480" fuel_normed="31.545600" electricity_normed="0"
            traveltime="0.02" CO_perVeh="0.321736" CO2_perVeh="39.920605" HC_perVeh="0.002383" PMx_perVeh="0.000526" NOx_perVeh="0.014799" fuel_perVeh="0.017160" electricity_perVeh="0"/>
        <edge id=":1110673601_0" sampledSeconds="29.53" CO_abs="438.051685" CO2_abs="55439.467914" HC_abs="3.242048" PMx_abs="0.730457" NOx_abs="20.518976" fuel_abs="23.831132" electricity_abs="0"
            CO_normed="1198.317679" CO2_normed="151658.118914" HC_normed="8.868824" PMx_normed="1.998211" NOx_normed="56.130936" fuel_normed="65.191547" electricity_normed="0"
            traveltime="0.02" CO_perVeh="0.325128" CO2_perVeh="41.147915" HC_perVeh="0.002406" PMx_perVeh="0.000542" NOx_perVeh="0.015229" fuel_perVeh="0.017688" electricity_perVeh="0"/>
        <edge id=":1110673617_0" sampledSeconds="238.46" CO_abs="5491.292314" CO2_abs="697131.514860" HC_abs="41.660229" PMx_abs="12.371920" NOx_abs="262.150983" fuel_abs="299.664831" electricity_abs="0"
            CO_normed="14020.320802" CO2_normed="1779910.250706" HC_normed="106.366542" PMx_normed="31.587882" NOx_normed="669.321659" fuel_normed="765.101695" electricity_normed="0"
            traveltime="0.01" CO_perVeh="0.336334" CO2_perVeh="42.698358" HC_perVeh="0.002552" PMx_perVeh="0.000758" NOx_perVeh="0.016056" fuel_perVeh="0.018354" electricity_perVeh="0"/>
        <edge id=":1110673621_0" sampledSeconds="25.66" CO_abs="589.159986" CO2_abs="65114.230322" HC_abs="4.166149" PMx_abs="0.956684" NOx_abs="24.819304" fuel_abs="27.989817" electricity_abs="0"
            CO_normed="1805.085914" CO2_normed="199498.918433" HC_normed="12.764372" PMx_normed="2.931116" NOx_normed="76.042124" fuel_normed="85.756035" electricity_normed="0"
            traveltime="0.02" CO_perVeh="0.446333" CO2_perVeh="49.328962" HC_perVeh="0.003156" PMx_perVeh="0.000725" NOx_perVeh="0.018803" fuel_perVeh="0.021204" electricity_perVeh="0"/>
        <edge id=":1110673630_0" sampledSeconds="54.89" CO_abs="158.886510" CO2_abs="12626.327923" HC_abs="1.008280" PMx_abs="0.153614" NOx_abs="4.701218" fuel_abs="5.427595" electricity_abs="0"
            CO_normed="8.680478" CO2_normed="689.816683" HC_normed="0.055086" PMx_normed="0.008392" NOx_normed="0.256843" fuel_normed="0.296527" electricity_normed="0"
            traveltime="1.28" CO_perVeh="3.708692" CO2_perVeh="294.720827" HC_perVeh="0.023535" PMx_perVeh="0.003586" NOx_perVeh="0.109735" fuel_perVeh="0.126690" electricity_perVeh="0"/>
        <edge id=":1110673630_1" sampledSeconds="7.28" CO_abs="12.512773" CO2_abs="1189.399470" HC_abs="0.082685" PMx_abs="0.008169" NOx_abs="0.400706" fuel_abs="0.511287" electricity_abs="0"
            CO_normed="0.833413" CO2_normed="79.219946" HC_normed="0.005507" PMx_normed="0.000544" NOx_normed="0.026689" fuel_normed="0.034054" electricity_normed="0"
            traveltime="1.03" CO_perVeh="1.771039" CO2_perVeh="168.345771" HC_perVeh="0.011703" PMx_perVeh="0.001156" NOx_perVeh="0.056715" fuel_perVeh="0.072367" electricity_perVeh="0"/>
        <edge id=":1110673650_0" sampledSeconds="142.98" CO_abs="2129.861992" CO2_abs="276212.086004" HC_abs="16.005661" PMx_abs="3.685470" NOx_abs="102.472654" fuel_abs="118.732047" electricity_abs="0"
            CO_normed="5437.945513" CO2_normed="705222.347245" HC_normed="40.865518" PMx_normed="9.409710" NOx_normed="261.632309" fuel_normed="303.145652" electricity_normed="0"
            traveltime="0.02" CO_perVeh="0.342650" CO2_perVeh="44.436698" HC_perVeh="0.002575" PMx_perVeh="0.000593" NOx_perVeh="0.016486" fuel_perVeh="0.019101" electricity_perVeh="0"/>
        <edge id=":1110673655_0" sampledSeconds="44.79" CO_abs="912.374337" CO2_abs="99225.706917" HC_abs="6.446616" PMx_abs="1.445927" NOx_abs="37.815675" fuel_abs="42.652909" electricity_abs="0"
            CO_normed="2329.466393" CO2_normed="253342.230427" HC_normed="16.459446" PMx_normed="3.691729" NOx_normed="96.550659" fuel_normed="108.901044" electricity_normed="0"
            traveltime="0.02" CO_perVeh="0.488292" CO2_perVeh="53.104473" HC_perVeh="0.003450" PMx_perVeh="0.000774" NOx_perVeh="0.020239" fuel_perVeh="0.022827" electricity_perVeh="0"/>
        <edge id=":1110673663_0" sampledSeconds="108.41" CO_abs="1442.589046" CO2_abs="182553.733887" HC_abs="10.734456" PMx_abs="2.443941" NOx_abs="67.812967" fuel_abs="78.472244" electricity_abs="0"
            CO_normed="67.457987" CO2_normed="8536.531863" HC_normed="0.501962" PMx_normed="0.114283" NOx_normed="3.171053" fuel_normed="3.669499" electricity_normed="0"
            traveltime="1.27" CO_perVeh="16.943889" CO2_perVeh="2144.179725" HC_perVeh="0.126081" PMx_perVeh="0.028705" NOx_perVeh="0.796495" fuel_perVeh="0.921694" electricity_perVeh="0"/>
        <edge id=":1110673663_1" sampledSeconds="153.77" CO_abs="2480.775430" CO2_abs="294046.468986" HC_abs="17.972221" PMx_abs="4.119299" NOx_abs="110.576408" fuel_abs="126.398152" electricity_abs="0"
            CO_normed="116.147214" CO2_normed="13766.936591" HC_normed="0.841440" PMx_normed="0.192861" NOx_normed="5.177067" fuel_normed="5.917824" electricity_normed="0"
            traveltime="1.25" CO_perVeh="20.113194" CO2_perVeh="2384.018208" HC_perVeh="0.145712" PMx_perVeh="0.033398" NOx_perVeh="0.896512" fuel_perVeh="1.024789" electricity_perVeh="0"/>
        <edge id=":1110673666_0" sampledSeconds="192.17" CO_abs="4101.090570" CO2_abs="326446.692160" HC_abs="26.130363" PMx_abs="4.456170" NOx_abs="124.727344" fuel_abs="140.326714" electricity_abs="0"