<?xml version="1.0" encoding="UTF-8"?>

<!-- generated on Tue Nov 10 06:11:13 2020 by Eclipse SUMO sumo Version 1.7.0
<configuration xmlns:xsi="http://www.w3.org/2001/XMLSchema-instance" xsi:noNamespaceSchemaLocation="http://sumo.dlr.de/xsd/sumoConfiguration.xsd">

    <input>
        <net-file value="../dataSets/Porto/8AM9AM_Routing_SaoBento/Porto.net.xml"/>
        <route-files value="../results/Porto/8AM9AM_Routing_SaoBento/cost_co-length/solution1/Porto.rou.xml"/>
        <additional-files value="moreOutputInfo.xml"/>
    </input>

    <output>
        <emission-output.precision value="6"/>
        <tripinfo-output value="../results/Porto/8AM9AM_Routing_SaoBento/cost_co-length/solution1/Porto-tripinfo"/>
    </output>

    <processing>
        <collision.action value="warn"/>
        <time-to-teleport value="-1"/>
    </processing>

    <emissions>
        <device.emissions.probability value="1"/>
    </emissions>

    <gui_only>
        <quit-on-end value="true"/>
        <start value="true"/>
    </gui_only>

</configuration>
-->

<meandata xmlns:xsi="http://www.w3.org/2001/XMLSchema-instance" xsi:noNamespaceSchemaLocation="http://sumo.dlr.de/xsd/meandata_file.xsd">
    <interval begin="0.00" end="9708.00" id="emissions-detector">
        <edge id=":1092997347_0" sampledSeconds="603.41" CO_abs="73236.940081" CO2_abs="3090432.930944" HC_abs="406.535341" PMx_abs="62.388490" NOx_abs="1336.442441" fuel_abs="1328.452671" electricity_abs="0"
            CO_normed="61723.457760" CO2_normed="2604590.064286" HC_normed="342.624458" PMx_normed="52.580479" NOx_normed="1126.342096" fuel_normed="1119.608386" electricity_normed="0"
            traveltime="0.07" CO_perVeh="8.394392" CO2_perVeh="354.224314" HC_perVeh="0.046597" PMx_perVeh="0.007151" NOx_perVeh="0.153183" fuel_perVeh="0.152267" electricity_perVeh="0"/>
        <edge id=":1103427051_0" sampledSeconds="19.10" CO_abs="1613.995245" CO2_abs="92021.798778" HC_abs="9.534276" PMx_abs="1.802431" NOx_abs="39.233153" fuel_abs="39.556087" electricity_abs="0"
            CO_normed="2063.844566" CO2_normed="117669.918731" HC_normed="12.191649" PMx_normed="2.304801" NOx_normed="50.168134" fuel_normed="50.581075" electricity_normed="0"
            traveltime="0.03" CO_perVeh="2.509967" CO2_perVeh="143.105543" HC_perVeh="0.014827" PMx_perVeh="0.002803" NOx_perVeh="0.061013" fuel_perVeh="0.061515" electricity_perVeh="0"/>
        <edge id=":1105984386_0" sampledSeconds="10.41" CO_abs="225.134756" CO2_abs="17293.666508" HC_abs="1.412122" PMx_abs="0.197175" NOx_abs="6.374167" fuel_abs="7.433938" electricity_abs="0"
            CO_normed="8.597972" CO2_normed="660.450971" HC_normed="0.053929" PMx_normed="0.007530" NOx_normed="0.243432" fuel_normed="0.283905" electricity_normed="0"
            traveltime="1.00" CO_perVeh="21.597100" CO2_perVeh="1658.975517" HC_perVeh="0.135464" PMx_perVeh="0.018915" NOx_perVeh="0.611472" fuel_perVeh="0.713135" electricity_perVeh="0"/>
        <edge id=":1105984390_0" sampledSeconds="10.72" CO_abs="27.135438" CO2_abs="2463.300539" HC_abs="0.178970" PMx_abs="0.028340" NOx_abs="0.903693" fuel_abs="1.058882" electricity_abs="0"
            CO_normed="0.801161" CO2_normed="72.727808" HC_normed="0.005284" PMx_normed="0.000837" NOx_normed="0.026681" fuel_normed="0.031263" electricity_normed="0"
            traveltime="1.11" CO_perVeh="2.812752" CO2_perVeh="255.335931" HC_perVeh="0.018551" PMx_perVeh="0.002938" NOx_perVeh="0.093673" fuel_perVeh="0.109760" electricity_perVeh="0"/>
        <edge id=":1105984390_1" sampledSeconds="2400.87" CO_abs="64405.267954" CO2_abs="7566697.903796" HC_abs="474.520253" PMx_abs="137.204515" NOx_abs="2885.079881" fuel_abs="3252.573567" electricity_abs="0"
            CO_normed="1818.986176" CO2_normed="213704.861732" HC_normed="13.401789" PMx_normed="3.875042" NOx_normed="81.482782" fuel_normed="91.861839" electricity_normed="0"
            traveltime="0.65" CO_perVeh="17.398433" CO2_perVeh="2044.067040" HC_perVeh="0.128187" PMx_perVeh="0.037064" NOx_perVeh="0.779375" fuel_perVeh="0.878650" electricity_perVeh="0"/>
        <edge id=":1105984395_0" sampledSeconds="4.14" CO_abs="112.823746" CO2_abs="7640.009749" HC_abs="0.687205" PMx_abs="0.103217" NOx_abs="2.932914" fuel_abs="3.284156" electricity_abs="0"
            CO_normed="45.476331" CO2_normed="3079.490145" HC_normed="0.276994" PMx_normed="0.041604" NOx_normed="1.182182" fuel_normed="1.323758" electricity_normed="0"
            traveltime="0.10" CO_perVeh="2.615214" CO2_perVeh="177.092693" HC_perVeh="0.015929" PMx_perVeh="0.002393" NOx_perVeh="0.067984" fuel_perVeh="0.076126" electricity_perVeh="0"/>
        <edge id=":1105984398_0" sampledSeconds="10.80" CO_abs="557.205022" CO2_abs="39380.917818" HC_abs="3.453147" PMx_abs="0.638853" NOx_abs="15.778826" fuel_abs="16.928213" electricity_abs="0"
            CO_normed="17.090763" CO2_normed="1207.903573" HC_normed="0.105916" PMx_normed="0.019595" NOx_normed="0.483973" fuel_normed="0.519227" electricity_normed="0"
            traveltime="1.16" CO_perVeh="59.631958" CO2_perVeh="4214.537102" HC_perVeh="0.369555" PMx_perVeh="0.068370" NOx_perVeh="1.688646" fuel_perVeh="1.811654" electricity_perVeh="0"/>
        <edge id=":1105984398_1" sampledSeconds="642.35" CO_abs="11639.231238" CO2_abs="1360214.566258" HC_abs="84.109534" PMx_abs="19.356787" NOx_abs="513.715157" fuel_abs="584.698450" electricity_abs="0"
            CO_normed="345.568853" CO2_normed="40384.779505" HC_normed="2.497213" PMx_normed="0.574703" NOx_normed="15.252206" fuel_normed="17.359701" electricity_normed="0"
            traveltime="0.95" CO_perVeh="17.236993" CO2_perVeh="2014.394955" HC_perVeh="0.124561" PMx_perVeh="0.028666" NOx_perVeh="0.760781" fuel_perVeh="0.865903" electricity_perVeh="0"/>
        <edge id=":1106006327_0" sampledSeconds="66.28" CO_abs="8991.099706" CO2_abs="296074.010920" HC_abs="47.914887" PMx_abs="6.184798" NOx_abs="129.661802" fuel_abs="127.271638" electricity_abs="0"
            CO_normed="376.315256" CO2_normed="12391.939897" HC_normed="2.005439" PMx_normed="0.258860" NOx_normed="5.426891" fuel_normed="5.326852" electricity_normed="0"
            traveltime="2.05" CO_perVeh="278.720630" CO2_perVeh="9178.180388" HC_perVeh="1.485343" PMx_perVeh="0.191726" NOx_perVeh="4.019466" fuel_perVeh="3.945372" electricity_perVeh="0"/>
        <edge id=":1106006327_1" sampledSeconds="683.15" CO_abs="92337.050267" CO2_abs="3083179.330475" HC_abs="493.101942" PMx_abs="64.290182" NOx_abs="1349.176557" fuel_abs="1325.347727" electricity_abs="0"
            CO_normed="3370.194938" CO2_normed="112532.459528" HC_normed="17.997647" PMx_normed="2.346517" NOx_normed="49.243375" fuel_normed="48.373651" electricity_normed="0"
            traveltime="2.29" CO_perVeh="309.953128" CO2_perVeh="10349.486739" HC_perVeh="1.655224" PMx_perVeh="0.215807" NOx_perVeh="4.528859" fuel_perVeh="4.448872" electricity_perVeh="0"/>
        <edge id=":1106006327_2" sampledSeconds="0.00" CO_abs="0" CO2_abs="0" HC_abs="0" PMx_abs="0" NOx_abs="0" fuel_abs="0" electricity_abs="0"
            CO_normed="0" CO2_normed="0" HC_normed="0" PMx_normed="0" NOx_normed="0" fuel_normed="0" electricity_normed="0"/>
        <edge id=":1106006327_3" sampledSeconds="0.00" CO_abs="0" CO2_abs="0" HC_abs="0" PMx_abs="0" NOx_abs="0" fuel_abs="0" electricity_abs="0"
            CO_normed="0" CO2_normed="0" HC_normed="0" PMx_normed="0" NOx_normed="0" fuel_normed="0" electricity_normed="0"/>
        <edge id=":1107381198_0" sampledSeconds="0.00" CO_abs="0" CO2_abs="0" HC_abs="0" PMx_abs="0" NOx_abs="0" fuel_abs="0" electricity_abs="0"
            CO_normed="0" CO2_normed="0" HC_normed="0" PMx_normed="0" NOx_normed="0" fuel_normed="0" electricity_normed="0"/>
        <edge id=":1107381198_1" sampledSeconds="103.73" CO_abs="4848.406905" CO2_abs="189498.228308" HC_abs="26.428009" PMx_abs="3.228127" NOx_abs="78.241433" fuel_abs="81.458860" electricity_abs="0"
            CO_normed="196.066077" CO2_normed="7663.171611" HC_normed="1.068730" PMx_normed="0.130543" NOx_normed="3.164027" fuel_normed="3.294138" electricity_normed="0"
            traveltime="1.55" CO_perVeh="72.589948" CO2_perVeh="2837.151831" HC_perVeh="0.395678" PMx_perVeh="0.048331" NOx_perVeh="1.171424" fuel_perVeh="1.219595" electricity_perVeh="0"/>
        <edge id=":1110338277_0" sampledSeconds="161.11" CO_abs="2442.377610" CO2_abs="299833.743175" HC_abs="17.994451" PMx_abs="4.088072" NOx_abs="112.047677" fuel_abs="128.885967" electricity_abs="0"
            CO_normed="3234.651611" CO2_normed="397095.722023" HC_normed="23.831606" PMx_normed="5.414186" NOx_normed="148.394416" fuel_normed="170.694818" electricity_normed="0"
            traveltime="0.02" CO_perVeh="0.331519" CO2_perVeh="40.698275" HC_perVeh="0.002442" PMx_perVeh="0.000555" NOx_perVeh="0.015209" fuel_perVeh="0.017494" electricity_perVeh="0"/>
        <edge id=":1110338293_0" sampledSeconds="6345.81" CO_abs="589141.493960" CO2_abs="10368574.946128" HC_abs="2925.119410" PMx_abs="246.832601" NOx_abs="4683.725465" fuel_abs="4457.273822" electricity_abs="0"
            CO_normed="728234.232337" CO2_normed="12816532.689899" HC_normed="3615.722385" PMx_normed="305.108283" NOx_normed="5789.524679" fuel_normed="5509.609174" electricity_normed="0"
            traveltime="0.42" CO_perVeh="39.392918" CO2_perVeh="693.294269" HC_perVeh="0.195588" PMx_perVeh="0.016504" NOx_perVeh="0.313177" fuel_perVeh="0.298035" electricity_perVeh="0"/>
        <edge id=":1110338295_0" sampledSeconds="0.00" CO_abs="0" CO2_abs="0" HC_abs="0" PMx_abs="0" NOx_abs="0" fuel_abs="0" electricity_abs="0"
            CO_normed="0" CO2_normed="0" HC_normed="0" PMx_normed="0" NOx_normed="0" fuel_normed="0" electricity_normed="0"/>
        <edge id=":1110673403_0" sampledSeconds="200.99" CO_abs="3105.085641" CO2_abs="377631.791144" HC_abs="22.801731" PMx_abs="5.274143" NOx_abs="141.791257" fuel_abs="162.327933" electricity_abs="0"
            CO_normed="3838.177553" CO2_normed="466788.369771" HC_normed="28.185082" PMx_normed="6.519336" NOx_normed="175.267313" fuel_normed="200.652575" electricity_normed="0"
            traveltime="0.02" CO_perVeh="0.358874" CO2_perVeh="43.645245" HC_perVeh="0.002635" PMx_perVeh="0.000610" NOx_perVeh="0.016388" fuel_perVeh="0.018761" electricity_perVeh="0"/>
        <edge id=":1110673412_0" sampledSeconds="962.52" CO_abs="170335.463226" CO2_abs="11626699.730016" HC_abs="1060.158196" PMx_abs="255.477504" NOx_abs="4995.999019" fuel_abs="4997.745592" electricity_abs="0"
            CO_normed="217811.001099" CO2_normed="14867268.739630" HC_normed="1355.643233" PMx_normed="326.683650" NOx_normed="6388.473235" fuel_normed="6390.706609" electricity_normed="0"
            traveltime="0.02" CO_perVeh="2.750447" CO2_perVeh="187.739071" HC_perVeh="0.017119" PMx_perVeh="0.004125" NOx_perVeh="0.080672" fuel_perVeh="0.080700" electricity_perVeh="0"/>
        <edge id=":1110673414_0" sampledSeconds="0.00" CO_abs="0" CO2_abs="0" HC_abs="0" PMx_abs="0" NOx_abs="0" fuel_abs="0" electricity_abs="0"
            CO_normed="0" CO2_normed="0" HC_normed="0" PMx_normed="0" NOx_normed="0" fuel_normed="0" electricity_normed="0"/>
        <edge id=":1110673414_1" sampledSeconds="236.85" CO_abs="15940.435173" CO2_abs="616077.456931" HC_abs="86.853177" PMx_abs="11.163676" NOx_abs="258.692602" fuel_abs="264.829931" electricity_abs="0"
            CO_normed="654.613800" CO2_normed="25299.987143" HC_normed="3.566734" PMx_normed="0.458450" NOx_normed="10.623533" fuel_normed="10.875571" electricity_normed="0"
            traveltime="1.54" CO_perVeh="103.423048" CO2_perVeh="3997.168688" HC_perVeh="0.563512" PMx_perVeh="0.072431" NOx_perVeh="1.678422" fuel_perVeh="1.718242" electricity_perVeh="0"/>
        <edge id=":1110673417_0" sampledSeconds="29.19" CO_abs="450.349294" CO2_abs="50740.051477" HC_abs="3.213092" PMx_abs="0.693488" NOx_abs="19.042427" fuel_abs="21.811045" electricity_abs="0"
            CO_normed="596.436466" CO2_normed="67199.432471" HC_normed="4.255376" PMx_normed="0.918447" NOx_normed="25.219530" fuel_normed="28.886250" electricity_normed="0"
            traveltime="0.02" CO_perVeh="0.343413" CO2_perVeh="38.691725" HC_perVeh="0.002450" PMx_perVeh="0.000529" NOx_perVeh="0.014521" fuel_perVeh="0.016632" electricity_perVeh="0"/>
        <edge id=":1110673446_0" sampledSeconds="1327.98" CO_abs="13859.996008" CO2_abs="1106632.795771" HC_abs="89.366586" PMx_abs="20.528174" NOx_abs="454.370422" fuel_abs="475.690343" electricity_abs="0"
            CO_normed="17132.257117" CO2_normed="1367902.096132" HC_normed="110.465496" PMx_normed="25.374752" NOx_normed="561.644526" fuel_normed="587.997951" electricity_normed="0"
            traveltime="0.02" CO_perVeh="0.237870" CO2_perVeh="18.992435" HC_perVeh="0.001534" PMx_perVeh="0.000352" NOx_perVeh="0.007798" fuel_perVeh="0.008164" electricity_perVeh="0"/>
        <edge id=":1110673451_0" sampledSeconds="36.67" CO_abs="294.953200" CO2_abs="22533.262107" HC_abs="1.856833" PMx_abs="0.306241" NOx_abs="8.618754" fuel_abs="9.686182" electricity_abs="0"
            CO_normed="405.099849" CO2_normed="30948.032010" HC_normed="2.550244" PMx_normed="0.420603" NOx_normed="11.837322" fuel_normed="13.303367" electricity_normed="0"
            traveltime="0.03" CO_perVeh="0.217318" CO2_perVeh="16.602237" HC_perVeh="0.001368" PMx_perVeh="0.000226" NOx_perVeh="0.006350" fuel_perVeh="0.007137" electricity_perVeh="0"/>
        <edge id=":1110673464_0" sampledSeconds="1037.83" CO_abs="4560.828606" CO2_abs="311403.905139" HC_abs="27.930755" PMx_abs="4.670891" NOx_abs="122.398816" fuel_abs="133.860246" electricity_abs="0"
            CO_normed="119.779305" CO2_normed="8178.282174" HC_normed="0.733535" PMx_normed="0.122670" NOx_normed="3.214513" fuel_normed="3.515521" electricity_normed="0"
            traveltime="1.23" CO_perVeh="5.408504" CO2_perVeh="369.281449" HC_perVeh="0.033122" PMx_perVeh="0.005539" NOx_perVeh="0.145148" fuel_perVeh="0.158740" electricity_perVeh="0"/>
        <edge id=":1110673464_1" sampledSeconds="2607.40" CO_abs="62137.776782" CO2_abs="7681564.724088" HC_abs="465.824584" PMx_abs="136.571299" NOx_abs="2906.277887" fuel_abs="3301.951255" electricity_abs="0"
            CO_normed="1599.058907" CO2_normed="197678.049187" HC_normed="11.987570" PMx_normed="3.514538" NOx_normed="74.790406" fuel_normed="84.972698" electricity_normed="0"
            traveltime="0.72" CO_perVeh="17.130707" CO2_perVeh="2117.723580" HC_perVeh="0.128423" PMx_perVeh="0.037651" NOx_perVeh="0.801229" fuel_perVeh="0.910312" electricity_perVeh="0"/>
        <edge id=":1110673479_0" sampledSeconds="134.00" CO_abs="6562.352090" CO2_abs="449628.658502" HC_abs="40.454121" PMx_abs="7.929143" NOx_abs="184.344826" fuel_abs="193.275785" electricity_abs="0"
            CO_normed="8111.683672" CO2_normed="555783.261436" HC_normed="50.005094" PMx_normed="9.801165" NOx_normed="227.867522" fuel_normed="238.907027" electricity_normed="0"
            traveltime="0.03" CO_perVeh="1.387341" CO2_perVeh="95.055564" HC_perVeh="0.008552" PMx_perVeh="0.001676" NOx_perVeh="0.038972" fuel_perVeh="0.040860" electricity_perVeh="0"/>
        <edge id=":1110673511_0" sampledSeconds="63.62" CO_abs="1184.421156" CO2_abs="121822.281340" HC_abs="8.197632" PMx_abs="1.747869" NOx_abs="46.450733" fuel_abs="52.366291" electricity_abs="0"
            CO_normed="1464.055817" CO2_normed="150583.784103" HC_normed="10.133043" PMx_normed="2.160530" NOx_normed="57.417470" fuel_normed="64.729655" electricity_normed="0"
            traveltime="0.02" CO_perVeh="0.453946" CO2_perVeh="46.690111" HC_perVeh="0.003142" PMx_perVeh="0.000670" NOx_perVeh="0.017803" fuel_perVeh="0.020070" electricity_perVeh="0"/>
        <edge id=":1110673517_0" sampledSeconds="181.46" CO_abs="8758.687105" CO2_abs="620135.989304" HC_abs="54.456735" PMx_abs="10.816602" NOx_abs="253.054070" fuel_abs="266.569440" electricity_abs="0"
            CO_normed="10826.560080" CO2_normed="766546.340302" HC_normed="67.313640" PMx_normed="13.370336" NOx_normed="312.798603" fuel_normed="329.504870" electricity_normed="0"
            traveltime="0.03" CO_perVeh="1.341026" CO2_perVeh="94.947840" HC_perVeh="0.008338" PMx_perVeh="0.001656" NOx_perVeh="0.038745" fuel_perVeh="0.040814" electricity_perVeh="0"/>
        <edge id=":1110673534_0" sampledSeconds="736.30" CO_abs="4884.645129" CO2_abs="428338.539307" HC_abs="32.018451" PMx_abs="5.705026" NOx_abs="162.100505" fuel_abs="184.125907" electricity_abs="0"
            CO_normed="117.013183" CO2_normed="10260.982055" HC_normed="0.767012" PMx_normed="0.136666" NOx_normed="3.883168" fuel_normed="4.410793" electricity_normed="0"
            traveltime="1.45" CO_perVeh="9.633328" CO2_perVeh="844.754472" HC_perVeh="0.063146" PMx_perVeh="0.011251" NOx_perVeh="0.319689" fuel_perVeh="0.363127" electricity_perVeh="0"/>
        <edge id=":1110673534_1" sampledSeconds="199.76" CO_abs="3171.465402" CO2_abs="404168.264022" HC_abs="23.634626" PMx_abs="5.460617" NOx_abs="150.260232" fuel_abs="173.735014" electricity_abs="0"
            CO_normed="73.873665" CO2_normed="9414.383351" HC_normed="0.550527" PMx_normed="0.127195" NOx_normed="3.500046" fuel_normed="4.046849" electricity_normed="0"
            traveltime="1.22" CO_perVeh="19.386170" CO2_perVeh="2470.553430" HC_perVeh="0.144471" PMx_perVeh="0.033379" NOx_perVeh="0.918494" fuel_perVeh="1.061987" electricity_perVeh="0"/>
        <edge id=":1110673549_0" sampledSeconds="651.83" CO_abs="1466.363483" CO2_abs="138549.303640" HC_abs="9.764320" PMx_abs="1.920333" NOx_abs="52.203061" fuel_abs="59.556745" electricity_abs="0"
            CO_normed="34.028092" CO2_normed="3215.143086" HC_normed="0.226589" PMx_normed="0.044563" NOx_normed="1.211412" fuel_normed="1.382060" electricity_normed="0"
            traveltime="1.30" CO_perVeh="2.913315" CO2_perVeh="275.264430" HC_perVeh="0.019399" PMx_perVeh="0.003815" NOx_perVeh="0.103715" fuel_perVeh="0.118325" electricity_perVeh="0"/>
        <edge id=":1110673549_1" sampledSeconds="3195.07" CO_abs="72790.919352" CO2_abs="9373150.358665" HC_abs="555.788844" PMx_abs="165.877779" NOx_abs="3514.911484" fuel_abs="4029.087582" electricity_abs="0"
            CO_normed="1633.954259" CO2_normed="210401.229779" HC_normed="12.475918" PMx_normed="3.723496" NOx_normed="78.900014" fuel_normed="90.441842" electricity_normed="0"
            traveltime="0.81" CO_perVeh="18.357629" CO2_perVeh="2363.877452" HC_perVeh="0.140168" PMx_perVeh="0.041834" NOx_perVeh="0.886449" fuel_perVeh="1.016123" electricity_perVeh="0"/>
        <edge id=":1110673556_0" sampledSeconds="468.34" CO_abs="57904.737586" CO2_abs="2775945.229799" HC_abs="329.587488" PMx_abs="56.075650" NOx_abs="1197.159693" fuel_abs="1193.260641" electricity_abs="0"
            CO_normed="996.413393" CO2_normed="47767.922298" HC_normed="5.671477" PMx_normed="0.964939" NOx_normed="20.600490" fuel_normed="20.533396" electricity_normed="0"
            traveltime="2.76" CO_perVeh="341.342860" CO2_perVeh="16363.930219" HC_perVeh="1.942887" PMx_perVeh="0.330561" NOx_perVeh="7.057141" fuel_perVeh="7.034157" electricity_perVeh="0"/>
        <edge id=":1110673556_2" sampledSeconds="174.89" CO_abs="17901.664152" CO2_abs="773036.111275" HC_abs="99.710939" PMx_abs="15.129297" NOx_abs="331.083823" fuel_abs="332.297480" electricity_abs="0"
            CO_normed="322.098088" CO2_normed="13908.955677" HC_normed="1.794062" PMx_normed="0.272216" NOx_normed="5.957070" fuel_normed="5.978907" electricity_normed="0"
            traveltime="3.02" CO_perVeh="309.545354" CO2_perVeh="13366.898998" HC_perVeh="1.724145" PMx_perVeh="0.261607" NOx_perVeh="5.724912" fuel_perVeh="5.745898" electricity_perVeh="0"/>
        <edge id=":1110673556_3" sampledSeconds="234.70" CO_abs="25267.054488" CO2_abs="867955.618874" HC_abs="135.350888" PMx_abs="17.208978" NOx_abs="374.317040" fuel_abs="373.103564" electricity_abs="0"
            CO_normed="1034.187186" CO2_normed="35525.651768" HC_normed="5.539947" PMx_normed="0.704368" NOx_normed="15.320895" fuel_normed="15.271227" electricity_normed="0"
            traveltime="1.86" CO_perVeh="199.715165" CO2_perVeh="6860.471203" HC_perVeh="1.069837" PMx_perVeh="0.136023" NOx_perVeh="2.958667" fuel_perVeh="2.949075" electricity_perVeh="0"/>
        <edge id=":1110673556_4" sampledSeconds="53.91" CO_abs="6094.110681" CO2_abs="233888.481592" HC_abs="33.247650" PMx_abs="4.659714" NOx_abs="100.853819" fuel_abs="100.539795" electricity_abs="0"
            CO_normed="152.384895" CO2_normed="5848.445087" HC_normed="0.831367" PMx_normed="0.116517" NOx_normed="2.521877" fuel_normed="2.514025" electricity_normed="0"
            traveltime="2.55" CO_perVeh="288.482065" CO2_perVeh="11071.776628" HC_perVeh="1.573872" PMx_perVeh="0.220581" NOx_perVeh="4.774202" fuel_perVeh="4.759337" electricity_perVeh="0"/>
        <edge id=":1110673556_5" sampledSeconds="22.48" CO_abs="1479.307568" CO2_abs="66941.228427" HC_abs="8.298556" PMx_abs="1.231611" NOx_abs="28.173074" fuel_abs="28.775430" electricity_abs="0"
            CO_normed="51.557231" CO2_normed="2333.053957" HC_normed="0.289224" PMx_normed="0.042924" NOx_normed="0.981896" fuel_normed="1.002889" electricity_normed="0"
            traveltime="1.55" CO_perVeh="102.273116" CO2_perVeh="4628.035546" HC_perVeh="0.573727" PMx_perVeh="0.085148" NOx_perVeh="1.947768" fuel_perVeh="1.989412" electricity_perVeh="0"/>
        <edge id=":1110673556_6" sampledSeconds="217.60" CO_abs="26585.736195" CO2_abs="1324665.093526" HC_abs="152.554541" PMx_abs="26.752136" NOx_abs="570.578860" fuel_abs="569.416297" electricity_abs="0"
            CO_normed="469.017138" CO2_normed="23369.322057" HC_normed="2.691319" PMx_normed="0.471953" NOx_normed="10.065972" fuel_normed="10.045462" electricity_normed="0"
            traveltime="2.54" CO_perVeh="309.791105" CO2_perVeh="15435.700574" HC_perVeh="1.777646" PMx_perVeh="0.311730" NOx_perVeh="6.648688" fuel_perVeh="6.635141" electricity_perVeh="0"/>
        <edge id=":1110673561_0" sampledSeconds="162.09" CO_abs="16548.544117" CO2_abs="1174144.365707" HC_abs="103.624305" PMx_abs="23.849505" NOx_abs="497.704441" fuel_abs="504.708651" electricity_abs="0"
            CO_normed="366.806129" CO2_normed="26025.452579" HC_normed="2.296881" PMx_normed="0.528635" NOx_normed="11.031849" fuel_normed="11.187101" electricity_normed="0"
            traveltime="1.20" CO_perVeh="122.042439" CO2_perVeh="8659.096628" HC_perVeh="0.764210" PMx_perVeh="0.175886" NOx_perVeh="3.670478" fuel_perVeh="3.722133" electricity_perVeh="0"/>
        <edge id=":1110673561_1" sampledSeconds="5253.38" CO_abs="487680.533809" CO2_abs="33784492.917363" HC_abs="3037.983567" PMx_abs="706.273050" NOx_abs="14444.525663" fuel_abs="14522.321729" electricity_abs="0"
            CO_normed="10538.792903" CO2_normed="730084.039636" HC_normed="65.650928" PMx_normed="15.262585" NOx_normed="312.146690" fuel_normed="313.827866" electricity_normed="0"
            traveltime="1.19" CO_perVeh="110.728175" CO2_perVeh="7670.790575" HC_perVeh="0.689776" PMx_perVeh="0.160360" NOx_perVeh="3.279639" fuel_perVeh="3.297302" electricity_perVeh="0"/>
        <edge id=":1110673562_0" sampledSeconds="302.44" CO_abs="6669.561530" CO2_abs="500732.496303" HC_abs="41.796430" PMx_abs="6.896137" NOx_abs="192.240984" fuel_abs="215.245567" electricity_abs="0"
            CO_normed="9160.227345" CO2_normed="687724.895349" HC_normed="57.404794" PMx_normed="9.471415" NOx_normed="264.031018" fuel_normed="295.626379" electricity_normed="0"
            traveltime="0.03" CO_perVeh="0.597869" CO2_perVeh="44.886379" HC_perVeh="0.003747" PMx_perVeh="0.000618" NOx_perVeh="0.017233" fuel_perVeh="0.019295" electricity_perVeh="0"/>
        <edge id=":1110673564_0" sampledSeconds="27.62" CO_abs="419.161473" CO2_abs="48398.259895" HC_abs="3.026211" PMx_abs="0.666835" NOx_abs="18.187060" fuel_abs="20.804391" electricity_abs="0"
            CO_normed="1554.368875" CO2_normed="179474.387743" HC_normed="11.222045" PMx_normed="2.472813" NOx_normed="67.442743" fuel_normed="77.148546" electricity_normed="0"
            traveltime="7.800497e-03" CO_perVeh="0.118390" CO2_perVeh="13.669894" HC_perVeh="0.000855" PMx_perVeh="0.000188" NOx_perVeh="0.005137" fuel_perVeh="0.005876" electricity_perVeh="0"/>
        <edge id=":1110673588_0" sampledSeconds="63.36" CO_abs="971.550144" CO2_abs="108692.845449" HC_abs="6.921369" PMx_abs="1.481394" NOx_abs="40.829398" fuel_abs="46.722556" electricity_abs="0"
            CO_normed="1441.112699" CO2_normed="161225.481506" HC_normed="10.266555" PMx_normed="2.197371" NOx_normed="60.562766" fuel_normed="69.304162" electricity_normed="0"
            traveltime="0.02" CO_perVeh="0.313403" CO2_perVeh="35.062208" HC_perVeh="0.002233" PMx_perVeh="0.000478" NOx_perVeh="0.013171" fuel_perVeh="0.015072" electricity_perVeh="0"/>
        <edge id=":1110673601_0" sampledSeconds="29.06" CO_abs="425.882546" CO2_abs="53033.673531" HC_abs="3.141310" PMx_abs="0.679495" NOx_abs="19.528294" fuel_abs="22.797016" electricity_abs="0"
            CO_normed="564.033039" CO2_normed="70237.074251" HC_normed="4.160307" PMx_normed="0.899914" NOx_normed="25.863006" fuel_normed="30.192057" electricity_normed="0"
            traveltime="0.02" CO_perVeh="0.324756" CO2_perVeh="40.440722" HC_perVeh="0.002395" PMx_perVeh="0.000518" NOx_perVeh="0.014891" fuel_perVeh="0.017384" electricity_perVeh="0"/>
        <edge id=":1110673617_0" sampledSeconds="852.92" CO_abs="31357.678923" CO2_abs="3206690.174875" HC_abs="219.776656" PMx_abs="60.338310" NOx_abs="1255.206557" fuel_abs="1378.406080" electricity_abs="0"
            CO_normed="38761.036987" CO2_normed="3963770.302689" HC_normed="271.664594" PMx_normed="74.583819" NOx_normed="1551.553222" fuel_normed="1703.839407" electricity_normed="0"
            traveltime="0.02" CO_perVeh="0.555680" CO2_perVeh="56.824779" HC_perVeh="0.003895" PMx_perVeh="0.001069" NOx_perVeh="0.022243" fuel_perVeh="0.024426" electricity_perVeh="0"/>
        <edge id=":1110673621_0" sampledSeconds="42.25" CO_abs="1125.736180" CO2_abs="107688.775889" HC_abs="7.622863" PMx_abs="1.655876" NOx_abs="41.838559" fuel_abs="46.290781" electricity_abs="0"
            CO_normed="1669.818808" CO2_normed="159736.132345" HC_normed="11.307090" PMx_normed="2.456181" NOx_normed="62.059667" fuel_normed="68.663705" electricity_normed="0"
            traveltime="0.02" CO_perVeh="0.531008" CO2_perVeh="50.796592" HC_perVeh="0.003596" PMx_perVeh="0.000781" NOx_perVeh="0.019735" fuel_perVeh="0.021835" electricity_perVeh="0"/>
        <edge id=":1110673630_0" sampledSeconds="285.09" CO_abs="1041.507893" CO2_abs="87349.492129" HC_abs="6.741056" PMx_abs="1.196810" NOx_abs="33.341902" fuel_abs="37.548095" electricity_abs="0"
            CO_normed="27.547823" CO2_normed="2310.388976" HC_normed="0.178301" PMx_normed="0.031656" NOx_normed="0.881891" fuel_normed="0.993145" electricity_normed="0"
            traveltime="1.28" CO_perVeh="4.686388" CO2_perVeh="393.039354" HC_perVeh="0.030332" PMx_perVeh="0.005385" NOx_perVeh="0.150026" fuel_perVeh="0.168952" electricity_perVeh="0"/>
        <edge id=":1110673630_1" sampledSeconds="338.57" CO_abs="956.383243" CO2_abs="75267.071773" HC_abs="6.067595" PMx_abs="0.998675" NOx_abs="28.606137" fuel_abs="32.354431" electricity_abs="0"
            CO_normed="30.839466" CO2_normed="2427.056649" HC_normed="0.195655" PMx_normed="0.032203" NOx_normed="0.922431" fuel_normed="1.043299" electricity_normed="0"
            traveltime="1.08" CO_perVeh="3.048762" CO2_perVeh="239.936611" HC_perVeh="0.019342" PMx_perVeh="0.003184" NOx_perVeh="0.091191" fuel_perVeh="0.103140" electricity_perVeh="0"/>
        <edge id=":1110673650_0" sampledSeconds="200.74" CO_abs="3090.826464" CO2_abs="381153.199983" HC_abs="22.761876" PMx_abs="5.196996" NOx_abs="142.302562" fuel_abs="163.841787" electricity_abs="0"
            CO_normed="3820.551871" CO2_normed="471141.161907" HC_normed="28.135817" PMx_normed="6.423976" NOx_normed="175.899335" fuel_normed="202.523841" electricity_normed="0"
            traveltime="0.02" CO_perVeh="0.357226" CO2_perVeh="44.052196" HC_perVeh="0.002631" PMx_perVeh="0.000601" NOx_perVeh="0.016447" fuel_perVeh="0.018936" electricity_perVeh="0"/>
        <edge id=":1110673655_0" sampledSeconds="20.79" CO_abs="321.258760" CO2_abs="38404.428889" HC_abs="2.346119" PMx_abs="0.516637" NOx_abs="14.328487" fuel_abs="16.508472" electricity_abs="0"
            CO_normed="397.106008" CO2_normed="47471.481939" HC_normed="2.900024" PMx_normed="0.638612" NOx_normed="17.711356" fuel_normed="20.406022" electricity_normed="0"
            traveltime="0.02" CO_perVeh="0.367013" CO2_perVeh="43.874062" HC_perVeh="0.002680" PMx_perVeh="0.000590" NOx_perVeh="0.016369" fuel_perVeh="0.018860" electricity_perVeh="0"/>
        <edge id=":1110673663_0" sampledSeconds="180.38" CO_abs="3398.951032" CO2_abs="366238.706850" HC_abs="23.910049" PMx_abs="5.216342" NOx_abs="138.973596" fuel_abs="157.430628" electricity_abs="0"
            CO_normed="76.949135" CO2_normed="8291.308558" HC_normed="0.541302" PMx_normed="0.118093" NOx_normed="3.146235" fuel_normed="3.564085" electricity_normed="0"
            traveltime="1.32" CO_perVeh="24.857271" CO2_perVeh="2678.383599" HC_perVeh="0.174859" PMx_perVeh="0.038148" NOx_perVeh="1.016344" fuel_perVeh="1.151325" electricity_perVeh="0"/>
        <edge id=":1110673663_1" sampledSeconds="170.91" CO_abs="2303.390145" CO2_abs="303757.102840" HC_abs="17.402031" PMx_abs="3.987193" NOx_abs="112.224744" fuel_abs="130.572569" electricity_abs="0"
            CO_normed="52.210390" CO2_normed="6885.189150" HC_normed="0.394448" PMx_normed="0.090377" NOx_normed="2.543771" fuel_normed="2.959657" electricity_normed="0"
            traveltime="1.28" CO_perVeh="17.213333" CO2_perVeh="2269.989873" HC_perVeh="0.130046" PMx_perVeh="0.029796" NOx_perVeh="0.838660" fuel_perVeh="0.975774" electricity_perVeh="0"/>