<?xml version="1.0" encoding="UTF-8"?>

<!-- generated on Fri Oct  2 15:35:04 2020 by Eclipse SUMO Version 1.1.0
<configuration xmlns:xsi="http://www.w3.org/2001/XMLSchema-instance" xsi:noNamespaceSchemaLocation="http://sumo.dlr.de/xsd/sumoConfiguration.xsd">

    <input>
        <net-file value="../dataSets/Angeja_Estarreja/angeja_estarreja.net.xml"/>
        <route-files value="../results/angeja_estarreja/cost_hc-length/solution2/angeja_estarreja.rou.xml"/>
        <additional-files value="moreOutputInfo.xml"/>
    </input>

    <output>
        <emission-output.precision value="6"/>
        <tripinfo-output value="../results/angeja_estarreja/cost_hc-length/solution2/angeja_estarreja-tripinfo"/>
    </output>

    <processing>
        <collision.action value="warn"/>
        <time-to-teleport value="-1"/>
    </processing>

    <emissions>
        <device.emissions.probability value="1"/>
    </emissions>

    <gui_only>
        <quit-on-end value="true"/>
        <start value="true"/>
    </gui_only>

</configuration>
-->

<meandata xmlns:xsi="http://www.w3.org/2001/XMLSchema-instance" xsi:noNamespaceSchemaLocation="http://sumo.dlr.de/xsd/meandata_file.xsd">
    <interval begin="0.00" end="19080.00" id="emissions-detector">
        <edge id=":10_0" sampledSeconds="421.64" CO_abs="42779.432229" CO2_abs="2355065.213010" HC_abs="250.665766" PMx_abs="46.139801" NOx_abs="1004.521139" fuel_abs="1012.339200" electricity_abs="0"
            CO_normed="461.497484" CO2_normed="25406.056431" HC_normed="2.704141" PMx_normed="0.497749" NOx_normed="10.836609" fuel_normed="10.920949" electricity_normed="0"
            traveltime="1.91" CO_perVeh="193.348494" CO2_perVeh="10644.094356" HC_perVeh="1.132924" PMx_perVeh="0.208536" NOx_perVeh="4.540094" fuel_perVeh="4.575429" electricity_perVeh="0"/>
        <edge id=":10_1" sampledSeconds="0.00" CO_abs="0" CO2_abs="0" HC_abs="0" PMx_abs="0" NOx_abs="0" fuel_abs="0" electricity_abs="0"
            CO_normed="0" CO2_normed="0" HC_normed="0" PMx_normed="0" NOx_normed="0" fuel_normed="0" electricity_normed="0"/>
        <edge id=":100_0" sampledSeconds="0.00" CO_abs="0" CO2_abs="0" HC_abs="0" PMx_abs="0" NOx_abs="0" fuel_abs="0" electricity_abs="0"
            CO_normed="0" CO2_normed="0" HC_normed="0" PMx_normed="0" NOx_normed="0" fuel_normed="0" electricity_normed="0"/>
        <edge id=":100_1" sampledSeconds="912.03" CO_abs="20939.788371" CO2_abs="2728592.185682" HC_abs="161.626818" PMx_abs="48.908480" NOx_abs="1013.788831" fuel_abs="1172.897035" electricity_abs="0"
            CO_normed="133.657086" CO2_normed="17416.397641" HC_normed="1.031652" PMx_normed="0.312179" NOx_normed="6.470937" fuel_normed="7.486513" electricity_normed="0"
            traveltime="1.37" CO_perVeh="31.484832" CO2_perVeh="4102.680722" HC_perVeh="0.243020" PMx_perVeh="0.073538" NOx_perVeh="1.524322" fuel_perVeh="1.763555" electricity_perVeh="0"/>
        <edge id=":101_0" sampledSeconds="438.34" CO_abs="11080.644040" CO2_abs="1356697.210726" HC_abs="83.447312" PMx_abs="24.749942" NOx_abs="509.081338" fuel_abs="583.181788" electricity_abs="0"
            CO_normed="255.898110" CO2_normed="31331.775495" HC_normed="1.927145" PMx_normed="0.571579" NOx_normed="11.756803" fuel_normed="13.468091" electricity_normed="0"
            traveltime="0.38" CO_perVeh="9.572237" CO2_perVeh="1172.010207" HC_perVeh="0.072088" PMx_perVeh="0.021381" NOx_perVeh="0.439780" fuel_perVeh="0.503793" electricity_perVeh="0"/>
        <edge id=":102_0" sampledSeconds="341.28" CO_abs="8224.164402" CO2_abs="1050990.704171" HC_abs="62.976269" PMx_abs="18.937804" NOx_abs="391.689663" fuel_abs="451.772779" electricity_abs="0"
            CO_normed="191.571498" CO2_normed="24481.497884" HC_normed="1.466952" PMx_normed="0.441132" NOx_normed="9.123915" fuel_normed="10.523475" electricity_normed="0"
            traveltime="0.38" CO_perVeh="9.047301" CO2_perVeh="1156.181841" HC_perVeh="0.069279" PMx_perVeh="0.020833" NOx_perVeh="0.430893" fuel_perVeh="0.496990" electricity_perVeh="0"/>
        <edge id=":103_0" sampledSeconds="434.54" CO_abs="9781.728856" CO2_abs="1252023.153947" HC_abs="74.956470" PMx_abs="22.553423" NOx_abs="466.457766" fuel_abs="538.187433" electricity_abs="0"
            CO_normed="229.268226" CO2_normed="29345.438977" HC_normed="1.756861" PMx_normed="0.528616" NOx_normed="10.933031" fuel_normed="12.614261" electricity_normed="0"
            traveltime="0.37" CO_perVeh="8.404085" CO2_perVeh="1075.690146" HC_perVeh="0.064400" PMx_perVeh="0.019377" NOx_perVeh="0.400763" fuel_perVeh="0.462390" electricity_perVeh="0"/>
        <edge id=":104_0" sampledSeconds="341.09" CO_abs="8647.097312" CO2_abs="1041721.991603" HC_abs="64.703811" PMx_abs="19.091667" NOx_abs="391.940150" fuel_abs="447.788348" electricity_abs="0"
            CO_normed="201.672163" CO2_normed="24295.589514" HC_normed="1.509056" PMx_normed="0.445266" NOx_normed="9.141035" fuel_normed="10.443556" electricity_normed="0"
            traveltime="0.38" CO_perVeh="9.508220" CO2_perVeh="1145.462058" HC_perVeh="0.071147" PMx_perVeh="0.020993" NOx_perVeh="0.430972" fuel_perVeh="0.492381" electricity_perVeh="0"/>
        <edge id=":105_0" sampledSeconds="168.50" CO_abs="4083.275182" CO2_abs="511028.922418" HC_abs="31.015687" PMx_abs="9.264517" NOx_abs="191.074947" fuel_abs="219.667894" electricity_abs="0"
            CO_normed="3501.951271" CO2_normed="438275.233635" HC_normed="26.600075" PMx_normed="7.945555" NOx_normed="163.872167" fuel_normed="188.394420" electricity_normed="0"
            traveltime="0.01" CO_perVeh="0.246924" CO2_perVeh="30.903004" HC_perVeh="0.001876" PMx_perVeh="0.000560" NOx_perVeh="0.011555" fuel_perVeh="0.013284" electricity_perVeh="0"/>
        <edge id=":106_0" sampledSeconds="134.52" CO_abs="3273.585628" CO2_abs="397191.710662" HC_abs="24.564014" PMx_abs="7.263865" NOx_abs="149.279183" fuel_abs="170.734450" electricity_abs="0"
            CO_normed="1992.444083" CO2_normed="241747.845808" HC_normed="14.950709" PMx_normed="4.421098" NOx_normed="90.857689" fuel_normed="103.916281" electricity_normed="0"
            traveltime="0.01" CO_perVeh="0.350012" CO2_perVeh="42.467749" HC_perVeh="0.002626" PMx_perVeh="0.000777" NOx_perVeh="0.015961" fuel_perVeh="0.018255" electricity_perVeh="0"/>
        <edge id=":107_0" sampledSeconds="438.18" CO_abs="11398.568944" CO2_abs="1388846.223975" HC_abs="85.635989" PMx_abs="25.362174" NOx_abs="521.593778" fuel_abs="597.001143" electricity_abs="0"
            CO_normed="263.240316" CO2_normed="32074.229786" HC_normed="1.977691" PMx_normed="0.585718" NOx_normed="12.045767" fuel_normed="13.787237" electricity_normed="0"
            traveltime="0.38" CO_perVeh="9.846888" CO2_perVeh="1199.783340" HC_perVeh="0.073978" PMx_perVeh="0.021910" NOx_perVeh="0.450589" fuel_perVeh="0.515732" electricity_perVeh="0"/>
        <edge id=":108_0" sampledSeconds="93.43" CO_abs="7935.305919" CO2_abs="580710.526595" HC_abs="50.098096" PMx_abs="11.634135" NOx_abs="244.697011" fuel_abs="249.619829" electricity_abs="0"
            CO_normed="124.457816" CO2_normed="9107.898910" HC_normed="0.785742" PMx_normed="0.182470" NOx_normed="3.837843" fuel_normed="3.915052" electricity_normed="0"
            traveltime="0.85" CO_perVeh="72.476567" CO2_perVeh="5303.879369" HC_perVeh="0.457567" PMx_perVeh="0.106260" NOx_perVeh="2.234923" fuel_perVeh="2.279885" electricity_perVeh="0"/>
        <edge id=":108_1" sampledSeconds="402.84" CO_abs="10106.847172" CO2_abs="1222152.157064" HC_abs="75.739220" PMx_abs="22.369961" NOx_abs="459.653927" fuel_abs="525.346985" electricity_abs="0"
            CO_normed="147.825759" CO2_normed="17875.561753" HC_normed="1.107784" PMx_normed="0.327190" NOx_normed="6.723035" fuel_normed="7.683882" electricity_normed="0"
            traveltime="0.60" CO_perVeh="15.013972" CO2_perVeh="1815.537302" HC_perVeh="0.112512" PMx_perVeh="0.033231" NOx_perVeh="0.682827" fuel_perVeh="0.780416" electricity_perVeh="0"/>
        <edge id=":109_0" sampledSeconds="307.56" CO_abs="100.882838" CO2_abs="17157.817970" HC_abs="0.851241" PMx_abs="0.218044" NOx_abs="6.202235" fuel_abs="7.375429" electricity_abs="0"
            CO_normed="1.516693" CO2_normed="257.954115" HC_normed="0.012798" PMx_normed="0.003278" NOx_normed="0.093246" fuel_normed="0.110884" electricity_normed="0"
            traveltime="0.85" CO_perVeh="0.280398" CO2_perVeh="47.689105" HC_perVeh="0.002366" PMx_perVeh="0.000606" NOx_perVeh="0.017239" fuel_perVeh="0.020500" electricity_perVeh="0"/>
        <edge id=":109_1" sampledSeconds="524.21" CO_abs="12215.739580" CO2_abs="1554181.291343" HC_abs="93.303407" PMx_abs="28.034092" NOx_abs="579.400103" fuel_abs="668.071360" electricity_abs="0"
            CO_normed="119.795038" CO2_normed="15241.255358" HC_normed="0.914990" PMx_normed="0.274920" NOx_normed="5.681953" fuel_normed="6.551518" electricity_normed="0"
            traveltime="0.89" CO_perVeh="20.800529" CO2_perVeh="2646.404851" HC_perVeh="0.158874" PMx_perVeh="0.047735" NOx_perVeh="0.986582" fuel_perVeh="1.137568" electricity_perVeh="0"/>
        <edge id=":11_0" sampledSeconds="301.24" CO_abs="18397.009001" CO2_abs="1316311.716502" HC_abs="114.897467" PMx_abs="23.869946" NOx_abs="542.361925" fuel_abs="565.823561" electricity_abs="0"
            CO_normed="190.199111" CO2_normed="13608.805547" HC_normed="1.187878" PMx_normed="0.246782" NOx_normed="5.607257" fuel_normed="5.849817" electricity_normed="0"
            traveltime="1.59" CO_perVeh="97.317511" CO2_perVeh="6963.098210" HC_perVeh="0.607791" PMx_perVeh="0.126269" NOx_perVeh="2.869016" fuel_perVeh="2.993125" electricity_perVeh="0"/>
        <edge id=":11_1" sampledSeconds="51.05" CO_abs="936.312542" CO2_abs="81790.766859" HC_abs="6.134795" PMx_abs="1.109744" NOx_abs="31.093905" fuel_abs="35.158608" electricity_abs="0"
            CO_normed="9.924873" CO2_normed="866.978661" HC_normed="0.065029" PMx_normed="0.011763" NOx_normed="0.329594" fuel_normed="0.372680" electricity_normed="0"
            traveltime="1.68" CO_perVeh="30.795202" CO2_perVeh="2690.088045" HC_perVeh="0.201773" PMx_perVeh="0.036499" NOx_perVeh="1.022675" fuel_perVeh="1.156362" electricity_perVeh="0"/>
        <edge id=":110_0" sampledSeconds="94.65" CO_abs="0" CO2_abs="0" HC_abs="0" PMx_abs="0" NOx_abs="0" fuel_abs="0" electricity_abs="0"
            CO_normed="0" CO2_normed="0" HC_normed="0" PMx_normed="0" NOx_normed="0" fuel_normed="0" electricity_normed="0"
            traveltime="0.93" CO_perVeh="0" CO2_perVeh="0" HC_perVeh="0" PMx_perVeh="0" NOx_perVeh="0" fuel_perVeh="0" electricity_perVeh="0"/>
        <edge id=":110_1" sampledSeconds="443.51" CO_abs="11411.148037" CO2_abs="1392435.063124" HC_abs="85.815918" PMx_abs="25.425213" NOx_abs="522.787746" fuel_abs="598.543830" electricity_abs="0"
            CO_normed="146.465769" CO2_normed="17872.353525" HC_normed="1.101475" PMx_normed="0.326341" NOx_normed="6.710149" fuel_normed="7.682503" electricity_normed="0"
            traveltime="0.68" CO_perVeh="17.529245" CO2_perVeh="2138.990303" HC_perVeh="0.131826" PMx_perVeh="0.039057" NOx_perVeh="0.803081" fuel_perVeh="0.919454" electricity_perVeh="0"/>
        <edge id=":111_0" sampledSeconds="340.73" CO_abs="7891.155439" CO2_abs="1017434.610603" HC_abs="60.666257" PMx_abs="18.296086" NOx_abs="378.576449" fuel_abs="437.348589" electricity_abs="0"
            CO_normed="182.239566" CO2_normed="23496.792467" HC_normed="1.401036" PMx_normed="0.422533" NOx_normed="8.742903" fuel_normed="10.100196" electricity_normed="0"
            traveltime="0.38" CO_perVeh="8.769814" CO2_perVeh="1130.723205" HC_perVeh="0.067421" PMx_perVeh="0.020333" NOx_perVeh="0.420730" fuel_perVeh="0.486046" electricity_perVeh="0"/>
        <edge id=":114_0" sampledSeconds="106.98" CO_abs="10931.683061" CO2_abs="776306.589830" HC_abs="68.489127" PMx_abs="15.894970" NOx_abs="329.668086" fuel_abs="333.696989" electricity_abs="0"
            CO_normed="145.252233" CO2_normed="10314.995879" HC_normed="0.910034" PMx_normed="0.211201" NOx_normed="4.380389" fuel_normed="4.433922" electricity_normed="0"
            traveltime="0.99" CO_perVeh="101.130264" CO2_perVeh="7181.702059" HC_perVeh="0.633601" PMx_perVeh="0.147046" NOx_perVeh="3.049798" fuel_perVeh="3.087069" electricity_perVeh="0"/>
        <edge id=":114_1" sampledSeconds="416.03" CO_abs="11071.991769" CO2_abs="1338170.443367" HC_abs="82.904910" PMx_abs="24.483914" NOx_abs="503.380025" fuel_abs="575.217903" electricity_abs="0"
            CO_normed="146.189997" CO2_normed="17668.648657" HC_normed="1.094642" PMx_normed="0.323275" NOx_normed="6.646421" fuel_normed="7.594939" electricity_normed="0"
            traveltime="0.66" CO_perVeh="17.642918" CO2_perVeh="2132.338178" HC_perVeh="0.132107" PMx_perVeh="0.039014" NOx_perVeh="0.802122" fuel_perVeh="0.916594" electricity_perVeh="0"/>
        <edge id=":115_0" sampledSeconds="80.11" CO_abs="183.201656" CO2_abs="20273.089815" HC_abs="1.304596" PMx_abs="0.293810" NOx_abs="7.722165" fuel_abs="8.714538" electricity_abs="0"
            CO_normed="4.139683" CO2_normed="458.097160" HC_normed="0.029479" PMx_normed="0.006639" NOx_normed="0.174492" fuel_normed="0.196916" electricity_normed="0"
            traveltime="0.63" CO_perVeh="1.441649" CO2_perVeh="159.532843" HC_perVeh="0.010266" PMx_perVeh="0.002312" NOx_perVeh="0.060767" fuel_perVeh="0.068576" electricity_perVeh="0"/>
        <edge id=":115_1" sampledSeconds="72.24" CO_abs="1174.946139" CO2_abs="178112.274682" HC_abs="9.350827" PMx_abs="2.640655" NOx_abs="66.162295" fuel_abs="76.562600" electricity_abs="0"
            CO_normed="23.709941" CO2_normed="3594.234178" HC_normed="0.188696" PMx_normed="0.053287" NOx_normed="1.335129" fuel_normed="1.545003" electricity_normed="0"
            traveltime="0.59" CO_perVeh="9.618901" CO2_perVeh="1458.147070" HC_perVeh="0.076552" PMx_perVeh="0.021618" NOx_perVeh="0.541649" fuel_perVeh="0.626793" electricity_perVeh="0"/>
        <edge id=":116_0" sampledSeconds="74.90" CO_abs="101.780600" CO2_abs="12638.362347" HC_abs="0.754836" PMx_abs="0.169650" NOx_abs="4.709103" fuel_abs="5.432706" electricity_abs="0"
            CO_normed="2.567365" CO2_normed="318.796346" HC_normed="0.019040" PMx_normed="0.004279" NOx_normed="0.118785" fuel_normed="0.137037" electricity_normed="0"
            traveltime="0.57" CO_perVeh="0.768520" CO2_perVeh="95.429121" HC_perVeh="0.005700" PMx_perVeh="0.001281" NOx_perVeh="0.035557" fuel_perVeh="0.041021" electricity_perVeh="0"/>
        <edge id=":117_0" sampledSeconds="239.41" CO_abs="13446.694330" CO2_abs="1110532.135257" HC_abs="87.629577" PMx_abs="20.419240" NOx_abs="453.735853" fuel_abs="477.366492" electricity_abs="0"
            CO_normed="303.845765" CO2_normed="25093.935945" HC_normed="1.980106" PMx_normed="0.461400" NOx_normed="10.252759" fuel_normed="10.786724" electricity_normed="0"
            traveltime="0.60" CO_perVeh="33.965750" CO2_perVeh="2805.154611" HC_perVeh="0.221348" PMx_perVeh="0.051578" NOx_perVeh="1.146117" fuel_perVeh="1.205806" electricity_perVeh="0"/>
        <edge id=":117_1" sampledSeconds="76.07" CO_abs="4640.315426" CO2_abs="379356.329352" HC_abs="30.173134" PMx_abs="7.024845" NOx_abs="155.418176" fuel_abs="163.067728" electricity_abs="0"
            CO_normed="98.818421" CO2_normed="8078.630465" HC_normed="0.642556" PMx_normed="0.149598" NOx_normed="3.309727" fuel_normed="3.472629" electricity_normed="0"
            traveltime="0.64" CO_perVeh="39.231271" CO2_perVeh="3207.245511" HC_perVeh="0.255097" PMx_perVeh="0.059391" NOx_perVeh="1.313974" fuel_perVeh="1.378646" electricity_perVeh="0"/>
        <edge id=":118_0" sampledSeconds="897.41" CO_abs="12922.950502" CO2_abs="2056627.642244" HC_abs="104.767041" PMx_abs="30.215672" NOx_abs="759.767348" fuel_abs="884.053460" electricity_abs="0"
            CO_normed="39.207148" CO2_normed="6239.635816" HC_normed="0.317854" PMx_normed="0.091672" NOx_normed="2.305070" fuel_normed="2.682144" electricity_normed="0"
            traveltime="3.91" CO_perVeh="56.365962" CO2_perVeh="8970.381511" HC_perVeh="0.456962" PMx_perVeh="0.131792" NOx_perVeh="3.313873" fuel_perVeh="3.855971" electricity_perVeh="0"/>
        <edge id=":118_4" sampledSeconds="282.97" CO_abs="3500.490264" CO2_abs="577645.543066" HC_abs="28.934022" PMx_abs="8.348735" NOx_abs="212.267637" fuel_abs="248.304473" electricity_abs="0"
            CO_normed="10.640726" CO2_normed="1755.916306" HC_normed="0.087953" PMx_normed="0.025378" NOx_normed="0.645247" fuel_normed="0.754791" electricity_normed="0"
            traveltime="3.92" CO_perVeh="48.532129" CO2_perVeh="8008.697650" HC_perVeh="0.401152" PMx_perVeh="0.115750" NOx_perVeh="2.942959" fuel_perVeh="3.442588" electricity_perVeh="0"/>
        <edge id=":118_5" sampledSeconds="238.18" CO_abs="3991.852965" CO2_abs="568740.484017" HC_abs="30.932713" PMx_abs="8.780545" NOx_abs="213.384318" fuel_abs="244.476087" electricity_abs="0"
            CO_normed="12.254797" CO2_normed="1746.005943" HC_normed="0.094962" PMx_normed="0.026956" NOx_normed="0.655080" fuel_normed="0.750530" electricity_normed="0"
            traveltime="3.81" CO_perVeh="63.887444" CO2_perVeh="9102.383260" HC_perVeh="0.495061" PMx_perVeh="0.140528" NOx_perVeh="3.415100" fuel_perVeh="3.912707" electricity_perVeh="0"/>
        <edge id=":119_0" sampledSeconds="139.06" CO_abs="2139.549527" CO2_abs="324534.724033" HC_abs="17.183214" PMx_abs="4.888990" NOx_abs="120.948297" fuel_abs="139.503061" electricity_abs="0"
            CO_normed="45.873703" CO2_normed="6958.291682" HC_normed="0.368422" PMx_normed="0.104824" NOx_normed="2.593231" fuel_normed="2.991060" electricity_normed="0"
            traveltime="0.56" CO_perVeh="8.577302" CO2_perVeh="1301.036660" HC_perVeh="0.068886" PMx_perVeh="0.019600" NOx_perVeh="0.484873" fuel_perVeh="0.559258" electricity_perVeh="0"/>
        <edge id=":12_0" sampledSeconds="601.48" CO_abs="53296.222443" CO2_abs="3023796.023368" HC_abs="314.393665" PMx_abs="58.746650" NOx_abs="1285.182671" fuel_abs="1299.796737" electricity_abs="0"
            CO_normed="499.299455" CO2_normed="28328.081012" HC_normed="2.945360" PMx_normed="0.550361" NOx_normed="12.040084" fuel_normed="12.176994" electricity_normed="0"
            traveltime="2.13" CO_perVeh="188.406599" CO2_perVeh="10689.371594" HC_perVeh="1.111408" PMx_perVeh="0.207674" NOx_perVeh="4.543228" fuel_perVeh="4.594890" electricity_perVeh="0"/>
        <edge id=":12_1" sampledSeconds="56.34" CO_abs="953.536010" CO2_abs="81715.485769" HC_abs="6.201984" PMx_abs="1.065260" NOx_abs="30.822656" fuel_abs="35.126326" electricity_abs="0"
            CO_normed="8.924229" CO2_normed="764.782549" HC_normed="0.058045" PMx_normed="0.009970" NOx_normed="0.288472" fuel_normed="0.328750" electricity_normed="0"
            traveltime="1.90" CO_perVeh="32.154566" CO2_perVeh="2755.560339" HC_perVeh="0.209140" PMx_perVeh="0.035922" NOx_perVeh="1.039383" fuel_perVeh="1.184509" electricity_perVeh="0"/>
        <edge id=":120_0" sampledSeconds="39.12" CO_abs="503.471645" CO2_abs="79835.853856" HC_abs="4.078773" PMx_abs="1.175872" NOx_abs="29.478333" fuel_abs="34.317911" electricity_abs="0"
            CO_normed="395.811042" CO2_normed="62764.036050" HC_normed="3.206583" PMx_normed="0.924428" NOx_normed="23.174790" fuel_normed="26.979490" electricity_normed="0"
            traveltime="0.02" CO_perVeh="0.193721" CO2_perVeh="30.718405" HC_perVeh="0.001569" PMx_perVeh="0.000452" NOx_perVeh="0.011342" fuel_perVeh="0.013204" electricity_perVeh="0"/>
        <edge id=":121_0" sampledSeconds="378.29" CO_abs="53814.918579" CO2_abs="1432018.253758" HC_abs="278.659291" PMx_abs="30.918533" NOx_abs="633.324212" fuel_abs="615.580811" electricity_abs="0"
            CO_normed="30768.964311" CO2_normed="818764.010153" HC_normed="159.324924" PMx_normed="17.677835" NOx_normed="362.106468" fuel_normed="351.961584" electricity_normed="0"
            traveltime="0.12" CO_perVeh="16.513981" CO2_perVeh="439.438032" HC_perVeh="0.085511" PMx_perVeh="0.009488" NOx_perVeh="0.194346" fuel_perVeh="0.188901" electricity_perVeh="0"/>
        <edge id=":122_0" sampledSeconds="134.52" CO_abs="1048.778256" CO2_abs="109253.486660" HC_abs="7.327887" PMx_abs="1.911716" NOx_abs="43.047700" fuel_abs="46.963035" electricity_abs="0"
            CO_normed="23.090162" CO2_normed="2405.351856" HC_normed="0.161333" PMx_normed="0.042089" NOx_normed="0.947749" fuel_normed="1.033950" electricity_normed="0"
            traveltime="0.54" CO_perVeh="4.196574" CO2_perVeh="437.166163" HC_perVeh="0.029322" PMx_perVeh="0.007650" NOx_perVeh="0.172251" fuel_perVeh="0.187918" electricity_perVeh="0"/>
        <edge id=":123_0" sampledSeconds="314.69" CO_abs="40908.141432" CO2_abs="2490240.575844" HC_abs="246.077663" PMx_abs="51.241796" NOx_abs="1069.462295" fuel_abs="1070.438597" electricity_abs="0"
            CO_normed="155.992669" CO2_normed="9495.891520" HC_normed="0.938354" PMx_normed="0.195397" NOx_normed="4.078119" fuel_normed="4.081842" electricity_normed="0"
            traveltime="4.29" CO_perVeh="557.089576" CO2_perVeh="33912.248740" HC_perVeh="3.351101" PMx_perVeh="0.697814" NOx_perVeh="14.564003" fuel_perVeh="14.577298" electricity_perVeh="0"/>
        <edge id=":123_1" sampledSeconds="0.00" CO_abs="0" CO2_abs="0" HC_abs="0" PMx_abs="0" NOx_abs="0" fuel_abs="0" electricity_abs="0"
            CO_normed="0" CO2_normed="0" HC_normed="0" PMx_normed="0" NOx_normed="0" fuel_normed="0" electricity_normed="0"/>
        <edge id=":123_2" sampledSeconds="256.81" CO_abs="34230.942230" CO2_abs="2142463.848955" HC_abs="207.410058" PMx_abs="44.259799" NOx_abs="920.057449" fuel_abs="920.944591" electricity_abs="0"
            CO_normed="131.782664" CO2_normed="8248.081250" HC_normed="0.798490" PMx_normed="0.170392" NOx_normed="3.542047" fuel_normed="3.545463" electricity_normed="0"
            traveltime="4.04" CO_perVeh="538.042154" CO2_perVeh="33675.259531" HC_perVeh="3.260073" PMx_perVeh="0.695676" NOx_perVeh="14.461468" fuel_perVeh="14.475413" electricity_perVeh="0"/>
        <edge id=":123_3" sampledSeconds="469.32" CO_abs="21869.533546" CO2_abs="2113627.597682" HC_abs="149.790562" PMx_abs="39.027317" NOx_abs="844.155073" fuel_abs="908.549523" electricity_abs="0"
            CO_normed="86.144616" CO2_normed="8325.629644" HC_normed="0.590029" PMx_normed="0.153730" NOx_normed="3.325147" fuel_normed="3.578798" electricity_normed="0"
            traveltime="2.81" CO_perVeh="130.898041" CO2_perVeh="12650.919684" HC_perVeh="0.896557" PMx_perVeh="0.233594" NOx_perVeh="5.052611" fuel_perVeh="5.438038" electricity_perVeh="0"/>
        <edge id=":123_5" sampledSeconds="0.00" CO_abs="0" CO2_abs="0" HC_abs="0" PMx_abs="0" NOx_abs="0" fuel_abs="0" electricity_abs="0"
            CO_normed="0" CO2_normed="0" HC_normed="0" PMx_normed="0" NOx_normed="0" fuel_normed="0" electricity_normed="0"/>
        <edge id=":123_6" sampledSeconds="194.93" CO_abs="9136.913086" CO2_abs="881626.438508" HC_abs="62.414784" PMx_abs="16.257717" NOx_abs="352.210189" fuel_abs="378.969916" electricity_abs="0"
            CO_normed="34.763982" CO2_normed="3354.398287" HC_normed="0.237475" PMx_normed="0.061857" NOx_normed="1.340084" fuel_normed="1.441899" electricity_normed="0"
            traveltime="2.92" CO_perVeh="136.692326" CO2_perVeh="13189.527711" HC_perVeh="0.933753" PMx_perVeh="0.243223" NOx_perVeh="5.269223" fuel_perVeh="5.669560" electricity_perVeh="0"/>
        <edge id=":124_0" sampledSeconds="118.84" CO_abs="3982.692595" CO2_abs="355624.275079" HC_abs="26.549190" PMx_abs="6.760404" NOx_abs="144.059959" fuel_abs="152.866095" electricity_abs="0"
            CO_normed="93.232188" CO2_normed="8324.928018" HC_normed="0.621499" PMx_normed="0.158257" NOx_normed="3.372348" fuel_normed="3.578494" electricity_normed="0"
            traveltime="0.46" CO_perVeh="15.492877" CO2_perVeh="1383.396554" HC_perVeh="0.103278" PMx_perVeh="0.026298" NOx_perVeh="0.560401" fuel_perVeh="0.594657" electricity_perVeh="0"/>
        <edge id=":125_0" sampledSeconds="141.23" CO_abs="5343.115779" CO2_abs="553375.114955" HC_abs="37.346336" PMx_abs="10.210227" NOx_abs="217.255380" fuel_abs="237.870081" electricity_abs="0"
            CO_normed="336.045018" CO2_normed="34803.466349" HC_normed="2.348826" PMx_normed="0.642153" NOx_normed="13.663860" fuel_normed="14.960382" electricity_normed="0"
            traveltime="0.16" CO_perVeh="6.119239" CO2_perVeh="633.756574" HC_perVeh="0.042771" PMx_perVeh="0.011693" NOx_perVeh="0.248813" fuel_perVeh="0.272422" electricity_perVeh="0"/>
        <edge id=":125_3" sampledSeconds="0.00" CO_abs="0" CO2_abs="0" HC_abs="0" PMx_abs="0" NOx_abs="0" fuel_abs="0" electricity_abs="0"
            CO_normed="0" CO2_normed="0" HC_normed="0" PMx_normed="0" NOx_normed="0" fuel_normed="0" electricity_normed="0"/>
        <edge id=":126_0" sampledSeconds="27.07" CO_abs="132.392869" CO2_abs="9680.243286" HC_abs="0.826043" PMx_abs="0.145699" NOx_abs="3.798816" fuel_abs="4.161147" electricity_abs="0"
            CO_normed="4.359474" CO2_normed="318.754101" HC_normed="0.027200" PMx_normed="0.004798" NOx_normed="0.125089" fuel_normed="0.137020" electricity_normed="0"
            traveltime="0.57" CO_perVeh="2.777628" CO2_perVeh="203.093343" HC_perVeh="0.017331" PMx_perVeh="0.003057" NOx_perVeh="0.079700" fuel_perVeh="0.087302" electricity_perVeh="0"/>
        <edge id=":126_1" sampledSeconds="80.94" CO_abs="1171.307297" CO2_abs="198076.487409" HC_abs="9.806879" PMx_abs="3.094398" NOx_abs="72.369721" fuel_abs="85.144201" electricity_abs="0"
            CO_normed="34.316984" CO2_normed="5803.248781" HC_normed="0.287322" PMx_normed="0.090660" NOx_normed="2.120289" fuel_normed="2.494556" electricity_normed="0"
            traveltime="0.35" CO_perVeh="5.068448" CO2_perVeh="857.110994" HC_perVeh="0.042436" PMx_perVeh="0.013390" NOx_perVeh="0.313156" fuel_perVeh="0.368434" electricity_perVeh="0"/>
        <edge id=":127_0" sampledSeconds="234.55" CO_abs="4742.609862" CO2_abs="638986.021909" HC_abs="36.190006" PMx_abs="10.705463" NOx_abs="240.041659" fuel_abs="274.670977" electricity_abs="0"
            CO_normed="109.660790" CO2_normed="14774.926515" HC_normed="0.836802" PMx_normed="0.247537" NOx_normed="5.550353" fuel_normed="6.351068" electricity_normed="0"
            traveltime="0.44" CO_perVeh="8.868795" CO2_perVeh="1194.919295" HC_perVeh="0.067676" PMx_perVeh="0.020019" NOx_perVeh="0.448884" fuel_perVeh="0.513641" electricity_perVeh="0"/>
        <edge id=":128_0" sampledSeconds="229.60" CO_abs="395.779442" CO2_abs="55821.445759" HC_abs="3.051710" PMx_abs="0.861967" NOx_abs="20.836659" fuel_abs="23.995156" electricity_abs="0"
            CO_normed="6.115919" CO2_normed="862.600185" HC_normed="0.047158" PMx_normed="0.013320" NOx_normed="0.321986" fuel_normed="0.370793" electricity_normed="0"
            traveltime="0.75" CO_perVeh="1.301065" CO2_perVeh="183.504527" HC_perVeh="0.010032" PMx_perVeh="0.002834" NOx_perVeh="0.068497" fuel_perVeh="0.078880" electricity_perVeh="0"/>
        <edge id=":128_1" sampledSeconds="142.30" CO_abs="238.723040" CO2_abs="27216.863723" HC_abs="1.701249" PMx_abs="0.398231" NOx_abs="10.359861" fuel_abs="11.699359" electricity_abs="0"
            CO_normed="3.810667" CO2_normed="434.454933" HC_normed="0.027157" PMx_normed="0.006357" NOx_normed="0.165371" fuel_normed="0.186753" electricity_normed="0"
            traveltime="0.85" CO_perVeh="1.431009" CO2_perVeh="163.149627" HC_perVeh="0.010198" PMx_perVeh="0.002387" NOx_perVeh="0.062101" fuel_perVeh="0.070131" electricity_perVeh="0"/>
        <edge id=":129_0" sampledSeconds="105.87" CO_abs="4903.365650" CO2_abs="456611.503450" HC_abs="33.152273" PMx_abs="8.428948" NOx_abs="183.706939" fuel_abs="196.275918" electricity_abs="0"
            CO_normed="114.217695" CO2_normed="10636.186896" HC_normed="0.772240" PMx_normed="0.196342" NOx_normed="4.279221" fuel_normed="4.571999" electricity_normed="0"
            traveltime="0.50" CO_perVeh="23.239380" CO2_perVeh="2164.098872" HC_perVeh="0.157124" PMx_perVeh="0.039949" NOx_perVeh="0.870674" fuel_perVeh="0.930245" electricity_perVeh="0"/>
        <edge id=":13_0" sampledSeconds="59.86" CO_abs="5259.448375" CO2_abs="371606.959115" HC_abs="32.839649" PMx_abs="7.264215" NOx_abs="156.243088" fuel_abs="159.736500" electricity_abs="0"
            CO_normed="37.180545" CO2_normed="2626.995901" HC_normed="0.232153" PMx_normed="0.051353" NOx_normed="1.104527" fuel_normed="1.129223" electricity_normed="0"
            traveltime="2.12" CO_perVeh="186.035143" CO2_perVeh="13144.335426" HC_perVeh="1.161591" PMx_perVeh="0.256947" NOx_perVeh="5.526569" fuel_perVeh="5.650137" electricity_perVeh="0"/>
        <edge id=":13_1" sampledSeconds="545.89" CO_abs="12759.666561" CO2_abs="964314.687183" HC_abs="80.178183" PMx_abs="13.613499" NOx_abs="372.343817" fuel_abs="414.521074" electricity_abs="0"
            CO_normed="127.111101" CO2_normed="9606.450232" HC_normed="0.798731" PMx_normed="0.135617" NOx_normed="3.709269" fuel_normed="4.129436" electricity_normed="0"
            traveltime="1.91" CO_perVeh="44.547030" CO2_perVeh="3366.651891" HC_perVeh="0.279921" PMx_perVeh="0.047528" NOx_perVeh="1.299941" fuel_perVeh="1.447192" electricity_perVeh="0"/>
        <edge id=":132_0" sampledSeconds="41.14" CO_abs="480.437631" CO2_abs="79581.139941" HC_abs="3.973764" PMx_abs="1.146800" NOx_abs="29.298497" fuel_abs="34.208435" electricity_abs="0"
            CO_normed="906.486096" CO2_normed="150153.094228" HC_normed="7.497668" PMx_normed="2.163774" NOx_normed="55.280184" fuel_normed="64.544218" electricity_normed="0"
            traveltime="6.377119e-03" CO_perVeh="0.074481" CO2_perVeh="12.337205" HC_perVeh="0.000616" PMx_perVeh="0.000178" NOx_perVeh="0.004542" fuel_perVeh="0.005303" electricity_perVeh="0"/>
        <edge id=":133_0" sampledSeconds="44.77" CO_abs="635.517032" CO2_abs="86651.825952" HC_abs="4.835342" PMx_abs="1.154858" NOx_abs="32.048083" fuel_abs="37.247979" electricity_abs="0"