<?xml version="1.0" encoding="UTF-8"?>

<!-- generated on Tue Nov 10 02:12:28 2020 by Eclipse SUMO sumo Version 1.7.0
<configuration xmlns:xsi="http://www.w3.org/2001/XMLSchema-instance" xsi:noNamespaceSchemaLocation="http://sumo.dlr.de/xsd/sumoConfiguration.xsd">

    <input>
        <net-file value="../dataSets/Porto/6AM7AM_Routing_SaoBento/Porto.net.xml"/>
        <route-files value="../results/Porto/6AM7AM_Routing_SaoBento/cost_PMx-cost_hc/solution1/Porto.rou.xml"/>
        <additional-files value="moreOutputInfo.xml"/>
    </input>

    <output>
        <emission-output.precision value="6"/>
        <tripinfo-output value="../results/Porto/6AM7AM_Routing_SaoBento/cost_PMx-cost_hc/solution1/Porto-tripinfo"/>
    </output>

    <processing>
        <collision.action value="warn"/>
        <time-to-teleport value="-1"/>
    </processing>

    <emissions>
        <device.emissions.probability value="1"/>
    </emissions>

    <gui_only>
        <quit-on-end value="true"/>
        <start value="true"/>
    </gui_only>

</configuration>
-->

<meandata xmlns:xsi="http://www.w3.org/2001/XMLSchema-instance" xsi:noNamespaceSchemaLocation="http://sumo.dlr.de/xsd/meandata_file.xsd">
    <interval begin="0.00" end="4790.00" id="emissions-detector">
        <edge id=":1092997347_0" sampledSeconds="334.95" CO_abs="42260.658590" CO2_abs="1682847.153151" HC_abs="232.205984" PMx_abs="34.343054" NOx_abs="730.482868" fuel_abs="723.389660" electricity_abs="0"
            CO_normed="72185.600173" CO2_normed="2874477.961351" HC_normed="396.631971" PMx_normed="58.661509" NOx_normed="1247.740711" fuel_normed="1235.624776" electricity_normed="0"
            traveltime="0.07" CO_perVeh="9.428480" CO2_perVeh="375.448249" HC_perVeh="0.051806" PMx_perVeh="0.007662" NOx_perVeh="0.162973" fuel_perVeh="0.161390" electricity_perVeh="0"/>
        <edge id=":1103427051_0" sampledSeconds="11.14" CO_abs="802.787961" CO2_abs="44609.792855" HC_abs="4.713954" PMx_abs="0.874529" NOx_abs="19.041980" fuel_abs="19.175784" electricity_abs="0"
            CO_normed="2080.510156" CO2_normed="115611.010205" HC_normed="12.216713" PMx_normed="2.266434" NOx_normed="49.349311" fuel_normed="49.696079" electricity_normed="0"
            traveltime="0.03" CO_perVeh="2.199627" CO2_perVeh="122.230158" HC_perVeh="0.012916" PMx_perVeh="0.002396" NOx_perVeh="0.052175" fuel_perVeh="0.052541" electricity_perVeh="0"/>
        <edge id=":1105984386_0" sampledSeconds="76.57" CO_abs="1495.273352" CO2_abs="123280.264833" HC_abs="9.614168" PMx_abs="1.618596" NOx_abs="46.655733" fuel_abs="52.993438" electricity_abs="0"
            CO_normed="115.735969" CO2_normed="9542.041831" HC_normed="0.744148" PMx_normed="0.125281" NOx_normed="3.611210" fuel_normed="4.101756" electricity_normed="0"
            traveltime="0.95" CO_perVeh="18.594212" CO2_perVeh="1533.030290" HC_perVeh="0.119555" PMx_perVeh="0.020128" NOx_perVeh="0.580179" fuel_perVeh="0.658991" electricity_perVeh="0"/>
        <edge id=":1105984390_0" sampledSeconds="78.03" CO_abs="108.580758" CO2_abs="10722.082651" HC_abs="0.725713" PMx_abs="0.133606" NOx_abs="3.953273" fuel_abs="4.609007" electricity_abs="0"
            CO_normed="6.497260" CO2_normed="641.588393" HC_normed="0.043425" PMx_normed="0.007995" NOx_normed="0.236556" fuel_normed="0.275794" electricity_normed="0"
            traveltime="1.05" CO_perVeh="1.458988" CO2_perVeh="144.071462" HC_perVeh="0.009751" PMx_perVeh="0.001795" NOx_perVeh="0.053120" fuel_perVeh="0.061931" electricity_perVeh="0"/>
        <edge id=":1105984390_1" sampledSeconds="646.44" CO_abs="13965.356442" CO2_abs="1870193.812496" HC_abs="108.303432" PMx_abs="32.782127" NOx_abs="696.585962" fuel_abs="803.910848" electricity_abs="0"
            CO_normed="799.381855" CO2_normed="107050.543624" HC_normed="6.199326" PMx_normed="1.876460" NOx_normed="39.872822" fuel_normed="46.016136" electricity_normed="0"
            traveltime="0.64" CO_perVeh="13.756191" CO2_perVeh="1842.183055" HC_perVeh="0.106681" PMx_perVeh="0.032291" NOx_perVeh="0.686153" fuel_perVeh="0.791870" electricity_perVeh="0"/>
        <edge id=":1105984395_0" sampledSeconds="30.00" CO_abs="656.117425" CO2_abs="53434.803220" HC_abs="4.195956" PMx_abs="0.663969" NOx_abs="19.990902" fuel_abs="22.969627" electricity_abs="0"
            CO_normed="535.994992" CO2_normed="43651.922391" HC_normed="3.427757" PMx_normed="0.542409" NOx_normed="16.330954" fuel_normed="18.764332" electricity_normed="0"
            traveltime="0.09" CO_perVeh="1.971481" CO2_perVeh="160.559210" HC_perVeh="0.012608" PMx_perVeh="0.001995" NOx_perVeh="0.060068" fuel_perVeh="0.069018" electricity_perVeh="0"/>
        <edge id=":1105984398_0" sampledSeconds="79.69" CO_abs="5056.150806" CO2_abs="355538.432365" HC_abs="31.420276" PMx_abs="6.425473" NOx_abs="146.577468" fuel_abs="152.830162" electricity_abs="0"
            CO_normed="314.311814" CO2_normed="22101.779391" HC_normed="1.953218" PMx_normed="0.399435" NOx_normed="9.111878" fuel_normed="9.500572" electricity_normed="0"
            traveltime="1.09" CO_perVeh="69.472486" CO2_perVeh="4885.166537" HC_perVeh="0.431721" PMx_perVeh="0.088287" NOx_perVeh="2.014003" fuel_perVeh="2.099916" electricity_perVeh="0"/>
        <edge id=":1105984398_1" sampledSeconds="454.65" CO_abs="7117.314829" CO2_abs="892457.746258" HC_abs="52.787935" PMx_abs="12.252182" NOx_abs="333.272385" fuel_abs="383.630004" electricity_abs="0"
            CO_normed="428.273030" CO2_normed="53702.216663" HC_normed="3.176430" PMx_normed="0.737255" NOx_normed="20.054132" fuel_normed="23.084322" electricity_normed="0"
            traveltime="0.96" CO_perVeh="14.965059" CO2_perVeh="1876.505833" HC_perVeh="0.110993" PMx_perVeh="0.025762" NOx_perVeh="0.700748" fuel_perVeh="0.806631" electricity_perVeh="0"/>
        <edge id=":1106006327_0" sampledSeconds="37.92" CO_abs="5119.328614" CO2_abs="168160.368595" HC_abs="27.270137" PMx_abs="3.506392" NOx_abs="73.606786" fuel_abs="72.286154" electricity_abs="0"
            CO_normed="434.256446" CO2_normed="14264.511914" HC_normed="2.313239" PMx_normed="0.297436" NOx_normed="6.243831" fuel_normed="6.131806" electricity_normed="0"
            traveltime="2.06" CO_perVeh="277.720129" CO2_perVeh="9122.586736" HC_perVeh="1.479387" PMx_perVeh="0.190219" NOx_perVeh="3.993119" fuel_perVeh="3.921475" electricity_perVeh="0"/>
        <edge id=":1106006327_1" sampledSeconds="160.11" CO_abs="21670.358615" CO2_abs="728507.305042" HC_abs="115.845836" PMx_abs="15.193891" NOx_abs="318.821621" fuel_abs="313.158915" electricity_abs="0"
            CO_normed="1603.021613" CO2_normed="53889.876756" HC_normed="8.569465" PMx_normed="1.123938" NOx_normed="23.584194" fuel_normed="23.165307" electricity_normed="0"
            traveltime="2.27" CO_perVeh="307.638670" CO2_perVeh="10342.100127" HC_perVeh="1.644581" PMx_perVeh="0.215697" NOx_perVeh="4.526084" fuel_perVeh="4.445694" electricity_perVeh="0"/>
        <edge id=":1106006327_2" sampledSeconds="0.00" CO_abs="0" CO2_abs="0" HC_abs="0" PMx_abs="0" NOx_abs="0" fuel_abs="0" electricity_abs="0"
            CO_normed="0" CO2_normed="0" HC_normed="0" PMx_normed="0" NOx_normed="0" fuel_normed="0" electricity_normed="0"/>
        <edge id=":1106006327_3" sampledSeconds="0.00" CO_abs="0" CO2_abs="0" HC_abs="0" PMx_abs="0" NOx_abs="0" fuel_abs="0" electricity_abs="0"
            CO_normed="0" CO2_normed="0" HC_normed="0" PMx_normed="0" NOx_normed="0" fuel_normed="0" electricity_normed="0"/>
        <edge id=":1107381198_0" sampledSeconds="0.00" CO_abs="0" CO2_abs="0" HC_abs="0" PMx_abs="0" NOx_abs="0" fuel_abs="0" electricity_abs="0"
            CO_normed="0" CO2_normed="0" HC_normed="0" PMx_normed="0" NOx_normed="0" fuel_normed="0" electricity_normed="0"/>
        <edge id=":1107381198_1" sampledSeconds="35.55" CO_abs="1352.673424" CO2_abs="58562.263443" HC_abs="7.512729" PMx_abs="1.017585" NOx_abs="24.278219" fuel_abs="25.173779" electricity_abs="0"
            CO_normed="110.864017" CO2_normed="4799.715611" HC_normed="0.615737" PMx_normed="0.083400" NOx_normed="1.989823" fuel_normed="2.063222" electricity_normed="0"
            traveltime="1.46" CO_perVeh="55.693316" CO2_perVeh="2411.170778" HC_perVeh="0.309320" PMx_perVeh="0.041897" NOx_perVeh="0.999602" fuel_perVeh="1.036474" electricity_perVeh="0"/>
        <edge id=":1110338277_0" sampledSeconds="96.22" CO_abs="1495.589540" CO2_abs="182514.960311" HC_abs="10.985571" PMx_abs="2.479831" NOx_abs="68.172658" fuel_abs="78.455554" electricity_abs="0"
            CO_normed="4014.406759" CO2_normed="489899.982940" HC_normed="29.487067" PMx_normed="6.656270" NOx_normed="182.986557" fuel_normed="210.587529" electricity_normed="0"
            traveltime="0.02" CO_perVeh="0.338345" CO2_perVeh="41.290029" HC_perVeh="0.002485" PMx_perVeh="0.000561" NOx_perVeh="0.015423" fuel_perVeh="0.017749" electricity_perVeh="0"/>
        <edge id=":1110338293_0" sampledSeconds="124.84" CO_abs="6029.130169" CO2_abs="413554.456962" HC_abs="37.181221" PMx_abs="7.310884" NOx_abs="169.689834" fuel_abs="177.769021" electricity_abs="0"
            CO_normed="15104.292699" CO2_normed="1036044.568589" HC_normed="93.147109" PMx_normed="18.315366" NOx_normed="425.110232" fuel_normed="445.350366" electricity_normed="0"
            traveltime="0.03" CO_perVeh="1.382881" CO2_perVeh="94.855566" HC_perVeh="0.008528" PMx_perVeh="0.001677" NOx_perVeh="0.038921" fuel_perVeh="0.040774" electricity_perVeh="0"/>
        <edge id=":1110338295_0" sampledSeconds="0.00" CO_abs="0" CO2_abs="0" HC_abs="0" PMx_abs="0" NOx_abs="0" fuel_abs="0" electricity_abs="0"
            CO_normed="0" CO2_normed="0" HC_normed="0" PMx_normed="0" NOx_normed="0" fuel_normed="0" electricity_normed="0"/>
        <edge id=":1110673403_0" sampledSeconds="158.42" CO_abs="2476.046461" CO2_abs="303352.669640" HC_abs="18.160359" PMx_abs="4.206661" NOx_abs="113.648297" fuel_abs="130.398504" electricity_abs="0"
            CO_normed="6203.039150" CO2_normed="759964.934379" HC_normed="45.495680" PMx_normed="10.538607" NOx_normed="284.713897" fuel_normed="326.676838" electricity_normed="0"
            traveltime="0.02" CO_perVeh="0.360519" CO2_perVeh="44.168997" HC_perVeh="0.002644" PMx_perVeh="0.000613" NOx_perVeh="0.016548" fuel_perVeh="0.018986" electricity_perVeh="0"/>
        <edge id=":1110673412_0" sampledSeconds="252.38" CO_abs="44736.841006" CO2_abs="3053180.323457" HC_abs="278.437458" PMx_abs="67.102520" NOx_abs="1312.074529" fuel_abs="1312.411832" electricity_abs="0"
            CO_normed="115940.268967" CO2_normed="7912640.677018" HC_normed="721.600207" PMx_normed="173.903299" NOx_normed="3400.380322" fuel_normed="3401.254479" electricity_normed="0"
            traveltime="0.02" CO_perVeh="2.750547" CO2_perVeh="187.718111" HC_perVeh="0.017119" PMx_perVeh="0.004126" NOx_perVeh="0.080670" fuel_perVeh="0.080691" electricity_perVeh="0"/>
        <edge id=":1110673414_0" sampledSeconds="0.00" CO_abs="0" CO2_abs="0" HC_abs="0" PMx_abs="0" NOx_abs="0" fuel_abs="0" electricity_abs="0"
            CO_normed="0" CO2_normed="0" HC_normed="0" PMx_normed="0" NOx_normed="0" fuel_normed="0" electricity_normed="0"/>
        <edge id=":1110673414_1" sampledSeconds="317.47" CO_abs="20938.677327" CO2_abs="815782.935835" HC_abs="114.264061" PMx_abs="14.896009" NOx_abs="343.341836" fuel_abs="350.675936" electricity_abs="0"
            CO_normed="1742.723475" CO2_normed="67897.510941" HC_normed="9.510183" PMx_normed="1.239793" NOx_normed="28.576298" fuel_normed="29.186714" electricity_normed="0"
            traveltime="1.56" CO_perVeh="103.165892" CO2_perVeh="4019.402594" HC_perVeh="0.562985" PMx_perVeh="0.073393" NOx_perVeh="1.691662" fuel_perVeh="1.727798" electricity_perVeh="0"/>
        <edge id=":1110673417_0" sampledSeconds="29.55" CO_abs="489.496862" CO2_abs="57069.688645" HC_abs="3.544815" PMx_abs="0.829756" NOx_abs="21.641452" fuel_abs="24.531812" electricity_abs="0"
            CO_normed="1313.889578" CO2_normed="153184.371549" HC_normed="9.514864" PMx_normed="2.227200" NOx_normed="58.089194" fuel_normed="65.847394" electricity_normed="0"
            traveltime="0.02" CO_perVeh="0.363311" CO2_perVeh="42.357887" HC_perVeh="0.002631" PMx_perVeh="0.000616" NOx_perVeh="0.016063" fuel_perVeh="0.018208" electricity_perVeh="0"/>
        <edge id=":1110673446_0" sampledSeconds="333.04" CO_abs="3726.972526" CO2_abs="302000.684940" HC_abs="24.137353" PMx_abs="5.534872" NOx_abs="123.525327" fuel_abs="129.816212" electricity_abs="0"
            CO_normed="9336.883155" CO2_normed="756577.916341" HC_normed="60.469361" PMx_normed="13.866068" NOx_normed="309.458022" fuel_normed="325.218067" electricity_normed="0"
            traveltime="0.02" CO_perVeh="0.254581" CO2_perVeh="20.628961" HC_perVeh="0.001649" PMx_perVeh="0.000378" NOx_perVeh="0.008438" fuel_perVeh="0.008867" electricity_perVeh="0"/>
        <edge id=":1110673451_0" sampledSeconds="37.34" CO_abs="373.559374" CO2_abs="27941.270905" HC_abs="2.336733" PMx_abs="0.374972" NOx_abs="10.668231" fuel_abs="12.010889" electricity_abs="0"
            CO_normed="1039.831243" CO2_normed="77776.676144" HC_normed="6.504477" PMx_normed="1.043764" NOx_normed="29.695843" fuel_normed="33.433234" electricity_normed="0"
            traveltime="0.03" CO_perVeh="0.267891" CO2_perVeh="20.037565" HC_perVeh="0.001676" PMx_perVeh="0.000269" NOx_perVeh="0.007651" fuel_perVeh="0.008613" electricity_perVeh="0"/>
        <edge id=":1110673464_0" sampledSeconds="322.54" CO_abs="814.015778" CO2_abs="66069.353202" HC_abs="5.221142" PMx_abs="0.922854" NOx_abs="25.315439" fuel_abs="28.400602" electricity_abs="0"
            CO_normed="43.327648" CO2_normed="3516.675905" HC_normed="0.277906" PMx_normed="0.049121" NOx_normed="1.347466" fuel_normed="1.511680" electricity_normed="0"
            traveltime="1.17" CO_perVeh="2.942564" CO2_perVeh="238.832374" HC_perVeh="0.018874" PMx_perVeh="0.003336" NOx_perVeh="0.091512" fuel_perVeh="0.102665" electricity_perVeh="0"/>
        <edge id=":1110673464_1" sampledSeconds="743.89" CO_abs="18027.533588" CO2_abs="2280297.174436" HC_abs="136.653792" PMx_abs="40.613612" NOx_abs="857.097542" fuel_abs="980.195040" electricity_abs="0"
            CO_normed="940.241292" CO2_normed="118930.831610" HC_normed="7.127294" PMx_normed="2.118237" NOx_normed="44.702649" fuel_normed="51.122903" electricity_normed="0"
            traveltime="0.70" CO_perVeh="16.956459" CO2_perVeh="2144.817320" HC_perVeh="0.128535" PMx_perVeh="0.038201" NOx_perVeh="0.806175" fuel_perVeh="0.921958" electricity_perVeh="0"/>
        <edge id=":1110673479_0" sampledSeconds="133.38" CO_abs="6861.674545" CO2_abs="473787.996171" HC_abs="42.405178" PMx_abs="8.447577" NOx_abs="194.809818" fuel_abs="203.660650" electricity_abs="0"
            CO_normed="17189.998861" CO2_normed="1186942.787901" HC_normed="106.234267" PMx_normed="21.163032" NOx_normed="488.041299" fuel_normed="510.214571" electricity_normed="0"
            traveltime="0.03" CO_perVeh="1.445476" CO2_perVeh="99.807878" HC_perVeh="0.008933" PMx_perVeh="0.001780" NOx_perVeh="0.041039" fuel_perVeh="0.042903" electricity_perVeh="0"/>
        <edge id=":1110673511_0" sampledSeconds="11.92" CO_abs="133.700821" CO2_abs="19513.606239" HC_abs="1.051205" PMx_abs="0.242016" NOx_abs="7.102746" fuel_abs="8.388100" electricity_abs="0"
            CO_normed="334.949865" CO2_normed="48885.861142" HC_normed="2.633499" PMx_normed="0.606304" NOx_normed="17.793935" fuel_normed="21.014030" electricity_normed="0"
            traveltime="0.02" CO_perVeh="0.264754" CO2_perVeh="38.640804" HC_perVeh="0.002082" PMx_perVeh="0.000479" NOx_perVeh="0.014065" fuel_perVeh="0.016610" electricity_perVeh="0"/>
        <edge id=":1110673517_0" sampledSeconds="16.87" CO_abs="828.886026" CO2_abs="58919.155008" HC_abs="5.162822" PMx_abs="1.046145" NOx_abs="24.152248" fuel_abs="25.326747" electricity_abs="0"
            CO_normed="2076.541192" CO2_normed="147605.398767" HC_normed="12.934002" PMx_normed="2.620821" NOx_normed="60.506676" fuel_normed="63.449054" electricity_normed="0"
            traveltime="0.03" CO_perVeh="1.330831" CO2_perVeh="94.598590" HC_perVeh="0.008289" PMx_perVeh="0.001680" NOx_perVeh="0.038778" fuel_perVeh="0.040664" electricity_perVeh="0"/>
        <edge id=":1110673534_0" sampledSeconds="476.41" CO_abs="2942.012319" CO2_abs="263900.677024" HC_abs="19.431235" PMx_abs="3.543036" NOx_abs="99.962324" fuel_abs="113.440441" electricity_abs="0"
            CO_normed="142.836934" CO2_normed="12812.578386" HC_normed="0.943401" PMx_normed="0.172017" NOx_normed="4.853247" fuel_normed="5.507620" electricity_normed="0"
            traveltime="1.44" CO_perVeh="8.863104" CO2_perVeh="795.026969" HC_perVeh="0.058539" PMx_perVeh="0.010674" NOx_perVeh="0.301146" fuel_perVeh="0.341751" electricity_perVeh="0"/>
        <edge id=":1110673534_1" sampledSeconds="245.38" CO_abs="3153.605714" CO2_abs="432393.732442" HC_abs="24.243468" PMx_abs="5.597352" NOx_abs="158.932247" fuel_abs="185.868171" electricity_abs="0"
            CO_normed="148.878271" CO2_normed="20412.834485" HC_normed="1.144508" PMx_normed="0.264245" NOx_normed="7.503017" fuel_normed="8.774633" electricity_normed="0"
            traveltime="1.23" CO_perVeh="15.772090" CO2_perVeh="2162.525594" HC_perVeh="0.121249" PMx_perVeh="0.027994" NOx_perVeh="0.794866" fuel_perVeh="0.929580" electricity_perVeh="0"/>
        <edge id=":1110673549_0" sampledSeconds="59.43" CO_abs="62.957812" CO2_abs="10111.604864" HC_abs="0.520385" PMx_abs="0.131370" NOx_abs="3.682595" fuel_abs="4.346555" electricity_abs="0"
            CO_normed="2.961010" CO2_normed="475.565458" HC_normed="0.024475" PMx_normed="0.006179" NOx_normed="0.173199" fuel_normed="0.204426" electricity_normed="0"
            traveltime="1.24" CO_perVeh="1.311672" CO2_perVeh="210.666674" HC_perVeh="0.010842" PMx_perVeh="0.002737" NOx_perVeh="0.076724" fuel_perVeh="0.090557" electricity_perVeh="0"/>
        <edge id=":1110673549_1" sampledSeconds="638.46" CO_abs="13500.005986" CO2_abs="1827623.700907" HC_abs="105.147472" PMx_abs="31.905856" NOx_abs="679.821303" fuel_abs="785.611982" electricity_abs="0"
            CO_normed="614.173262" CO2_normed="83146.452750" HC_normed="4.783610" PMx_normed="1.451534" NOx_normed="30.927991" fuel_normed="35.740864" electricity_normed="0"
            traveltime="0.80" CO_perVeh="16.997282" CO2_perVeh="2301.083033" HC_perVeh="0.132387" PMx_perVeh="0.040171" NOx_perVeh="0.855934" fuel_perVeh="0.989131" electricity_perVeh="0"/>
        <edge id=":1110673556_0" sampledSeconds="419.27" CO_abs="51654.285960" CO2_abs="2581693.664190" HC_abs="296.608893" PMx_abs="52.241370" NOx_abs="1113.237110" fuel_abs="1109.758223" electricity_abs="0"
            CO_normed="1801.466023" CO2_normed="90037.706078" HC_normed="10.344366" PMx_normed="1.821941" NOx_normed="38.824636" fuel_normed="38.703308" electricity_normed="0"
            traveltime="2.60" CO_perVeh="320.645573" CO2_perVeh="16025.943037" HC_perVeh="1.841209" PMx_perVeh="0.324290" NOx_perVeh="6.910454" fuel_perVeh="6.888858" electricity_perVeh="0"/>
        <edge id=":1110673556_2" sampledSeconds="249.50" CO_abs="24130.563006" CO2_abs="1034167.843888" HC_abs="134.167222" PMx_abs="19.994710" NOx_abs="441.381728" fuel_abs="444.548152" electricity_abs="0"
            CO_normed="879.946869" CO2_normed="37712.039963" HC_normed="4.892552" PMx_normed="0.729129" NOx_normed="16.095458" fuel_normed="16.210925" electricity_normed="0"
            traveltime="3.03" CO_perVeh="292.699105" CO2_perVeh="12544.257770" HC_perVeh="1.627423" PMx_perVeh="0.242532" NOx_perVeh="5.353876" fuel_perVeh="5.392284" electricity_perVeh="0"/>
        <edge id=":1110673556_3" sampledSeconds="374.90" CO_abs="33124.209031" CO2_abs="1181918.276118" HC_abs="178.371411" PMx_abs="22.718580" NOx_abs="505.118378" fuel_abs="508.065050" electricity_abs="0"
            CO_normed="2747.794857" CO2_normed="98045.177684" HC_normed="14.796672" PMx_normed="1.884603" NOx_normed="41.901731" fuel_normed="42.146170" electricity_normed="0"
            traveltime="1.74" CO_perVeh="154.120682" CO2_perVeh="5499.242291" HC_perVeh="0.829928" PMx_perVeh="0.105705" NOx_perVeh="2.350220" fuel_perVeh="2.363931" electricity_perVeh="0"/>
        <edge id=":1110673556_4" sampledSeconds="166.29" CO_abs="17602.480842" CO2_abs="713101.504099" HC_abs="96.887311" PMx_abs="13.898469" NOx_abs="305.443801" fuel_abs="306.534954" electricity_abs="0"
            CO_normed="892.071607" CO2_normed="36139.088019" HC_normed="4.910127" PMx_normed="0.704357" NOx_normed="15.479508" fuel_normed="15.534806" electricity_normed="0"
            traveltime="2.38" CO_perVeh="251.551247" CO2_perVeh="10190.698350" HC_perVeh="1.384585" PMx_perVeh="0.198618" NOx_perVeh="4.364997" fuel_perVeh="4.380590" electricity_perVeh="0"/>
        <edge id=":1110673556_5" sampledSeconds="24.55" CO_abs="1904.208959" CO2_abs="78152.972211" HC_abs="10.486926" PMx_abs="1.427256" NOx_abs="32.865996" fuel_abs="33.595086" electricity_abs="0"
            CO_normed="134.505475" CO2_normed="5520.403958" HC_normed="0.740753" PMx_normed="0.100815" NOx_normed="2.321519" fuel_normed="2.373018" electricity_normed="0"
            traveltime="1.70" CO_perVeh="131.649014" CO2_perVeh="5403.168449" HC_perVeh="0.725022" PMx_perVeh="0.098674" NOx_perVeh="2.272217" fuel_perVeh="2.322623" electricity_perVeh="0"/>
        <edge id=":1110673556_6" sampledSeconds="309.80" CO_abs="37241.383556" CO2_abs="1898976.775203" HC_abs="214.755511" PMx_abs="38.295720" NOx_abs="816.998170" fuel_abs="816.287479" electricity_abs="0"
            CO_normed="1331.557983" CO2_normed="67897.522697" HC_normed="7.678539" PMx_normed="1.369256" NOx_normed="29.211601" fuel_normed="29.186190" electricity_normed="0"
            traveltime="2.45" CO_perVeh="294.921800" CO2_perVeh="15038.368470" HC_perVeh="1.700691" PMx_perVeh="0.303271" NOx_perVeh="6.469968" fuel_perVeh="6.464340" electricity_perVeh="0"/>
        <edge id=":1110673561_0" sampledSeconds="102.37" CO_abs="9636.387922" CO2_abs="686168.036802" HC_abs="60.410772" PMx_abs="13.910427" NOx_abs="290.496886" fuel_abs="294.950939" electricity_abs="0"
            CO_normed="432.897742" CO2_normed="30824.889626" HC_normed="2.713847" PMx_normed="0.624901" NOx_normed="13.050061" fuel_normed="13.250151" electricity_normed="0"
            traveltime="1.21" CO_perVeh="113.718731" CO2_perVeh="8097.448829" HC_perVeh="0.712906" PMx_perVeh="0.164157" NOx_perVeh="3.428145" fuel_perVeh="3.480707" electricity_perVeh="0"/>
        <edge id=":1110673561_1" sampledSeconds="1308.72" CO_abs="123790.966852" CO2_abs="8572729.045205" HC_abs="771.129627" PMx_abs="179.283378" NOx_abs="3665.814383" fuel_abs="3685.002086" electricity_abs="0"
            CO_normed="5421.739646" CO2_normed="375464.431079" HC_normed="33.773580" PMx_normed="7.852171" NOx_normed="160.553647" fuel_normed="161.394021" electricity_normed="0"
            traveltime="1.19" CO_perVeh="112.585294" CO2_perVeh="7796.717664" HC_perVeh="0.701326" PMx_perVeh="0.163054" NOx_perVeh="3.333981" fuel_perVeh="3.351432" electricity_perVeh="0"/>
        <edge id=":1110673562_0" sampledSeconds="103.91" CO_abs="2513.990973" CO2_abs="192648.312149" HC_abs="15.837072" PMx_abs="2.598998" NOx_abs="73.518307" fuel_abs="82.812119" electricity_abs="0"
            CO_normed="6997.887189" CO2_normed="536251.390811" HC_normed="44.083707" PMx_normed="7.234511" NOx_normed="204.643860" fuel_normed="230.513902" electricity_normed="0"
            traveltime="0.03" CO_perVeh="0.640829" CO2_perVeh="49.107047" HC_perVeh="0.004037" PMx_perVeh="0.000662" NOx_perVeh="0.018740" fuel_perVeh="0.021109" electricity_perVeh="0"/>
        <edge id=":1110673564_0" sampledSeconds="28.53" CO_abs="426.584734" CO2_abs="52888.951533" HC_abs="3.157903" PMx_abs="0.691278" NOx_abs="19.605035" fuel_abs="22.734785" electricity_abs="0"
            CO_normed="3206.064805" CO2_normed="397495.251606" HC_normed="23.733715" PMx_normed="5.195411" NOx_normed="147.344728" fuel_normed="170.866861" electricity_normed="0"
            traveltime="7.842055e-03" CO_perVeh="0.117274" CO2_perVeh="14.539918" HC_perVeh="0.000868" PMx_perVeh="0.000190" NOx_perVeh="0.005390" fuel_perVeh="0.006250" electricity_perVeh="0"/>
        <edge id=":1110673588_0" sampledSeconds="11.58" CO_abs="235.874935" CO2_abs="27949.956147" HC_abs="1.716623" PMx_abs="0.390495" NOx_abs="10.500129" fuel_abs="12.014509" electricity_abs="0"
            CO_normed="709.102100" CO2_normed="84024.920357" HC_normed="5.160621" PMx_normed="1.173931" NOx_normed="31.566150" fuel_normed="36.118773" electricity_normed="0"
            traveltime="0.02" CO_perVeh="0.393125" CO2_perVeh="46.583260" HC_perVeh="0.002861" PMx_perVeh="0.000651" NOx_perVeh="0.017500" fuel_perVeh="0.020024" electricity_perVeh="0"/>
        <edge id=":1110673601_0" sampledSeconds="29.57" CO_abs="525.548388" CO2_abs="61829.036843" HC_abs="3.805357" PMx_abs="0.857338" NOx_abs="23.217988" fuel_abs="26.577707" electricity_abs="0"
            CO_normed="1410.657768" CO2_normed="165959.239959" HC_normed="10.214201" PMx_normed="2.301236" NOx_normed="62.320875" fuel_normed="71.338908" electricity_normed="0"
            traveltime="0.02" CO_perVeh="0.390069" CO2_perVeh="45.890339" HC_perVeh="0.002824" PMx_perVeh="0.000636" NOx_perVeh="0.017233" fuel_perVeh="0.019726" electricity_perVeh="0"/>
        <edge id=":1110673617_0" sampledSeconds="247.85" CO_abs="6199.053657" CO2_abs="767689.631498" HC_abs="46.603666" PMx_abs="13.730513" NOx_abs="289.861525" fuel_abs="329.994447" electricity_abs="0"
            CO_normed="15529.988286" CO2_normed="1923230.809599" HC_normed="116.752399" PMx_normed="34.397945" NOx_normed="726.166660" fuel_normed="826.708426" electricity_normed="0"
            traveltime="0.01" CO_perVeh="0.365617" CO2_perVeh="45.277913" HC_perVeh="0.002749" PMx_perVeh="0.000810" NOx_perVeh="0.017096" fuel_perVeh="0.019463" electricity_perVeh="0"/>
        <edge id=":1110673621_0" sampledSeconds="25.94" CO_abs="543.484724" CO2_abs="60811.358583" HC_abs="3.861336" PMx_abs="0.866316" NOx_abs="23.026347" fuel_abs="26.140232" electricity_abs="0"
            CO_normed="1633.858041" CO2_normed="182814.940208" HC_normed="11.608192" PMx_normed="2.604374" NOx_normed="69.223257" fuel_normed="78.584412" electricity_normed="0"
            traveltime="0.02" CO_perVeh="0.411731" CO2_perVeh="46.069211" HC_perVeh="0.002925" PMx_perVeh="0.000656" NOx_perVeh="0.017444" fuel_perVeh="0.019803" electricity_perVeh="0"/>
        <edge id=":1110673630_0" sampledSeconds="54.05" CO_abs="253.957631" CO2_abs="21687.434942" HC_abs="1.648025" PMx_abs="0.272571" NOx_abs="8.117986" fuel_abs="9.322605" electricity_abs="0"
            CO_normed="13.613827" CO2_normed="1162.591553" HC_normed="0.088345" PMx_normed="0.014612" NOx_normed="0.435178" fuel_normed="0.499754" electricity_normed="0"
            traveltime="1.26" CO_perVeh="5.927820" CO2_perVeh="506.223092" HC_perVeh="0.038468" PMx_perVeh="0.006362" NOx_perVeh="0.189488" fuel_perVeh="0.217606" electricity_perVeh="0"/>
        <edge id=":1110673630_1" sampledSeconds="7.24" CO_abs="68.633239" CO2_abs="6646.445361" HC_abs="0.462855" PMx_abs="0.079657" NOx_abs="2.454024" fuel_abs="2.857054" electricity_abs="0"
            CO_normed="4.485425" CO2_normed="434.368763" HC_normed="0.030249" PMx_normed="0.005206" NOx_normed="0.160379" fuel_normed="0.186719" electricity_normed="0"
            traveltime="1.02" CO_perVeh="9.714243" CO2_perVeh="940.727651" HC_perVeh="0.065512" PMx_perVeh="0.011275" NOx_perVeh="0.347339" fuel_perVeh="0.404383" electricity_perVeh="0"/>
        <edge id=":1110673650_0" sampledSeconds="158.31" CO_abs="2546.327343" CO2_abs="321582.967625" HC_abs="18.949328" PMx_abs="4.356962" NOx_abs="119.818022" fuel_abs="138.235043" electricity_abs="0"
            CO_normed="6379.108167" CO2_normed="805635.827035" HC_normed="47.472221" PMx_normed="10.915145" NOx_normed="300.170409" fuel_normed="346.309084" electricity_normed="0"
            traveltime="0.02" CO_perVeh="0.370752" CO2_perVeh="46.823379" HC_perVeh="0.002759" PMx_perVeh="0.000634" NOx_perVeh="0.017446" fuel_perVeh="0.020127" electricity_perVeh="0"/>
        <edge id=":1110673655_0" sampledSeconds="44.86" CO_abs="785.327163" CO2_abs="85736.049024" HC_abs="5.538229" PMx_abs="1.210169" NOx_abs="32.456351" fuel_abs="36.854331" electricity_abs="0"
            CO_normed="1967.416693" CO2_normed="214787.596721" HC_normed="13.874478" PMx_normed="3.031739" NOx_normed="81.310275" fuel_normed="92.328177" electricity_normed="0"
            traveltime="0.02" CO_perVeh="0.420298" CO2_perVeh="45.884961" HC_perVeh="0.002964" PMx_perVeh="0.000648" NOx_perVeh="0.017370" fuel_perVeh="0.019724" electricity_perVeh="0"/>
        <edge id=":1110673663_0" sampledSeconds="109.51" CO_abs="1809.890569" CO2_abs="220074.847548" HC_abs="13.224279" PMx_abs="2.954594" NOx_abs="81.896729" fuel_abs="94.601039" electricity_abs="0"
            CO_normed="83.043454" CO2_normed="10097.724084" HC_normed="0.606771" PMx_normed="0.135566" NOx_normed="3.757679" fuel_normed="4.340592" electricity_normed="0"
            traveltime="1.29" CO_perVeh="21.258107" CO2_perVeh="2584.893693" HC_perVeh="0.155326" PMx_perVeh="0.034703" NOx_perVeh="0.961920" fuel_perVeh="1.111138" electricity_perVeh="0"/>
        <edge id=":1110673663_1" sampledSeconds="153.72" CO_abs="2786.867480" CO2_abs="320119.870780" HC_abs="20.068301" PMx_abs="4.678363" NOx_abs="121.675878" fuel_abs="137.605793" electricity_abs="0"
            CO_normed="128.026539" CO2_normed="14706.059573" HC_normed="0.921922" PMx_normed="0.214920" NOx_normed="5.589696" fuel_normed="6.321504" electricity_normed="0"
            traveltime="1.25" CO_perVeh="22.583797" CO2_perVeh="2594.139226" HC_perVeh="0.162626" PMx_perVeh="0.037912" NOx_perVeh="0.986019" fuel_perVeh="1.115109" electricity_perVeh="0"/>
        <edge id=":1110673666_0" sampledSeconds="255.40" CO_abs="5422.949332" CO2_abs="437934.726761" HC_abs="34.645612" PMx_abs="5.702036" NOx_abs="165.499847" fuel_abs="188.251435" electricity_abs="0"