<?xml version="1.0" encoding="UTF-8"?>

<!-- generated on Mon Nov  9 20:04:45 2020 by Eclipse SUMO sumo Version 1.7.0
<configuration xmlns:xsi="http://www.w3.org/2001/XMLSchema-instance" xsi:noNamespaceSchemaLocation="http://sumo.dlr.de/xsd/sumoConfiguration.xsd">

    <input>
        <net-file value="../dataSets/Angeja_Estarreja/angeja_estarreja.net.xml"/>
        <route-files value="../results/angeja_estarreja/cost_co2-ttime/solution8/angeja_estarreja.rou.xml"/>
        <additional-files value="moreOutputInfo.xml"/>
    </input>

    <output>
        <emission-output.precision value="6"/>
        <tripinfo-output value="../results/angeja_estarreja/cost_co2-ttime/solution8/angeja_estarreja-tripinfo"/>
    </output>

    <processing>
        <collision.action value="warn"/>
        <time-to-teleport value="-1"/>
    </processing>

    <emissions>
        <device.emissions.probability value="1"/>
    </emissions>

    <gui_only>
        <quit-on-end value="true"/>
        <start value="true"/>
    </gui_only>

</configuration>
-->

<meandata xmlns:xsi="http://www.w3.org/2001/XMLSchema-instance" xsi:noNamespaceSchemaLocation="http://sumo.dlr.de/xsd/meandata_file.xsd">
    <interval begin="0.00" end="19078.00" id="emissions-detector">
        <edge id=":10_0" sampledSeconds="421.51" CO_abs="43313.574549" CO2_abs="2371736.860145" HC_abs="253.475847" PMx_abs="46.431901" NOx_abs="1011.667403" fuel_abs="1019.505833" electricity_abs="0"
            CO_normed="467.308707" CO2_normed="25588.589662" HC_normed="2.734742" PMx_normed="0.500952" NOx_normed="10.914846" fuel_normed="10.999414" electricity_normed="0"
            traveltime="1.92" CO_perVeh="197.554856" CO2_perVeh="10817.581765" HC_perVeh="1.156113" PMx_perVeh="0.211778" NOx_perVeh="4.614253" fuel_perVeh="4.650005" electricity_perVeh="0"/>
        <edge id=":10_1" sampledSeconds="0.00" CO_abs="0" CO2_abs="0" HC_abs="0" PMx_abs="0" NOx_abs="0" fuel_abs="0" electricity_abs="0"
            CO_normed="0" CO2_normed="0" HC_normed="0" PMx_normed="0" NOx_normed="0" fuel_normed="0" electricity_normed="0"/>
        <edge id=":100_0" sampledSeconds="0.00" CO_abs="0" CO2_abs="0" HC_abs="0" PMx_abs="0" NOx_abs="0" fuel_abs="0" electricity_abs="0"
            CO_normed="0" CO2_normed="0" HC_normed="0" PMx_normed="0" NOx_normed="0" fuel_normed="0" electricity_normed="0"/>
        <edge id=":100_1" sampledSeconds="911.78" CO_abs="22769.375262" CO2_abs="2802431.747758" HC_abs="171.743255" PMx_abs="51.028085" NOx_abs="1050.783616" fuel_abs="1204.636680" electricity_abs="0"
            CO_normed="145.350437" CO2_normed="17889.585202" HC_normed="1.096339" PMx_normed="0.325743" NOx_normed="6.707776" fuel_normed="7.689911" electricity_normed="0"
            traveltime="1.37" CO_perVeh="34.235778" CO2_perVeh="4213.705063" HC_perVeh="0.258231" PMx_perVeh="0.076725" NOx_perVeh="1.579947" fuel_perVeh="1.811278" electricity_perVeh="0"/>
        <edge id=":101_0" sampledSeconds="438.37" CO_abs="11361.201534" CO2_abs="1422777.072910" HC_abs="86.342796" PMx_abs="25.787741" NOx_abs="532.089191" fuel_abs="611.586597" electricity_abs="0"
            CO_normed="262.404853" CO2_normed="32861.278645" HC_normed="1.994223" PMx_normed="0.595609" NOx_normed="12.289438" fuel_normed="14.125556" electricity_normed="0"
            traveltime="0.38" CO_perVeh="9.814603" CO2_perVeh="1229.094627" HC_perVeh="0.074589" PMx_perVeh="0.022277" NOx_perVeh="0.459656" fuel_perVeh="0.528331" electricity_perVeh="0"/>
        <edge id=":102_0" sampledSeconds="341.88" CO_abs="7630.524034" CO2_abs="954373.864325" HC_abs="57.930031" PMx_abs="17.302330" NOx_abs="356.875234" fuel_abs="410.241547" electricity_abs="0"
            CO_normed="177.762030" CO2_normed="22233.261449" HC_normed="1.349548" PMx_normed="0.403078" NOx_normed="8.313828" fuel_normed="9.557059" electricity_normed="0"
            traveltime="0.38" CO_perVeh="8.394245" CO2_perVeh="1049.894853" HC_perVeh="0.063728" PMx_perVeh="0.019034" NOx_perVeh="0.392594" fuel_perVeh="0.451302" electricity_perVeh="0"/>
        <edge id=":103_0" sampledSeconds="434.20" CO_abs="10226.725065" CO2_abs="1291840.601843" HC_abs="77.940581" PMx_abs="23.356157" NOx_abs="482.222379" fuel_abs="555.303073" electricity_abs="0"
            CO_normed="239.723360" CO2_normed="30281.871068" HC_normed="1.826995" PMx_normed="0.547489" NOx_normed="11.303713" fuel_normed="13.016789" electricity_normed="0"
            traveltime="0.37" CO_perVeh="8.786409" CO2_perVeh="1109.899766" HC_perVeh="0.066964" PMx_perVeh="0.020067" NOx_perVeh="0.414307" fuel_perVeh="0.477095" electricity_perVeh="0"/>
        <edge id=":104_0" sampledSeconds="341.08" CO_abs="8464.333469" CO2_abs="1048699.510127" HC_abs="64.021774" PMx_abs="19.065670" NOx_abs="392.676966" fuel_abs="450.787783" electricity_abs="0"
            CO_normed="197.430343" CO2_normed="24460.886914" HC_normed="1.493306" PMx_normed="0.444706" NOx_normed="9.159179" fuel_normed="10.514612" electricity_normed="0"
            traveltime="0.38" CO_perVeh="9.307256" CO2_perVeh="1153.134434" HC_perVeh="0.070397" PMx_perVeh="0.020964" NOx_perVeh="0.431782" fuel_perVeh="0.495680" electricity_perVeh="0"/>
        <edge id=":105_0" sampledSeconds="168.56" CO_abs="3992.192898" CO2_abs="498106.068228" HC_abs="30.266923" PMx_abs="9.037018" NOx_abs="186.250618" fuel_abs="214.112952" electricity_abs="0"
            CO_normed="3424.195035" CO2_normed="427236.952039" HC_normed="25.960631" PMx_normed="7.751257" NOx_normed="159.751409" fuel_normed="183.649569" electricity_normed="0"
            traveltime="0.01" CO_perVeh="0.241416" CO2_perVeh="30.121531" HC_perVeh="0.001830" PMx_perVeh="0.000546" NOx_perVeh="0.011263" fuel_perVeh="0.012948" electricity_perVeh="0"/>
        <edge id=":106_0" sampledSeconds="134.47" CO_abs="3122.387467" CO2_abs="385236.011832" HC_abs="23.591217" PMx_abs="7.012395" NOx_abs="144.412164" fuel_abs="165.595268" electricity_abs="0"
            CO_normed="1900.617648" CO2_normed="234495.676932" HC_normed="14.360128" PMx_normed="4.268491" NOx_normed="87.904627" fuel_normed="100.798921" electricity_normed="0"
            traveltime="0.01" CO_perVeh="0.333844" CO2_perVeh="41.189207" HC_perVeh="0.002522" PMx_perVeh="0.000750" NOx_perVeh="0.015440" fuel_perVeh="0.017705" electricity_perVeh="0"/>
        <edge id=":107_0" sampledSeconds="438.74" CO_abs="10726.954943" CO2_abs="1322968.374647" HC_abs="81.004370" PMx_abs="24.078264" NOx_abs="495.948965" fuel_abs="568.683341" electricity_abs="0"
            CO_normed="247.755929" CO2_normed="30556.039471" HC_normed="1.870924" PMx_normed="0.556125" NOx_normed="11.454723" fuel_normed="13.134638" electricity_normed="0"
            traveltime="0.38" CO_perVeh="9.266696" CO2_perVeh="1142.872873" HC_perVeh="0.069977" PMx_perVeh="0.020800" NOx_perVeh="0.428436" fuel_perVeh="0.491269" electricity_perVeh="0"/>
        <edge id=":108_0" sampledSeconds="94.19" CO_abs="7539.996328" CO2_abs="551704.731625" HC_abs="47.591315" PMx_abs="11.055356" NOx_abs="232.406254" fuel_abs="237.151622" electricity_abs="0"
            CO_normed="118.270154" CO2_normed="8653.877388" HC_normed="0.746503" PMx_normed="0.173411" NOx_normed="3.645456" fuel_normed="3.719890" electricity_normed="0"
            traveltime="0.86" CO_perVeh="68.631165" CO2_perVeh="5021.771468" HC_perVeh="0.433190" PMx_perVeh="0.100629" NOx_perVeh="2.115427" fuel_perVeh="2.158621" electricity_perVeh="0"/>
        <edge id=":108_1" sampledSeconds="403.41" CO_abs="9817.510516" CO2_abs="1227431.449627" HC_abs="74.548888" PMx_abs="22.253133" NOx_abs="459.196654" fuel_abs="527.616464" electricity_abs="0"
            CO_normed="143.608889" CO2_normed="17954.660300" HC_normed="1.090489" PMx_normed="0.325515" NOx_normed="6.717051" fuel_normed="7.717885" electricity_normed="0"
            traveltime="0.60" CO_perVeh="14.584155" CO2_perVeh="1823.379822" HC_perVeh="0.110744" PMx_perVeh="0.033058" NOx_perVeh="0.682148" fuel_perVeh="0.783787" electricity_perVeh="0"/>
        <edge id=":109_0" sampledSeconds="307.34" CO_abs="129.293205" CO2_abs="23424.169288" HC_abs="1.117065" PMx_abs="0.295015" NOx_abs="8.406052" fuel_abs="10.069072" electricity_abs="0"
            CO_normed="1.944024" CO2_normed="352.200630" HC_normed="0.016796" PMx_normed="0.004436" NOx_normed="0.126392" fuel_normed="0.151396" electricity_normed="0"
            traveltime="0.85" CO_perVeh="0.359363" CO2_perVeh="65.106045" HC_perVeh="0.003105" PMx_perVeh="0.000820" NOx_perVeh="0.023364" fuel_perVeh="0.027986" electricity_perVeh="0"/>
        <edge id=":109_1" sampledSeconds="524.35" CO_abs="11955.934762" CO2_abs="1507072.339037" HC_abs="91.044544" PMx_abs="27.262178" NOx_abs="562.809575" fuel_abs="647.821317" electricity_abs="0"
            CO_normed="117.259524" CO2_normed="14780.825419" HC_normed="0.892932" PMx_normed="0.267378" NOx_normed="5.519835" fuel_normed="6.353599" electricity_normed="0"
            traveltime="0.89" CO_perVeh="20.358110" CO2_perVeh="2566.185292" HC_perVeh="0.155027" PMx_perVeh="0.046421" NOx_perVeh="0.958331" fuel_perVeh="1.103085" electricity_perVeh="0"/>
        <edge id=":11_0" sampledSeconds="298.20" CO_abs="18682.137635" CO2_abs="1326366.167800" HC_abs="116.470053" PMx_abs="24.276585" NOx_abs="548.110177" fuel_abs="570.145285" electricity_abs="0"
            CO_normed="193.167187" CO2_normed="13714.191930" HC_normed="1.204262" PMx_normed="0.251012" NOx_normed="5.667280" fuel_normed="5.895116" electricity_normed="0"
            traveltime="1.59" CO_perVeh="99.489061" CO2_perVeh="7063.373960" HC_perVeh="0.620245" PMx_perVeh="0.129281" NOx_perVeh="2.918883" fuel_perVeh="3.036227" electricity_perVeh="0"/>
        <edge id=":11_1" sampledSeconds="51.07" CO_abs="934.242124" CO2_abs="80953.482209" HC_abs="6.104271" PMx_abs="1.091104" NOx_abs="30.748771" fuel_abs="34.798708" electricity_abs="0"
            CO_normed="9.903965" CO2_normed="858.193436" HC_normed="0.064712" PMx_normed="0.011567" NOx_normed="0.325970" fuel_normed="0.368903" electricity_normed="0"
            traveltime="1.68" CO_perVeh="30.727106" CO2_perVeh="2662.549858" HC_perVeh="0.200769" PMx_perVeh="0.035886" NOx_perVeh="1.011323" fuel_perVeh="1.144525" electricity_perVeh="0"/>
        <edge id=":110_0" sampledSeconds="94.17" CO_abs="3.163199" CO2_abs="467.749195" HC_abs="0.024861" PMx_abs="0.004523" NOx_abs="0.163384" fuel_abs="0.201068" electricity_abs="0"
            CO_normed="0.041024" CO2_normed="6.066242" HC_normed="0.000322" PMx_normed="0.000059" NOx_normed="0.002119" fuel_normed="0.002608" electricity_normed="0"
            traveltime="0.92" CO_perVeh="0.030970" CO2_perVeh="4.579605" HC_perVeh="0.000243" PMx_perVeh="0.000044" NOx_perVeh="0.001600" fuel_perVeh="0.001969" electricity_perVeh="0"/>
        <edge id=":110_1" sampledSeconds="443.79" CO_abs="10945.695997" CO2_abs="1330038.652485" HC_abs="82.175111" PMx_abs="24.318218" NOx_abs="499.592237" fuel_abs="571.722467" electricity_abs="0"
            CO_normed="140.506270" CO2_normed="17073.265103" HC_normed="1.054855" PMx_normed="0.312165" NOx_normed="6.413100" fuel_normed="7.339012" electricity_normed="0"
            traveltime="0.68" CO_perVeh="16.814235" CO2_perVeh="2043.139433" HC_perVeh="0.126233" PMx_perVeh="0.037356" NOx_perVeh="0.767449" fuel_perVeh="0.878252" electricity_perVeh="0"/>
        <edge id=":111_0" sampledSeconds="340.66" CO_abs="8243.238596" CO2_abs="1037482.705416" HC_abs="62.742633" PMx_abs="18.779506" NOx_abs="387.471346" fuel_abs="445.966258" electricity_abs="0"
            CO_normed="190.390586" CO2_normed="23962.298044" HC_normed="1.449140" PMx_normed="0.433742" NOx_normed="8.949261" fuel_normed="10.300294" electricity_normed="0"
            traveltime="0.38" CO_perVeh="9.161073" CO2_perVeh="1153.000111" HC_perVeh="0.069729" PMx_perVeh="0.020870" NOx_perVeh="0.430614" fuel_perVeh="0.495622" electricity_perVeh="0"/>
        <edge id=":114_0" sampledSeconds="106.47" CO_abs="11072.746373" CO2_abs="785288.990529" HC_abs="69.381215" PMx_abs="16.129821" NOx_abs="333.769503" fuel_abs="337.558036" electricity_abs="0"
            CO_normed="147.142003" CO2_normed="10435.441331" HC_normed="0.921984" PMx_normed="0.214344" NOx_normed="4.435351" fuel_normed="4.485695" electricity_normed="0"
            traveltime="0.98" CO_perVeh="102.435257" CO2_perVeh="7264.799287" HC_perVeh="0.641854" PMx_perVeh="0.149219" NOx_perVeh="3.087740" fuel_perVeh="3.122788" electricity_perVeh="0"/>
        <edge id=":114_1" sampledSeconds="415.83" CO_abs="10054.252339" CO2_abs="1253923.556640" HC_abs="76.225722" PMx_abs="22.743280" NOx_abs="469.163303" fuel_abs="539.004204" electricity_abs="0"
            CO_normed="132.766103" CO2_normed="16558.023277" HC_normed="1.006558" PMx_normed="0.300324" NOx_normed="6.195287" fuel_normed="7.117534" electricity_normed="0"
            traveltime="0.66" CO_perVeh="16.021201" CO2_perVeh="1998.096047" HC_perVeh="0.121464" PMx_perVeh="0.036241" NOx_perVeh="0.747600" fuel_perVeh="0.858890" electricity_perVeh="0"/>
        <edge id=":115_0" sampledSeconds="80.64" CO_abs="60.956840" CO2_abs="9608.681251" HC_abs="0.496721" PMx_abs="0.112304" NOx_abs="3.449944" fuel_abs="4.130386" electricity_abs="0"
            CO_normed="1.377544" CO2_normed="217.143567" HC_normed="0.011225" PMx_normed="0.002538" NOx_normed="0.077964" fuel_normed="0.093341" electricity_normed="0"
            traveltime="0.63" CO_perVeh="0.479682" CO2_perVeh="75.612650" HC_perVeh="0.003909" PMx_perVeh="0.000884" NOx_perVeh="0.027148" fuel_perVeh="0.032503" electricity_perVeh="0"/>
        <edge id=":115_1" sampledSeconds="72.08" CO_abs="992.012987" CO2_abs="164137.321625" HC_abs="8.192136" PMx_abs="2.361129" NOx_abs="60.387591" fuel_abs="70.555430" electricity_abs="0"
            CO_normed="20.020522" CO2_normed="3312.572467" HC_normed="0.165331" PMx_normed="0.047652" NOx_normed="1.218725" fuel_normed="1.423929" electricity_normed="0"
            traveltime="0.59" CO_perVeh="8.121287" CO2_perVeh="1343.738689" HC_perVeh="0.067066" PMx_perVeh="0.019330" NOx_perVeh="0.494374" fuel_perVeh="0.577614" electricity_perVeh="0"/>
        <edge id=":116_0" sampledSeconds="74.53" CO_abs="87.453985" CO2_abs="14807.165530" HC_abs="0.733554" PMx_abs="0.181517" NOx_abs="5.338804" fuel_abs="6.364989" electricity_abs="0"
            CO_normed="2.206214" CO2_normed="373.542473" HC_normed="0.018505" PMx_normed="0.004579" NOx_normed="0.134683" fuel_normed="0.160570" electricity_normed="0"
            traveltime="0.56" CO_perVeh="0.660343" CO2_perVeh="111.805213" HC_perVeh="0.005539" PMx_perVeh="0.001371" NOx_perVeh="0.040312" fuel_perVeh="0.048060" electricity_perVeh="0"/>
        <edge id=":117_0" sampledSeconds="240.14" CO_abs="13373.437462" CO2_abs="1125790.426501" HC_abs="87.668493" PMx_abs="20.497533" NOx_abs="458.259537" fuel_abs="483.925464" electricity_abs="0"
            CO_normed="302.222109" CO2_normed="25441.383940" HC_normed="1.981193" PMx_normed="0.463217" NOx_normed="10.356063" fuel_normed="10.936079" electricity_normed="0"
            traveltime="0.60" CO_perVeh="33.616673" CO2_perVeh="2829.887843" HC_perVeh="0.220371" PMx_perVeh="0.051524" NOx_perVeh="1.151922" fuel_perVeh="1.216438" electricity_perVeh="0"/>
        <edge id=":117_1" sampledSeconds="75.66" CO_abs="4728.508250" CO2_abs="390992.762674" HC_abs="30.833785" PMx_abs="7.200969" NOx_abs="159.852983" fuel_abs="168.069712" electricity_abs="0"
            CO_normed="100.707099" CO2_normed="8327.308479" HC_normed="0.656694" PMx_normed="0.153365" NOx_normed="3.404526" fuel_normed="3.579525" electricity_normed="0"
            traveltime="0.64" CO_perVeh="39.976892" CO2_perVeh="3305.625044" HC_perVeh="0.260682" PMx_perVeh="0.060880" NOx_perVeh="1.351468" fuel_perVeh="1.420935" electricity_perVeh="0"/>
        <edge id=":118_0" sampledSeconds="899.12" CO_abs="12755.778122" CO2_abs="2014416.953005" HC_abs="103.032250" PMx_abs="29.568555" NOx_abs="744.525376" fuel_abs="865.909015" electricity_abs="0"
            CO_normed="38.704018" CO2_normed="6112.212817" HC_normed="0.312624" PMx_normed="0.089718" NOx_normed="2.259064" fuel_normed="2.627371" electricity_normed="0"
            traveltime="3.92" CO_perVeh="55.653454" CO2_perVeh="8788.900290" HC_perVeh="0.449530" PMx_perVeh="0.129008" NOx_perVeh="3.248364" fuel_perVeh="3.777961" electricity_perVeh="0"/>
        <edge id=":118_4" sampledSeconds="283.01" CO_abs="4122.167503" CO2_abs="621008.842559" HC_abs="32.951218" PMx_abs="9.298957" NOx_abs="231.024106" fuel_abs="266.944222" electricity_abs="0"
            CO_normed="12.531803" CO2_normed="1887.929163" HC_normed="0.100175" PMx_normed="0.028270" NOx_normed="0.702336" fuel_normed="0.811537" electricity_normed="0"
            traveltime="3.92" CO_perVeh="57.151299" CO2_perVeh="8609.902938" HC_perVeh="0.456848" PMx_perVeh="0.128924" NOx_perVeh="3.203006" fuel_perVeh="3.701016" electricity_perVeh="0"/>
        <edge id=":118_5" sampledSeconds="238.70" CO_abs="3836.880797" CO2_abs="577602.116053" HC_abs="30.472574" PMx_abs="8.741679" NOx_abs="215.309933" fuel_abs="248.285429" electricity_abs="0"
            CO_normed="11.780274" CO2_normed="1773.396618" HC_normed="0.093559" PMx_normed="0.026839" NOx_normed="0.661060" fuel_normed="0.762304" electricity_normed="0"
            traveltime="3.82" CO_perVeh="61.407198" CO2_perVeh="9244.208879" HC_perVeh="0.487697" PMx_perVeh="0.139906" NOx_perVeh="3.445919" fuel_perVeh="3.973674" electricity_perVeh="0"/>
        <edge id=":119_0" sampledSeconds="139.41" CO_abs="1800.591323" CO2_abs="303121.861526" HC_abs="14.906585" PMx_abs="4.355387" NOx_abs="111.290888" fuel_abs="130.298769" electricity_abs="0"
            CO_normed="38.610208" CO2_normed="6499.863607" HC_normed="0.319643" PMx_normed="0.093393" NOx_normed="2.386418" fuel_normed="2.794006" electricity_normed="0"
            traveltime="0.56" CO_perVeh="7.218443" CO2_perVeh="1215.194015" HC_perVeh="0.059759" PMx_perVeh="0.017460" NOx_perVeh="0.446157" fuel_perVeh="0.522359" electricity_perVeh="0"/>
        <edge id=":12_0" sampledSeconds="589.82" CO_abs="53404.116673" CO2_abs="3033667.777866" HC_abs="315.175783" PMx_abs="59.216132" NOx_abs="1291.098985" fuel_abs="1304.039696" electricity_abs="0"
            CO_normed="500.362699" CO2_normed="28423.542802" HC_normed="2.952997" PMx_normed="0.554818" NOx_normed="12.096779" fuel_normed="12.218025" electricity_normed="0"
            traveltime="2.12" CO_perVeh="192.333927" CO2_perVeh="10925.697719" HC_perVeh="1.135100" PMx_perVeh="0.213266" NOx_perVeh="4.649869" fuel_perVeh="4.696475" electricity_perVeh="0"/>
        <edge id=":12_1" sampledSeconds="56.20" CO_abs="1062.418403" CO2_abs="92838.518713" HC_abs="6.959572" PMx_abs="1.249296" NOx_abs="35.241844" fuel_abs="39.907612" electricity_abs="0"
            CO_normed="9.944311" CO2_normed="868.975098" HC_normed="0.065142" PMx_normed="0.011694" NOx_normed="0.329866" fuel_normed="0.373538" electricity_normed="0"
            traveltime="1.90" CO_perVeh="35.826233" CO2_perVeh="3130.644549" HC_perVeh="0.234686" PMx_perVeh="0.042128" NOx_perVeh="1.188404" fuel_perVeh="1.345740" electricity_perVeh="0"/>
        <edge id=":120_0" sampledSeconds="38.96" CO_abs="598.094776" CO2_abs="91452.813776" HC_abs="4.753260" PMx_abs="1.358008" NOx_abs="33.931463" fuel_abs="39.311519" electricity_abs="0"
            CO_normed="470.249588" CO2_normed="71904.403325" HC_normed="3.737231" PMx_normed="1.067729" NOx_normed="26.678475" fuel_normed="30.908522" electricity_normed="0"
            traveltime="0.01" CO_perVeh="0.230135" CO2_perVeh="35.189221" HC_perVeh="0.001829" PMx_perVeh="0.000523" NOx_perVeh="0.013056" fuel_perVeh="0.015126" electricity_perVeh="0"/>
        <edge id=":121_0" sampledSeconds="372.91" CO_abs="53261.534446" CO2_abs="1433388.102297" HC_abs="276.194504" PMx_abs="30.974197" NOx_abs="634.141279" fuel_abs="616.169105" electricity_abs="0"
            CO_normed="30455.756433" CO2_normed="819633.143724" HC_normed="157.932223" PMx_normed="17.711517" NOx_normed="362.611640" fuel_normed="352.334877" electricity_normed="0"
            traveltime="0.11" CO_perVeh="16.333855" CO2_perVeh="439.580914" HC_perVeh="0.084701" PMx_perVeh="0.009499" NOx_perVeh="0.194474" fuel_perVeh="0.188962" electricity_perVeh="0"/>
        <edge id=":122_0" sampledSeconds="134.73" CO_abs="915.282885" CO2_abs="94565.074236" HC_abs="6.379716" PMx_abs="1.664761" NOx_abs="37.354057" fuel_abs="40.649152" electricity_abs="0"
            CO_normed="20.153207" CO2_normed="2082.186384" HC_normed="0.140472" PMx_normed="0.036656" NOx_normed="0.822482" fuel_normed="0.895036" electricity_normed="0"
            traveltime="0.54" CO_perVeh="3.649552" CO2_perVeh="377.063937" HC_perVeh="0.025438" PMx_perVeh="0.006638" NOx_perVeh="0.148944" fuel_perVeh="0.162082" electricity_perVeh="0"/>
        <edge id=":123_0" sampledSeconds="309.93" CO_abs="40712.817886" CO2_abs="2499584.121119" HC_abs="245.450832" PMx_abs="51.490384" NOx_abs="1073.349673" fuel_abs="1074.454621" electricity_abs="0"
            CO_normed="155.264128" CO2_normed="9532.519941" HC_normed="0.936062" PMx_normed="0.196366" NOx_normed="4.093372" fuel_normed="4.097586" electricity_normed="0"
            traveltime="4.22" CO_perVeh="554.429648" CO2_perVeh="34039.489712" HC_perVeh="3.342564" PMx_perVeh="0.701199" NOx_perVeh="14.616942" fuel_perVeh="14.631989" electricity_perVeh="0"/>
        <edge id=":123_1" sampledSeconds="0.00" CO_abs="0" CO2_abs="0" HC_abs="0" PMx_abs="0" NOx_abs="0" fuel_abs="0" electricity_abs="0"
            CO_normed="0" CO2_normed="0" HC_normed="0" PMx_normed="0" NOx_normed="0" fuel_normed="0" electricity_normed="0"/>
        <edge id=":123_2" sampledSeconds="268.07" CO_abs="35612.715807" CO2_abs="2172553.776679" HC_abs="214.370311" PMx_abs="44.823385" NOx_abs="933.712401" fuel_abs="933.879582" electricity_abs="0"
            CO_normed="137.116604" CO2_normed="8364.798603" HC_normed="0.825372" PMx_normed="0.172580" NOx_normed="3.594993" fuel_normed="3.595637" electricity_normed="0"
            traveltime="4.21" CO_perVeh="559.760879" CO2_perVeh="34148.213194" HC_perVeh="3.369474" PMx_perVeh="0.704534" NOx_perVeh="14.676097" fuel_perVeh="14.678725" electricity_perVeh="0"/>
        <edge id=":123_3" sampledSeconds="469.42" CO_abs="23210.092707" CO2_abs="2176807.330093" HC_abs="157.131411" PMx_abs="40.654733" NOx_abs="873.632571" fuel_abs="935.707223" electricity_abs="0"
            CO_normed="91.434694" CO2_normed="8575.395009" HC_normed="0.619009" PMx_normed="0.160157" NOx_normed="3.441620" fuel_normed="3.686160" electricity_normed="0"
            traveltime="2.81" CO_perVeh="138.921807" CO2_perVeh="13029.073713" HC_perVeh="0.940495" PMx_perVeh="0.243335" NOx_perVeh="5.229045" fuel_perVeh="5.600587" electricity_perVeh="0"/>
        <edge id=":123_5" sampledSeconds="0.00" CO_abs="0" CO2_abs="0" HC_abs="0" PMx_abs="0" NOx_abs="0" fuel_abs="0" electricity_abs="0"
            CO_normed="0" CO2_normed="0" HC_normed="0" PMx_normed="0" NOx_normed="0" fuel_normed="0" electricity_normed="0"/>
        <edge id=":123_6" sampledSeconds="194.70" CO_abs="9433.171182" CO2_abs="874051.941560" HC_abs="63.685294" PMx_abs="16.429864" NOx_abs="351.855180" fuel_abs="375.713782" electricity_abs="0"
            CO_normed="35.894943" CO2_normed="3325.927591" HC_normed="0.242334" PMx_normed="0.062519" NOx_normed="1.338873" fuel_normed="1.429660" electricity_normed="0"
            traveltime="2.91" CO_perVeh="141.124480" CO2_perVeh="13076.209833" HC_perVeh="0.952761" PMx_perVeh="0.245798" NOx_perVeh="5.263912" fuel_perVeh="5.620847" electricity_perVeh="0"/>
        <edge id=":124_0" sampledSeconds="119.08" CO_abs="4252.326266" CO2_abs="362796.169044" HC_abs="27.875017" PMx_abs="7.046659" NOx_abs="148.124099" fuel_abs="155.948849" electricity_abs="0"
            CO_normed="99.554568" CO2_normed="8493.707617" HC_normed="0.652604" PMx_normed="0.164975" NOx_normed="3.467850" fuel_normed="3.651042" electricity_normed="0"
            traveltime="0.46" CO_perVeh="16.519570" CO2_perVeh="1409.401859" HC_perVeh="0.108290" PMx_perVeh="0.027375" NOx_perVeh="0.575437" fuel_perVeh="0.605835" electricity_perVeh="0"/>
        <edge id=":125_0" sampledSeconds="141.05" CO_abs="5492.317953" CO2_abs="550868.093745" HC_abs="38.036095" PMx_abs="10.287820" NOx_abs="217.619091" fuel_abs="236.792343" electricity_abs="0"
            CO_normed="345.465014" CO2_normed="34649.424075" HC_normed="2.392458" PMx_normed="0.647101" NOx_normed="13.688170" fuel_normed="14.894161" electricity_normed="0"
            traveltime="0.16" CO_perVeh="6.290114" CO2_perVeh="630.885391" HC_perVeh="0.043561" PMx_perVeh="0.011782" NOx_perVeh="0.249230" fuel_perVeh="0.271188" electricity_perVeh="0"/>
        <edge id=":125_3" sampledSeconds="0.00" CO_abs="0" CO2_abs="0" HC_abs="0" PMx_abs="0" NOx_abs="0" fuel_abs="0" electricity_abs="0"
            CO_normed="0" CO2_normed="0" HC_normed="0" PMx_normed="0" NOx_normed="0" fuel_normed="0" electricity_normed="0"/>
        <edge id=":126_0" sampledSeconds="27.06" CO_abs="144.315049" CO2_abs="10237.354537" HC_abs="0.894450" PMx_abs="0.162048" NOx_abs="4.077591" fuel_abs="4.400617" electricity_abs="0"
            CO_normed="4.752550" CO2_normed="337.134175" HC_normed="0.029456" PMx_normed="0.005337" NOx_normed="0.134282" fuel_normed="0.144920" electricity_normed="0"
            traveltime="0.57" CO_perVeh="3.020094" CO2_perVeh="214.238021" HC_perVeh="0.018718" PMx_perVeh="0.003391" NOx_perVeh="0.085332" fuel_perVeh="0.092092" electricity_perVeh="0"/>
        <edge id=":126_1" sampledSeconds="81.05" CO_abs="1201.820361" CO2_abs="184306.265057" HC_abs="9.740422" PMx_abs="2.971410" NOx_abs="68.398305" fuel_abs="79.224925" electricity_abs="0"
            CO_normed="35.214648" CO2_normed="5400.374616" HC_normed="0.285405" PMx_normed="0.087066" NOx_normed="2.004145" fuel_normed="2.321377" electricity_normed="0"
            traveltime="0.35" CO_perVeh="5.200483" CO2_perVeh="797.524876" HC_perVeh="0.042148" PMx_perVeh="0.012858" NOx_perVeh="0.295971" fuel_perVeh="0.342820" electricity_perVeh="0"/>
        <edge id=":127_0" sampledSeconds="234.26" CO_abs="5009.723721" CO2_abs="649726.548704" HC_abs="37.926871" PMx_abs="11.108052" NOx_abs="245.677942" fuel_abs="279.287689" electricity_abs="0"
            CO_normed="115.849262" CO2_normed="15024.848810" HC_normed="0.877054" PMx_normed="0.256872" NOx_normed="5.681273" fuel_normed="6.458494" electricity_normed="0"
            traveltime="0.44" CO_perVeh="9.368304" CO2_perVeh="1215.004340" HC_perVeh="0.070924" PMx_perVeh="0.020772" NOx_perVeh="0.459424" fuel_perVeh="0.522275" electricity_perVeh="0"/>
        <edge id=":128_0" sampledSeconds="229.25" CO_abs="165.951642" CO2_abs="30777.124074" HC_abs="1.438906" PMx_abs="0.442217" NOx_abs="11.148233" fuel_abs="13.229735" electricity_abs="0"
            CO_normed="2.564694" CO2_normed="475.644005" HC_normed="0.022238" PMx_normed="0.006834" NOx_normed="0.172290" fuel_normed="0.204458" electricity_normed="0"
            traveltime="0.75" CO_perVeh="0.545543" CO2_perVeh="101.175610" HC_perVeh="0.004730" PMx_perVeh="0.001454" NOx_perVeh="0.036648" fuel_perVeh="0.043491" electricity_perVeh="0"/>
        <edge id=":128_1" sampledSeconds="142.33" CO_abs="140.702467" CO2_abs="21668.513070" HC_abs="1.134439" PMx_abs="0.258083" NOx_abs="7.806563" fuel_abs="9.314418" electricity_abs="0"
            CO_normed="2.246228" CO2_normed="345.924475" HC_normed="0.018111" PMx_normed="0.004120" NOx_normed="0.124627" fuel_normed="0.148699" electricity_normed="0"
            traveltime="0.85" CO_perVeh="0.843431" CO2_perVeh="129.890419" HC_perVeh="0.006800" PMx_perVeh="0.001547" NOx_perVeh="0.046796" fuel_perVeh="0.055835" electricity_perVeh="0"/>
        <edge id=":129_0" sampledSeconds="105.02" CO_abs="6198.328082" CO2_abs="533509.523579" HC_abs="40.889075" PMx_abs="10.229331" NOx_abs="217.845092" fuel_abs="229.330515" electricity_abs="0"
            CO_normed="144.397341" CO2_normed="12428.731723" HC_normed="0.952559" PMx_normed="0.238304" NOx_normed="5.074958" fuel_normed="5.342524" electricity_normed="0"
            traveltime="0.50" CO_perVeh="29.376822" CO2_perVeh="2528.555128" HC_perVeh="0.193793" PMx_perVeh="0.048482" NOx_perVeh="1.032471" fuel_perVeh="1.086906" electricity_perVeh="0"/>
        <edge id=":13_0" sampledSeconds="59.92" CO_abs="4959.175361" CO2_abs="357080.460160" HC_abs="31.105262" PMx_abs="6.856738" NOx_abs="149.245432" fuel_abs="153.492353" electricity_abs="0"
            CO_normed="35.061505" CO2_normed="2524.568554" HC_normed="0.219915" PMx_normed="0.048477" NOx_normed="1.055169" fuel_normed="1.085195" electricity_normed="0"
            traveltime="2.12" CO_perVeh="175.414003" CO2_perVeh="12630.509809" HC_perVeh="1.100243" PMx_perVeh="0.242534" NOx_perVeh="5.279051" fuel_perVeh="5.429271" electricity_perVeh="0"/>
        <edge id=":13_1" sampledSeconds="534.10" CO_abs="15419.987144" CO2_abs="1144346.363958" HC_abs="96.589180" PMx_abs="17.120289" NOx_abs="448.236700" fuel_abs="491.908381" electricity_abs="0"
            CO_normed="153.629173" CO2_normed="11401.111046" HC_normed="0.962317" PMx_normed="0.170569" NOx_normed="4.465778" fuel_normed="4.900878" electricity_normed="0"
            traveltime="1.86" CO_perVeh="53.834842" CO2_perVeh="3995.185287" HC_perVeh="0.337216" PMx_perVeh="0.059771" NOx_perVeh="1.564901" fuel_perVeh="1.717369" electricity_perVeh="0"/>
        <edge id=":132_0" sampledSeconds="41.01" CO_abs="493.764967" CO2_abs="87205.456972" HC_abs="4.152873" PMx_abs="1.217526" NOx_abs="31.752948" fuel_abs="37.485827" electricity_abs="0"
            CO_normed="931.729678" CO2_normed="164555.847102" HC_normed="7.836432" PMx_normed="2.297460" NOx_normed="59.917503" fuel_normed="70.735391" electricity_normed="0"
            traveltime="6.356994e-03" CO_perVeh="0.076547" CO2_perVeh="13.519178" HC_perVeh="0.000644" PMx_perVeh="0.000189" NOx_perVeh="0.004923" fuel_perVeh="0.005811" electricity_perVeh="0"/>