<?xml version="1.0" encoding="UTF-8"?>

<!-- generated on Tue Nov 10 00:07:02 2020 by Eclipse SUMO sumo Version 1.7.0
<configuration xmlns:xsi="http://www.w3.org/2001/XMLSchema-instance" xsi:noNamespaceSchemaLocation="http://sumo.dlr.de/xsd/sumoConfiguration.xsd">

    <input>
        <net-file value="../dataSets/Porto/6AM7AM_Routing_SaoBento/Porto.net.xml"/>
        <route-files value="../results/Porto/6AM7AM_Routing_SaoBento/cost_hc-length/solution11/Porto.rou.xml"/>
        <additional-files value="moreOutputInfo.xml"/>
    </input>

    <output>
        <emission-output.precision value="6"/>
        <tripinfo-output value="../results/Porto/6AM7AM_Routing_SaoBento/cost_hc-length/solution11/Porto-tripinfo"/>
    </output>

    <processing>
        <collision.action value="warn"/>
        <time-to-teleport value="-1"/>
    </processing>

    <emissions>
        <device.emissions.probability value="1"/>
    </emissions>

    <gui_only>
        <quit-on-end value="true"/>
        <start value="true"/>
    </gui_only>

</configuration>
-->

<meandata xmlns:xsi="http://www.w3.org/2001/XMLSchema-instance" xsi:noNamespaceSchemaLocation="http://sumo.dlr.de/xsd/meandata_file.xsd">
    <interval begin="0.00" end="4700.00" id="emissions-detector">
        <edge id=":1092997347_0" sampledSeconds="264.52" CO_abs="33540.395808" CO2_abs="1336197.131514" HC_abs="184.297461" PMx_abs="27.225115" NOx_abs="579.741620" fuel_abs="574.378532" electricity_abs="0"
            CO_normed="58387.536222" CO2_normed="2326068.507471" HC_normed="320.827301" PMx_normed="47.393817" NOx_normed="1009.221389" fuel_normed="999.885259" electricity_normed="0"
            traveltime="0.07" CO_perVeh="9.434763" CO2_perVeh="375.866249" HC_perVeh="0.051842" PMx_perVeh="0.007658" NOx_perVeh="0.163079" fuel_perVeh="0.161570" electricity_perVeh="0"/>
        <edge id=":1103427051_0" sampledSeconds="10.77" CO_abs="911.048472" CO2_abs="52627.888738" HC_abs="5.397869" PMx_abs="1.026569" NOx_abs="22.391951" fuel_abs="22.622391" electricity_abs="0"
            CO_normed="2406.290901" CO2_normed="139002.494099" HC_normed="14.257027" PMx_normed="2.711409" NOx_normed="59.142351" fuel_normed="59.750997" electricity_normed="0"
            traveltime="0.03" CO_perVeh="2.496259" CO2_perVeh="144.199620" HC_perVeh="0.014790" PMx_perVeh="0.002813" NOx_perVeh="0.061354" fuel_perVeh="0.061985" electricity_perVeh="0"/>
        <edge id=":1105984386_0" sampledSeconds="22.86" CO_abs="562.910029" CO2_abs="44857.366836" HC_abs="3.589482" PMx_abs="0.621908" NOx_abs="17.210039" fuel_abs="19.282418" electricity_abs="0"
            CO_normed="44.404236" CO2_normed="3538.499915" HC_normed="0.283150" PMx_normed="0.049058" NOx_normed="1.357586" fuel_normed="1.521062" electricity_normed="0"
            traveltime="0.96" CO_perVeh="23.624898" CO2_perVeh="1882.628942" HC_perVeh="0.150648" PMx_perVeh="0.026101" NOx_perVeh="0.722292" fuel_perVeh="0.809268" electricity_perVeh="0"/>
        <edge id=":1105984390_0" sampledSeconds="23.57" CO_abs="5.850828" CO2_abs="579.201919" HC_abs="0.039384" PMx_abs="0.005074" NOx_abs="0.201918" fuel_abs="0.248980" electricity_abs="0"
            CO_normed="0.356806" CO2_normed="35.321976" HC_normed="0.002402" PMx_normed="0.000309" NOx_normed="0.012314" fuel_normed="0.015184" electricity_normed="0"
            traveltime="1.07" CO_perVeh="0.265332" CO2_perVeh="26.266523" HC_perVeh="0.001786" PMx_perVeh="0.000230" NOx_perVeh="0.009157" fuel_perVeh="0.011291" electricity_perVeh="0"/>
        <edge id=":1105984390_1" sampledSeconds="644.06" CO_abs="14890.827493" CO2_abs="1924063.312533" HC_abs="113.832655" PMx_abs="34.111061" NOx_abs="720.183427" fuel_abs="827.066632" electricity_abs="0"
            CO_normed="868.677853" CO2_normed="112243.002465" HC_normed="6.640592" PMx_normed="1.989918" NOx_normed="42.012937" fuel_normed="48.248122" electricity_normed="0"
            traveltime="0.64" CO_perVeh="14.693497" CO2_perVeh="1898.565996" HC_perVeh="0.112324" PMx_perVeh="0.033659" NOx_perVeh="0.710640" fuel_perVeh="0.816107" electricity_perVeh="0"/>
        <edge id=":1105984395_0" sampledSeconds="9.09" CO_abs="118.718393" CO2_abs="10977.604465" HC_abs="0.784655" PMx_abs="0.111078" NOx_abs="3.928174" fuel_abs="4.718889" electricity_abs="0"
            CO_normed="98.840476" CO2_normed="9139.541182" HC_normed="0.653274" PMx_normed="0.092480" NOx_normed="3.270450" fuel_normed="3.928770" electricity_normed="0"
            traveltime="0.09" CO_perVeh="1.203934" CO2_perVeh="111.324913" HC_perVeh="0.007957" PMx_perVeh="0.001126" NOx_perVeh="0.039836" fuel_perVeh="0.047855" electricity_perVeh="0"/>
        <edge id=":1105984398_0" sampledSeconds="23.53" CO_abs="1390.204047" CO2_abs="96867.373443" HC_abs="8.611011" PMx_abs="1.719113" NOx_abs="39.773006" fuel_abs="41.639031" electricity_abs="0"
            CO_normed="88.075860" CO2_normed="6136.996364" HC_normed="0.545547" PMx_normed="0.108914" NOx_normed="2.519804" fuel_normed="2.638025" electricity_normed="0"
            traveltime="1.13" CO_perVeh="66.547007" CO2_perVeh="4636.897605" HC_perVeh="0.412196" PMx_perVeh="0.082291" NOx_perVeh="1.903875" fuel_perVeh="1.993199" electricity_perVeh="0"/>
        <edge id=":1105984398_1" sampledSeconds="453.19" CO_abs="8342.882267" CO2_abs="964437.094645" HC_abs="60.168318" PMx_abs="13.918861" NOx_abs="365.524583" fuel_abs="414.570324" electricity_abs="0"
            CO_normed="511.632730" CO2_normed="59144.737760" HC_normed="3.689862" PMx_normed="0.853583" NOx_normed="22.416035" fuel_normed="25.423797" electricity_normed="0"
            traveltime="0.96" CO_perVeh="17.592253" CO2_perVeh="2033.664294" HC_perVeh="0.126874" PMx_perVeh="0.029350" NOx_perVeh="0.770765" fuel_perVeh="0.874185" electricity_perVeh="0"/>
        <edge id=":1106006327_0" sampledSeconds="135.64" CO_abs="18359.936607" CO2_abs="594638.461883" HC_abs="97.599504" PMx_abs="12.421372" NOx_abs="260.390607" fuel_abs="255.614088" electricity_abs="0"
            CO_normed="1587.238168" CO2_normed="51407.196167" HC_normed="8.437592" PMx_normed="1.073842" NOx_normed="22.511075" fuel_normed="22.098139" electricity_normed="0"
            traveltime="2.10" CO_perVeh="284.575484" CO2_perVeh="9216.781730" HC_perVeh="1.512774" PMx_perVeh="0.192529" NOx_perVeh="4.036004" fuel_perVeh="3.961969" electricity_perVeh="0"/>
        <edge id=":1106006327_1" sampledSeconds="160.75" CO_abs="21864.820042" CO2_abs="734452.917752" HC_abs="116.876894" PMx_abs="15.347963" NOx_abs="321.605669" fuel_abs="315.714689" electricity_abs="0"
            CO_normed="1648.378123" CO2_normed="55370.047410" HC_normed="8.811292" PMx_normed="1.157075" NOx_normed="24.245695" fuel_normed="23.801576" electricity_normed="0"
            traveltime="2.28" CO_perVeh="310.399301" CO2_perVeh="10426.505763" HC_perVeh="1.659218" PMx_perVeh="0.217884" NOx_perVeh="4.565607" fuel_perVeh="4.481977" electricity_perVeh="0"/>
        <edge id=":1106006327_2" sampledSeconds="0.00" CO_abs="0" CO2_abs="0" HC_abs="0" PMx_abs="0" NOx_abs="0" fuel_abs="0" electricity_abs="0"
            CO_normed="0" CO2_normed="0" HC_normed="0" PMx_normed="0" NOx_normed="0" fuel_normed="0" electricity_normed="0"/>
        <edge id=":1106006327_3" sampledSeconds="0.00" CO_abs="0" CO2_abs="0" HC_abs="0" PMx_abs="0" NOx_abs="0" fuel_abs="0" electricity_abs="0"
            CO_normed="0" CO2_normed="0" HC_normed="0" PMx_normed="0" NOx_normed="0" fuel_normed="0" electricity_normed="0"/>
        <edge id=":1107381198_0" sampledSeconds="0.00" CO_abs="0" CO2_abs="0" HC_abs="0" PMx_abs="0" NOx_abs="0" fuel_abs="0" electricity_abs="0"
            CO_normed="0" CO2_normed="0" HC_normed="0" PMx_normed="0" NOx_normed="0" fuel_normed="0" electricity_normed="0"/>
        <edge id=":1107381198_1" sampledSeconds="36.18" CO_abs="1365.683082" CO2_abs="54069.539576" HC_abs="7.456857" PMx_abs="0.901108" NOx_abs="22.187583" fuel_abs="23.242677" electricity_abs="0"
            CO_normed="114.073623" CO2_normed="4516.354033" HC_normed="0.622861" PMx_normed="0.075268" NOx_normed="1.853298" fuel_normed="1.941429" electricity_normed="0"
            traveltime="1.49" CO_perVeh="56.228960" CO2_perVeh="2226.192879" HC_perVeh="0.307019" PMx_perVeh="0.037101" NOx_perVeh="0.913524" fuel_perVeh="0.956965" electricity_perVeh="0"/>
        <edge id=":1110338277_0" sampledSeconds="97.30" CO_abs="1674.249979" CO2_abs="192835.748603" HC_abs="12.027169" PMx_abs="2.710301" NOx_abs="72.739922" fuel_abs="82.891955" electricity_abs="0"
            CO_normed="4580.015141" CO2_normed="527514.205904" HC_normed="32.901071" PMx_normed="7.414198" NOx_normed="198.984590" fuel_normed="226.756107" electricity_normed="0"
            traveltime="0.02" CO_perVeh="0.377323" CO2_perVeh="43.459091" HC_perVeh="0.002711" PMx_perVeh="0.000611" NOx_perVeh="0.016393" fuel_perVeh="0.018681" electricity_perVeh="0"/>
        <edge id=":1110338293_0" sampledSeconds="123.53" CO_abs="6087.760883" CO2_abs="417598.712358" HC_abs="37.531302" PMx_abs="7.320152" NOx_abs="170.948957" fuel_abs="179.507565" electricity_abs="0"
            CO_normed="15543.219275" CO2_normed="1066209.478362" HC_normed="95.824601" PMx_normed="18.689751" NOx_normed="436.465423" fuel_normed="458.317187" electricity_normed="0"
            traveltime="0.03" CO_perVeh="1.396330" CO2_perVeh="95.783246" HC_perVeh="0.008608" PMx_perVeh="0.001679" NOx_perVeh="0.039210" fuel_perVeh="0.041173" electricity_perVeh="0"/>
        <edge id=":1110338295_0" sampledSeconds="0.00" CO_abs="0" CO2_abs="0" HC_abs="0" PMx_abs="0" NOx_abs="0" fuel_abs="0" electricity_abs="0"
            CO_normed="0" CO2_normed="0" HC_normed="0" PMx_normed="0" NOx_normed="0" fuel_normed="0" electricity_normed="0"/>
        <edge id=":1110673403_0" sampledSeconds="143.86" CO_abs="2265.721099" CO2_abs="273628.364315" HC_abs="16.626468" PMx_abs="3.824442" NOx_abs="102.830991" fuel_abs="117.621267" electricity_abs="0"
            CO_normed="5784.819828" CO2_normed="698625.611017" HC_normed="42.450556" PMx_normed="9.764534" NOx_normed="262.547210" fuel_normed="300.309619" electricity_normed="0"
            traveltime="0.02" CO_perVeh="0.363779" CO2_perVeh="43.933129" HC_perVeh="0.002670" PMx_perVeh="0.000614" NOx_perVeh="0.016510" fuel_perVeh="0.018885" electricity_perVeh="0"/>
        <edge id=":1110673412_0" sampledSeconds="252.95" CO_abs="45162.924942" CO2_abs="3074480.757639" HC_abs="280.888170" PMx_abs="67.624495" NOx_abs="1321.998756" fuel_abs="1321.567809" electricity_abs="0"
            CO_normed="119285.788549" CO2_normed="8120418.728906" HC_normed="741.890985" PMx_normed="178.612019" NOx_normed="3491.706180" fuel_normed="3490.567948" electricity_normed="0"
            traveltime="0.02" CO_perVeh="2.779265" CO2_perVeh="189.199359" HC_perVeh="0.017285" PMx_perVeh="0.004162" NOx_perVeh="0.081354" fuel_perVeh="0.081327" electricity_perVeh="0"/>
        <edge id=":1110673414_0" sampledSeconds="0.00" CO_abs="0" CO2_abs="0" HC_abs="0" PMx_abs="0" NOx_abs="0" fuel_abs="0" electricity_abs="0"
            CO_normed="0" CO2_normed="0" HC_normed="0" PMx_normed="0" NOx_normed="0" fuel_normed="0" electricity_normed="0"/>
        <edge id=":1110673414_1" sampledSeconds="15.07" CO_abs="1320.746956" CO2_abs="46940.040964" HC_abs="7.105044" PMx_abs="0.888010" NOx_abs="19.957677" fuel_abs="20.177898" electricity_abs="0"
            CO_normed="112.030561" CO2_normed="3981.625020" HC_normed="0.602676" PMx_normed="0.075324" NOx_normed="1.692883" fuel_normed="1.711563" electricity_normed="0"
            traveltime="1.65" CO_perVeh="144.247037" CO2_perVeh="5126.615504" HC_perVeh="0.775986" PMx_perVeh="0.096985" NOx_perVeh="2.179703" fuel_perVeh="2.203754" electricity_perVeh="0"/>
        <edge id=":1110673417_0" sampledSeconds="29.71" CO_abs="528.501144" CO2_abs="62670.440429" HC_abs="3.839925" PMx_abs="0.873759" NOx_abs="23.551682" fuel_abs="26.939381" electricity_abs="0"
            CO_normed="1445.747812" CO2_normed="171438.894791" HC_normed="10.504355" PMx_normed="2.390223" NOx_normed="64.427095" fuel_normed="73.694356" electricity_normed="0"
            traveltime="0.02" CO_perVeh="0.392261" CO2_perVeh="46.514840" HC_perVeh="0.002850" PMx_perVeh="0.000649" NOx_perVeh="0.017480" fuel_perVeh="0.019995" electricity_perVeh="0"/>
        <edge id=":1110673446_0" sampledSeconds="334.21" CO_abs="2826.406159" CO2_abs="233242.062504" HC_abs="18.392226" PMx_abs="4.266242" NOx_abs="95.191284" fuel_abs="100.260023" electricity_abs="0"
            CO_normed="7216.356150" CO2_normed="595511.648947" HC_normed="46.958874" PMx_normed="10.892532" NOx_normed="243.041576" fuel_normed="255.983036" electricity_normed="0"
            traveltime="0.02" CO_perVeh="0.192956" CO2_perVeh="15.923203" HC_perVeh="0.001256" PMx_perVeh="0.000291" NOx_perVeh="0.006499" fuel_perVeh="0.006845" electricity_perVeh="0"/>
        <edge id=":1110673451_0" sampledSeconds="37.69" CO_abs="361.722986" CO2_abs="27727.524956" HC_abs="2.279944" PMx_abs="0.379691" NOx_abs="10.620239" fuel_abs="11.918990" electricity_abs="0"
            CO_normed="1026.164500" CO2_normed="78659.645265" HC_normed="6.467927" PMx_normed="1.077137" NOx_normed="30.128337" fuel_normed="33.812739" electricity_normed="0"
            traveltime="0.03" CO_perVeh="0.259403" CO2_perVeh="19.884281" HC_perVeh="0.001635" PMx_perVeh="0.000272" NOx_perVeh="0.007616" fuel_perVeh="0.008547" electricity_perVeh="0"/>
        <edge id=":1110673464_0" sampledSeconds="324.32" CO_abs="616.636557" CO2_abs="50990.910095" HC_abs="3.967210" PMx_abs="0.663160" NOx_abs="19.247625" fuel_abs="21.919038" electricity_abs="0"
            CO_normed="33.450238" CO2_normed="2766.067090" HC_normed="0.215206" PMx_normed="0.035974" NOx_normed="1.044112" fuel_normed="1.189026" electricity_normed="0"
            traveltime="1.17" CO_perVeh="2.229060" CO2_perVeh="184.325413" HC_perVeh="0.014341" PMx_perVeh="0.002397" NOx_perVeh="0.069578" fuel_perVeh="0.079234" electricity_perVeh="0"/>
        <edge id=":1110673464_1" sampledSeconds="709.52" CO_abs="16254.946730" CO2_abs="2082314.738040" HC_abs="124.029089" PMx_abs="36.957257" NOx_abs="781.563548" fuel_abs="895.091570" electricity_abs="0"
            CO_normed="864.024809" CO2_normed="110684.557960" HC_normed="6.592714" PMx_normed="1.964447" NOx_normed="41.543679" fuel_normed="47.578213" electricity_normed="0"
            traveltime="0.70" CO_perVeh="16.029298" CO2_perVeh="2053.408350" HC_perVeh="0.122307" PMx_perVeh="0.036444" NOx_perVeh="0.770714" fuel_perVeh="0.882666" electricity_perVeh="0"/>
        <edge id=":1110673479_0" sampledSeconds="134.89" CO_abs="6356.798220" CO2_abs="439299.956956" HC_abs="39.243345" PMx_abs="7.571371" NOx_abs="178.956266" fuel_abs="188.836149" electricity_abs="0"
            CO_normed="16230.123116" CO2_normed="1121616.911377" HC_normed="100.195774" PMx_normed="19.331160" NOx_normed="456.909616" fuel_normed="482.134850" electricity_normed="0"
            traveltime="0.03" CO_perVeh="1.339127" CO2_perVeh="92.543166" HC_perVeh="0.008267" PMx_perVeh="0.001595" NOx_perVeh="0.037699" fuel_perVeh="0.039780" electricity_perVeh="0"/>
        <edge id=":1110673511_0" sampledSeconds="11.84" CO_abs="243.493697" CO2_abs="25859.633162" HC_abs="1.708060" PMx_abs="0.373253" NOx_abs="9.860334" fuel_abs="11.115964" electricity_abs="0"
            CO_normed="621.686034" CO2_normed="66024.595308" HC_normed="4.361005" PMx_normed="0.952987" NOx_normed="25.175321" fuel_normed="28.381184" electricity_normed="0"
            traveltime="0.02" CO_perVeh="0.482166" CO2_perVeh="51.207194" HC_perVeh="0.003382" PMx_perVeh="0.000739" NOx_perVeh="0.019525" fuel_perVeh="0.022012" electricity_perVeh="0"/>
        <edge id=":1110673517_0" sampledSeconds="17.05" CO_abs="669.029861" CO2_abs="49431.343595" HC_abs="4.210168" PMx_abs="0.864305" NOx_abs="20.135857" fuel_abs="21.248358" electricity_abs="0"
            CO_normed="1708.161348" CO2_normed="126207.685775" HC_normed="10.749365" PMx_normed="2.206735" NOx_normed="51.410698" fuel_normed="54.251126" electricity_normed="0"
            traveltime="0.03" CO_perVeh="1.074172" CO2_perVeh="79.365283" HC_perVeh="0.006760" PMx_perVeh="0.001388" NOx_perVeh="0.032329" fuel_perVeh="0.034116" electricity_perVeh="0"/>
        <edge id=":1110673534_0" sampledSeconds="477.38" CO_abs="2574.878253" CO2_abs="220640.717795" HC_abs="16.756334" PMx_abs="2.919953" NOx_abs="83.449811" fuel_abs="94.844847" electricity_abs="0"
            CO_normed="127.406148" CO2_normed="10917.403157" HC_normed="0.829111" PMx_normed="0.144481" NOx_normed="4.129135" fuel_normed="4.692966" electricity_normed="0"
            traveltime="1.44" CO_perVeh="7.757084" CO2_perVeh="664.702708" HC_perVeh="0.050480" PMx_perVeh="0.008797" NOx_perVeh="0.251401" fuel_perVeh="0.285730" electricity_perVeh="0"/>
        <edge id=":1110673534_1" sampledSeconds="183.33" CO_abs="2810.090790" CO2_abs="354207.428529" HC_abs="20.835504" PMx_abs="4.845357" NOx_abs="132.106522" fuel_abs="152.258869" electricity_abs="0"
            CO_normed="135.201631" CO2_normed="17041.948341" HC_normed="1.002457" PMx_normed="0.233124" NOx_normed="6.356029" fuel_normed="7.325616" electricity_normed="0"
            traveltime="1.22" CO_perVeh="18.657994" CO2_perVeh="2351.810162" HC_perVeh="0.138340" PMx_perVeh="0.032171" NOx_perVeh="0.877140" fuel_perVeh="1.010944" electricity_perVeh="0"/>
        <edge id=":1110673549_0" sampledSeconds="59.99" CO_abs="72.726291" CO2_abs="13283.023421" HC_abs="0.631224" PMx_abs="0.134692" NOx_abs="4.588769" fuel_abs="5.709864" electricity_abs="0"
            CO_normed="3.485935" CO2_normed="636.685276" HC_normed="0.030256" PMx_normed="0.006456" NOx_normed="0.219950" fuel_normed="0.273687" electricity_normed="0"
            traveltime="1.25" CO_perVeh="1.515190" CO2_perVeh="276.740478" HC_perVeh="0.013151" PMx_perVeh="0.002806" NOx_perVeh="0.095603" fuel_perVeh="0.118960" electricity_perVeh="0"/>
        <edge id=":1110673549_1" sampledSeconds="639.15" CO_abs="13688.598860" CO2_abs="1789765.390825" HC_abs="105.123158" PMx_abs="31.536160" NOx_abs="669.387593" fuel_abs="769.338196" electricity_abs="0"
            CO_normed="634.678222" CO2_normed="82983.300796" HC_normed="4.874084" PMx_normed="1.462189" NOx_normed="31.036466" fuel_normed="35.670722" electricity_normed="0"
            traveltime="0.80" CO_perVeh="17.233876" CO2_perVeh="2253.305431" HC_perVeh="0.132350" PMx_perVeh="0.039704" NOx_perVeh="0.842756" fuel_perVeh="0.968593" electricity_perVeh="0"/>
        <edge id=":1110673556_0" sampledSeconds="420.54" CO_abs="51326.194608" CO2_abs="2564361.501482" HC_abs="294.659764" PMx_abs="51.666829" NOx_abs="1104.263885" fuel_abs="1102.308241" electricity_abs="0"
            CO_normed="1824.300741" CO2_normed="91145.790644" HC_normed="10.473171" PMx_normed="1.836408" NOx_normed="39.249148" fuel_normed="39.179638" electricity_normed="0"
            traveltime="2.61" CO_perVeh="318.607989" CO2_perVeh="15918.305783" HC_perVeh="1.829104" PMx_perVeh="0.320722" NOx_perVeh="6.854732" fuel_perVeh="6.842592" electricity_perVeh="0"/>
        <edge id=":1110673556_2" sampledSeconds="248.31" CO_abs="23974.411817" CO2_abs="1032130.067938" HC_abs="133.437073" PMx_abs="20.087812" NOx_abs="441.377525" fuel_abs="443.671896" electricity_abs="0"
            CO_normed="890.993657" CO2_normed="38358.452771" HC_normed="4.959103" PMx_normed="0.746551" NOx_normed="16.403513" fuel_normed="16.488782" electricity_normed="0"
            traveltime="3.01" CO_perVeh="290.805021" CO2_perVeh="12519.539938" HC_perVeh="1.618566" PMx_perVeh="0.243661" NOx_perVeh="5.353825" fuel_perVeh="5.381655" electricity_perVeh="0"/>
        <edge id=":1110673556_3" sampledSeconds="409.97" CO_abs="34389.675749" CO2_abs="1240239.474598" HC_abs="185.509075" PMx_abs="23.863857" NOx_abs="530.171357" fuel_abs="533.134930" electricity_abs="0"
            CO_normed="2907.398260" CO2_normed="104853.273885" HC_normed="15.683450" PMx_normed="2.017516" NOx_normed="44.822152" fuel_normed="45.072701" electricity_normed="0"
            traveltime="1.72" CO_perVeh="144.623212" CO2_perVeh="5215.734436" HC_perVeh="0.780145" PMx_perVeh="0.100358" NOx_perVeh="2.229596" fuel_perVeh="2.242059" electricity_perVeh="0"/>
        <edge id=":1110673556_4" sampledSeconds="198.22" CO_abs="20674.093584" CO2_abs="834740.921587" HC_abs="113.721799" PMx_abs="16.249219" NOx_abs="357.459313" fuel_abs="358.823154" electricity_abs="0"
            CO_normed="1067.800131" CO2_normed="43113.690158" HC_normed="5.873639" PMx_normed="0.839259" NOx_normed="18.462483" fuel_normed="18.532924" electricity_normed="0"
            traveltime="2.38" CO_perVeh="248.552316" CO2_perVeh="10035.593013" HC_perVeh="1.367209" PMx_perVeh="0.195355" NOx_perVeh="4.297520" fuel_perVeh="4.313917" electricity_perVeh="0"/>
        <edge id=":1110673556_5" sampledSeconds="24.90" CO_abs="1837.640444" CO2_abs="72088.447769" HC_abs="10.052922" PMx_abs="1.381012" NOx_abs="30.727183" fuel_abs="30.988142" electricity_abs="0"
            CO_normed="132.288946" CO2_normed="5189.537913" HC_normed="0.723695" PMx_normed="0.099417" NOx_normed="2.212003" fuel_normed="2.230789" electricity_normed="0"
            traveltime="1.72" CO_perVeh="127.046747" CO2_perVeh="4983.892685" HC_perVeh="0.695017" PMx_perVeh="0.095477" NOx_perVeh="2.124348" fuel_perVeh="2.142390" electricity_perVeh="0"/>
        <edge id=":1110673556_6" sampledSeconds="489.49" CO_abs="57742.099594" CO2_abs="2829980.672460" HC_abs="330.148640" PMx_abs="56.995730" NOx_abs="1218.547164" fuel_abs="1216.487419" electricity_abs="0"
            CO_normed="2104.090922" CO2_normed="103122.967193" HC_normed="12.030438" PMx_normed="2.076894" NOx_normed="44.403201" fuel_normed="44.328145" electricity_normed="0"
            traveltime="2.63" CO_perVeh="310.021299" CO2_perVeh="15194.360614" HC_perVeh="1.772591" PMx_perVeh="0.306014" NOx_perVeh="6.542463" fuel_perVeh="6.531405" electricity_perVeh="0"/>
        <edge id=":1110673561_0" sampledSeconds="100.97" CO_abs="9495.312619" CO2_abs="690182.764143" HC_abs="59.820395" PMx_abs="13.801829" NOx_abs="290.674470" fuel_abs="296.676828" electricity_abs="0"
            CO_normed="434.728357" CO2_normed="31598.961617" HC_normed="2.738785" PMx_normed="0.631896" NOx_normed="13.308086" fuel_normed="13.582895" electricity_normed="0"
            traveltime="1.19" CO_perVeh="112.053905" CO2_perVeh="8144.826508" HC_perVeh="0.705939" PMx_perVeh="0.162875" NOx_perVeh="3.430241" fuel_perVeh="3.501075" electricity_perVeh="0"/>
        <edge id=":1110673561_1" sampledSeconds="1322.04" CO_abs="121134.682092" CO2_abs="8372909.733341" HC_abs="754.191917" PMx_abs="175.343481" NOx_abs="3582.292870" fuel_abs="3599.109201" electricity_abs="0"
            CO_normed="5406.993696" CO2_normed="373734.997769" HC_normed="33.664272" PMx_normed="7.826669" NOx_normed="159.899994" fuel_normed="160.650612" electricity_normed="0"
            traveltime="1.20" CO_perVeh="109.534176" CO2_perVeh="7571.075008" HC_perVeh="0.681966" PMx_perVeh="0.158552" NOx_perVeh="3.239233" fuel_perVeh="3.254439" electricity_perVeh="0"/>
        <edge id=":1110673562_0" sampledSeconds="104.19" CO_abs="2189.181452" CO2_abs="172635.534031" HC_abs="13.908796" PMx_abs="2.349136" NOx_abs="65.950403" fuel_abs="74.209315" electricity_abs="0"
            CO_normed="6210.443836" CO2_normed="489746.195832" HC_normed="39.457576" PMx_normed="6.664216" NOx_normed="187.093341" fuel_normed="210.522879" electricity_normed="0"
            traveltime="0.03" CO_perVeh="0.558038" CO2_perVeh="44.006052" HC_perVeh="0.003545" PMx_perVeh="0.000599" NOx_perVeh="0.016811" fuel_perVeh="0.018916" electricity_perVeh="0"/>
        <edge id=":1110673564_0" sampledSeconds="28.55" CO_abs="475.408386" CO2_abs="53377.971591" HC_abs="3.392896" PMx_abs="0.775943" NOx_abs="20.292912" fuel_abs="22.944911" electricity_abs="0"
            CO_normed="3641.425933" CO2_normed="408852.548355" HC_normed="25.988141" PMx_normed="5.943395" NOx_normed="155.435072" fuel_normed="175.748256" electricity_normed="0"
            traveltime="7.849670e-03" CO_perVeh="0.130696" CO2_perVeh="14.674356" HC_perVeh="0.000933" PMx_perVeh="0.000213" NOx_perVeh="0.005579" fuel_perVeh="0.006308" electricity_perVeh="0"/>
        <edge id=":1110673588_0" sampledSeconds="11.75" CO_abs="166.217061" CO2_abs="18324.811802" HC_abs="1.177680" PMx_abs="0.261967" NOx_abs="6.946013" fuel_abs="7.877063" electricity_abs="0"
            CO_normed="509.260783" CO2_normed="56144.104243" HC_normed="3.608211" PMx_normed="0.802623" NOx_normed="21.281402" fuel_normed="24.133980" electricity_normed="0"
            traveltime="0.02" CO_perVeh="0.277028" CO2_perVeh="30.541353" HC_perVeh="0.001963" PMx_perVeh="0.000437" NOx_perVeh="0.011577" fuel_perVeh="0.013128" electricity_perVeh="0"/>
        <edge id=":1110673601_0" sampledSeconds="29.47" CO_abs="573.754665" CO2_abs="69815.347924" HC_abs="4.207233" PMx_abs="0.949707" NOx_abs="26.086572" fuel_abs="30.010699" electricity_abs="0"
            CO_normed="1569.541636" CO2_normed="190984.234443" HC_normed="11.509147" PMx_normed="2.597983" NOx_normed="71.361444" fuel_normed="82.096138" electricity_normed="0"
            traveltime="0.02" CO_perVeh="0.425848" CO2_perVeh="51.817886" HC_perVeh="0.003123" PMx_perVeh="0.000705" NOx_perVeh="0.019362" fuel_perVeh="0.022274" electricity_perVeh="0"/>
        <edge id=":1110673617_0" sampledSeconds="238.33" CO_abs="6261.850693" CO2_abs="761309.617784" HC_abs="46.773002" PMx_abs="13.715793" NOx_abs="288.095758" fuel_abs="327.251922" electricity_abs="0"
            CO_normed="15987.703896" CO2_normed="1943769.236897" HC_normed="119.420431" PMx_normed="35.019046" NOx_normed="735.563638" fuel_normed="835.536823" electricity_normed="0"
            traveltime="0.01" CO_perVeh="0.383496" CO2_perVeh="46.625108" HC_perVeh="0.002865" PMx_perVeh="0.000840" NOx_perVeh="0.017644" fuel_perVeh="0.020042" electricity_perVeh="0"/>
        <edge id=":1110673621_0" sampledSeconds="25.75" CO_abs="524.726717" CO2_abs="56653.159781" HC_abs="3.694782" PMx_abs="0.821616" NOx_abs="21.571889" fuel_abs="24.352791" electricity_abs="0"
            CO_normed="1607.673345" CO2_normed="173575.638478" HC_normed="11.320183" PMx_normed="2.517291" NOx_normed="66.092597" fuel_normed="74.612806" electricity_normed="0"
            traveltime="0.02" CO_perVeh="0.397520" CO2_perVeh="42.919060" HC_perVeh="0.002799" PMx_perVeh="0.000622" NOx_perVeh="0.016342" fuel_perVeh="0.018449" electricity_perVeh="0"/>
        <edge id=":1110673630_0" sampledSeconds="54.54" CO_abs="195.048014" CO2_abs="15770.321553" HC_abs="1.253160" PMx_abs="0.239518" NOx_abs="6.179306" fuel_abs="6.779007" electricity_abs="0"
            CO_normed="10.656097" CO2_normed="861.583112" HC_normed="0.068464" PMx_normed="0.013086" NOx_normed="0.337595" fuel_normed="0.370359" electricity_normed="0"
            traveltime="1.27" CO_perVeh="4.552766" CO2_perVeh="368.107199" HC_perVeh="0.029251" PMx_perVeh="0.005591" NOx_perVeh="0.144236" fuel_perVeh="0.158234" electricity_perVeh="0"/>
        <edge id=":1110673630_1" sampledSeconds="7.24" CO_abs="2.063053" CO2_abs="658.282475" HC_abs="0.024429" PMx_abs="0.007080" NOx_abs="0.227481" fuel_abs="0.282969" electricity_abs="0"
            CO_normed="0.137410" CO2_normed="43.844901" HC_normed="0.001627" PMx_normed="0.000472" NOx_normed="0.015151" fuel_normed="0.018847" electricity_normed="0"
            traveltime="1.03" CO_perVeh="0.292001" CO2_perVeh="93.172289" HC_perVeh="0.003458" PMx_perVeh="0.001002" NOx_perVeh="0.032197" fuel_perVeh="0.040051" electricity_perVeh="0"/>
        <edge id=":1110673650_0" sampledSeconds="143.03" CO_abs="2143.413611" CO2_abs="266689.907858" HC_abs="15.811118" PMx_abs="3.665859" NOx_abs="99.664121" fuel_abs="114.638757" electricity_abs="0"
            CO_normed="5472.545391" CO2_normed="680910.403043" HC_normed="40.368813" PMx_normed="9.359639" NOx_normed="254.461586" fuel_normed="292.694698" electricity_normed="0"
            traveltime="0.02" CO_perVeh="0.344541" CO2_perVeh="42.868798" HC_perVeh="0.002542" PMx_perVeh="0.000589" NOx_perVeh="0.016020" fuel_perVeh="0.018427" electricity_perVeh="0"/>
        <edge id=":1110673655_0" sampledSeconds="44.98" CO_abs="796.936990" CO2_abs="89536.723536" HC_abs="5.689523" PMx_abs="1.240570" NOx_abs="33.734969" fuel_abs="38.488101" electricity_abs="0"
            CO_normed="2034.732740" CO2_normed="228604.400517" HC_normed="14.526441" PMx_normed="3.167412" NOx_normed="86.131835" fuel_normed="98.267492" electricity_normed="0"
            traveltime="0.02" CO_perVeh="0.426517" CO2_perVeh="47.919615" HC_perVeh="0.003045" PMx_perVeh="0.000664" NOx_perVeh="0.018055" fuel_perVeh="0.020599" electricity_perVeh="0"/>
        <edge id=":1110673663_0" sampledSeconds="108.87" CO_abs="1632.792602" CO2_abs="207853.284994" HC_abs="12.161737" PMx_abs="2.742013" NOx_abs="76.942534" fuel_abs="89.347520" electricity_abs="0"
            CO_normed="76.352238" CO2_normed="9719.583119" HC_normed="0.568704" PMx_normed="0.128221" NOx_normed="3.597967" fuel_normed="4.178046" electricity_normed="0"
            traveltime="1.28" CO_perVeh="19.178055" CO2_perVeh="2441.352106" HC_perVeh="0.142846" PMx_perVeh="0.032206" NOx_perVeh="0.903733" fuel_perVeh="1.049436" electricity_perVeh="0"/>
        <edge id=":1110673663_1" sampledSeconds="154.71" CO_abs="2666.368558" CO2_abs="301399.028125" HC_abs="19.089611" PMx_abs="4.360435" NOx_abs="114.371658" fuel_abs="129.558602" electricity_abs="0"
            CO_normed="124.836482" CO2_normed="14111.175431" HC_normed="0.893755" PMx_normed="0.204151" NOx_normed="5.354757" fuel_normed="6.065793" electricity_normed="0"
            traveltime="1.25" CO_perVeh="21.593987" CO2_perVeh="2440.925379" HC_perVeh="0.154600" PMx_perVeh="0.035314" NOx_perVeh="0.926256" fuel_perVeh="1.049250" electricity_perVeh="0"/>
        <edge id=":1110673666_0" sampledSeconds="191.11" CO_abs="4270.093354" CO2_abs="346589.237888" HC_abs="27.333296" PMx_abs="4.575314" NOx_abs="131.362718" fuel_abs="148.985382" electricity_abs="0"