<?xml version="1.0" encoding="UTF-8"?>

<!-- generated on Mon Nov  9 21:13:28 2020 by Eclipse SUMO sumo Version 1.7.0
<configuration xmlns:xsi="http://www.w3.org/2001/XMLSchema-instance" xsi:noNamespaceSchemaLocation="http://sumo.dlr.de/xsd/sumoConfiguration.xsd">

    <input>
        <net-file value="../dataSets/Porto/6AM7AM_Routing_SaoBento/Porto.net.xml"/>
        <route-files value="../results/Porto/6AM7AM_Routing_SaoBento/length-ttime/solution2/Porto.rou.xml"/>
        <additional-files value="moreOutputInfo.xml"/>
    </input>

    <output>
        <emission-output.precision value="6"/>
        <tripinfo-output value="../results/Porto/6AM7AM_Routing_SaoBento/length-ttime/solution2/Porto-tripinfo"/>
    </output>

    <processing>
        <collision.action value="warn"/>
        <time-to-teleport value="-1"/>
    </processing>

    <emissions>
        <device.emissions.probability value="1"/>
    </emissions>

    <gui_only>
        <quit-on-end value="true"/>
        <start value="true"/>
    </gui_only>

</configuration>
-->

<meandata xmlns:xsi="http://www.w3.org/2001/XMLSchema-instance" xsi:noNamespaceSchemaLocation="http://sumo.dlr.de/xsd/meandata_file.xsd">
    <interval begin="0.00" end="4700.00" id="emissions-detector">
        <edge id=":1092997347_0" sampledSeconds="288.38" CO_abs="36465.791274" CO2_abs="1430524.406833" HC_abs="199.819736" PMx_abs="29.106657" NOx_abs="620.565580" fuel_abs="614.926636" electricity_abs="0"
            CO_normed="63480.100864" CO2_normed="2490274.596033" HC_normed="347.848669" PMx_normed="50.669228" NOx_normed="1080.288243" fuel_normed="1070.471900" electricity_normed="0"
            traveltime="0.08" CO_perVeh="9.620295" CO2_perVeh="377.396620" HC_perVeh="0.052716" PMx_perVeh="0.007679" NOx_perVeh="0.163716" fuel_perVeh="0.162228" electricity_perVeh="0"/>
        <edge id=":1103427051_0" sampledSeconds="11.09" CO_abs="837.814459" CO2_abs="47082.044133" HC_abs="4.930205" PMx_abs="0.910762" NOx_abs="20.007060" fuel_abs="20.238508" electricity_abs="0"
            CO_normed="2212.862840" CO2_normed="124354.628671" HC_normed="13.021818" PMx_normed="2.405533" NOx_normed="52.843299" fuel_normed="53.454606" electricity_normed="0"
            traveltime="0.03" CO_perVeh="2.295599" CO2_perVeh="129.004089" HC_perVeh="0.013509" PMx_perVeh="0.002495" NOx_perVeh="0.054819" fuel_perVeh="0.055453" electricity_perVeh="0"/>
        <edge id=":1105984386_0" sampledSeconds="23.05" CO_abs="377.132579" CO2_abs="31746.501569" HC_abs="2.436091" PMx_abs="0.396021" NOx_abs="11.870671" fuel_abs="13.646624" electricity_abs="0"
            CO_normed="29.749486" CO2_normed="2504.270781" HC_normed="0.192167" PMx_normed="0.031239" NOx_normed="0.936398" fuel_normed="1.076492" electricity_normed="0"
            traveltime="0.97" CO_perVeh="15.827962" CO2_perVeh="1332.376082" HC_perVeh="0.102241" PMx_perVeh="0.016621" NOx_perVeh="0.498203" fuel_perVeh="0.572738" electricity_perVeh="0"/>
        <edge id=":1105984390_0" sampledSeconds="23.80" CO_abs="19.774419" CO2_abs="2509.048767" HC_abs="0.145821" PMx_abs="0.023463" NOx_abs="0.876126" fuel_abs="1.078550" electricity_abs="0"
            CO_normed="1.205921" CO2_normed="153.011512" HC_normed="0.008893" PMx_normed="0.001431" NOx_normed="0.053430" fuel_normed="0.065774" electricity_normed="0"
            traveltime="1.08" CO_perVeh="0.896760" CO2_perVeh="113.784130" HC_perVeh="0.006613" PMx_perVeh="0.001064" NOx_perVeh="0.039732" fuel_perVeh="0.048912" electricity_perVeh="0"/>
        <edge id=":1105984390_1" sampledSeconds="645.38" CO_abs="15046.184070" CO2_abs="1896357.642924" HC_abs="114.066318" PMx_abs="33.838376" NOx_abs="713.352202" fuel_abs="815.157031" electricity_abs="0"
            CO_normed="877.740802" CO2_normed="110626.752354" HC_normed="6.654223" PMx_normed="1.974010" NOx_normed="41.614427" fuel_normed="47.553359" electricity_normed="0"
            traveltime="0.64" CO_perVeh="14.825680" CO2_perVeh="1868.566223" HC_perVeh="0.112395" PMx_perVeh="0.033342" NOx_perVeh="0.702898" fuel_perVeh="0.803211" electricity_perVeh="0"/>
        <edge id=":1105984395_0" sampledSeconds="8.99" CO_abs="140.696605" CO2_abs="10887.814830" HC_abs="0.888681" PMx_abs="0.146544" NOx_abs="4.155631" fuel_abs="4.680253" electricity_abs="0"
            CO_normed="117.138709" CO2_normed="9064.785705" HC_normed="0.739882" PMx_normed="0.122007" NOx_normed="3.459822" fuel_normed="3.896603" electricity_normed="0"
            traveltime="0.09" CO_perVeh="1.426817" CO2_perVeh="110.414348" HC_perVeh="0.009012" PMx_perVeh="0.001486" NOx_perVeh="0.042143" fuel_perVeh="0.047463" electricity_perVeh="0"/>
        <edge id=":1105984398_0" sampledSeconds="22.62" CO_abs="1682.046977" CO2_abs="113163.102300" HC_abs="10.344088" PMx_abs="2.126845" NOx_abs="47.269763" fuel_abs="48.643714" electricity_abs="0"
            CO_normed="106.565460" CO2_normed="7169.406196" HC_normed="0.655346" PMx_normed="0.134745" NOx_normed="2.994758" fuel_normed="3.081804" electricity_normed="0"
            traveltime="1.10" CO_perVeh="81.746595" CO2_perVeh="5499.667018" HC_perVeh="0.502717" PMx_perVeh="0.103364" NOx_perVeh="2.297286" fuel_perVeh="2.364059" electricity_perVeh="0"/>
        <edge id=":1105984398_1" sampledSeconds="451.21" CO_abs="7271.810959" CO2_abs="852684.897709" HC_abs="52.646923" PMx_abs="12.114099" NOx_abs="321.860004" fuel_abs="366.533030" electricity_abs="0"
            CO_normed="445.948579" CO2_normed="52291.460943" HC_normed="3.228607" PMx_normed="0.742905" NOx_normed="19.738276" fuel_normed="22.477879" electricity_normed="0"
            traveltime="0.96" CO_perVeh="15.418854" CO2_perVeh="1807.998538" HC_perVeh="0.111630" PMx_perVeh="0.025686" NOx_perVeh="0.682459" fuel_perVeh="0.777182" electricity_perVeh="0"/>
        <edge id=":1106006327_0" sampledSeconds="38.02" CO_abs="5156.053840" CO2_abs="169247.484971" HC_abs="27.464306" PMx_abs="3.535875" NOx_abs="74.117274" fuel_abs="72.753460" electricity_abs="0"
            CO_normed="445.746934" CO2_normed="14631.644635" HC_normed="2.374322" PMx_normed="0.305681" NOx_normed="6.407526" fuel_normed="6.289622" electricity_normed="0"
            traveltime="2.06" CO_perVeh="279.712448" CO2_perVeh="9181.562067" HC_perVeh="1.489920" PMx_perVeh="0.191819" NOx_perVeh="4.020812" fuel_perVeh="3.946826" electricity_perVeh="0"/>
        <edge id=":1106006327_1" sampledSeconds="159.81" CO_abs="21662.521080" CO2_abs="729732.342166" HC_abs="115.841694" PMx_abs="15.226692" NOx_abs="319.409922" fuel_abs="313.685464" electricity_abs="0"
            CO_normed="1633.126903" CO2_normed="55014.165518" HC_normed="8.733249" PMx_normed="1.147933" NOx_normed="24.080158" fuel_normed="23.648594" electricity_normed="0"
            traveltime="2.27" CO_perVeh="307.527406" CO2_perVeh="10359.491108" HC_perVeh="1.644522" PMx_perVeh="0.216163" NOx_perVeh="4.534436" fuel_perVeh="4.453169" electricity_perVeh="0"/>
        <edge id=":1106006327_2" sampledSeconds="0.00" CO_abs="0" CO2_abs="0" HC_abs="0" PMx_abs="0" NOx_abs="0" fuel_abs="0" electricity_abs="0"
            CO_normed="0" CO2_normed="0" HC_normed="0" PMx_normed="0" NOx_normed="0" fuel_normed="0" electricity_normed="0"/>
        <edge id=":1106006327_3" sampledSeconds="0.00" CO_abs="0" CO2_abs="0" HC_abs="0" PMx_abs="0" NOx_abs="0" fuel_abs="0" electricity_abs="0"
            CO_normed="0" CO2_normed="0" HC_normed="0" PMx_normed="0" NOx_normed="0" fuel_normed="0" electricity_normed="0"/>
        <edge id=":1107381198_0" sampledSeconds="0.00" CO_abs="0" CO2_abs="0" HC_abs="0" PMx_abs="0" NOx_abs="0" fuel_abs="0" electricity_abs="0"
            CO_normed="0" CO2_normed="0" HC_normed="0" PMx_normed="0" NOx_normed="0" fuel_normed="0" electricity_normed="0"/>
        <edge id=":1107381198_1" sampledSeconds="36.00" CO_abs="1530.306059" CO2_abs="66087.578481" HC_abs="8.505515" PMx_abs="1.201522" NOx_abs="27.748996" fuel_abs="28.408558" electricity_abs="0"
            CO_normed="127.824354" CO2_normed="5520.204240" HC_normed="0.710454" PMx_normed="0.100361" NOx_normed="2.317835" fuel_normed="2.372928" electricity_normed="0"
            traveltime="1.48" CO_perVeh="63.006944" CO2_perVeh="2721.008866" HC_perVeh="0.350196" PMx_perVeh="0.049470" NOx_perVeh="1.142503" fuel_perVeh="1.169659" electricity_perVeh="0"/>
        <edge id=":1110338277_0" sampledSeconds="96.41" CO_abs="1581.419597" CO2_abs="186595.364457" HC_abs="11.501998" PMx_abs="2.630453" NOx_abs="70.336692" fuel_abs="80.209449" electricity_abs="0"
            CO_normed="4326.071846" CO2_normed="510443.246236" HC_normed="31.464433" PMx_normed="7.195767" NOx_normed="192.410404" fuel_normed="219.417945" electricity_normed="0"
            traveltime="0.02" CO_perVeh="0.356402" CO2_perVeh="42.052706" HC_perVeh="0.002592" PMx_perVeh="0.000593" NOx_perVeh="0.015852" fuel_perVeh="0.018077" electricity_perVeh="0"/>
        <edge id=":1110338293_0" sampledSeconds="123.87" CO_abs="6331.701590" CO2_abs="435421.502893" HC_abs="39.067409" PMx_abs="7.662022" NOx_abs="178.405977" fuel_abs="187.168754" electricity_abs="0"
            CO_normed="16166.046612" CO2_normed="1111714.475471" HC_normed="99.746575" PMx_normed="19.562609" NOx_normed="455.504623" fuel_normed="477.877669" electricity_normed="0"
            traveltime="0.03" CO_perVeh="1.452281" CO2_perVeh="99.871135" HC_perVeh="0.008961" PMx_perVeh="0.001757" NOx_perVeh="0.040920" fuel_perVeh="0.042930" electricity_perVeh="0"/>
        <edge id=":1110338295_0" sampledSeconds="0.00" CO_abs="0" CO2_abs="0" HC_abs="0" PMx_abs="0" NOx_abs="0" fuel_abs="0" electricity_abs="0"
            CO_normed="0" CO2_normed="0" HC_normed="0" PMx_normed="0" NOx_normed="0" fuel_normed="0" electricity_normed="0"/>
        <edge id=":1110673403_0" sampledSeconds="143.52" CO_abs="2059.982217" CO2_abs="265268.292158" HC_abs="15.440325" PMx_abs="3.565090" NOx_abs="98.573775" fuel_abs="114.027740" electricity_abs="0"
            CO_normed="5259.529065" CO2_normed="677280.745935" HC_normed="39.422107" PMx_normed="9.102358" NOx_normed="251.677724" fuel_normed="291.134656" electricity_normed="0"
            traveltime="0.02" CO_perVeh="0.330745" CO2_perVeh="42.590780" HC_perVeh="0.002479" PMx_perVeh="0.000572" NOx_perVeh="0.015827" fuel_perVeh="0.018308" electricity_perVeh="0"/>
        <edge id=":1110673412_0" sampledSeconds="252.27" CO_abs="45173.415096" CO2_abs="3078045.271694" HC_abs="281.032455" PMx_abs="67.672140" NOx_abs="1323.159720" fuel_abs="1323.100049" electricity_abs="0"
            CO_normed="119313.495484" CO2_normed="8129833.439545" HC_normed="742.272076" PMx_normed="178.737861" NOx_normed="3494.772555" fuel_normed="3494.614951" electricity_normed="0"
            traveltime="0.02" CO_perVeh="2.782405" CO2_perVeh="189.588698" HC_perVeh="0.017310" PMx_perVeh="0.004168" NOx_perVeh="0.081499" fuel_perVeh="0.081495" electricity_perVeh="0"/>
        <edge id=":1110673414_0" sampledSeconds="0.00" CO_abs="0" CO2_abs="0" HC_abs="0" PMx_abs="0" NOx_abs="0" fuel_abs="0" electricity_abs="0"
            CO_normed="0" CO2_normed="0" HC_normed="0" PMx_normed="0" NOx_normed="0" fuel_normed="0" electricity_normed="0"/>
        <edge id=":1110673414_1" sampledSeconds="14.31" CO_abs="784.083658" CO2_abs="29892.695329" HC_abs="4.269777" PMx_abs="0.580232" NOx_abs="12.799788" fuel_abs="12.849764" electricity_abs="0"
            CO_normed="66.508828" CO2_normed="2535.607153" HC_normed="0.362178" PMx_normed="0.049217" NOx_normed="1.085725" fuel_normed="1.089964" electricity_normed="0"
            traveltime="1.56" CO_perVeh="85.634681" CO2_perVeh="3264.768249" HC_perVeh="0.466329" PMx_perVeh="0.063371" NOx_perVeh="1.397945" fuel_perVeh="1.403403" electricity_perVeh="0"/>
        <edge id=":1110673417_0" sampledSeconds="29.54" CO_abs="515.640471" CO2_abs="56086.957712" HC_abs="3.630263" PMx_abs="0.811891" NOx_abs="21.363825" fuel_abs="24.109400" electricity_abs="0"
            CO_normed="1410.566638" CO2_normed="153429.367600" HC_normed="9.930812" PMx_normed="2.220977" NOx_normed="58.442073" fuel_normed="65.952766" electricity_normed="0"
            traveltime="0.02" CO_perVeh="0.382715" CO2_perVeh="41.628491" HC_perVeh="0.002694" PMx_perVeh="0.000603" NOx_perVeh="0.015857" fuel_perVeh="0.017894" electricity_perVeh="0"/>
        <edge id=":1110673446_0" sampledSeconds="333.31" CO_abs="3251.388088" CO2_abs="265084.788447" HC_abs="21.072446" PMx_abs="4.842291" NOx_abs="108.294571" fuel_abs="113.947771" electricity_abs="0"
            CO_normed="8301.416394" CO2_normed="676812.225822" HC_normed="53.801990" PMx_normed="12.363295" NOx_normed="276.496777" fuel_normed="290.930480" electricity_normed="0"
            traveltime="0.02" CO_perVeh="0.221759" CO2_perVeh="18.079966" HC_perVeh="0.001437" PMx_perVeh="0.000330" NOx_perVeh="0.007386" fuel_perVeh="0.007772" electricity_perVeh="0"/>
        <edge id=":1110673451_0" sampledSeconds="37.40" CO_abs="513.599477" CO2_abs="37311.195329" HC_abs="3.191693" PMx_abs="0.525628" NOx_abs="14.423638" fuel_abs="16.038636" electricity_abs="0"
            CO_normed="1457.019792" CO2_normed="105847.362635" HC_normed="9.054447" PMx_normed="1.491142" NOx_normed="40.918123" fuel_normed="45.499677" electricity_normed="0"
            traveltime="0.03" CO_perVeh="0.368318" CO2_perVeh="26.757033" HC_perVeh="0.002289" PMx_perVeh="0.000377" NOx_perVeh="0.010344" fuel_perVeh="0.011502" electricity_perVeh="0"/>
        <edge id=":1110673464_0" sampledSeconds="324.09" CO_abs="832.336045" CO2_abs="64853.495660" HC_abs="5.269131" PMx_abs="0.876898" NOx_abs="24.725418" fuel_abs="27.878019" electricity_abs="0"
            CO_normed="45.151133" CO2_normed="3518.060762" HC_normed="0.285831" PMx_normed="0.047568" NOx_normed="1.341262" fuel_normed="1.512279" electricity_normed="0"
            traveltime="1.17" CO_perVeh="3.008785" CO2_perVeh="234.436830" HC_perVeh="0.019047" PMx_perVeh="0.003170" NOx_perVeh="0.089379" fuel_perVeh="0.100775" electricity_perVeh="0"/>
        <edge id=":1110673464_1" sampledSeconds="709.05" CO_abs="16457.524898" CO2_abs="2153056.079662" HC_abs="126.276551" PMx_abs="37.912609" NOx_abs="805.250146" fuel_abs="925.500218" electricity_abs="0"
            CO_normed="874.792766" CO2_normed="114444.784012" HC_normed="6.712177" PMx_normed="2.015229" NOx_normed="42.802730" fuel_normed="49.194572" electricity_normed="0"
            traveltime="0.70" CO_perVeh="16.252448" CO2_perVeh="2126.226946" HC_perVeh="0.124703" PMx_perVeh="0.037440" NOx_perVeh="0.795216" fuel_perVeh="0.913968" electricity_perVeh="0"/>
        <edge id=":1110673479_0" sampledSeconds="132.91" CO_abs="6971.122740" CO2_abs="485880.323887" HC_abs="43.163722" PMx_abs="8.517822" NOx_abs="198.752613" fuel_abs="208.858786" electricity_abs="0"
            CO_normed="17798.611252" CO2_normed="1240545.507796" HC_normed="110.205247" PMx_normed="21.747630" NOx_normed="507.453480" fuel_normed="533.256474" electricity_normed="0"
            traveltime="0.03" CO_perVeh="1.468532" CO2_perVeh="102.355240" HC_perVeh="0.009093" PMx_perVeh="0.001794" NOx_perVeh="0.041869" fuel_perVeh="0.043998" electricity_perVeh="0"/>
        <edge id=":1110673511_0" sampledSeconds="11.75" CO_abs="263.578911" CO2_abs="27790.908790" HC_abs="1.845916" PMx_abs="0.422897" NOx_abs="10.716019" fuel_abs="11.946108" electricity_abs="0"
            CO_normed="672.967432" CO2_normed="70955.511804" HC_normed="4.712976" PMx_normed="1.079736" NOx_normed="27.360049" fuel_normed="30.500701" electricity_normed="0"
            traveltime="0.02" CO_perVeh="0.521938" CO2_perVeh="55.031503" HC_perVeh="0.003655" PMx_perVeh="0.000837" NOx_perVeh="0.021220" fuel_perVeh="0.023656" electricity_perVeh="0"/>
        <edge id=":1110673517_0" sampledSeconds="17.36" CO_abs="641.736042" CO2_abs="46117.827704" HC_abs="4.007583" PMx_abs="0.809746" NOx_abs="18.834961" fuel_abs="19.824030" electricity_abs="0"
            CO_normed="1638.475002" CO2_normed="117747.645201" HC_normed="10.232127" PMx_normed="2.067436" NOx_normed="48.089262" fuel_normed="50.614545" electricity_normed="0"
            traveltime="0.03" CO_perVeh="1.030350" CO2_perVeh="74.045214" HC_perVeh="0.006434" PMx_perVeh="0.001300" NOx_perVeh="0.030241" fuel_perVeh="0.031829" electricity_perVeh="0"/>
        <edge id=":1110673534_0" sampledSeconds="475.07" CO_abs="3171.896641" CO2_abs="281962.821931" HC_abs="20.890414" PMx_abs="3.806340" NOx_abs="106.954877" fuel_abs="121.204631" electricity_abs="0"
            CO_normed="156.946890" CO2_normed="13951.648784" HC_normed="1.033667" PMx_normed="0.188339" NOx_normed="5.292176" fuel_normed="5.997260" electricity_normed="0"
            traveltime="1.43" CO_perVeh="9.555653" CO2_perVeh="849.440973" HC_perVeh="0.062934" PMx_perVeh="0.011467" NOx_perVeh="0.322212" fuel_perVeh="0.365141" electricity_perVeh="0"/>
        <edge id=":1110673534_1" sampledSeconds="184.22" CO_abs="2734.768075" CO2_abs="353721.410300" HC_abs="20.560651" PMx_abs="4.757278" NOx_abs="131.329723" fuel_abs="152.050038" electricity_abs="0"
            CO_normed="131.577636" CO2_normed="17018.564593" HC_normed="0.989233" PMx_normed="0.228886" NOx_normed="6.318654" fuel_normed="7.315569" electricity_normed="0"
            traveltime="1.22" CO_perVeh="18.157878" CO2_perVeh="2348.583176" HC_perVeh="0.136515" PMx_perVeh="0.031587" NOx_perVeh="0.871982" fuel_perVeh="1.009558" electricity_perVeh="0"/>
        <edge id=":1110673549_0" sampledSeconds="58.40" CO_abs="13.454555" CO2_abs="1557.327065" HC_abs="0.095806" PMx_abs="0.014416" NOx_abs="0.543908" fuel_abs="0.669440" electricity_abs="0"
            CO_normed="0.644907" CO2_normed="74.646199" HC_normed="0.004592" PMx_normed="0.000691" NOx_normed="0.026071" fuel_normed="0.032088" electricity_normed="0"
            traveltime="1.22" CO_perVeh="0.280314" CO2_perVeh="32.445583" HC_perVeh="0.001996" PMx_perVeh="0.000300" NOx_perVeh="0.011332" fuel_perVeh="0.013947" electricity_perVeh="0"/>
        <edge id=":1110673549_1" sampledSeconds="638.92" CO_abs="13285.429142" CO2_abs="1776207.307629" HC_abs="102.805486" PMx_abs="31.122308" NOx_abs="661.537852" fuel_abs="763.510350" electricity_abs="0"
            CO_normed="615.985072" CO2_normed="82354.673992" HC_normed="4.766624" PMx_normed="1.443000" NOx_normed="30.672509" fuel_normed="35.400511" electricity_normed="0"
            traveltime="0.80" CO_perVeh="16.724864" CO2_perVeh="2236.045581" HC_perVeh="0.129421" PMx_perVeh="0.039179" NOx_perVeh="0.832802" fuel_perVeh="0.961174" electricity_perVeh="0"/>
        <edge id=":1110673556_0" sampledSeconds="418.29" CO_abs="50671.880890" CO2_abs="2545423.684078" HC_abs="291.201292" PMx_abs="51.072881" NOx_abs="1094.499128" fuel_abs="1094.167805" electricity_abs="0"
            CO_normed="1801.044293" CO2_normed="90472.678705" HC_normed="10.350246" PMx_normed="1.815297" NOx_normed="38.902077" fuel_normed="38.890301" electricity_normed="0"
            traveltime="2.60" CO_perVeh="314.547088" CO2_perVeh="15800.787236" HC_perVeh="1.807640" PMx_perVeh="0.317036" NOx_perVeh="6.794133" fuel_perVeh="6.792077" electricity_perVeh="0"/>
        <edge id=":1110673556_2" sampledSeconds="245.68" CO_abs="23266.955658" CO2_abs="1012714.640216" HC_abs="129.722345" PMx_abs="19.470891" NOx_abs="431.431879" fuel_abs="435.326127" electricity_abs="0"
            CO_normed="864.701502" CO2_normed="37636.890838" HC_normed="4.821048" PMx_normed="0.723623" NOx_normed="16.033889" fuel_normed="16.178617" electricity_normed="0"
            traveltime="2.98" CO_perVeh="282.223714" CO2_perVeh="12284.034521" HC_perVeh="1.573507" PMx_perVeh="0.236178" NOx_perVeh="5.233186" fuel_perVeh="5.280423" electricity_perVeh="0"/>
        <edge id=":1110673556_3" sampledSeconds="424.03" CO_abs="35887.045387" CO2_abs="1285469.047435" HC_abs="193.353508" PMx_abs="24.627631" NOx_abs="548.841424" fuel_abs="552.577887" electricity_abs="0"
            CO_normed="3033.990028" CO2_normed="108677.107012" HC_normed="16.346640" PMx_normed="2.082088" NOx_normed="46.400571" fuel_normed="46.716462" electricity_normed="0"
            traveltime="1.74" CO_perVeh="147.147347" CO2_perVeh="5270.797795" HC_perVeh="0.792806" PMx_perVeh="0.100980" NOx_perVeh="2.250410" fuel_perVeh="2.265730" electricity_perVeh="0"/>
        <edge id=":1110673556_4" sampledSeconds="188.49" CO_abs="19928.212138" CO2_abs="796384.173971" HC_abs="109.457313" PMx_abs="15.699993" NOx_abs="342.319267" fuel_abs="342.334929" electricity_abs="0"
            CO_normed="1029.275960" CO2_normed="41132.595319" HC_normed="5.653381" PMx_normed="0.810892" NOx_normed="17.680512" fuel_normed="17.681321" electricity_normed="0"
            traveltime="2.42" CO_perVeh="255.826064" CO2_perVeh="10223.487561" HC_perVeh="1.405145" PMx_perVeh="0.201547" NOx_perVeh="4.394483" fuel_perVeh="4.394684" electricity_perVeh="0"/>
        <edge id=":1110673556_5" sampledSeconds="22.99" CO_abs="1390.689205" CO2_abs="60850.986451" HC_abs="7.745336" PMx_abs="1.088633" NOx_abs="25.421063" fuel_abs="26.157557" electricity_abs="0"
            CO_normed="100.113605" CO2_normed="4380.570133" HC_normed="0.557575" PMx_normed="0.078369" NOx_normed="1.830024" fuel_normed="1.883043" electricity_normed="0"
            traveltime="1.59" CO_perVeh="96.146414" CO2_perVeh="4206.981779" HC_perVeh="0.535480" PMx_perVeh="0.075263" NOx_perVeh="1.757506" fuel_perVeh="1.808424" electricity_perVeh="0"/>
        <edge id=":1110673556_6" sampledSeconds="538.02" CO_abs="63774.268682" CO2_abs="3181086.304180" HC_abs="366.014729" PMx_abs="64.153900" NOx_abs="1369.795076" fuel_abs="1367.411635" electricity_abs="0"
            CO_normed="2323.899905" CO2_normed="115917.066776" HC_normed="13.337379" PMx_normed="2.337733" NOx_normed="49.914593" fuel_normed="49.827741" electricity_normed="0"
            traveltime="2.55" CO_perVeh="302.437287" CO2_perVeh="15085.694135" HC_perVeh="1.735755" PMx_perVeh="0.304238" NOx_perVeh="6.495991" fuel_perVeh="6.484688" electricity_perVeh="0"/>
        <edge id=":1110673561_0" sampledSeconds="101.39" CO_abs="9840.409824" CO2_abs="702524.670535" HC_abs="61.725118" PMx_abs="14.234340" NOx_abs="297.321973" fuel_abs="301.981870" electricity_abs="0"
            CO_normed="450.528104" CO2_normed="32164.016914" HC_normed="2.825990" PMx_normed="0.651697" NOx_normed="13.612432" fuel_normed="13.825778" electricity_normed="0"
            traveltime="1.20" CO_perVeh="116.126387" CO2_perVeh="8290.472983" HC_perVeh="0.728416" PMx_perVeh="0.167979" NOx_perVeh="3.508688" fuel_perVeh="3.563679" electricity_perVeh="0"/>
        <edge id=":1110673561_1" sampledSeconds="1317.26" CO_abs="120621.982326" CO2_abs="8361843.370095" HC_abs="751.545345" PMx_abs="174.785225" NOx_abs="3574.965097" fuel_abs="3594.352554" electricity_abs="0"
            CO_normed="5384.108719" CO2_normed="373241.037201" HC_normed="33.546139" PMx_normed="7.801751" NOx_normed="159.572910" fuel_normed="160.438293" electricity_normed="0"
            traveltime="1.19" CO_perVeh="109.147660" CO2_perVeh="7566.412206" HC_perVeh="0.680054" PMx_perVeh="0.158159" NOx_perVeh="3.234892" fuel_perVeh="3.252435" electricity_perVeh="0"/>
        <edge id=":1110673562_0" sampledSeconds="103.90" CO_abs="2288.153164" CO2_abs="183948.666947" HC_abs="14.607621" PMx_abs="2.439671" NOx_abs="69.808819" fuel_abs="79.072456" electricity_abs="0"
            CO_normed="6491.214649" CO2_normed="521840.189921" HC_normed="41.440060" PMx_normed="6.921051" NOx_normed="198.039202" fuel_normed="224.319024" electricity_normed="0"
            traveltime="0.03" CO_perVeh="0.583261" CO2_perVeh="46.889353" HC_perVeh="0.003724" PMx_perVeh="0.000622" NOx_perVeh="0.017795" fuel_perVeh="0.020156" electricity_perVeh="0"/>
        <edge id=":1110673564_0" sampledSeconds="28.58" CO_abs="440.811850" CO2_abs="55226.126933" HC_abs="3.278901" PMx_abs="0.730551" NOx_abs="20.482778" fuel_abs="23.739428" electricity_abs="0"
            CO_normed="3376.431193" CO2_normed="423008.631830" HC_normed="25.114987" PMx_normed="5.595709" NOx_normed="156.889363" fuel_normed="181.833918" electricity_normed="0"
            traveltime="7.855743e-03" CO_perVeh="0.121185" CO2_perVeh="15.182440" HC_perVeh="0.000901" PMx_perVeh="0.000201" NOx_perVeh="0.005631" fuel_perVeh="0.006526" electricity_perVeh="0"/>
        <edge id=":1110673588_0" sampledSeconds="11.78" CO_abs="153.194198" CO2_abs="22532.318647" HC_abs="1.213804" PMx_abs="0.277379" NOx_abs="8.172877" fuel_abs="9.685726" electricity_abs="0"
            CO_normed="469.360946" CO2_normed="69035.189045" HC_normed="3.718888" PMx_normed="0.849841" NOx_normed="25.040303" fuel_normed="29.675416" electricity_normed="0"
            traveltime="0.02" CO_perVeh="0.255324" CO2_perVeh="37.553864" HC_perVeh="0.002023" PMx_perVeh="0.000462" NOx_perVeh="0.013621" fuel_perVeh="0.016143" electricity_perVeh="0"/>
        <edge id=":1110673601_0" sampledSeconds="29.61" CO_abs="388.345708" CO2_abs="52278.673441" HC_abs="2.968273" PMx_abs="0.681821" NOx_abs="19.261963" fuel_abs="22.472436" electricity_abs="0"
            CO_normed="1062.343883" CO2_normed="143011.568685" HC_normed="8.119896" PMx_normed="1.865163" NOx_normed="52.692300" fuel_normed="61.474749" electricity_normed="0"
            traveltime="0.02" CO_perVeh="0.288235" CO2_perVeh="38.801931" HC_perVeh="0.002203" PMx_perVeh="0.000506" NOx_perVeh="0.014296" fuel_perVeh="0.016679" electricity_perVeh="0"/>
        <edge id=":1110673617_0" sampledSeconds="238.78" CO_abs="5721.576331" CO2_abs="735495.971910" HC_abs="43.594024" PMx_abs="13.000537" NOx_abs="276.023505" fuel_abs="316.155985" electricity_abs="0"
            CO_normed="14608.279994" CO2_normed="1877862.055941" HC_normed="111.303891" PMx_normed="33.192860" NOx_normed="704.740863" fuel_normed="807.206771" electricity_normed="0"
            traveltime="0.01" CO_perVeh="0.350408" CO2_perVeh="45.044155" HC_perVeh="0.002670" PMx_perVeh="0.000796" NOx_perVeh="0.016905" fuel_perVeh="0.019362" electricity_perVeh="0"/>
        <edge id=":1110673621_0" sampledSeconds="25.98" CO_abs="564.217069" CO2_abs="61631.381283" HC_abs="3.989468" PMx_abs="0.897650" NOx_abs="23.463574" fuel_abs="26.492708" electricity_abs="0"
            CO_normed="1728.665062" CO2_normed="188828.061805" HC_normed="12.223051" PMx_normed="2.750246" NOx_normed="71.888397" fuel_normed="81.169149" electricity_normed="0"
            traveltime="0.02" CO_perVeh="0.427437" CO2_perVeh="46.690440" HC_perVeh="0.003022" PMx_perVeh="0.000680" NOx_perVeh="0.017775" fuel_perVeh="0.020070" electricity_perVeh="0"/>
        <edge id=":1110673630_0" sampledSeconds="54.57" CO_abs="138.155815" CO2_abs="13777.147646" HC_abs="0.933811" PMx_abs="0.165347" NOx_abs="5.068858" fuel_abs="5.922267" electricity_abs="0"
            CO_normed="7.547894" CO2_normed="752.689646" HC_normed="0.051017" PMx_normed="0.009033" NOx_normed="0.276928" fuel_normed="0.323552" electricity_normed="0"
            traveltime="1.27" CO_perVeh="3.224801" CO2_perVeh="321.582995" HC_perVeh="0.021797" PMx_perVeh="0.003859" NOx_perVeh="0.118316" fuel_perVeh="0.138236" electricity_perVeh="0"/>
        <edge id=":1110673630_1" sampledSeconds="7.30" CO_abs="40.734352" CO2_abs="4166.566166" HC_abs="0.280078" PMx_abs="0.050994" NOx_abs="1.540058" fuel_abs="1.791045" electricity_abs="0"
            CO_normed="2.713111" CO2_normed="277.514120" HC_normed="0.018655" PMx_normed="0.003396" NOx_normed="0.102576" fuel_normed="0.119293" electricity_normed="0"
            traveltime="1.03" CO_perVeh="5.765478" CO2_perVeh="589.729365" HC_perVeh="0.039642" PMx_perVeh="0.007218" NOx_perVeh="0.217977" fuel_perVeh="0.253502" electricity_perVeh="0"/>
        <edge id=":1110673650_0" sampledSeconds="143.59" CO_abs="2167.180468" CO2_abs="281891.091849" HC_abs="16.288308" PMx_abs="3.761647" NOx_abs="104.523073" fuel_abs="121.173211" electricity_abs="0"
            CO_normed="5533.226727" CO2_normed="719721.936637" HC_normed="41.587170" PMx_normed="9.604205" NOx_normed="266.867422" fuel_normed="309.378412" electricity_normed="0"
            traveltime="0.02" CO_perVeh="0.348765" CO2_perVeh="45.364863" HC_perVeh="0.002621" PMx_perVeh="0.000605" NOx_perVeh="0.016821" fuel_perVeh="0.019500" electricity_perVeh="0"/>
        <edge id=":1110673655_0" sampledSeconds="44.76" CO_abs="878.357854" CO2_abs="95268.757273" HC_abs="6.188879" PMx_abs="1.340523" NOx_abs="36.052693" fuel_abs="40.952054" electricity_abs="0"
            CO_normed="2242.615798" CO2_normed="243239.380271" HC_normed="15.801393" PMx_normed="3.422613" NOx_normed="92.049429" fuel_normed="104.558435" electricity_normed="0"
            traveltime="0.02" CO_perVeh="0.470087" CO2_perVeh="50.986758" HC_perVeh="0.003312" PMx_perVeh="0.000717" NOx_perVeh="0.019295" fuel_perVeh="0.021917" electricity_perVeh="0"/>
        <edge id=":1110673663_0" sampledSeconds="108.85" CO_abs="1813.412568" CO2_abs="204329.242946" HC_abs="12.950505" PMx_abs="2.916390" NOx_abs="77.352257" fuel_abs="87.832493" electricity_abs="0"
            CO_normed="84.798343" CO2_normed="9554.792749" HC_normed="0.605588" PMx_normed="0.136376" NOx_normed="3.617127" fuel_normed="4.107201" electricity_normed="0"
            traveltime="1.28" CO_perVeh="21.299386" CO2_perVeh="2399.943352" HC_perVeh="0.152110" PMx_perVeh="0.034254" NOx_perVeh="0.908539" fuel_perVeh="1.031634" electricity_perVeh="0"/>
        <edge id=":1110673663_1" sampledSeconds="153.93" CO_abs="2654.378570" CO2_abs="345509.714990" HC_abs="19.965235" PMx_abs="4.671066" NOx_abs="128.386040" fuel_abs="148.520119" electricity_abs="0"
            CO_normed="124.275124" CO2_normed="16176.389923" HC_normed="0.934751" PMx_normed="0.218694" NOx_normed="6.010895" fuel_normed="6.953551" electricity_normed="0"
            traveltime="1.25" CO_perVeh="21.488310" CO2_perVeh="2797.046366" HC_perVeh="0.161627" PMx_perVeh="0.037814" NOx_perVeh="1.039339" fuel_perVeh="1.202333" electricity_perVeh="0"/>
        <edge id=":1110673666_0" sampledSeconds="192.21" CO_abs="4158.474644" CO2_abs="324612.438020" HC_abs="26.342372" PMx_abs="4.461043" NOx_abs="124.317576" fuel_abs="139.538251" electricity_abs="0"