<?xml version="1.0" encoding="UTF-8"?>

<!-- generated on Tue Nov 10 13:21:46 2020 by Eclipse SUMO sumo Version 1.7.0
<configuration xmlns:xsi="http://www.w3.org/2001/XMLSchema-instance" xsi:noNamespaceSchemaLocation="http://sumo.dlr.de/xsd/sumoConfiguration.xsd">

    <input>
        <net-file value="../dataSets/Porto/8AM9AM_Routing_SaoBento/Porto.net.xml"/>
        <route-files value="../results/Porto/8AM9AM_Routing_SaoBento/inputdata/cost_hc-length/solution12/Porto.rou.xml"/>
        <additional-files value="moreOutputInfo.xml"/>
    </input>

    <output>
        <emission-output.precision value="6"/>
        <tripinfo-output value="../results/Porto/8AM9AM_Routing_SaoBento/inputdata/cost_hc-length/solution12/Porto-tripinfo"/>
    </output>

    <processing>
        <collision.action value="warn"/>
        <time-to-teleport value="-1"/>
    </processing>

    <emissions>
        <device.emissions.probability value="1"/>
    </emissions>

    <gui_only>
        <quit-on-end value="true"/>
        <start value="true"/>
    </gui_only>

</configuration>
-->

<meandata xmlns:xsi="http://www.w3.org/2001/XMLSchema-instance" xsi:noNamespaceSchemaLocation="http://sumo.dlr.de/xsd/meandata_file.xsd">
    <interval begin="0.00" end="8471.00" id="emissions-detector">
        <edge id=":1092997347_0" sampledSeconds="588.22" CO_abs="71829.616091" CO2_abs="3090752.600494" HC_abs="400.193390" PMx_abs="62.473278" NOx_abs="1337.064239" fuel_abs="1328.588756" electricity_abs="0"
            CO_normed="69377.506662" CO2_normed="2985240.918690" HC_normed="386.531644" PMx_normed="60.340574" NOx_normed="1291.419727" fuel_normed="1283.233578" electricity_normed="0"
            traveltime="0.07" CO_perVeh="8.223631" CO2_perVeh="353.854176" HC_perVeh="0.045817" PMx_perVeh="0.007152" NOx_perVeh="0.153078" fuel_perVeh="0.152108" electricity_perVeh="0"/>
        <edge id=":1103427051_0" sampledSeconds="19.54" CO_abs="1586.925134" CO2_abs="87832.210265" HC_abs="9.312925" PMx_abs="1.737754" NOx_abs="37.595289" fuel_abs="37.755178" electricity_abs="0"
            CO_normed="2325.553097" CO2_normed="128713.361593" HC_normed="13.647589" PMx_normed="2.546584" NOx_normed="55.093866" fuel_normed="55.328174" electricity_normed="0"
            traveltime="0.03" CO_perVeh="2.467869" CO2_perVeh="136.590203" HC_perVeh="0.014483" PMx_perVeh="0.002702" NOx_perVeh="0.058465" fuel_perVeh="0.058714" electricity_perVeh="0"/>
        <edge id=":1105984386_0" sampledSeconds="10.36" CO_abs="289.990628" CO2_abs="21640.889862" HC_abs="1.809087" PMx_abs="0.271329" NOx_abs="8.143516" fuel_abs="9.302625" electricity_abs="0"
            CO_normed="12.692073" CO2_normed="947.160774" HC_normed="0.079179" PMx_normed="0.011875" NOx_normed="0.356419" fuel_normed="0.407150" electricity_normed="0"
            traveltime="0.99" CO_perVeh="27.818702" CO2_perVeh="2076.003167" HC_perVeh="0.173545" PMx_perVeh="0.026028" NOx_perVeh="0.781205" fuel_perVeh="0.892398" electricity_perVeh="0"/>
        <edge id=":1105984390_0" sampledSeconds="10.81" CO_abs="21.476412" CO2_abs="1725.197988" HC_abs="0.136215" PMx_abs="0.018481" NOx_abs="0.627051" fuel_abs="0.741603" electricity_abs="0"
            CO_normed="0.726674" CO2_normed="58.373687" HC_normed="0.004609" PMx_normed="0.000625" NOx_normed="0.021217" fuel_normed="0.025093" electricity_normed="0"
            traveltime="1.12" CO_perVeh="2.226159" CO2_perVeh="178.827158" HC_perVeh="0.014119" PMx_perVeh="0.001916" NOx_perVeh="0.064998" fuel_perVeh="0.076872" electricity_perVeh="0"/>
        <edge id=":1105984390_1" sampledSeconds="2402.65" CO_abs="63316.980417" CO2_abs="7519333.194139" HC_abs="467.807578" PMx_abs="135.671996" NOx_abs="2862.371123" fuel_abs="3232.214044" electricity_abs="0"
            CO_normed="2049.383749" CO2_normed="243378.619019" HC_normed="15.141550" PMx_normed="4.391302" NOx_normed="92.646504" fuel_normed="104.617227" electricity_normed="0"
            traveltime="0.65" CO_perVeh="17.100839" CO2_perVeh="2030.843961" HC_perVeh="0.126347" PMx_perVeh="0.036643" NOx_perVeh="0.773078" fuel_perVeh="0.872966" electricity_perVeh="0"/>
        <edge id=":1105984395_0" sampledSeconds="4.07" CO_abs="40.852783" CO2_abs="4065.390381" HC_abs="0.275175" PMx_abs="0.034059" NOx_abs="1.406756" fuel_abs="1.747578" electricity_abs="0"
            CO_normed="18.871292" CO2_normed="1877.942311" HC_normed="0.127113" PMx_normed="0.015733" NOx_normed="0.649829" fuel_normed="0.807266" electricity_normed="0"
            traveltime="0.09" CO_perVeh="0.946953" CO2_perVeh="94.234295" HC_perVeh="0.006378" PMx_perVeh="0.000789" NOx_perVeh="0.032608" fuel_perVeh="0.040508" electricity_perVeh="0"/>
        <edge id=":1105984398_0" sampledSeconds="10.80" CO_abs="674.358734" CO2_abs="44783.051697" HC_abs="4.127384" PMx_abs="0.814599" NOx_abs="18.553547" fuel_abs="19.250261" electricity_abs="0"
            CO_normed="23.704593" CO2_normed="1574.182945" HC_normed="0.145083" PMx_normed="0.028634" NOx_normed="0.652182" fuel_normed="0.676672" electricity_normed="0"
            traveltime="1.16" CO_perVeh="72.512664" CO2_perVeh="4815.446440" HC_perVeh="0.443811" PMx_perVeh="0.087592" NOx_perVeh="1.995032" fuel_perVeh="2.069948" electricity_perVeh="0"/>
        <edge id=":1105984398_1" sampledSeconds="646.05" CO_abs="11608.193799" CO2_abs="1372211.296121" HC_abs="84.465171" PMx_abs="19.628360" NOx_abs="518.525962" fuel_abs="589.855141" electricity_abs="0"
            CO_normed="394.975385" CO2_normed="46690.268433" HC_normed="2.873975" PMx_normed="0.667866" NOx_normed="17.643140" fuel_normed="20.070156" electricity_normed="0"
            traveltime="0.95" CO_perVeh="17.136707" CO2_perVeh="2025.739978" HC_perVeh="0.124693" PMx_perVeh="0.028977" NOx_perVeh="0.765479" fuel_perVeh="0.870779" electricity_perVeh="0"/>
        <edge id=":1106006327_0" sampledSeconds="540.11" CO_abs="72408.887981" CO2_abs="2335216.918384" HC_abs="384.645624" PMx_abs="48.635648" NOx_abs="1021.714284" fuel_abs="1003.827812" electricity_abs="0"
            CO_normed="3473.169471" CO2_normed="112011.167915" HC_normed="18.449937" PMx_normed="2.332861" NOx_normed="49.007614" fuel_normed="48.149671" electricity_normed="0"
            traveltime="2.11" CO_perVeh="282.261083" CO2_perVeh="9103.037964" HC_perVeh="1.499408" PMx_perVeh="0.189589" NOx_perVeh="3.982801" fuel_perVeh="3.913077" electricity_perVeh="0"/>
        <edge id=":1106006327_1" sampledSeconds="679.68" CO_abs="92377.874655" CO2_abs="3101707.029919" HC_abs="493.764378" PMx_abs="64.799779" NOx_abs="1358.048249" fuel_abs="1333.311492" electricity_abs="0"
            CO_normed="3864.044126" CO2_normed="129740.296302" HC_normed="20.653510" PMx_normed="2.710489" NOx_normed="56.805359" fuel_normed="55.770654" electricity_normed="0"
            traveltime="2.28" CO_perVeh="310.090165" CO2_perVeh="10411.679741" HC_perVeh="1.657448" PMx_perVeh="0.217517" NOx_perVeh="4.558639" fuel_perVeh="4.475604" electricity_perVeh="0"/>
        <edge id=":1106006327_2" sampledSeconds="0.00" CO_abs="0" CO2_abs="0" HC_abs="0" PMx_abs="0" NOx_abs="0" fuel_abs="0" electricity_abs="0"
            CO_normed="0" CO2_normed="0" HC_normed="0" PMx_normed="0" NOx_normed="0" fuel_normed="0" electricity_normed="0"/>
        <edge id=":1106006327_3" sampledSeconds="0.00" CO_abs="0" CO2_abs="0" HC_abs="0" PMx_abs="0" NOx_abs="0" fuel_abs="0" electricity_abs="0"
            CO_normed="0" CO2_normed="0" HC_normed="0" PMx_normed="0" NOx_normed="0" fuel_normed="0" electricity_normed="0"/>
        <edge id=":1107381198_0" sampledSeconds="0.00" CO_abs="0" CO2_abs="0" HC_abs="0" PMx_abs="0" NOx_abs="0" fuel_abs="0" electricity_abs="0"
            CO_normed="0" CO2_normed="0" HC_normed="0" PMx_normed="0" NOx_normed="0" fuel_normed="0" electricity_normed="0"/>
        <edge id=":1107381198_1" sampledSeconds="104.25" CO_abs="4781.668953" CO2_abs="188369.588435" HC_abs="26.112210" PMx_abs="3.275813" NOx_abs="78.211890" fuel_abs="80.973561" electricity_abs="0"
            CO_normed="221.604201" CO2_normed="8729.900067" HC_normed="1.210158" PMx_normed="0.151816" NOx_normed="3.624693" fuel_normed="3.752682" electricity_normed="0"
            traveltime="1.56" CO_perVeh="71.590753" CO2_perVeh="2820.253928" HC_perVeh="0.390950" PMx_perVeh="0.049045" NOx_perVeh="1.170982" fuel_perVeh="1.212329" electricity_perVeh="0"/>
        <edge id=":1110338277_0" sampledSeconds="160.25" CO_abs="2561.071298" CO2_abs="316403.704920" HC_abs="18.815065" PMx_abs="4.293864" NOx_abs="117.958578" fuel_abs="136.008713" electricity_abs="0"
            CO_normed="3887.151404" CO2_normed="480232.278914" HC_normed="28.557193" PMx_normed="6.517156" NOx_normed="179.035567" fuel_normed="206.431762" electricity_normed="0"
            traveltime="0.02" CO_perVeh="0.346873" CO2_perVeh="42.853844" HC_perVeh="0.002548" PMx_perVeh="0.000582" NOx_perVeh="0.015976" fuel_perVeh="0.018421" electricity_perVeh="0"/>
        <edge id=":1110338293_0" sampledSeconds="7120.02" CO_abs="693011.110202" CO2_abs="11986627.883831" HC_abs="3436.044544" PMx_abs="287.699250" NOx_abs="5427.843482" fuel_abs="5152.854057" electricity_abs="0"
            CO_normed="981718.017049" CO2_normed="16980230.740878" HC_normed="4867.493156" PMx_normed="407.554126" NOx_normed="7689.071158" fuel_normed="7299.521743" electricity_normed="0"
            traveltime="0.48" CO_perVeh="46.331163" CO2_perVeh="801.364375" HC_perVeh="0.229716" PMx_perVeh="0.019234" NOx_perVeh="0.362878" fuel_perVeh="0.344493" electricity_perVeh="0"/>
        <edge id=":1110338295_0" sampledSeconds="0.00" CO_abs="0" CO2_abs="0" HC_abs="0" PMx_abs="0" NOx_abs="0" fuel_abs="0" electricity_abs="0"
            CO_normed="0" CO2_normed="0" HC_normed="0" PMx_normed="0" NOx_normed="0" fuel_normed="0" electricity_normed="0"/>
        <edge id=":1110673403_0" sampledSeconds="200.26" CO_abs="3122.763205" CO2_abs="381307.286692" HC_abs="22.964282" PMx_abs="5.292000" NOx_abs="142.979832" fuel_abs="163.907912" electricity_abs="0"
            CO_normed="4423.699500" CO2_normed="540159.065081" HC_normed="32.531151" PMx_normed="7.496636" NOx_normed="202.544916" fuel_normed="232.191588" electricity_normed="0"
            traveltime="0.02" CO_perVeh="0.360917" CO2_perVeh="44.070027" HC_perVeh="0.002654" PMx_perVeh="0.000612" NOx_perVeh="0.016525" fuel_perVeh="0.018944" electricity_perVeh="0"/>
        <edge id=":1110673412_0" sampledSeconds="940.66" CO_abs="166337.119820" CO2_abs="11355666.008715" HC_abs="1035.295788" PMx_abs="249.502583" NOx_abs="4879.449886" fuel_abs="4881.241542" electricity_abs="0"
            CO_normed="243758.067627" CO2_normed="16641115.380008" HC_normed="1517.170077" PMx_normed="365.632564" NOx_normed="7150.570340" fuel_normed="7153.195914" electricity_normed="0"
            traveltime="0.02" CO_perVeh="2.746743" CO2_perVeh="187.517320" HC_perVeh="0.017096" PMx_perVeh="0.004120" NOx_perVeh="0.080575" fuel_perVeh="0.080604" electricity_perVeh="0"/>
        <edge id=":1110673414_0" sampledSeconds="0.00" CO_abs="0" CO2_abs="0" HC_abs="0" PMx_abs="0" NOx_abs="0" fuel_abs="0" electricity_abs="0"
            CO_normed="0" CO2_normed="0" HC_normed="0" PMx_normed="0" NOx_normed="0" fuel_normed="0" electricity_normed="0"/>
        <edge id=":1110673414_1" sampledSeconds="7.32" CO_abs="311.178100" CO2_abs="11618.534736" HC_abs="1.683377" PMx_abs="0.198624" NOx_abs="4.804192" fuel_abs="4.994425" electricity_abs="0"
            CO_normed="14.644990" CO2_normed="546.803681" HC_normed="0.079225" PMx_normed="0.009348" NOx_normed="0.226100" fuel_normed="0.235053" electricity_normed="0"
            traveltime="1.60" CO_perVeh="67.971414" CO2_perVeh="2537.865715" HC_perVeh="0.367704" PMx_perVeh="0.043386" NOx_perVeh="1.049392" fuel_perVeh="1.090945" electricity_perVeh="0"/>
        <edge id=":1110673417_0" sampledSeconds="28.86" CO_abs="418.594414" CO2_abs="52536.923801" HC_abs="3.101861" PMx_abs="0.693547" NOx_abs="19.471494" fuel_abs="22.583450" electricity_abs="0"
            CO_normed="635.335637" CO2_normed="79739.668821" HC_normed="4.707954" PMx_normed="1.052654" NOx_normed="29.553510" fuel_normed="34.276785" electricity_normed="0"
            traveltime="0.02" CO_perVeh="0.319198" CO2_perVeh="40.061926" HC_perVeh="0.002365" PMx_perVeh="0.000529" NOx_perVeh="0.014848" fuel_perVeh="0.017221" electricity_perVeh="0"/>
        <edge id=":1110673446_0" sampledSeconds="1312.40" CO_abs="14185.183742" CO2_abs="1165191.797280" HC_abs="92.168575" PMx_abs="21.179623" NOx_abs="475.052306" fuel_abs="500.862525" electricity_abs="0"
            CO_normed="20094.700143" CO2_normed="1650608.141585" HC_normed="130.565801" PMx_normed="30.003007" NOx_normed="672.958053" fuel_normed="709.520753" electricity_normed="0"
            traveltime="0.02" CO_perVeh="0.246178" CO2_perVeh="20.221433" HC_perVeh="0.001600" PMx_perVeh="0.000368" NOx_perVeh="0.008244" fuel_perVeh="0.008692" electricity_perVeh="0"/>
        <edge id=":1110673451_0" sampledSeconds="36.43" CO_abs="407.096592" CO2_abs="29868.096973" HC_abs="2.539843" PMx_abs="0.436414" NOx_abs="11.638406" fuel_abs="12.839110" electricity_abs="0"
            CO_normed="640.769042" CO2_normed="47012.311766" HC_normed="3.997707" PMx_normed="0.686914" NOx_normed="18.318823" fuel_normed="20.208728" electricity_normed="0"
            traveltime="0.03" CO_perVeh="0.299940" CO2_perVeh="22.006184" HC_perVeh="0.001871" PMx_perVeh="0.000322" NOx_perVeh="0.008575" fuel_perVeh="0.009460" electricity_perVeh="0"/>
        <edge id=":1110673464_0" sampledSeconds="1027.00" CO_abs="2996.768528" CO2_abs="237691.805093" HC_abs="19.064698" PMx_abs="3.335735" NOx_abs="91.333128" fuel_abs="102.174318" electricity_abs="0"
            CO_normed="90.195801" CO2_normed="7153.973566" HC_normed="0.573803" PMx_normed="0.100398" NOx_normed="2.748916" fuel_normed="3.075211" electricity_normed="0"
            traveltime="1.22" CO_perVeh="3.553748" CO2_perVeh="281.869215" HC_perVeh="0.022608" PMx_perVeh="0.003956" NOx_perVeh="0.108308" fuel_perVeh="0.121164" electricity_perVeh="0"/>
        <edge id=":1110673464_1" sampledSeconds="2611.43" CO_abs="66530.340484" CO2_abs="8004448.305172" HC_abs="493.490954" PMx_abs="143.463698" NOx_abs="3041.651329" fuel_abs="3440.743194" electricity_abs="0"
            CO_normed="1962.111053" CO2_normed="236066.979046" HC_normed="14.554022" PMx_normed="4.231028" NOx_normed="89.704301" fuel_normed="101.474308" electricity_normed="0"
            traveltime="0.72" CO_perVeh="18.339034" CO2_perVeh="2206.419647" HC_perVeh="0.136030" PMx_perVeh="0.039546" NOx_perVeh="0.838429" fuel_perVeh="0.948438" electricity_perVeh="0"/>
        <edge id=":1110673479_0" sampledSeconds="133.86" CO_abs="6731.608283" CO2_abs="459979.545803" HC_abs="41.467985" PMx_abs="8.114440" NOx_abs="188.620244" fuel_abs="197.725191" electricity_abs="0"
            CO_normed="9535.981513" CO2_normed="651606.014596" HC_normed="58.743457" PMx_normed="11.494898" NOx_normed="267.199023" fuel_normed="280.097071" electricity_normed="0"
            traveltime="0.03" CO_perVeh="1.423126" CO2_perVeh="97.244017" HC_perVeh="0.008767" PMx_perVeh="0.001715" NOx_perVeh="0.039876" fuel_perVeh="0.041801" electricity_perVeh="0"/>
        <edge id=":1110673511_0" sampledSeconds="63.47" CO_abs="1282.535753" CO2_abs="137107.543366" HC_abs="8.991986" PMx_abs="1.963552" NOx_abs="52.135516" fuel_abs="58.936758" electricity_abs="0"
            CO_normed="1816.837331" CO2_normed="194226.244882" HC_normed="12.738028" PMx_normed="2.781564" NOx_normed="73.855058" fuel_normed="83.489681" electricity_normed="0"
            traveltime="0.02" CO_perVeh="0.491550" CO2_perVeh="52.548404" HC_perVeh="0.003446" PMx_perVeh="0.000753" NOx_perVeh="0.019982" fuel_perVeh="0.022588" electricity_perVeh="0"/>
        <edge id=":1110673517_0" sampledSeconds="183.37" CO_abs="7811.322413" CO2_abs="565507.927761" HC_abs="48.806701" PMx_abs="9.554652" NOx_abs="228.640203" fuel_abs="243.087552" electricity_abs="0"
            CO_normed="11065.502179" CO2_normed="801097.288765" HC_normed="69.139466" PMx_normed="13.535099" NOx_normed="323.891210" fuel_normed="344.357292" electricity_normed="0"
            traveltime="0.03" CO_perVeh="1.195977" CO2_perVeh="86.583841" HC_perVeh="0.007473" PMx_perVeh="0.001463" NOx_perVeh="0.035007" fuel_perVeh="0.037219" electricity_perVeh="0"/>
        <edge id=":1110673534_0" sampledSeconds="660.02" CO_abs="4785.012236" CO2_abs="381399.131316" HC_abs="30.534610" PMx_abs="5.412490" NOx_abs="146.999379" fuel_abs="163.948311" electricity_abs="0"
            CO_normed="131.365074" CO2_normed="10470.720387" HC_normed="0.838280" PMx_normed="0.148592" NOx_normed="4.035639" fuel_normed="4.500946" electricity_normed="0"
            traveltime="1.45" CO_perVeh="10.521530" CO2_perVeh="838.639916" HC_perVeh="0.067141" PMx_perVeh="0.011901" NOx_perVeh="0.323230" fuel_perVeh="0.360498" electricity_perVeh="0"/>
        <edge id=":1110673534_1" sampledSeconds="264.05" CO_abs="3841.938303" CO2_abs="496872.380365" HC_abs="28.848216" PMx_abs="6.678008" NOx_abs="184.477036" fuel_abs="213.584650" electricity_abs="0"
            CO_normed="102.559322" CO2_normed="13263.850308" HC_normed="0.770094" PMx_normed="0.178267" NOx_normed="4.924556" fuel_normed="5.701574" electricity_normed="0"
            traveltime="1.23" CO_perVeh="17.825630" CO2_perVeh="2305.363193" HC_perVeh="0.133848" PMx_perVeh="0.030984" NOx_perVeh="0.855927" fuel_perVeh="0.990979" electricity_perVeh="0"/>
        <edge id=":1110673549_0" sampledSeconds="651.88" CO_abs="1092.495899" CO2_abs="115859.071498" HC_abs="7.566541" PMx_abs="1.562061" NOx_abs="43.180575" fuel_abs="49.803106" electricity_abs="0"
            CO_normed="29.054330" CO2_normed="3081.208504" HC_normed="0.201228" PMx_normed="0.041542" NOx_normed="1.148364" fuel_normed="1.324486" electricity_normed="0"
            traveltime="1.30" CO_perVeh="2.170529" CO2_perVeh="230.184349" HC_perVeh="0.015033" PMx_perVeh="0.003103" NOx_perVeh="0.085790" fuel_perVeh="0.098947" electricity_perVeh="0"/>
        <edge id=":1110673549_1" sampledSeconds="3196.63" CO_abs="71677.325048" CO2_abs="9278289.010698" HC_abs="548.084731" PMx_abs="163.853955" NOx_abs="3476.657255" fuel_abs="3988.311230" electricity_abs="0"
            CO_normed="1843.909345" CO2_normed="238685.299757" HC_normed="14.099557" PMx_normed="4.215166" NOx_normed="89.437501" fuel_normed="102.599872" electricity_normed="0"
            traveltime="0.81" CO_perVeh="18.080476" CO2_perVeh="2340.431724" HC_perVeh="0.138253" PMx_perVeh="0.041332" NOx_perVeh="0.876981" fuel_perVeh="1.006044" electricity_perVeh="0"/>
        <edge id=":1110673556_0" sampledSeconds="461.86" CO_abs="56740.990764" CO2_abs="2748383.201090" HC_abs="323.641323" PMx_abs="55.443122" NOx_abs="1184.515445" fuel_abs="1181.412538" electricity_abs="0"
            CO_normed="1118.967465" CO2_normed="54199.818208" HC_normed="6.382407" PMx_normed="1.093373" NOx_normed="23.359378" fuel_normed="23.298187" electricity_normed="0"
            traveltime="2.72" CO_perVeh="334.483358" CO2_perVeh="16201.487332" HC_perVeh="1.907838" PMx_perVeh="0.326833" NOx_perVeh="6.982619" fuel_perVeh="6.964327" electricity_perVeh="0"/>
        <edge id=":1110673556_2" sampledSeconds="176.27" CO_abs="17657.285217" CO2_abs="752514.542674" HC_abs="98.093956" PMx_abs="14.656396" NOx_abs="321.857591" fuel_abs="323.476378" electricity_abs="0"
            CO_normed="364.094199" CO2_normed="15516.891541" HC_normed="2.022703" PMx_normed="0.302216" NOx_normed="6.636721" fuel_normed="6.670101" electricity_normed="0"
            traveltime="3.05" CO_perVeh="305.319693" CO2_perVeh="13012.051752" HC_perVeh="1.696185" PMx_perVeh="0.253430" NOx_perVeh="5.565378" fuel_perVeh="5.593369" electricity_perVeh="0"/>
        <edge id=":1110673556_3" sampledSeconds="343.03" CO_abs="34071.010287" CO2_abs="1187748.348642" HC_abs="182.906801" PMx_abs="23.410937" NOx_abs="511.340358" fuel_abs="510.570979" electricity_abs="0"
            CO_normed="1598.176105" CO2_normed="55713.963666" HC_normed="8.579648" PMx_normed="1.098142" NOx_normed="23.985551" fuel_normed="23.949461" electricity_normed="0"
            traveltime="1.81" CO_perVeh="180.259369" CO2_perVeh="6284.015813" HC_perVeh="0.967704" PMx_perVeh="0.123860" NOx_perVeh="2.705347" fuel_perVeh="2.701276" electricity_perVeh="0"/>
        <edge id=":1110673556_4" sampledSeconds="85.06" CO_abs="9926.794320" CO2_abs="382212.360726" HC_abs="54.204022" PMx_abs="7.704231" NOx_abs="165.437069" fuel_abs="164.298441" electricity_abs="0"
            CO_normed="284.469488" CO2_normed="10952.957336" HC_normed="1.553310" PMx_normed="0.220778" NOx_normed="4.740886" fuel_normed="4.708256" electricity_normed="0"
            traveltime="2.58" CO_perVeh="300.744351" CO2_perVeh="11579.590009" HC_perVeh="1.642177" PMx_perVeh="0.233409" NOx_perVeh="5.012118" fuel_perVeh="4.977622" electricity_perVeh="0"/>
        <edge id=":1110673556_5" sampledSeconds="23.76" CO_abs="1420.093198" CO2_abs="58137.410097" HC_abs="7.812686" PMx_abs="1.036890" NOx_abs="24.274950" fuel_abs="24.991175" electricity_abs="0"
            CO_normed="56.720890" CO2_normed="2322.105098" HC_normed="0.312052" PMx_normed="0.041415" NOx_normed="0.969582" fuel_normed="0.998189" electricity_normed="0"
            traveltime="1.64" CO_perVeh="98.179283" CO2_perVeh="4019.376501" HC_perVeh="0.540136" PMx_perVeh="0.071686" NOx_perVeh="1.678268" fuel_perVeh="1.727785" electricity_perVeh="0"/>
        <edge id=":1110673556_6" sampledSeconds="548.40" CO_abs="65630.211479" CO2_abs="3164245.755342" HC_abs="373.993648" PMx_abs="63.871723" NOx_abs="1363.958433" fuel_abs="1360.174291" electricity_abs="0"
            CO_normed="1326.902190" CO2_normed="63974.266259" HC_normed="7.561350" PMx_normed="1.291349" NOx_normed="27.576316" fuel_normed="27.499808" electricity_normed="0"
            traveltime="2.66" CO_perVeh="318.649187" CO2_perVeh="15363.112741" HC_perVeh="1.815822" PMx_perVeh="0.310111" NOx_perVeh="6.622320" fuel_perVeh="6.603947" electricity_perVeh="0"/>
        <edge id=":1110673561_0" sampledSeconds="104.89" CO_abs="9276.131594" CO2_abs="662768.167820" HC_abs="58.169417" PMx_abs="13.343550" NOx_abs="280.088761" fuel_abs="284.892551" electricity_abs="0"
            CO_normed="235.634447" CO2_normed="16835.790758" HC_normed="1.477633" PMx_normed="0.338956" NOx_normed="7.114880" fuel_normed="7.236907" electricity_normed="0"
            traveltime="1.24" CO_perVeh="109.467356" CO2_perVeh="7821.307663" HC_perVeh="0.686456" PMx_perVeh="0.157467" NOx_perVeh="3.305319" fuel_perVeh="3.362009" electricity_perVeh="0"/>
        <edge id=":1110673561_1" sampledSeconds="5184.97" CO_abs="487972.268753" CO2_abs="33767725.831126" HC_abs="3038.985528" PMx_abs="706.349471" NOx_abs="14440.487323" fuel_abs="14515.114137" electricity_abs="0"
            CO_normed="12084.972805" CO2_normed="836281.228456" HC_normed="75.262591" PMx_normed="17.493236" NOx_normed="357.628717" fuel_normed="359.476902" electricity_normed="0"
            traveltime="1.19" CO_perVeh="112.093355" CO2_perVeh="7756.870460" HC_perVeh="0.698093" PMx_perVeh="0.162257" NOx_perVeh="3.317161" fuel_perVeh="3.334304" electricity_perVeh="0"/>
        <edge id=":1110673562_0" sampledSeconds="301.02" CO_abs="6466.421673" CO2_abs="494963.923384" HC_abs="40.725681" PMx_abs="6.702146" NOx_abs="189.163909" fuel_abs="212.765960" electricity_abs="0"
            CO_normed="10178.131937" CO2_normed="779072.007845" HC_normed="64.102123" PMx_normed="10.549161" NOx_normed="297.743531" fuel_normed="334.893102" electricity_normed="0"
            traveltime="0.03" CO_perVeh="0.579661" CO2_perVeh="44.369419" HC_perVeh="0.003651" PMx_perVeh="0.000601" NOx_perVeh="0.016957" fuel_perVeh="0.019073" electricity_perVeh="0"/>
        <edge id=":1110673564_0" sampledSeconds="27.50" CO_abs="482.381646" CO2_abs="55850.990777" HC_abs="3.450599" PMx_abs="0.788664" NOx_abs="21.049186" fuel_abs="24.007977" electricity_abs="0"
            CO_normed="2050.022340" CO2_normed="237355.172702" HC_normed="14.664333" PMx_normed="3.351660" NOx_normed="89.454693" fuel_normed="102.028944" electricity_normed="0"
            traveltime="7.766970e-03" CO_perVeh="0.136247" CO2_perVeh="15.774888" HC_perVeh="0.000975" PMx_perVeh="0.000223" NOx_perVeh="0.005945" fuel_perVeh="0.006781" electricity_perVeh="0"/>
        <edge id=":1110673588_0" sampledSeconds="63.19" CO_abs="1026.822810" CO2_abs="115781.802085" HC_abs="7.329016" PMx_abs="1.588423" NOx_abs="43.509502" fuel_abs="49.769785" electricity_abs="0"
            CO_normed="1745.513926" CO2_normed="196819.495929" HC_normed="12.458722" PMx_normed="2.700188" NOx_normed="73.962558" fuel_normed="84.604523" electricity_normed="0"
            traveltime="0.02" CO_perVeh="0.331233" CO2_perVeh="37.348968" HC_perVeh="0.002364" PMx_perVeh="0.000512" NOx_perVeh="0.014035" fuel_perVeh="0.016055" electricity_perVeh="0"/>
        <edge id=":1110673601_0" sampledSeconds="28.66" CO_abs="486.376271" CO2_abs="54931.544301" HC_abs="3.475159" PMx_abs="0.781942" NOx_abs="20.788955" fuel_abs="23.612747" electricity_abs="0"
            CO_normed="738.213812" CO2_normed="83374.183973" HC_normed="5.274539" PMx_normed="1.186818" NOx_normed="31.553129" fuel_normed="35.839035" electricity_normed="0"
            traveltime="0.02" CO_perVeh="0.370885" CO2_perVeh="41.887939" HC_perVeh="0.002650" PMx_perVeh="0.000596" NOx_perVeh="0.015853" fuel_perVeh="0.018006" electricity_perVeh="0"/>
        <edge id=":1110673617_0" sampledSeconds="852.05" CO_abs="31433.287704" CO2_abs="3235480.699766" HC_abs="220.689838" PMx_abs="60.693183" NOx_abs="1265.509689" fuel_abs="1390.781847" electricity_abs="0"
            CO_normed="44528.326343" CO2_normed="4583374.855057" HC_normed="312.628740" PMx_normed="85.977830" NOx_normed="1792.718247" fuel_normed="1970.178511" electricity_normed="0"
            traveltime="0.02" CO_perVeh="0.557055" CO2_perVeh="57.338605" HC_perVeh="0.003911" PMx_perVeh="0.001076" NOx_perVeh="0.022427" fuel_perVeh="0.024647" electricity_perVeh="0"/>
        <edge id=":1110673621_0" sampledSeconds="26.19" CO_abs="697.196954" CO2_abs="70901.579328" HC_abs="4.817387" PMx_abs="1.076018" NOx_abs="27.363639" fuel_abs="30.477538" electricity_abs="0"
            CO_normed="1185.177210" CO2_normed="120526.825915" HC_normed="8.189160" PMx_normed="1.829142" NOx_normed="46.515926" fuel_normed="51.809296" electricity_normed="0"
            traveltime="0.02" CO_perVeh="0.528180" CO2_perVeh="53.713318" HC_perVeh="0.003650" PMx_perVeh="0.000815" NOx_perVeh="0.020730" fuel_perVeh="0.023089" electricity_perVeh="0"/>
        <edge id=":1110673630_0" sampledSeconds="286.23" CO_abs="968.195466" CO2_abs="92141.415931" HC_abs="6.454128" PMx_abs="1.087270" NOx_abs="33.854224" fuel_abs="39.608122" electricity_abs="0"
            CO_normed="29.348293" CO2_normed="2793.024126" HC_normed="0.195640" PMx_normed="0.032958" NOx_normed="1.026202" fuel_normed="1.200616" electricity_normed="0"
            traveltime="1.29" CO_perVeh="4.356517" CO2_perVeh="414.601900" HC_perVeh="0.029041" PMx_perVeh="0.004892" NOx_perVeh="0.152331" fuel_perVeh="0.178222" electricity_perVeh="0"/>
        <edge id=":1110673630_1" sampledSeconds="336.85" CO_abs="1598.387202" CO2_abs="127063.077252" HC_abs="10.173338" PMx_abs="1.700379" NOx_abs="48.353621" fuel_abs="54.619518" electricity_abs="0"
            CO_normed="59.067960" CO2_normed="4695.581119" HC_normed="0.375953" PMx_normed="0.062837" NOx_normed="1.786895" fuel_normed="2.018449" electricity_normed="0"
            traveltime="1.07" CO_perVeh="5.095344" CO2_perVeh="405.052083" HC_perVeh="0.032431" PMx_perVeh="0.005420" NOx_perVeh="0.154142" fuel_perVeh="0.174116" electricity_perVeh="0"/>
        <edge id=":1110673650_0" sampledSeconds="199.97" CO_abs="2851.496487" CO2_abs="359935.429848" HC_abs="21.214636" PMx_abs="4.932505" NOx_abs="134.386638" fuel_abs="154.721081" electricity_abs="0"
            CO_normed="4039.423663" CO2_normed="509883.739603" HC_normed="30.052607" PMx_normed="6.987376" NOx_normed="190.371816" fuel_normed="219.177544" electricity_normed="0"
            traveltime="0.02" CO_perVeh="0.329564" CO2_perVeh="41.599811" HC_perVeh="0.002452" PMx_perVeh="0.000570" NOx_perVeh="0.015532" fuel_perVeh="0.017882" electricity_perVeh="0"/>
        <edge id=":1110673655_0" sampledSeconds="20.73" CO_abs="244.407308" CO2_abs="32448.993236" HC_abs="1.840582" PMx_abs="0.421865" NOx_abs="11.949018" fuel_abs="13.948479" electricity_abs="0"
            CO_normed="346.226856" CO2_normed="45967.172568" HC_normed="2.607365" PMx_normed="0.597613" NOx_normed="16.926953" fuel_normed="19.759385" electricity_normed="0"
            traveltime="0.02" CO_perVeh="0.279216" CO2_perVeh="37.070442" HC_perVeh="0.002103" PMx_perVeh="0.000482" NOx_perVeh="0.013651" fuel_perVeh="0.015935" electricity_perVeh="0"/>
        <edge id=":1110673663_0" sampledSeconds="111.09" CO_abs="1741.759091" CO2_abs="206250.069256" HC_abs="12.631394" PMx_abs="2.771037" NOx_abs="76.973722" fuel_abs="88.658361" electricity_abs="0"
            CO_normed="45.189965" CO2_normed="5351.161085" HC_normed="0.327722" PMx_normed="0.071895" NOx_normed="1.997084" fuel_normed="2.300242" electricity_normed="0"
            traveltime="1.30" CO_perVeh="20.457875" CO2_perVeh="2422.515302" HC_perVeh="0.148362" PMx_perVeh="0.032547" NOx_perVeh="0.904097" fuel_perVeh="1.041339" electricity_perVeh="0"/>
        <edge id=":1110673663_1" sampledSeconds="169.78" CO_abs="2726.210401" CO2_abs="329530.610902" HC_abs="19.794082" PMx_abs="4.478474" NOx_abs="122.968970" fuel_abs="141.651441" electricity_abs="0"
            CO_normed="70.818038" CO2_normed="8560.128481" HC_normed="0.514186" PMx_normed="0.116336" NOx_normed="3.194332" fuel_normed="3.679642" electricity_normed="0"
            traveltime="1.27" CO_perVeh="20.413758" CO2_perVeh="2467.512449" HC_perVeh="0.148217" PMx_perVeh="0.033535" NOx_perVeh="0.920787" fuel_perVeh="1.060681" electricity_perVeh="0"/>