<?xml version="1.0" encoding="UTF-8"?>

<!-- generated on Tue Nov 10 03:37:33 2020 by Eclipse SUMO sumo Version 1.7.0
<configuration xmlns:xsi="http://www.w3.org/2001/XMLSchema-instance" xsi:noNamespaceSchemaLocation="http://sumo.dlr.de/xsd/sumoConfiguration.xsd">

    <input>
        <net-file value="../dataSets/Porto/8AM9AM_Routing_SaoBento/Porto.net.xml"/>
        <route-files value="../results/Porto/8AM9AM_Routing_SaoBento/length-ttime/solution14/Porto.rou.xml"/>
        <additional-files value="moreOutputInfo.xml"/>
    </input>

    <output>
        <emission-output.precision value="6"/>
        <tripinfo-output value="../results/Porto/8AM9AM_Routing_SaoBento/length-ttime/solution14/Porto-tripinfo"/>
    </output>

    <processing>
        <collision.action value="warn"/>
        <time-to-teleport value="-1"/>
    </processing>

    <emissions>
        <device.emissions.probability value="1"/>
    </emissions>

    <gui_only>
        <quit-on-end value="true"/>
        <start value="true"/>
    </gui_only>

</configuration>
-->

<meandata xmlns:xsi="http://www.w3.org/2001/XMLSchema-instance" xsi:noNamespaceSchemaLocation="http://sumo.dlr.de/xsd/meandata_file.xsd">
    <interval begin="0.00" end="8562.00" id="emissions-detector">
        <edge id=":1092997347_0" sampledSeconds="588.97" CO_abs="72082.456352" CO2_abs="3093478.546490" HC_abs="401.412470" PMx_abs="62.571095" NOx_abs="1338.463877" fuel_abs="1329.760632" electricity_abs="0"
            CO_normed="68881.750989" CO2_normed="2956117.614662" HC_normed="383.588396" PMx_normed="59.792726" NOx_normed="1279.031544" fuel_normed="1270.714753" electricity_normed="0"
            traveltime="0.07" CO_perVeh="8.269510" CO2_perVeh="354.892891" HC_perVeh="0.046051" PMx_perVeh="0.007178" NOx_perVeh="0.153552" fuel_perVeh="0.152554" electricity_perVeh="0"/>
        <edge id=":1103427051_0" sampledSeconds="19.22" CO_abs="1615.606523" CO2_abs="92345.610640" HC_abs="9.544846" PMx_abs="1.787550" NOx_abs="39.218286" fuel_abs="39.695309" electricity_abs="0"
            CO_normed="2342.420593" CO2_normed="133889.196975" HC_normed="13.838792" PMx_normed="2.591717" NOx_normed="56.861445" fuel_normed="57.553067" electricity_normed="0"
            traveltime="0.03" CO_perVeh="2.512473" CO2_perVeh="143.609111" HC_perVeh="0.014843" PMx_perVeh="0.002780" NOx_perVeh="0.060989" fuel_perVeh="0.061731" electricity_perVeh="0"/>
        <edge id=":1105984386_0" sampledSeconds="10.47" CO_abs="270.648443" CO2_abs="21025.677631" HC_abs="1.705630" PMx_abs="0.252876" NOx_abs="7.826671" fuel_abs="9.038176" electricity_abs="0"
            CO_normed="11.719621" CO2_normed="910.454085" HC_normed="0.073857" PMx_normed="0.010950" NOx_normed="0.338911" fuel_normed="0.391371" electricity_normed="0"
            traveltime="1.00" CO_perVeh="25.963213" CO2_perVeh="2016.986068" HC_perVeh="0.163621" PMx_perVeh="0.024258" NOx_perVeh="0.750810" fuel_perVeh="0.867029" electricity_perVeh="0"/>
        <edge id=":1105984390_0" sampledSeconds="10.38" CO_abs="0" CO2_abs="0" HC_abs="0" PMx_abs="0" NOx_abs="0" fuel_abs="0" electricity_abs="0"
            CO_normed="0" CO2_normed="0" HC_normed="0" PMx_normed="0" NOx_normed="0" fuel_normed="0" electricity_normed="0"
            traveltime="1.08" CO_perVeh="0" CO2_perVeh="0" HC_perVeh="0" PMx_perVeh="0" NOx_perVeh="0" fuel_perVeh="0" electricity_perVeh="0"/>
        <edge id=":1105984390_1" sampledSeconds="2397.12" CO_abs="61791.177020" CO2_abs="7359074.382340" HC_abs="457.258145" PMx_abs="132.890326" NOx_abs="2798.757057" fuel_abs="3163.326238" electricity_abs="0"
            CO_normed="1978.741303" CO2_normed="235659.929699" HC_normed="14.642796" PMx_normed="4.255552" NOx_normed="89.624708" fuel_normed="101.299321" electricity_normed="0"
            traveltime="0.65" CO_perVeh="16.695468" CO2_perVeh="1988.361364" HC_perVeh="0.123547" PMx_perVeh="0.035906" NOx_perVeh="0.756201" fuel_perVeh="0.854705" electricity_perVeh="0"/>
        <edge id=":1105984395_0" sampledSeconds="4.25" CO_abs="46.500094" CO2_abs="3155.420637" HC_abs="0.282880" PMx_abs="0.040008" NOx_abs="1.194220" fuel_abs="1.356402" electricity_abs="0"
            CO_normed="21.251681" CO2_normed="1442.104432" HC_normed="0.129283" PMx_normed="0.018284" NOx_normed="0.545788" fuel_normed="0.619909" electricity_normed="0"
            traveltime="0.10" CO_perVeh="1.077856" CO2_perVeh="73.141521" HC_perVeh="0.006557" PMx_perVeh="0.000927" NOx_perVeh="0.027682" fuel_perVeh="0.031441" electricity_perVeh="0"/>
        <edge id=":1105984398_0" sampledSeconds="11.04" CO_abs="608.364010" CO2_abs="40886.317385" HC_abs="3.728051" PMx_abs="0.706606" NOx_abs="16.695546" fuel_abs="17.575277" electricity_abs="0"
            CO_normed="21.157507" CO2_normed="1421.932472" HC_normed="0.129653" PMx_normed="0.024574" NOx_normed="0.580633" fuel_normed="0.611228" electricity_normed="0"
            traveltime="1.17" CO_perVeh="64.235482" CO2_perVeh="4317.073751" HC_perVeh="0.393635" PMx_perVeh="0.074609" NOx_perVeh="1.762837" fuel_perVeh="1.855725" electricity_perVeh="0"/>
        <edge id=":1105984398_1" sampledSeconds="644.93" CO_abs="12923.875346" CO2_abs="1469969.700138" HC_abs="92.624093" PMx_abs="21.319236" NOx_abs="558.121940" fuel_abs="631.877182" electricity_abs="0"
            CO_normed="435.068459" CO2_normed="49484.959801" HC_normed="3.118091" PMx_normed="0.717689" NOx_normed="18.788579" fuel_normed="21.271470" electricity_normed="0"
            traveltime="0.95" CO_perVeh="19.082983" CO2_perVeh="2170.510500" HC_perVeh="0.136766" PMx_perVeh="0.031479" NOx_perVeh="0.824105" fuel_perVeh="0.933010" electricity_perVeh="0"/>
        <edge id=":1106006327_0" sampledSeconds="262.61" CO_abs="35224.200800" CO2_abs="1135015.225748" HC_abs="187.096774" PMx_abs="23.664099" NOx_abs="496.740156" fuel_abs="487.903208" electricity_abs="0"
            CO_normed="1671.609011" CO2_normed="53863.583442" HC_normed="8.878914" PMx_normed="1.123010" NOx_normed="23.573433" fuel_normed="23.154064" electricity_normed="0"
            traveltime="2.11" CO_perVeh="283.094692" CO2_perVeh="9122.046154" HC_perVeh="1.503685" PMx_perVeh="0.190187" NOx_perVeh="3.992269" fuel_perVeh="3.921247" electricity_perVeh="0"/>
        <edge id=":1106006327_1" sampledSeconds="684.49" CO_abs="92559.443475" CO2_abs="3087287.698507" HC_abs="494.211059" PMx_abs="64.389916" NOx_abs="1351.066896" fuel_abs="1327.113829" electricity_abs="0"
            CO_normed="3830.489745" CO2_normed="127764.638876" HC_normed="20.452482" PMx_normed="2.664719" NOx_normed="55.912695" fuel_normed="54.921418" electricity_normed="0"
            traveltime="2.30" CO_perVeh="310.699648" CO2_perVeh="10363.277536" HC_perVeh="1.658947" PMx_perVeh="0.216141" NOx_perVeh="4.535205" fuel_perVeh="4.454800" electricity_perVeh="0"/>
        <edge id=":1106006327_2" sampledSeconds="0.00" CO_abs="0" CO2_abs="0" HC_abs="0" PMx_abs="0" NOx_abs="0" fuel_abs="0" electricity_abs="0"
            CO_normed="0" CO2_normed="0" HC_normed="0" PMx_normed="0" NOx_normed="0" fuel_normed="0" electricity_normed="0"/>
        <edge id=":1106006327_3" sampledSeconds="0.00" CO_abs="0" CO2_abs="0" HC_abs="0" PMx_abs="0" NOx_abs="0" fuel_abs="0" electricity_abs="0"
            CO_normed="0" CO2_normed="0" HC_normed="0" PMx_normed="0" NOx_normed="0" fuel_normed="0" electricity_normed="0"/>
        <edge id=":1107381198_0" sampledSeconds="0.00" CO_abs="0" CO2_abs="0" HC_abs="0" PMx_abs="0" NOx_abs="0" fuel_abs="0" electricity_abs="0"
            CO_normed="0" CO2_normed="0" HC_normed="0" PMx_normed="0" NOx_normed="0" fuel_normed="0" electricity_normed="0"/>
        <edge id=":1107381198_1" sampledSeconds="103.39" CO_abs="4547.953267" CO2_abs="176128.920502" HC_abs="24.768559" PMx_abs="3.089446" NOx_abs="73.316254" fuel_abs="75.711746" electricity_abs="0"
            CO_normed="208.532589" CO2_normed="8075.856901" HC_normed="1.135687" PMx_normed="0.141657" NOx_normed="3.361694" fuel_normed="3.471532" electricity_normed="0"
            traveltime="1.55" CO_perVeh="68.092073" CO2_perVeh="2637.006721" HC_perVeh="0.370836" PMx_perVeh="0.046255" NOx_perVeh="1.097693" fuel_perVeh="1.133558" electricity_perVeh="0"/>
        <edge id=":1110338277_0" sampledSeconds="159.33" CO_abs="2795.481035" CO2_abs="339766.677976" HC_abs="20.521837" PMx_abs="4.733607" NOx_abs="127.517647" fuel_abs="146.051340" electricity_abs="0"
            CO_normed="4197.839176" CO2_normed="510211.249338" HC_normed="30.816653" PMx_normed="7.108230" NOx_normed="191.487106" fuel_normed="219.318261" electricity_normed="0"
            traveltime="0.02" CO_perVeh="0.379030" CO2_perVeh="46.067787" HC_perVeh="0.002782" PMx_perVeh="0.000642" NOx_perVeh="0.017290" fuel_perVeh="0.019803" electricity_perVeh="0"/>
        <edge id=":1110338293_0" sampledSeconds="6389.07" CO_abs="592735.415875" CO2_abs="10408316.130600" HC_abs="2942.361637" PMx_abs="247.721646" NOx_abs="4701.318979" fuel_abs="4474.359110" electricity_abs="0"
            CO_normed="830743.399966" CO2_normed="14587689.040785" HC_normed="4123.842519" PMx_normed="347.192216" NOx_normed="6589.094574" fuel_normed="6271.000854" electricity_normed="0"
            traveltime="0.43" CO_perVeh="39.639832" CO2_perVeh="696.067578" HC_perVeh="0.196774" PMx_perVeh="0.016567" NOx_perVeh="0.314406" fuel_perVeh="0.299228" electricity_perVeh="0"/>
        <edge id=":1110338295_0" sampledSeconds="0.00" CO_abs="0" CO2_abs="0" HC_abs="0" PMx_abs="0" NOx_abs="0" fuel_abs="0" electricity_abs="0"
            CO_normed="0" CO2_normed="0" HC_normed="0" PMx_normed="0" NOx_normed="0" fuel_normed="0" electricity_normed="0"/>
        <edge id=":1110673403_0" sampledSeconds="201.09" CO_abs="2933.706463" CO2_abs="376971.433291" HC_abs="21.930042" PMx_abs="5.019817" NOx_abs="139.795247" fuel_abs="162.044316" electricity_abs="0"
            CO_normed="4111.711931" CO2_normed="528341.181908" HC_normed="30.735869" PMx_normed="7.035483" NOx_normed="195.928867" fuel_normed="227.111866" electricity_normed="0"
            traveltime="0.02" CO_perVeh="0.339067" CO2_perVeh="43.568938" HC_perVeh="0.002535" PMx_perVeh="0.000580" NOx_perVeh="0.016157" fuel_perVeh="0.018728" electricity_perVeh="0"/>
        <edge id=":1110673412_0" sampledSeconds="951.73" CO_abs="168468.350154" CO2_abs="11503051.511021" HC_abs="1048.612038" PMx_abs="252.695909" NOx_abs="4942.766571" fuel_abs="4944.595330" electricity_abs="0"
            CO_normed="244257.328112" CO2_normed="16677937.574880" HC_normed="1520.351891" PMx_normed="366.376400" NOx_normed="7166.372526" fuel_normed="7169.023990" electricity_normed="0"
            traveltime="0.02" CO_perVeh="2.753204" CO2_perVeh="187.989308" HC_perVeh="0.017137" PMx_perVeh="0.004130" NOx_perVeh="0.080777" fuel_perVeh="0.080807" electricity_perVeh="0"/>
        <edge id=":1110673414_0" sampledSeconds="0.00" CO_abs="0" CO2_abs="0" HC_abs="0" PMx_abs="0" NOx_abs="0" fuel_abs="0" electricity_abs="0"
            CO_normed="0" CO2_normed="0" HC_normed="0" PMx_normed="0" NOx_normed="0" fuel_normed="0" electricity_normed="0"/>
        <edge id=":1110673414_1" sampledSeconds="7.17" CO_abs="475.439989" CO2_abs="18867.239752" HC_abs="2.604986" PMx_abs="0.356252" NOx_abs="8.019124" fuel_abs="8.110326" electricity_abs="0"
            CO_normed="22.137839" CO2_normed="878.512399" HC_normed="0.121296" PMx_normed="0.016588" NOx_normed="0.373393" fuel_normed="0.377640" electricity_normed="0"
            traveltime="1.57" CO_perVeh="103.851551" CO2_perVeh="4121.218553" HC_perVeh="0.569014" PMx_perVeh="0.077817" NOx_perVeh="1.751637" fuel_perVeh="1.771559" electricity_perVeh="0"/>
        <edge id=":1110673417_0" sampledSeconds="29.11" CO_abs="495.736932" CO2_abs="58922.485126" HC_abs="3.612441" PMx_abs="0.791810" NOx_abs="21.974815" fuel_abs="25.328338" electricity_abs="0"
            CO_normed="744.424265" CO2_normed="88481.056851" HC_normed="5.424629" PMx_normed="1.189023" NOx_normed="32.998521" fuel_normed="38.034344" electricity_normed="0"
            traveltime="0.02" CO_perVeh="0.378023" CO2_perVeh="44.931223" HC_perVeh="0.002755" PMx_perVeh="0.000604" NOx_perVeh="0.016757" fuel_perVeh="0.019314" electricity_perVeh="0"/>
        <edge id=":1110673446_0" sampledSeconds="1328.99" CO_abs="14553.852455" CO2_abs="1184166.711279" HC_abs="94.288172" PMx_abs="21.593754" NOx_abs="483.526408" fuel_abs="509.018950" electricity_abs="0"
            CO_normed="20397.831051" CO2_normed="1659659.020713" HC_normed="132.148805" PMx_normed="30.264547" NOx_normed="677.682421" fuel_normed="713.411282" electricity_normed="0"
            traveltime="0.02" CO_perVeh="0.249599" CO2_perVeh="20.308475" HC_perVeh="0.001617" PMx_perVeh="0.000370" NOx_perVeh="0.008292" fuel_perVeh="0.008730" electricity_perVeh="0"/>
        <edge id=":1110673451_0" sampledSeconds="36.50" CO_abs="249.817996" CO2_abs="18224.206904" HC_abs="1.545032" PMx_abs="0.208868" NOx_abs="6.732855" fuel_abs="7.833952" electricity_abs="0"
            CO_normed="389.033708" CO2_normed="28379.984278" HC_normed="2.406031" PMx_normed="0.325264" NOx_normed="10.484864" fuel_normed="12.199568" electricity_normed="0"
            traveltime="0.03" CO_perVeh="0.184061" CO2_perVeh="13.427211" HC_perVeh="0.001138" PMx_perVeh="0.000154" NOx_perVeh="0.004961" fuel_perVeh="0.005772" electricity_perVeh="0"/>
        <edge id=":1110673464_0" sampledSeconds="1025.16" CO_abs="2668.356819" CO2_abs="208221.037354" HC_abs="16.880810" PMx_abs="2.722180" NOx_abs="78.815368" fuel_abs="89.506336" electricity_abs="0"
            CO_normed="79.457791" CO2_normed="6200.364004" HC_normed="0.502673" PMx_normed="0.081061" NOx_normed="2.346948" fuel_normed="2.665302" electricity_normed="0"
            traveltime="1.22" CO_perVeh="3.164298" CO2_perVeh="246.921009" HC_perVeh="0.020018" PMx_perVeh="0.003228" NOx_perVeh="0.093464" fuel_perVeh="0.106142" electricity_perVeh="0"/>
        <edge id=":1110673464_1" sampledSeconds="2601.47" CO_abs="66837.169769" CO2_abs="8072918.698770" HC_abs="496.277834" PMx_abs="144.631046" NOx_abs="3064.697647" fuel_abs="3470.175543" electricity_abs="0"
            CO_normed="1950.209860" CO2_normed="235555.839632" HC_normed="14.480654" PMx_normed="4.220120" NOx_normed="89.423349" fuel_normed="101.254595" electricity_normed="0"
            traveltime="0.72" CO_perVeh="18.432292" CO2_perVeh="2226.341898" HC_perVeh="0.136863" PMx_perVeh="0.039886" NOx_perVeh="0.845179" fuel_perVeh="0.957002" electricity_perVeh="0"/>
        <edge id=":1110673479_0" sampledSeconds="134.48" CO_abs="6437.995708" CO2_abs="449532.116395" HC_abs="39.862277" PMx_abs="7.777713" NOx_abs="183.218021" fuel_abs="193.234422" electricity_abs="0"
            CO_normed="9023.119423" CO2_normed="630038.004759" HC_normed="55.868644" PMx_normed="10.900790" NOx_normed="256.787695" fuel_normed="270.826099" electricity_normed="0"
            traveltime="0.03" CO_perVeh="1.361051" CO2_perVeh="95.035154" HC_perVeh="0.008427" PMx_perVeh="0.001644" NOx_perVeh="0.038734" fuel_perVeh="0.040852" electricity_perVeh="0"/>
        <edge id=":1110673511_0" sampledSeconds="63.16" CO_abs="1279.741958" CO2_abs="134243.960555" HC_abs="8.880032" PMx_abs="1.885198" NOx_abs="50.853197" fuel_abs="57.705892" electricity_abs="0"
            CO_normed="1793.611715" CO2_normed="188148.508137" HC_normed="12.445735" PMx_normed="2.642184" NOx_normed="71.272876" fuel_normed="80.877214" electricity_normed="0"
            traveltime="0.02" CO_perVeh="0.490479" CO2_perVeh="51.450895" HC_perVeh="0.003403" PMx_perVeh="0.000723" NOx_perVeh="0.019490" fuel_perVeh="0.022117" electricity_perVeh="0"/>
        <edge id=":1110673517_0" sampledSeconds="182.21" CO_abs="8295.714658" CO2_abs="585756.554230" HC_abs="51.549919" PMx_abs="10.271125" NOx_abs="239.406178" fuel_abs="251.791152" electricity_abs="0"
            CO_normed="11626.789990" CO2_normed="820962.234380" HC_normed="72.249362" PMx_normed="14.395410" NOx_normed="335.537741" fuel_normed="352.895799" electricity_normed="0"
            traveltime="0.03" CO_perVeh="1.270141" CO2_perVeh="89.684070" HC_perVeh="0.007893" PMx_perVeh="0.001573" NOx_perVeh="0.036655" fuel_perVeh="0.038551" electricity_perVeh="0"/>
        <edge id=":1110673534_0" sampledSeconds="736.54" CO_abs="5310.996718" CO2_abs="444841.367737" HC_abs="34.339193" PMx_abs="5.975542" NOx_abs="168.969126" fuel_abs="191.219921" electricity_abs="0"
            CO_normed="144.255491" CO2_normed="12082.630328" HC_normed="0.932710" PMx_normed="0.162306" NOx_normed="4.589482" fuel_normed="5.193851" electricity_normed="0"
            traveltime="1.45" CO_perVeh="10.474164" CO2_perVeh="877.300780" HC_perVeh="0.067723" PMx_perVeh="0.011785" NOx_perVeh="0.333235" fuel_perVeh="0.377117" electricity_perVeh="0"/>
        <edge id=":1110673534_1" sampledSeconds="199.61" CO_abs="3189.077920" CO2_abs="399058.463761" HC_abs="23.516256" PMx_abs="5.377931" NOx_abs="148.444680" fuel_abs="171.538563" electricity_abs="0"
            CO_normed="84.226615" CO2_normed="10539.517765" HC_normed="0.621087" PMx_normed="0.142036" NOx_normed="3.920567" fuel_normed="4.530498" electricity_normed="0"
            traveltime="1.22" CO_perVeh="19.493830" CO2_perVeh="2439.318828" HC_perVeh="0.143747" PMx_perVeh="0.032874" NOx_perVeh="0.907396" fuel_perVeh="1.048561" electricity_perVeh="0"/>
        <edge id=":1110673549_0" sampledSeconds="658.40" CO_abs="1745.812622" CO2_abs="159593.067521" HC_abs="11.623304" PMx_abs="2.308177" NOx_abs="60.995962" fuel_abs="68.602504" electricity_abs="0"
            CO_normed="45.935467" CO2_normed="4199.180322" HC_normed="0.305830" PMx_normed="0.060732" NOx_normed="1.604913" fuel_normed="1.805055" electricity_normed="0"
            traveltime="1.31" CO_perVeh="3.468513" CO2_perVeh="317.073371" HC_perVeh="0.023093" PMx_perVeh="0.004586" NOx_perVeh="0.121184" fuel_perVeh="0.136297" electricity_perVeh="0"/>
        <edge id=":1110673549_1" sampledSeconds="3194.91" CO_abs="72592.041349" CO2_abs="9504374.151830" HC_abs="557.719913" PMx_abs="167.352467" NOx_abs="3555.307766" fuel_abs="4085.495232" electricity_abs="0"
            CO_normed="1847.592725" CO2_normed="241902.723975" HC_normed="14.194934" PMx_normed="4.259409" NOx_normed="90.488718" fuel_normed="103.982904" electricity_normed="0"
            traveltime="0.81" CO_perVeh="18.312129" CO2_perVeh="2397.581312" HC_perVeh="0.140691" PMx_perVeh="0.042216" NOx_perVeh="0.896865" fuel_perVeh="1.030610" electricity_perVeh="0"/>
        <edge id=":1110673556_0" sampledSeconds="468.74" CO_abs="58356.592119" CO2_abs="2793166.695908" HC_abs="332.092535" PMx_abs="56.632546" NOx_abs="1205.865054" fuel_abs="1200.663183" electricity_abs="0"
            CO_normed="1138.596711" CO2_normed="54497.534865" HC_normed="6.479465" PMx_normed="1.104959" NOx_normed="23.527659" fuel_normed="23.426165" electricity_normed="0"
            traveltime="2.76" CO_perVeh="344.006499" CO2_perVeh="16465.449106" HC_perVeh="1.957654" PMx_perVeh="0.333843" NOx_perVeh="7.108459" fuel_perVeh="7.077794" electricity_perVeh="0"/>
        <edge id=":1110673556_2" sampledSeconds="173.99" CO_abs="17494.913129" CO2_abs="752987.894461" HC_abs="97.371626" PMx_abs="14.662817" NOx_abs="321.966805" fuel_abs="323.679717" electricity_abs="0"
            CO_normed="356.911939" CO2_normed="15361.629266" HC_normed="1.986469" PMx_normed="0.299135" NOx_normed="6.568412" fuel_normed="6.603357" electricity_normed="0"
            traveltime="3.01" CO_perVeh="302.512047" CO2_perVeh="13020.236681" HC_perVeh="1.683695" PMx_perVeh="0.253541" NOx_perVeh="5.567266" fuel_perVeh="5.596885" electricity_perVeh="0"/>
        <edge id=":1110673556_3" sampledSeconds="356.77" CO_abs="35486.507092" CO2_abs="1230931.932859" HC_abs="190.380384" PMx_abs="24.384226" NOx_abs="530.686308" fuel_abs="529.134042" electricity_abs="0"
            CO_normed="1646.881435" CO2_normed="57125.908234" HC_normed="8.835300" PMx_normed="1.131639" NOx_normed="24.628443" fuel_normed="24.556405" electricity_normed="0"
            traveltime="1.83" CO_perVeh="181.881197" CO2_perVeh="6308.971823" HC_perVeh="0.975768" PMx_perVeh="0.124978" NOx_perVeh="2.719959" fuel_perVeh="2.712004" electricity_perVeh="0"/>
        <edge id=":1110673556_4" sampledSeconds="69.60" CO_abs="7604.545260" CO2_abs="293186.049880" HC_abs="41.513127" PMx_abs="5.807455" NOx_abs="126.258177" fuel_abs="126.029589" electricity_abs="0"
            CO_normed="215.605272" CO2_normed="8312.457321" HC_normed="1.176987" PMx_normed="0.164654" NOx_normed="3.579692" fuel_normed="3.573211" electricity_normed="0"
            traveltime="2.51" CO_perVeh="274.272596" CO2_perVeh="10574.320540" HC_perVeh="1.497251" PMx_perVeh="0.209457" NOx_perVeh="4.553745" fuel_perVeh="4.545500" electricity_perVeh="0"/>
        <edge id=":1110673556_5" sampledSeconds="22.45" CO_abs="1293.065177" CO2_abs="60049.378036" HC_abs="7.288734" PMx_abs="1.093776" NOx_abs="25.188543" fuel_abs="25.812881" electricity_abs="0"
            CO_normed="51.098255" CO2_normed="2372.980464" HC_normed="0.288030" PMx_normed="0.043223" NOx_normed="0.995380" fuel_normed="1.020052" electricity_normed="0"
            traveltime="1.55" CO_perVeh="89.397099" CO2_perVeh="4151.561938" HC_perVeh="0.503913" PMx_perVeh="0.075619" NOx_perVeh="1.741430" fuel_perVeh="1.784594" electricity_perVeh="0"/>
        <edge id=":1110673556_6" sampledSeconds="558.89" CO_abs="66358.302078" CO2_abs="3169646.446017" HC_abs="377.342196" PMx_abs="63.631198" NOx_abs="1364.609264" fuel_abs="1362.496818" electricity_abs="0"
            CO_normed="1327.363376" CO2_normed="63402.354737" HC_normed="7.547966" PMx_normed="1.272813" NOx_normed="27.296243" fuel_normed="27.253988" electricity_normed="0"
            traveltime="2.71" CO_perVeh="322.184228" CO2_perVeh="15389.334289" HC_perVeh="1.832080" PMx_perVeh="0.308944" NOx_perVeh="6.625480" fuel_perVeh="6.615223" electricity_perVeh="0"/>
        <edge id=":1110673561_0" sampledSeconds="107.56" CO_abs="8892.756813" CO2_abs="632737.322100" HC_abs="55.714274" PMx_abs="12.753011" NOx_abs="267.644719" fuel_abs="271.983714" electricity_abs="0"
            CO_normed="223.494969" CO2_normed="15902.111287" HC_normed="1.400225" PMx_normed="0.320512" NOx_normed="6.726513" fuel_normed="6.835562" electricity_normed="0"
            traveltime="1.27" CO_perVeh="104.943162" CO2_perVeh="7466.914536" HC_perVeh="0.657483" PMx_perVeh="0.150498" NOx_perVeh="3.158467" fuel_perVeh="3.209672" electricity_perVeh="0"/>
        <edge id=":1110673561_1" sampledSeconds="5250.39" CO_abs="488006.800222" CO2_abs="33856643.679279" HC_abs="3040.998155" PMx_abs="706.956449" NOx_abs="14469.562171" fuel_abs="14553.336538" electricity_abs="0"
            CO_normed="11957.375496" CO2_normed="829571.639835" HC_normed="74.511988" PMx_normed="17.322184" NOx_normed="354.540117" fuel_normed="356.592797" electricity_normed="0"
            traveltime="1.19" CO_perVeh="110.854015" CO2_perVeh="7690.763500" HC_perVeh="0.690783" PMx_perVeh="0.160590" NOx_perVeh="3.286858" fuel_perVeh="3.305888" electricity_perVeh="0"/>
        <edge id=":1110673562_0" sampledSeconds="301.55" CO_abs="7193.587192" CO2_abs="548526.675807" HC_abs="45.283256" PMx_abs="7.563306" NOx_abs="210.493372" fuel_abs="235.790346" electricity_abs="0"
            CO_normed="11202.347102" CO2_normed="854203.341598" HC_normed="70.518190" PMx_normed="11.778098" NOx_normed="327.794709" fuel_normed="367.188890" electricity_normed="0"
            traveltime="0.03" CO_perVeh="0.644843" CO2_perVeh="49.170718" HC_perVeh="0.004059" PMx_perVeh="0.000678" NOx_perVeh="0.018869" fuel_perVeh="0.021137" electricity_perVeh="0"/>
        <edge id=":1110673564_0" sampledSeconds="27.99" CO_abs="484.223400" CO2_abs="55607.302606" HC_abs="3.466376" PMx_abs="0.764955" NOx_abs="20.870946" fuel_abs="23.903259" electricity_abs="0"
            CO_normed="2035.977856" CO2_normed="233807.859591" HC_normed="14.574812" PMx_normed="3.216348" NOx_normed="87.754502" fuel_normed="100.504244" electricity_normed="0"
            traveltime="7.905314e-03" CO_perVeh="0.136767" CO2_perVeh="15.706059" HC_perVeh="0.000979" PMx_perVeh="0.000216" NOx_perVeh="0.005895" fuel_perVeh="0.006751" electricity_perVeh="0"/>
        <edge id=":1110673588_0" sampledSeconds="62.54" CO_abs="1228.128401" CO2_abs="132506.339327" HC_abs="8.615804" PMx_abs="1.845589" NOx_abs="50.054236" fuel_abs="56.958961" electricity_abs="0"
            CO_normed="2065.527795" CO2_normed="222855.791440" HC_normed="14.490489" PMx_normed="3.104003" NOx_normed="84.183719" fuel_normed="95.796430" electricity_normed="0"
            traveltime="0.02" CO_perVeh="0.396170" CO2_perVeh="42.743980" HC_perVeh="0.002779" PMx_perVeh="0.000595" NOx_perVeh="0.016147" fuel_perVeh="0.018374" electricity_perVeh="0"/>
        <edge id=":1110673601_0" sampledSeconds="28.99" CO_abs="543.290338" CO2_abs="62367.328651" HC_abs="3.899946" PMx_abs="0.881356" NOx_abs="23.555932" fuel_abs="26.809078" electricity_abs="0"
            CO_normed="815.832923" CO2_normed="93654.012390" HC_normed="5.856361" PMx_normed="1.323490" NOx_normed="35.372807" fuel_normed="40.257901" electricity_normed="0"
            traveltime="0.02" CO_perVeh="0.414285" CO2_perVeh="47.558082" HC_perVeh="0.002974" PMx_perVeh="0.000672" NOx_perVeh="0.017963" fuel_perVeh="0.020443" electricity_perVeh="0"/>
        <edge id=":1110673617_0" sampledSeconds="854.46" CO_abs="32328.715033" CO2_abs="3281400.603839" HC_abs="225.821306" PMx_abs="61.806097" NOx_abs="1286.342074" fuel_abs="1410.520525" electricity_abs="0"
            CO_normed="45310.042092" CO2_normed="4599019.767119" HC_normed="316.497976" PMx_normed="86.623821" NOx_normed="1802.862051" fuel_normed="1976.903329" electricity_normed="0"
            traveltime="0.02" CO_perVeh="0.572951" CO2_perVeh="58.155180" HC_perVeh="0.004002" PMx_perVeh="0.001095" NOx_perVeh="0.022797" fuel_perVeh="0.024998" electricity_perVeh="0"/>
        <edge id=":1110673621_0" sampledSeconds="26.64" CO_abs="510.742591" CO2_abs="52957.203128" HC_abs="3.554346" PMx_abs="0.778026" NOx_abs="20.289803" fuel_abs="22.764053" electricity_abs="0"
            CO_normed="858.992445" CO2_normed="89066.073937" HC_normed="5.977878" PMx_normed="1.308524" NOx_normed="34.124405" fuel_normed="38.285723" electricity_normed="0"
            traveltime="0.02" CO_perVeh="0.386926" CO2_perVeh="40.119093" HC_perVeh="0.002693" PMx_perVeh="0.000589" NOx_perVeh="0.015371" fuel_perVeh="0.017245" electricity_perVeh="0"/>
        <edge id=":1110673630_0" sampledSeconds="285.87" CO_abs="1335.669614" CO2_abs="127680.097408" HC_abs="8.981956" PMx_abs="1.589635" NOx_abs="47.453565" fuel_abs="54.884739" electricity_abs="0"
            CO_normed="40.056990" CO2_normed="3829.150790" HC_normed="0.269371" PMx_normed="0.047673" NOx_normed="1.423142" fuel_normed="1.646004" electricity_normed="0"
            traveltime="1.29" CO_perVeh="6.010003" CO2_perVeh="574.511675" HC_perVeh="0.040415" PMx_perVeh="0.007153" NOx_perVeh="0.213523" fuel_perVeh="0.246960" electricity_perVeh="0"/>
        <edge id=":1110673630_1" sampledSeconds="336.50" CO_abs="1165.249364" CO2_abs="95343.309792" HC_abs="7.461084" PMx_abs="1.209928" NOx_abs="35.821620" fuel_abs="40.984487" electricity_abs="0"
            CO_normed="42.603797" CO2_normed="3485.938020" HC_normed="0.272792" PMx_normed="0.044237" NOx_normed="1.309709" fuel_normed="1.498473" electricity_normed="0"
            traveltime="1.07" CO_perVeh="3.714588" CO2_perVeh="303.935939" HC_perVeh="0.023784" PMx_perVeh="0.003857" NOx_perVeh="0.114192" fuel_perVeh="0.130651" electricity_perVeh="0"/>
        <edge id=":1110673650_0" sampledSeconds="200.21" CO_abs="2902.768982" CO2_abs="373624.211940" HC_abs="21.689008" PMx_abs="4.964281" NOx_abs="138.486922" fuel_abs="160.605493" electricity_abs="0"
            CO_normed="4068.351761" CO2_normed="523649.911619" HC_normed="30.398049" PMx_normed="6.957647" NOx_normed="194.095195" fuel_normed="225.095295" electricity_normed="0"
            traveltime="0.02" CO_perVeh="0.335490" CO2_perVeh="43.181902" HC_perVeh="0.002507" PMx_perVeh="0.000574" NOx_perVeh="0.016006" fuel_perVeh="0.018562" electricity_perVeh="0"/>
        <edge id=":1110673655_0" sampledSeconds="20.74" CO_abs="179.281907" CO2_abs="28076.165445" HC_abs="1.450133" PMx_abs="0.320799" NOx_abs="10.028262" fuel_abs="12.068826" electricity_abs="0"
            CO_normed="251.271069" CO2_normed="39349.916531" HC_normed="2.032422" PMx_normed="0.449614" NOx_normed="14.055027" fuel_normed="16.914964" electricity_normed="0"
            traveltime="0.02" CO_perVeh="0.204816" CO2_perVeh="32.074827" HC_perVeh="0.001657" PMx_perVeh="0.000366" NOx_perVeh="0.011457" fuel_perVeh="0.013788" electricity_perVeh="0"/>
        <edge id=":1110673663_0" sampledSeconds="112.39" CO_abs="2098.647075" CO2_abs="231278.101374" HC_abs="14.883106" PMx_abs="3.199085" NOx_abs="87.204421" fuel_abs="99.416838" electricity_abs="0"
            CO_normed="53.870721" CO2_normed="5936.738139" HC_normed="0.382038" PMx_normed="0.082118" NOx_normed="2.238473" fuel_normed="2.551957" electricity_normed="0"
            traveltime="1.32" CO_perVeh="24.649600" CO2_perVeh="2716.470407" HC_perVeh="0.174809" PMx_perVeh="0.037575" NOx_perVeh="1.024257" fuel_perVeh="1.167698" electricity_perVeh="0"/>
        <edge id=":1110673663_1" sampledSeconds="170.26" CO_abs="3053.332238" CO2_abs="349332.366289" HC_abs="21.953330" PMx_abs="4.969070" NOx_abs="132.099534" fuel_abs="150.163194" electricity_abs="0"
            CO_normed="78.472600" CO2_normed="8978.066205" HC_normed="0.564215" PMx_normed="0.127708" NOx_normed="3.395043" fuel_normed="3.859291" electricity_normed="0"
            traveltime="1.27" CO_perVeh="22.840498" CO2_perVeh="2613.186100" HC_perVeh="0.164222" PMx_perVeh="0.037171" NOx_perVeh="0.988173" fuel_perVeh="1.123298" electricity_perVeh="0"/>
        <edge id=":1110673666_0" sampledSeconds="207.79" CO_abs="4135.596160" CO2_abs="339744.249872" HC_abs="26.540312" PMx_abs="4.343722" NOx_abs="127.791198" fuel_abs="146.043164" electricity_abs="0"