<?xml version="1.0" encoding="UTF-8"?>

<!-- generated on Tue Nov 10 12:20:45 2020 by Eclipse SUMO sumo Version 1.7.0
<configuration xmlns:xsi="http://www.w3.org/2001/XMLSchema-instance" xsi:noNamespaceSchemaLocation="http://sumo.dlr.de/xsd/sumoConfiguration.xsd">

    <input>
        <net-file value="../dataSets/Porto/8AM9AM_Routing_SaoBento/Porto.net.xml"/>
        <route-files value="../results/Porto/8AM9AM_Routing_SaoBento/inputdata/cost_PMx-length/solution16/Porto.rou.xml"/>
        <additional-files value="moreOutputInfo.xml"/>
    </input>

    <output>
        <emission-output.precision value="6"/>
        <tripinfo-output value="../results/Porto/8AM9AM_Routing_SaoBento/inputdata/cost_PMx-length/solution16/Porto-tripinfo"/>
    </output>

    <processing>
        <collision.action value="warn"/>
        <time-to-teleport value="-1"/>
    </processing>

    <emissions>
        <device.emissions.probability value="1"/>
    </emissions>

    <gui_only>
        <quit-on-end value="true"/>
        <start value="true"/>
    </gui_only>

</configuration>
-->

<meandata xmlns:xsi="http://www.w3.org/2001/XMLSchema-instance" xsi:noNamespaceSchemaLocation="http://sumo.dlr.de/xsd/meandata_file.xsd">
    <interval begin="0.00" end="8651.00" id="emissions-detector">
        <edge id=":1092997347_0" sampledSeconds="588.29" CO_abs="72147.225419" CO2_abs="3094540.706354" HC_abs="401.715233" PMx_abs="62.502102" NOx_abs="1338.246895" fuel_abs="1330.217393" electricity_abs="0"
            CO_normed="68234.363738" CO2_normed="2926710.139363" HC_normed="379.928447" PMx_normed="59.112338" NOx_normed="1265.667874" fuel_normed="1258.073847" electricity_normed="0"
            traveltime="0.07" CO_perVeh="8.251057" CO2_perVeh="353.904556" HC_perVeh="0.045942" PMx_perVeh="0.007148" NOx_perVeh="0.153047" fuel_perVeh="0.152129" electricity_perVeh="0"/>
        <edge id=":1103427051_0" sampledSeconds="19.24" CO_abs="1651.367523" CO2_abs="93733.178740" HC_abs="9.746237" PMx_abs="1.842642" NOx_abs="40.000323" fuel_abs="40.291729" electricity_abs="0"
            CO_normed="2369.637588" CO2_normed="134502.865310" HC_normed="13.985408" PMx_normed="2.644108" NOx_normed="57.398652" fuel_normed="57.816807" electricity_normed="0"
            traveltime="0.03" CO_perVeh="2.568085" CO2_perVeh="145.766955" HC_perVeh="0.015157" PMx_perVeh="0.002866" NOx_perVeh="0.062206" fuel_perVeh="0.062659" electricity_perVeh="0"/>
        <edge id=":1105984386_0" sampledSeconds="10.46" CO_abs="155.795143" CO2_abs="11508.177181" HC_abs="0.974900" PMx_abs="0.173945" NOx_abs="4.523633" fuel_abs="4.946899" electricity_abs="0"
            CO_normed="6.676839" CO2_normed="493.200489" HC_normed="0.041781" PMx_normed="0.007455" NOx_normed="0.193867" fuel_normed="0.212007" electricity_normed="0"
            traveltime="1.00" CO_perVeh="14.945375" CO2_perVeh="1103.975503" HC_perVeh="0.093522" PMx_perVeh="0.016687" NOx_perVeh="0.433951" fuel_perVeh="0.474554" electricity_perVeh="0"/>
        <edge id=":1105984390_0" sampledSeconds="10.31" CO_abs="7.892906" CO2_abs="2335.918227" HC_abs="0.087488" PMx_abs="0.016913" NOx_abs="0.767417" fuel_abs="1.004128" electricity_abs="0"
            CO_normed="0.261507" CO2_normed="77.393446" HC_normed="0.002899" PMx_normed="0.000560" NOx_normed="0.025426" fuel_normed="0.033269" electricity_normed="0"
            traveltime="1.07" CO_perVeh="0.818147" CO2_perVeh="242.131988" HC_perVeh="0.009069" PMx_perVeh="0.001753" NOx_perVeh="0.079547" fuel_perVeh="0.104084" electricity_perVeh="0"/>
        <edge id=":1105984390_1" sampledSeconds="2395.86" CO_abs="60217.243719" CO2_abs="7340616.914966" HC_abs="449.086238" PMx_abs="131.556729" NOx_abs="2780.598824" fuel_abs="3155.392934" electricity_abs="0"
            CO_normed="1908.500753" CO2_normed="232650.517436" HC_normed="14.233156" PMx_normed="4.169505" NOx_normed="88.127165" fuel_normed="100.005736" electricity_normed="0"
            traveltime="0.65" CO_perVeh="16.262942" CO2_perVeh="1982.489046" HC_perVeh="0.121285" PMx_perVeh="0.035530" NOx_perVeh="0.750960" fuel_perVeh="0.852181" electricity_perVeh="0"/>
        <edge id=":1105984395_0" sampledSeconds="4.22" CO_abs="67.492149" CO2_abs="4884.100771" HC_abs="0.417291" PMx_abs="0.060186" NOx_abs="1.834047" fuel_abs="2.099499" electricity_abs="0"
            CO_normed="30.528230" CO2_normed="2209.189535" HC_normed="0.188750" PMx_normed="0.027223" NOx_normed="0.829581" fuel_normed="0.949651" electricity_normed="0"
            traveltime="0.10" CO_perVeh="1.564444" CO2_perVeh="113.211708" HC_perVeh="0.009673" PMx_perVeh="0.001395" NOx_perVeh="0.042513" fuel_perVeh="0.048666" electricity_perVeh="0"/>
        <edge id=":1105984398_0" sampledSeconds="11.44" CO_abs="628.152788" CO2_abs="42318.654607" HC_abs="3.857774" PMx_abs="0.762448" NOx_abs="17.480432" fuel_abs="18.190929" electricity_abs="0"
            CO_normed="21.620970" CO2_normed="1456.604811" HC_normed="0.132784" PMx_normed="0.026243" NOx_normed="0.601675" fuel_normed="0.626130" electricity_normed="0"
            traveltime="1.22" CO_perVeh="67.075734" CO2_perVeh="4518.892344" HC_perVeh="0.411943" PMx_perVeh="0.081416" NOx_perVeh="1.866605" fuel_perVeh="1.942473" electricity_perVeh="0"/>
        <edge id=":1105984398_1" sampledSeconds="649.08" CO_abs="11472.625796" CO2_abs="1349712.916427" HC_abs="83.139272" PMx_abs="19.326919" NOx_abs="510.267942" fuel_abs="580.184015" electricity_abs="0"
            CO_normed="382.240393" CO2_normed="44969.199256" HC_normed="2.770001" PMx_normed="0.643927" NOx_normed="17.000905" fuel_normed="19.330341" electricity_normed="0"
            traveltime="0.95" CO_perVeh="16.826692" CO2_perVeh="1979.599484" HC_perVeh="0.121939" PMx_perVeh="0.028346" NOx_perVeh="0.748401" fuel_perVeh="0.850945" electricity_perVeh="0"/>
        <edge id=":1106006327_0" sampledSeconds="67.63" CO_abs="9098.550208" CO2_abs="294428.831956" HC_abs="48.357739" PMx_abs="6.135201" NOx_abs="128.837451" fuel_abs="126.564593" electricity_abs="0"
            CO_normed="427.341099" CO2_normed="13828.746100" HC_normed="2.271268" PMx_normed="0.288158" NOx_normed="6.051243" fuel_normed="5.944491" electricity_normed="0"
            traveltime="2.10" CO_perVeh="282.051555" CO2_perVeh="9127.180474" HC_perVeh="1.499071" PMx_perVeh="0.190189" NOx_perVeh="3.993911" fuel_perVeh="3.923454" electricity_perVeh="0"/>
        <edge id=":1106006327_1" sampledSeconds="683.26" CO_abs="92328.846579" CO2_abs="3082336.788319" HC_abs="493.043037" PMx_abs="64.266837" NOx_abs="1348.774643" fuel_abs="1324.985571" electricity_abs="0"
            CO_normed="3781.637457" CO2_normed="126247.437122" HC_normed="20.194231" PMx_normed="2.632264" NOx_normed="55.243587" fuel_normed="54.269226" electricity_normed="0"
            traveltime="2.29" CO_perVeh="309.925590" CO2_perVeh="10346.658529" HC_perVeh="1.655026" PMx_perVeh="0.215728" NOx_perVeh="4.527510" fuel_perVeh="4.447656" electricity_perVeh="0"/>
        <edge id=":1106006327_2" sampledSeconds="0.00" CO_abs="0" CO2_abs="0" HC_abs="0" PMx_abs="0" NOx_abs="0" fuel_abs="0" electricity_abs="0"
            CO_normed="0" CO2_normed="0" HC_normed="0" PMx_normed="0" NOx_normed="0" fuel_normed="0" electricity_normed="0"/>
        <edge id=":1106006327_3" sampledSeconds="0.00" CO_abs="0" CO2_abs="0" HC_abs="0" PMx_abs="0" NOx_abs="0" fuel_abs="0" electricity_abs="0"
            CO_normed="0" CO2_normed="0" HC_normed="0" PMx_normed="0" NOx_normed="0" fuel_normed="0" electricity_normed="0"/>
        <edge id=":1107381198_0" sampledSeconds="0.00" CO_abs="0" CO2_abs="0" HC_abs="0" PMx_abs="0" NOx_abs="0" fuel_abs="0" electricity_abs="0"
            CO_normed="0" CO2_normed="0" HC_normed="0" PMx_normed="0" NOx_normed="0" fuel_normed="0" electricity_normed="0"/>
        <edge id=":1107381198_1" sampledSeconds="102.66" CO_abs="4535.521964" CO2_abs="182578.023163" HC_abs="24.854290" PMx_abs="3.138599" NOx_abs="75.550158" fuel_abs="78.483941" electricity_abs="0"
            CO_normed="205.823106" CO2_normed="8285.435744" HC_normed="1.127894" PMx_normed="0.142430" NOx_normed="3.428485" fuel_normed="3.561621" electricity_normed="0"
            traveltime="1.54" CO_perVeh="67.905460" CO2_perVeh="2733.543091" HC_perVeh="0.372116" PMx_perVeh="0.046991" NOx_perVeh="1.131131" fuel_perVeh="1.175055" electricity_perVeh="0"/>
        <edge id=":1110338277_0" sampledSeconds="160.87" CO_abs="2466.233825" CO2_abs="295271.097936" HC_abs="18.003106" PMx_abs="4.085478" NOx_abs="110.758904" fuel_abs="126.924634" electricity_abs="0"
            CO_normed="3665.324310" CO2_normed="438832.815599" HC_normed="26.756272" PMx_normed="6.071850" NOx_normed="164.610225" fuel_normed="188.635782" electricity_normed="0"
            traveltime="0.02" CO_perVeh="0.334720" CO2_perVeh="40.074463" HC_perVeh="0.002443" PMx_perVeh="0.000554" NOx_perVeh="0.015032" fuel_perVeh="0.017226" electricity_perVeh="0"/>
        <edge id=":1110338293_0" sampledSeconds="6575.76" CO_abs="611587.216264" CO2_abs="10706330.769244" HC_abs="3035.195446" PMx_abs="255.239936" NOx_abs="4838.667347" fuel_abs="4602.471524" electricity_abs="0"
            CO_normed="848346.618329" CO2_normed="14850996.327699" HC_normed="4210.189036" PMx_normed="354.049155" NOx_normed="6711.826167" fuel_normed="6384.193537" electricity_normed="0"
            traveltime="0.44" CO_perVeh="40.871597" CO2_perVeh="715.490490" HC_perVeh="0.202838" PMx_perVeh="0.017057" NOx_perVeh="0.323362" fuel_perVeh="0.307577" electricity_perVeh="0"/>
        <edge id=":1110338295_0" sampledSeconds="0.00" CO_abs="0" CO2_abs="0" HC_abs="0" PMx_abs="0" NOx_abs="0" fuel_abs="0" electricity_abs="0"
            CO_normed="0" CO2_normed="0" HC_normed="0" PMx_normed="0" NOx_normed="0" fuel_normed="0" electricity_normed="0"/>
        <edge id=":1110673403_0" sampledSeconds="200.15" CO_abs="3231.496873" CO2_abs="395458.974101" HC_abs="23.751189" PMx_abs="5.376067" NOx_abs="147.645062" fuel_abs="169.991280" electricity_abs="0"
            CO_normed="4482.483236" CO2_normed="548550.189482" HC_normed="32.945817" PMx_normed="7.457266" NOx_normed="204.801843" fuel_normed="235.798793" electricity_normed="0"
            traveltime="0.02" CO_perVeh="0.373483" CO2_perVeh="45.705471" HC_perVeh="0.002745" PMx_perVeh="0.000621" NOx_perVeh="0.017064" fuel_perVeh="0.019647" electricity_perVeh="0"/>
        <edge id=":1110673412_0" sampledSeconds="940.47" CO_abs="166574.087741" CO2_abs="11376950.683730" HC_abs="1036.909364" PMx_abs="249.921057" NOx_abs="4888.389581" fuel_abs="4890.390779" electricity_abs="0"
            CO_normed="239026.269981" CO2_normed="16325408.847065" HC_normed="1487.917964" PMx_normed="358.625395" NOx_normed="7014.617601" fuel_normed="7017.489230" electricity_normed="0"
            traveltime="0.02" CO_perVeh="2.751327" CO2_perVeh="187.914640" HC_perVeh="0.017127" PMx_perVeh="0.004128" NOx_perVeh="0.080742" fuel_perVeh="0.080775" electricity_perVeh="0"/>
        <edge id=":1110673414_0" sampledSeconds="0.00" CO_abs="0" CO2_abs="0" HC_abs="0" PMx_abs="0" NOx_abs="0" fuel_abs="0" electricity_abs="0"
            CO_normed="0" CO2_normed="0" HC_normed="0" PMx_normed="0" NOx_normed="0" fuel_normed="0" electricity_normed="0"/>
        <edge id=":1110673414_1" sampledSeconds="7.14" CO_abs="418.565147" CO2_abs="15867.542848" HC_abs="2.268673" PMx_abs="0.264473" NOx_abs="6.518069" fuel_abs="6.820938" electricity_abs="0"
            CO_normed="19.289079" CO2_normed="731.236933" HC_normed="0.104549" PMx_normed="0.012188" NOx_normed="0.300378" fuel_normed="0.314335" electricity_normed="0"
            traveltime="1.56" CO_perVeh="91.428236" CO2_perVeh="3465.987226" HC_perVeh="0.495552" PMx_perVeh="0.057769" NOx_perVeh="1.423758" fuel_perVeh="1.489915" electricity_perVeh="0"/>
        <edge id=":1110673417_0" sampledSeconds="29.09" CO_abs="489.534108" CO2_abs="58548.799379" HC_abs="3.547460" PMx_abs="0.799059" NOx_abs="21.870435" fuel_abs="25.167683" electricity_abs="0"
            CO_normed="727.547099" CO2_normed="87015.406049" HC_normed="5.272246" PMx_normed="1.187564" NOx_normed="32.503908" fuel_normed="37.404288" electricity_normed="0"
            traveltime="0.02" CO_perVeh="0.373293" CO2_perVeh="44.646270" HC_perVeh="0.002705" PMx_perVeh="0.000609" NOx_perVeh="0.016677" fuel_perVeh="0.019192" electricity_perVeh="0"/>
        <edge id=":1110673446_0" sampledSeconds="1313.21" CO_abs="13955.901088" CO2_abs="1133192.816769" HC_abs="90.415775" PMx_abs="20.762646" NOx_abs="463.336037" fuel_abs="487.107493" electricity_abs="0"
            CO_normed="19358.549654" CO2_normed="1571877.679023" HC_normed="125.417790" PMx_normed="28.800341" NOx_normed="642.704016" fuel_normed="675.677947" electricity_normed="0"
            traveltime="0.02" CO_perVeh="0.242251" CO2_perVeh="19.670317" HC_perVeh="0.001569" PMx_perVeh="0.000360" NOx_perVeh="0.008043" fuel_perVeh="0.008455" electricity_perVeh="0"/>
        <edge id=":1110673451_0" sampledSeconds="36.44" CO_abs="378.777474" CO2_abs="29099.485300" HC_abs="2.392040" PMx_abs="0.414590" NOx_abs="11.250471" fuel_abs="12.508718" electricity_abs="0"
            CO_normed="583.789889" CO2_normed="44849.513042" HC_normed="3.686725" PMx_normed="0.638985" NOx_normed="17.339762" fuel_normed="19.279032" electricity_normed="0"
            traveltime="0.03" CO_perVeh="0.279075" CO2_perVeh="21.439887" HC_perVeh="0.001762" PMx_perVeh="0.000305" NOx_perVeh="0.008289" fuel_perVeh="0.009216" electricity_perVeh="0"/>
        <edge id=":1110673464_0" sampledSeconds="1026.71" CO_abs="4007.930407" CO2_abs="303149.593485" HC_abs="25.229677" PMx_abs="4.475892" NOx_abs="118.235666" fuel_abs="130.311830" electricity_abs="0"
            CO_normed="118.119517" CO2_normed="8934.257846" HC_normed="0.743555" PMx_normed="0.131911" NOx_normed="3.484576" fuel_normed="3.840478" electricity_normed="0"
            traveltime="1.22" CO_perVeh="4.752845" CO2_perVeh="359.493031" HC_perVeh="0.029919" PMx_perVeh="0.005308" NOx_perVeh="0.140211" fuel_perVeh="0.154532" electricity_perVeh="0"/>
        <edge id=":1110673464_1" sampledSeconds="2598.97" CO_abs="64044.099428" CO2_abs="7761286.545204" HC_abs="476.824537" PMx_abs="139.143540" NOx_abs="2944.214246" fuel_abs="3336.219326" electricity_abs="0"
            CO_normed="1849.487204" CO2_normed="224133.062744" HC_normed="13.769901" PMx_normed="4.018234" NOx_normed="85.024017" fuel_normed="96.344472" electricity_normed="0"
            traveltime="0.72" CO_perVeh="17.658827" CO2_perVeh="2140.013167" HC_perVeh="0.131474" PMx_perVeh="0.038366" NOx_perVeh="0.811806" fuel_perVeh="0.919893" electricity_perVeh="0"/>
        <edge id=":1110673479_0" sampledSeconds="134.88" CO_abs="6451.042734" CO2_abs="445396.914224" HC_abs="39.853040" PMx_abs="7.866764" NOx_abs="182.596843" fuel_abs="191.456691" electricity_abs="0"
            CO_normed="8948.388950" CO2_normed="617820.248606" HC_normed="55.281064" PMx_normed="10.912168" NOx_normed="253.284257" fuel_normed="265.573956" electricity_normed="0"
            traveltime="0.03" CO_perVeh="1.363809" CO2_perVeh="94.160935" HC_perVeh="0.008425" PMx_perVeh="0.001663" NOx_perVeh="0.038603" fuel_perVeh="0.040476" electricity_perVeh="0"/>
        <edge id=":1110673511_0" sampledSeconds="63.72" CO_abs="1098.455308" CO2_abs="121970.991217" HC_abs="7.793747" PMx_abs="1.665915" NOx_abs="45.833366" fuel_abs="52.430281" electricity_abs="0"
            CO_normed="1523.692486" CO2_normed="169188.752121" HC_normed="10.810885" PMx_normed="2.310828" NOx_normed="63.576511" fuel_normed="72.727243" electricity_normed="0"
            traveltime="0.02" CO_perVeh="0.420999" CO2_perVeh="46.747106" HC_perVeh="0.002987" PMx_perVeh="0.000638" NOx_perVeh="0.017566" fuel_perVeh="0.020095" electricity_perVeh="0"/>
        <edge id=":1110673517_0" sampledSeconds="183.27" CO_abs="7586.827531" CO2_abs="543444.437425" HC_abs="47.288663" PMx_abs="9.305242" NOx_abs="220.561091" fuel_abs="233.603281" electricity_abs="0"
            CO_normed="10523.862024" CO2_normed="753824.210970" HC_normed="65.595187" PMx_normed="12.907514" NOx_normed="305.945335" fuel_normed="324.036455" electricity_normed="0"
            traveltime="0.03" CO_perVeh="1.161605" CO2_perVeh="83.205742" HC_perVeh="0.007240" PMx_perVeh="0.001425" NOx_perVeh="0.033770" fuel_perVeh="0.035767" electricity_perVeh="0"/>
        <edge id=":1110673534_0" sampledSeconds="659.83" CO_abs="4712.982805" CO2_abs="387744.354036" HC_abs="30.309676" PMx_abs="5.285434" NOx_abs="147.899855" fuel_abs="166.676085" electricity_abs="0"
            CO_normed="126.695470" CO2_normed="10423.431463" HC_normed="0.814792" PMx_normed="0.142084" NOx_normed="3.975877" fuel_normed="4.480624" electricity_normed="0"
            traveltime="1.45" CO_perVeh="10.363148" CO2_perVeh="852.592116" HC_perVeh="0.066646" PMx_perVeh="0.011622" NOx_perVeh="0.325210" fuel_perVeh="0.366496" electricity_perVeh="0"/>
        <edge id=":1110673534_1" sampledSeconds="264.14" CO_abs="4322.207137" CO2_abs="547491.845209" HC_abs="32.061882" PMx_abs="7.340803" NOx_abs="203.346387" fuel_abs="235.343900" electricity_abs="0"
            CO_normed="112.979254" CO2_normed="14311.026311" HC_normed="0.838074" PMx_normed="0.191883" NOx_normed="5.315322" fuel_normed="6.151713" electricity_normed="0"
            traveltime="1.23" CO_perVeh="20.053957" CO2_perVeh="2540.224811" HC_perVeh="0.148759" PMx_perVeh="0.034059" NOx_perVeh="0.943476" fuel_perVeh="1.091937" electricity_perVeh="0"/>
        <edge id=":1110673549_0" sampledSeconds="659.45" CO_abs="1618.686837" CO2_abs="140758.848264" HC_abs="10.575949" PMx_abs="2.019244" NOx_abs="53.753655" fuel_abs="60.506528" electricity_abs="0"
            CO_normed="42.152394" CO2_normed="3665.515990" HC_normed="0.275409" PMx_normed="0.052583" NOx_normed="1.399805" fuel_normed="1.575657" electricity_normed="0"
            traveltime="1.31" CO_perVeh="3.215945" CO2_perVeh="279.654268" HC_perVeh="0.021012" PMx_perVeh="0.004012" NOx_perVeh="0.106796" fuel_perVeh="0.120212" electricity_perVeh="0"/>
        <edge id=":1110673549_1" sampledSeconds="3196.94" CO_abs="68767.251016" CO2_abs="9127680.244860" HC_abs="530.923006" PMx_abs="159.967309" NOx_abs="3407.325031" fuel_abs="3923.572284" electricity_abs="0"
            CO_normed="1732.238989" CO2_normed="229925.195015" HC_normed="13.373888" PMx_normed="4.029558" NOx_normed="85.830118" fuel_normed="98.834326" electricity_normed="0"
            traveltime="0.81" CO_perVeh="17.346272" CO2_perVeh="2302.421847" HC_perVeh="0.133923" PMx_perVeh="0.040351" NOx_perVeh="0.859484" fuel_perVeh="0.989706" electricity_perVeh="0"/>
        <edge id=":1110673556_0" sampledSeconds="476.39" CO_abs="59074.356047" CO2_abs="2796574.498841" HC_abs="335.384876" PMx_abs="56.530494" NOx_abs="1206.506078" fuel_abs="1202.128838" electricity_abs="0"
            CO_normed="1140.743257" CO2_normed="54002.679281" HC_normed="6.476381" PMx_normed="1.091621" NOx_normed="23.297989" fuel_normed="23.213463" electricity_normed="0"
            traveltime="2.81" CO_perVeh="348.237649" CO2_perVeh="16485.537777" HC_perVeh="1.977062" PMx_perVeh="0.333242" NOx_perVeh="7.112237" fuel_perVeh="7.086434" electricity_perVeh="0"/>
        <edge id=":1110673556_2" sampledSeconds="180.81" CO_abs="18488.476754" CO2_abs="774986.060037" HC_abs="102.381325" PMx_abs="15.014150" NOx_abs="331.021832" fuel_abs="333.136373" electricity_abs="0"
            CO_normed="373.301151" CO2_normed="15647.756804" HC_normed="2.067183" PMx_normed="0.303151" NOx_normed="6.683667" fuel_normed="6.726362" electricity_normed="0"
            traveltime="3.13" CO_perVeh="319.692182" CO2_perVeh="13400.616398" HC_perVeh="1.770319" PMx_perVeh="0.259616" NOx_perVeh="5.723840" fuel_perVeh="5.760404" electricity_perVeh="0"/>
        <edge id=":1110673556_3" sampledSeconds="360.69" CO_abs="34826.281130" CO2_abs="1209819.062509" HC_abs="186.851637" PMx_abs="23.813152" NOx_abs="520.639403" fuel_abs="520.058552" electricity_abs="0"
            CO_normed="1599.613617" CO2_normed="55568.466801" HC_normed="8.582324" PMx_normed="1.093767" NOx_normed="23.913604" fuel_normed="23.886924" electricity_normed="0"
            traveltime="1.82" CO_perVeh="175.751188" CO2_perVeh="6105.364399" HC_perVeh="0.942949" PMx_perVeh="0.120173" NOx_perVeh="2.627412" fuel_perVeh="2.624481" electricity_perVeh="0"/>
        <edge id=":1110673556_4" sampledSeconds="64.56" CO_abs="7340.613412" CO2_abs="280770.281132" HC_abs="40.026717" PMx_abs="5.606045" NOx_abs="121.186499" fuel_abs="120.692503" electricity_abs="0"
            CO_normed="205.981108" CO2_normed="7878.547805" HC_normed="1.123169" PMx_normed="0.157308" NOx_normed="3.400551" fuel_normed="3.386689" electricity_normed="0"
            traveltime="2.57" CO_perVeh="292.622163" CO2_perVeh="11192.471559" HC_perVeh="1.595603" PMx_perVeh="0.223476" NOx_perVeh="4.830912" fuel_perVeh="4.811219" electricity_perVeh="0"/>
        <edge id=":1110673556_5" sampledSeconds="22.04" CO_abs="1436.679374" CO2_abs="64779.274797" HC_abs="8.044098" PMx_abs="1.141301" NOx_abs="26.935316" fuel_abs="27.846172" electricity_abs="0"
            CO_normed="56.189403" CO2_normed="2533.556785" HC_normed="0.314610" PMx_normed="0.044637" NOx_normed="1.053457" fuel_normed="1.089081" electricity_normed="0"
            traveltime="1.52" CO_perVeh="99.325981" CO2_perVeh="4478.567146" HC_perVeh="0.556135" PMx_perVeh="0.078905" NOx_perVeh="1.862195" fuel_perVeh="1.925167" electricity_perVeh="0"/>
        <edge id=":1110673556_6" sampledSeconds="549.23" CO_abs="66398.791762" CO2_abs="3202669.013977" HC_abs="378.433829" PMx_abs="64.799627" NOx_abs="1381.657521" fuel_abs="1376.690538" electricity_abs="0"
            CO_normed="1314.509272" CO2_normed="63403.836158" HC_normed="7.491925" PMx_normed="1.282850" NOx_normed="27.352932" fuel_normed="27.254599" electricity_normed="0"
            traveltime="2.67" CO_perVeh="322.380814" CO2_perVeh="15549.666157" HC_perVeh="1.837380" PMx_perVeh="0.314617" NOx_perVeh="6.708253" fuel_perVeh="6.684137" electricity_perVeh="0"/>
        <edge id=":1110673561_0" sampledSeconds="104.14" CO_abs="10175.932595" CO2_abs="705562.501972" HC_abs="63.330386" PMx_abs="14.436770" NOx_abs="300.097990" fuel_abs="303.287663" electricity_abs="0"
            CO_normed="253.113011" CO2_normed="17549.944177" HC_normed="1.575260" PMx_normed="0.359096" NOx_normed="7.464545" fuel_normed="7.543884" electricity_normed="0"
            traveltime="1.23" CO_perVeh="120.085881" CO2_perVeh="8326.322342" HC_perVeh="0.747360" PMx_perVeh="0.170368" NOx_perVeh="3.541448" fuel_perVeh="3.579089" electricity_perVeh="0"/>
        <edge id=":1110673561_1" sampledSeconds="5187.61" CO_abs="485204.405322" CO2_abs="33606231.852818" HC_abs="3022.455521" PMx_abs="702.590524" NOx_abs="14368.698694" fuel_abs="14445.695922" electricity_abs="0"
            CO_normed="11766.400877" CO2_normed="814964.562555" HC_normed="73.295755" PMx_normed="17.038101" NOx_normed="348.446690" fuel_normed="350.313903" electricity_normed="0"
            traveltime="1.19" CO_perVeh="111.480787" CO2_perVeh="7721.383272" HC_perVeh="0.694441" PMx_perVeh="0.161428" NOx_perVeh="3.301359" fuel_perVeh="3.319050" electricity_perVeh="0"/>
        <edge id=":1110673562_0" sampledSeconds="301.51" CO_abs="6994.591751" CO2_abs="531865.860329" HC_abs="43.998161" PMx_abs="7.395723" NOx_abs="204.521926" fuel_abs="228.628425" electricity_abs="0"
            CO_normed="10780.398029" CO2_normed="819737.002009" HC_normed="67.812062" PMx_normed="11.398640" NOx_normed="315.218935" fuel_normed="352.373020" electricity_normed="0"
            traveltime="0.03" CO_perVeh="0.627005" CO2_perVeh="47.677219" HC_perVeh="0.003944" PMx_perVeh="0.000663" NOx_perVeh="0.018334" fuel_perVeh="0.020495" electricity_perVeh="0"/>
        <edge id=":1110673564_0" sampledSeconds="27.75" CO_abs="459.937884" CO2_abs="53955.661879" HC_abs="3.319948" PMx_abs="0.741286" NOx_abs="20.216714" fuel_abs="23.193284" electricity_abs="0"
            CO_normed="1913.971083" CO2_normed="224529.398643" HC_normed="13.815525" PMx_normed="3.084764" NOx_normed="84.129201" fuel_normed="96.515804" electricity_normed="0"
            traveltime="7.837081e-03" CO_perVeh="0.129908" CO2_perVeh="15.239560" HC_perVeh="0.000938" PMx_perVeh="0.000209" NOx_perVeh="0.005710" fuel_perVeh="0.006551" electricity_perVeh="0"/>
        <edge id=":1110673588_0" sampledSeconds="63.32" CO_abs="1166.056160" CO2_abs="118751.155904" HC_abs="8.039951" PMx_abs="1.723940" NOx_abs="45.425448" fuel_abs="51.046119" electricity_abs="0"
            CO_normed="1940.955808" CO2_normed="197666.933882" HC_normed="13.382880" PMx_normed="2.869580" NOx_normed="75.612813" fuel_normed="84.968687" electricity_normed="0"
            traveltime="0.02" CO_perVeh="0.376147" CO2_perVeh="38.306824" HC_perVeh="0.002594" PMx_perVeh="0.000556" NOx_perVeh="0.014653" fuel_perVeh="0.016466" electricity_perVeh="0"/>
        <edge id=":1110673601_0" sampledSeconds="28.99" CO_abs="444.978015" CO2_abs="53496.593042" HC_abs="3.230163" PMx_abs="0.717515" NOx_abs="19.915148" fuel_abs="22.995967" electricity_abs="0"
            CO_normed="661.327697" CO2_normed="79506.801423" HC_normed="4.800679" PMx_normed="1.066374" NOx_normed="29.597955" fuel_normed="34.176677" electricity_normed="0"
            traveltime="0.02" CO_perVeh="0.339317" CO2_perVeh="40.793720" HC_perVeh="0.002463" PMx_perVeh="0.000547" NOx_perVeh="0.015186" fuel_perVeh="0.017536" electricity_perVeh="0"/>
        <edge id=":1110673617_0" sampledSeconds="852.10" CO_abs="31702.295500" CO2_abs="3234643.251053" HC_abs="221.969218" PMx_abs="60.955284" NOx_abs="1266.691744" fuel_abs="1390.421714" electricity_abs="0"
            CO_normed="43974.979309" CO2_normed="4486847.649132" HC_normed="307.898579" PMx_normed="84.552468" NOx_normed="1757.057095" fuel_normed="1928.685767" electricity_normed="0"
            traveltime="0.02" CO_perVeh="0.561767" CO2_perVeh="57.318117" HC_perVeh="0.003933" PMx_perVeh="0.001080" NOx_perVeh="0.022446" fuel_perVeh="0.024638" electricity_perVeh="0"/>
        <edge id=":1110673621_0" sampledSeconds="26.56" CO_abs="470.723247" CO2_abs="51054.352603" HC_abs="3.308548" PMx_abs="0.709145" NOx_abs="19.265389" fuel_abs="21.946143" electricity_abs="0"
            CO_normed="783.541181" CO2_normed="84982.392495" HC_normed="5.507235" PMx_normed="1.180406" NOx_normed="32.068154" fuel_normed="36.530397" electricity_normed="0"
            traveltime="0.02" CO_perVeh="0.356609" CO2_perVeh="38.677540" HC_perVeh="0.002506" PMx_perVeh="0.000537" NOx_perVeh="0.014595" fuel_perVeh="0.016626" electricity_perVeh="0"/>
        <edge id=":1110673630_0" sampledSeconds="287.59" CO_abs="1788.124359" CO2_abs="164568.456280" HC_abs="11.893491" PMx_abs="2.157701" NOx_abs="61.936264" fuel_abs="70.741502" electricity_abs="0"
            CO_normed="53.074498" CO2_normed="4884.664844" HC_normed="0.353019" PMx_normed="0.064044" NOx_normed="1.838371" fuel_normed="2.099725" electricity_normed="0"
            traveltime="1.29" CO_perVeh="8.045877" CO2_perVeh="740.495201" HC_perVeh="0.053516" PMx_perVeh="0.009709" NOx_perVeh="0.278690" fuel_perVeh="0.318310" electricity_perVeh="0"/>
        <edge id=":1110673630_1" sampledSeconds="336.73" CO_abs="1519.745368" CO2_abs="120342.132790" HC_abs="9.665625" PMx_abs="1.630600" NOx_abs="45.932486" fuel_abs="51.730416" electricity_abs="0"
            CO_normed="54.993223" CO2_normed="4354.678052" HC_normed="0.349758" PMx_normed="0.059005" NOx_normed="1.662104" fuel_normed="1.871907" electricity_normed="0"
            traveltime="1.07" CO_perVeh="4.844657" CO2_perVeh="383.627638" HC_perVeh="0.030812" PMx_perVeh="0.005198" NOx_perVeh="0.146424" fuel_perVeh="0.164907" electricity_perVeh="0"/>
        <edge id=":1110673650_0" sampledSeconds="199.56" CO_abs="3090.720038" CO2_abs="384108.903904" HC_abs="22.905229" PMx_abs="5.276856" NOx_abs="143.608982" fuel_abs="165.112258" electricity_abs="0"
            CO_normed="4287.208468" CO2_normed="532806.247468" HC_normed="31.772368" PMx_normed="7.319648" NOx_normed="199.203304" fuel_normed="229.030990" electricity_normed="0"
            traveltime="0.02" CO_perVeh="0.357212" CO2_perVeh="44.393678" HC_perVeh="0.002647" PMx_perVeh="0.000610" NOx_perVeh="0.016598" fuel_perVeh="0.019083" electricity_perVeh="0"/>
        <edge id=":1110673655_0" sampledSeconds="20.74" CO_abs="292.295846" CO2_abs="37876.330181" HC_abs="2.187425" PMx_abs="0.483441" NOx_abs="13.932855" fuel_abs="16.281484" electricity_abs="0"
            CO_normed="405.450255" CO2_normed="52539.124052" HC_normed="3.034227" PMx_normed="0.670592" NOx_normed="19.326582" fuel_normed="22.584419" electricity_normed="0"
            traveltime="0.02" CO_perVeh="0.333925" CO2_perVeh="43.270750" HC_perVeh="0.002499" PMx_perVeh="0.000552" NOx_perVeh="0.015917" fuel_perVeh="0.018600" electricity_perVeh="0"/>
        <edge id=":1110673663_0" sampledSeconds="110.76" CO_abs="2005.618313" CO2_abs="222148.490068" HC_abs="14.246421" PMx_abs="3.123908" NOx_abs="83.977992" fuel_abs="95.492320" electricity_abs="0"
            CO_normed="50.953096" CO2_normed="5643.722572" HC_normed="0.361933" PMx_normed="0.079363" NOx_normed="2.133476" fuel_normed="2.426000" electricity_normed="0"
            traveltime="1.30" CO_perVeh="23.556933" CO2_perVeh="2609.238816" HC_perVeh="0.167331" PMx_perVeh="0.036692" NOx_perVeh="0.986361" fuel_perVeh="1.121602" electricity_perVeh="0"/>
        <edge id=":1110673663_1" sampledSeconds="170.82" CO_abs="2917.241801" CO2_abs="343964.867818" HC_abs="21.151851" PMx_abs="4.760204" NOx_abs="129.105185" fuel_abs="147.856064" electricity_abs="0"
            CO_normed="74.203658" CO2_normed="8749.172433" HC_normed="0.538024" PMx_normed="0.121082" NOx_normed="3.283950" fuel_normed="3.760902" electricity_normed="0"
            traveltime="1.28" CO_perVeh="21.816488" CO2_perVeh="2572.328858" HC_perVeh="0.158183" PMx_perVeh="0.035599" NOx_perVeh="0.965508" fuel_perVeh="1.105736" electricity_perVeh="0"/>