<?xml version="1.0" encoding="UTF-8"?>

<!-- generated on Mon Nov  9 21:54:24 2020 by Eclipse SUMO sumo Version 1.7.0
<configuration xmlns:xsi="http://www.w3.org/2001/XMLSchema-instance" xsi:noNamespaceSchemaLocation="http://sumo.dlr.de/xsd/sumoConfiguration.xsd">

    <input>
        <net-file value="../dataSets/Porto/6AM7AM_Routing_SaoBento/Porto.net.xml"/>
        <route-files value="../results/Porto/6AM7AM_Routing_SaoBento/cost_PMx-ttime/solution4/Porto.rou.xml"/>
        <additional-files value="moreOutputInfo.xml"/>
    </input>

    <output>
        <emission-output.precision value="6"/>
        <tripinfo-output value="../results/Porto/6AM7AM_Routing_SaoBento/cost_PMx-ttime/solution4/Porto-tripinfo"/>
    </output>

    <processing>
        <collision.action value="warn"/>
        <time-to-teleport value="-1"/>
    </processing>

    <emissions>
        <device.emissions.probability value="1"/>
    </emissions>

    <gui_only>
        <quit-on-end value="true"/>
        <start value="true"/>
    </gui_only>

</configuration>
-->

<meandata xmlns:xsi="http://www.w3.org/2001/XMLSchema-instance" xsi:noNamespaceSchemaLocation="http://sumo.dlr.de/xsd/meandata_file.xsd">
    <interval begin="0.00" end="4698.00" id="emissions-detector">
        <edge id=":1092997347_0" sampledSeconds="304.58" CO_abs="39461.280890" CO2_abs="1560331.327222" HC_abs="216.576895" PMx_abs="31.962416" NOx_abs="678.154470" fuel_abs="670.724982" electricity_abs="0"
            CO_normed="68723.930495" CO2_normed="2717400.430550" HC_normed="377.180242" PMx_normed="55.664257" NOx_normed="1181.042267" fuel_normed="1168.103417" electricity_normed="0"
            traveltime="0.08" CO_perVeh="9.783907" CO2_perVeh="386.863680" HC_perVeh="0.053697" PMx_perVeh="0.007925" NOx_perVeh="0.168140" fuel_perVeh="0.166297" electricity_perVeh="0"/>
        <edge id=":1103427051_0" sampledSeconds="10.91" CO_abs="852.637985" CO2_abs="48433.613656" HC_abs="5.033375" PMx_abs="0.954062" NOx_abs="20.687961" fuel_abs="20.819455" electricity_abs="0"
            CO_normed="2252.973933" CO2_normed="127978.897227" HC_normed="13.299974" PMx_normed="2.520973" NOx_normed="54.664979" fuel_normed="55.012431" electricity_normed="0"
            traveltime="0.03" CO_perVeh="2.336215" CO2_perVeh="132.707369" HC_perVeh="0.013791" PMx_perVeh="0.002614" NOx_perVeh="0.056685" fuel_perVeh="0.057045" electricity_perVeh="0"/>
        <edge id=":1105984386_0" sampledSeconds="23.13" CO_abs="467.907307" CO2_abs="35675.231614" HC_abs="2.944548" PMx_abs="0.488519" NOx_abs="13.679119" fuel_abs="15.335403" electricity_abs="0"
            CO_normed="36.925815" CO2_normed="2815.380251" HC_normed="0.232375" PMx_normed="0.038552" NOx_normed="1.079514" fuel_normed="1.210223" electricity_normed="0"
            traveltime="0.97" CO_perVeh="19.637707" CO2_perVeh="1497.261839" HC_perVeh="0.123580" PMx_perVeh="0.020503" NOx_perVeh="0.574102" fuel_perVeh="0.643615" electricity_perVeh="0"/>
        <edge id=":1105984390_0" sampledSeconds="23.44" CO_abs="29.378058" CO2_abs="3057.450741" HC_abs="0.203332" PMx_abs="0.037931" NOx_abs="1.131391" fuel_abs="1.314278" electricity_abs="0"
            CO_normed="1.792350" CO2_normed="186.534565" HC_normed="0.012405" PMx_normed="0.002314" NOx_normed="0.069026" fuel_normed="0.080184" electricity_normed="0"
            traveltime="1.06" CO_perVeh="1.332281" CO2_perVeh="138.653890" HC_perVeh="0.009221" PMx_perVeh="0.001720" NOx_perVeh="0.051308" fuel_perVeh="0.059602" electricity_perVeh="0"/>
        <edge id=":1105984390_1" sampledSeconds="646.31" CO_abs="15040.352030" CO2_abs="1935376.106942" HC_abs="115.013578" PMx_abs="34.320913" NOx_abs="726.083935" fuel_abs="831.929403" electricity_abs="0"
            CO_normed="877.774103" CO2_normed="112951.014870" HC_normed="6.712339" PMx_normed="2.003012" NOx_normed="42.375183" fuel_normed="48.552460" electricity_normed="0"
            traveltime="0.64" CO_perVeh="14.805575" CO2_perVeh="1905.165254" HC_perVeh="0.113218" PMx_perVeh="0.033785" NOx_perVeh="0.714750" fuel_perVeh="0.818943" electricity_perVeh="0"/>
        <edge id=":1105984395_0" sampledSeconds="9.10" CO_abs="93.893212" CO2_abs="8313.555945" HC_abs="0.616694" PMx_abs="0.107219" NOx_abs="3.125583" fuel_abs="3.573675" electricity_abs="0"
            CO_normed="78.205241" CO2_normed="6924.501037" HC_normed="0.513655" PMx_normed="0.089304" NOx_normed="2.603351" fuel_normed="2.976575" electricity_normed="0"
            traveltime="0.09" CO_perVeh="0.952180" CO2_perVeh="84.308548" HC_perVeh="0.006254" PMx_perVeh="0.001087" NOx_perVeh="0.031697" fuel_perVeh="0.036241" electricity_perVeh="0"/>
        <edge id=":1105984398_0" sampledSeconds="23.40" CO_abs="1387.237137" CO2_abs="97211.896655" HC_abs="8.604217" PMx_abs="1.715874" NOx_abs="39.843021" fuel_abs="41.787135" electricity_abs="0"
            CO_normed="87.925307" CO2_normed="6161.445395" HC_normed="0.545349" PMx_normed="0.108755" NOx_normed="2.525314" fuel_normed="2.648535" electricity_normed="0"
            traveltime="1.11" CO_perVeh="66.039591" CO2_perVeh="4627.784022" HC_perVeh="0.409605" PMx_perVeh="0.081684" NOx_perVeh="1.896732" fuel_perVeh="1.989282" electricity_perVeh="0"/>
        <edge id=":1105984398_1" sampledSeconds="453.08" CO_abs="7757.781477" CO2_abs="929867.102117" HC_abs="56.588378" PMx_abs="13.111098" NOx_abs="350.061309" fuel_abs="399.710412" electricity_abs="0"
            CO_normed="475.953574" CO2_normed="57048.986445" HC_normed="3.471797" PMx_normed="0.804389" NOx_normed="21.476879" fuel_normed="24.522939" electricity_normed="0"
            traveltime="0.95" CO_perVeh="16.335435" CO2_perVeh="1958.006135" HC_perVeh="0.119157" PMx_perVeh="0.027608" NOx_perVeh="0.737118" fuel_perVeh="0.841664" electricity_perVeh="0"/>
        <edge id=":1106006327_0" sampledSeconds="39.06" CO_abs="5292.101613" CO2_abs="170542.622445" HC_abs="28.111767" PMx_abs="3.564739" NOx_abs="74.691480" fuel_abs="73.310274" electricity_abs="0"
            CO_normed="457.703192" CO2_normed="14749.887345" HC_normed="2.431330" PMx_normed="0.308307" NOx_normed="6.459915" fuel_normed="6.340458" electricity_normed="0"
            traveltime="2.12" CO_perVeh="287.092948" CO2_perVeh="9251.822403" HC_perVeh="1.525044" PMx_perVeh="0.193385" NOx_perVeh="4.051962" fuel_perVeh="3.977033" electricity_perVeh="0"/>
        <edge id=":1106006327_1" sampledSeconds="159.57" CO_abs="21695.740571" CO2_abs="732101.603513" HC_abs="116.053489" PMx_abs="15.293083" NOx_abs="320.538311" fuel_abs="314.703868" electricity_abs="0"
            CO_normed="1636.327614" CO2_normed="55216.279265" HC_normed="8.752941" PMx_normed="1.153429" NOx_normed="24.175514" fuel_normed="23.735471" electricity_normed="0"
            traveltime="2.27" CO_perVeh="307.999000" CO2_perVeh="10393.125827" HC_perVeh="1.647529" PMx_perVeh="0.217105" NOx_perVeh="4.550454" fuel_perVeh="4.467627" electricity_perVeh="0"/>
        <edge id=":1106006327_2" sampledSeconds="0.00" CO_abs="0" CO2_abs="0" HC_abs="0" PMx_abs="0" NOx_abs="0" fuel_abs="0" electricity_abs="0"
            CO_normed="0" CO2_normed="0" HC_normed="0" PMx_normed="0" NOx_normed="0" fuel_normed="0" electricity_normed="0"/>
        <edge id=":1106006327_3" sampledSeconds="0.00" CO_abs="0" CO2_abs="0" HC_abs="0" PMx_abs="0" NOx_abs="0" fuel_abs="0" electricity_abs="0"
            CO_normed="0" CO2_normed="0" HC_normed="0" PMx_normed="0" NOx_normed="0" fuel_normed="0" electricity_normed="0"/>
        <edge id=":1107381198_0" sampledSeconds="0.00" CO_abs="0" CO2_abs="0" HC_abs="0" PMx_abs="0" NOx_abs="0" fuel_abs="0" electricity_abs="0"
            CO_normed="0" CO2_normed="0" HC_normed="0" PMx_normed="0" NOx_normed="0" fuel_normed="0" electricity_normed="0"/>
        <edge id=":1107381198_1" sampledSeconds="35.80" CO_abs="1334.227428" CO2_abs="58067.052390" HC_abs="7.420169" PMx_abs="1.022654" NOx_abs="24.159612" fuel_abs="24.960879" electricity_abs="0"
            CO_normed="111.493620" CO2_normed="4852.325582" HC_normed="0.620060" PMx_normed="0.085457" NOx_normed="2.018878" fuel_normed="2.085835" electricity_normed="0"
            traveltime="1.47" CO_perVeh="54.933843" CO2_perVeh="2390.781566" HC_perVeh="0.305509" PMx_perVeh="0.042105" NOx_perVeh="0.994718" fuel_perVeh="1.027709" electricity_perVeh="0"/>
        <edge id=":1110338277_0" sampledSeconds="96.77" CO_abs="1552.578835" CO2_abs="193013.282495" HC_abs="11.497439" PMx_abs="2.636884" NOx_abs="72.092471" fuel_abs="82.968308" electricity_abs="0"
            CO_normed="4248.984223" CO2_normed="528224.637371" HC_normed="31.465349" PMx_normed="7.216432" NOx_normed="197.297402" fuel_normed="227.061598" electricity_normed="0"
            traveltime="0.02" CO_perVeh="0.350289" CO2_perVeh="43.547210" HC_perVeh="0.002594" PMx_perVeh="0.000595" NOx_perVeh="0.016265" fuel_perVeh="0.018719" electricity_perVeh="0"/>
        <edge id=":1110338293_0" sampledSeconds="123.68" CO_abs="6113.052466" CO2_abs="421525.900626" HC_abs="37.740860" PMx_abs="7.391311" NOx_abs="172.524878" fuel_abs="181.195667" electricity_abs="0"
            CO_normed="15614.437971" CO2_normed="1076694.509899" HC_normed="96.400664" PMx_normed="18.879466" NOx_normed="440.676571" fuel_normed="462.824180" electricity_normed="0"
            traveltime="0.03" CO_perVeh="1.402130" CO2_perVeh="96.683948" HC_perVeh="0.008656" PMx_perVeh="0.001695" NOx_perVeh="0.039571" fuel_perVeh="0.041560" electricity_perVeh="0"/>
        <edge id=":1110338295_0" sampledSeconds="0.00" CO_abs="0" CO2_abs="0" HC_abs="0" PMx_abs="0" NOx_abs="0" fuel_abs="0" electricity_abs="0"
            CO_normed="0" CO2_normed="0" HC_normed="0" PMx_normed="0" NOx_normed="0" fuel_normed="0" electricity_normed="0"/>
        <edge id=":1110673403_0" sampledSeconds="143.62" CO_abs="2060.753481" CO2_abs="258071.744635" HC_abs="15.273060" PMx_abs="3.507020" NOx_abs="96.238280" fuel_abs="110.934224" electricity_abs="0"
            CO_normed="5263.738137" CO2_normed="659187.087191" HC_normed="39.011647" PMx_normed="8.957905" NOx_normed="245.819361" fuel_normed="283.356893" electricity_normed="0"
            traveltime="0.02" CO_perVeh="0.330868" CO2_perVeh="41.435121" HC_perVeh="0.002452" PMx_perVeh="0.000563" NOx_perVeh="0.015452" fuel_perVeh="0.017811" electricity_perVeh="0"/>
        <edge id=":1110673412_0" sampledSeconds="253.27" CO_abs="43869.604176" CO2_abs="3015074.179471" HC_abs="273.528578" PMx_abs="66.037486" NOx_abs="1293.621567" fuel_abs="1296.032024" electricity_abs="0"
            CO_normed="115919.154910" CO2_normed="7966902.310664" HC_normed="722.760148" PMx_normed="174.494612" NOx_normed="3418.209981" fuel_normed="3424.579269" electricity_normed="0"
            traveltime="0.02" CO_perVeh="2.694050" CO2_perVeh="185.156900" HC_perVeh="0.016797" PMx_perVeh="0.004055" NOx_perVeh="0.079442" fuel_perVeh="0.079590" electricity_perVeh="0"/>
        <edge id=":1110673414_0" sampledSeconds="0.00" CO_abs="0" CO2_abs="0" HC_abs="0" PMx_abs="0" NOx_abs="0" fuel_abs="0" electricity_abs="0"
            CO_normed="0" CO2_normed="0" HC_normed="0" PMx_normed="0" NOx_normed="0" fuel_normed="0" electricity_normed="0"/>
        <edge id=":1110673414_1" sampledSeconds="228.63" CO_abs="14725.258047" CO2_abs="566457.375066" HC_abs="80.189092" PMx_abs="10.372582" NOx_abs="238.576088" fuel_abs="243.499903" electricity_abs="0"
            CO_normed="1249.581688" CO2_normed="48069.430130" HC_normed="6.804826" PMx_normed="0.880215" NOx_normed="20.245507" fuel_normed="20.663340" electricity_normed="0"
            traveltime="1.58" CO_perVeh="101.572898" CO2_perVeh="3907.348634" HC_perVeh="0.553134" PMx_perVeh="0.071549" NOx_perVeh="1.645667" fuel_perVeh="1.679630" electricity_perVeh="0"/>
        <edge id=":1110673417_0" sampledSeconds="29.82" CO_abs="405.566043" CO2_abs="50316.295342" HC_abs="2.998425" PMx_abs="0.677979" NOx_abs="18.741154" fuel_abs="21.628877" electricity_abs="0"
            CO_normed="1109.923489" CO2_normed="137701.957695" HC_normed="8.205871" PMx_normed="1.855444" NOx_normed="51.289420" fuel_normed="59.192330" electricity_normed="0"
            traveltime="0.02" CO_perVeh="0.301017" CO2_perVeh="37.345428" HC_perVeh="0.002225" PMx_perVeh="0.000503" NOx_perVeh="0.013910" fuel_perVeh="0.016053" electricity_perVeh="0"/>
        <edge id=":1110673446_0" sampledSeconds="333.49" CO_abs="3020.774017" CO2_abs="255186.883932" HC_abs="19.754301" PMx_abs="4.540466" NOx_abs="103.264334" fuel_abs="109.693226" electricity_abs="0"
            CO_normed="7715.897873" CO2_normed="651818.349763" HC_normed="50.457986" PMx_normed="11.597613" NOx_normed="263.765858" fuel_normed="280.187040" electricity_normed="0"
            traveltime="0.02" CO_perVeh="0.206145" CO2_perVeh="17.414559" HC_perVeh="0.001348" PMx_perVeh="0.000310" NOx_perVeh="0.007047" fuel_perVeh="0.007486" electricity_perVeh="0"/>
        <edge id=":1110673451_0" sampledSeconds="37.59" CO_abs="384.869078" CO2_abs="27154.669613" HC_abs="2.378960" PMx_abs="0.414519" NOx_abs="10.716364" fuel_abs="11.672699" electricity_abs="0"
            CO_normed="1092.291977" CO2_normed="77067.318328" HC_normed="6.751696" PMx_normed="1.176440" NOx_normed="30.413974" fuel_normed="33.128136" electricity_normed="0"
            traveltime="0.03" CO_perVeh="0.276002" CO2_perVeh="19.473468" HC_perVeh="0.001706" PMx_perVeh="0.000297" NOx_perVeh="0.007685" fuel_perVeh="0.008371" electricity_perVeh="0"/>
        <edge id=":1110673464_0" sampledSeconds="325.49" CO_abs="680.538542" CO2_abs="55139.048764" HC_abs="4.354003" PMx_abs="0.796199" NOx_abs="21.274592" fuel_abs="23.702057" electricity_abs="0"
            CO_normed="36.932399" CO2_normed="2992.361519" HC_normed="0.236289" PMx_normed="0.043209" NOx_normed="1.154559" fuel_normed="1.286296" electricity_normed="0"
            traveltime="1.18" CO_perVeh="2.460060" CO2_perVeh="199.320663" HC_perVeh="0.015739" PMx_perVeh="0.002878" NOx_perVeh="0.076905" fuel_perVeh="0.085680" electricity_perVeh="0"/>
        <edge id=":1110673464_1" sampledSeconds="709.11" CO_abs="16965.833172" CO2_abs="2179475.844394" HC_abs="129.385115" PMx_abs="38.607238" NOx_abs="817.491843" fuel_abs="936.856713" electricity_abs="0"
            CO_normed="902.195590" CO2_normed="115898.433899" HC_normed="6.880339" PMx_normed="2.053025" NOx_normed="43.471931" fuel_normed="49.819422" electricity_normed="0"
            traveltime="0.70" CO_perVeh="16.756042" CO2_perVeh="2152.525564" HC_perVeh="0.127785" PMx_perVeh="0.038130" NOx_perVeh="0.807383" fuel_perVeh="0.925272" electricity_perVeh="0"/>
        <edge id=":1110673479_0" sampledSeconds="133.57" CO_abs="6579.124811" CO2_abs="451355.701895" HC_abs="40.581474" PMx_abs="8.013251" NOx_abs="185.415483" fuel_abs="194.018075" electricity_abs="0"
            CO_normed="16804.916503" CO2_normed="1152888.127446" HC_normed="103.656383" PMx_normed="20.468073" NOx_normed="473.602765" fuel_normed="495.576181" electricity_normed="0"
            traveltime="0.03" CO_perVeh="1.385954" CO2_perVeh="95.082305" HC_perVeh="0.008549" PMx_perVeh="0.001688" NOx_perVeh="0.039060" fuel_perVeh="0.040872" electricity_perVeh="0"/>
        <edge id=":1110673511_0" sampledSeconds="11.86" CO_abs="149.570669" CO2_abs="19158.849280" HC_abs="1.116840" PMx_abs="0.248778" NOx_abs="7.067933" fuel_abs="8.235601" electricity_abs="0"
            CO_normed="382.045132" CO2_normed="48937.035198" HC_normed="2.852721" PMx_normed="0.635449" NOx_normed="18.053468" fuel_normed="21.036018" electricity_normed="0"
            traveltime="0.02" CO_perVeh="0.296180" CO2_perVeh="37.938315" HC_perVeh="0.002212" PMx_perVeh="0.000493" NOx_perVeh="0.013996" fuel_perVeh="0.016308" electricity_perVeh="0"/>
        <edge id=":1110673517_0" sampledSeconds="17.11" CO_abs="659.516600" CO2_abs="45453.054154" HC_abs="4.082782" PMx_abs="0.855409" NOx_abs="18.957357" fuel_abs="19.538206" electricity_abs="0"
            CO_normed="1684.589017" CO2_normed="116099.755184" HC_normed="10.428562" PMx_normed="2.184954" NOx_normed="48.422367" fuel_normed="49.906019" electricity_normed="0"
            traveltime="0.03" CO_perVeh="1.058897" CO2_perVeh="72.977877" HC_perVeh="0.006555" PMx_perVeh="0.001373" NOx_perVeh="0.030437" fuel_perVeh="0.031370" electricity_perVeh="0"/>
        <edge id=":1110673534_0" sampledSeconds="475.16" CO_abs="3288.832180" CO2_abs="278590.718265" HC_abs="21.349684" PMx_abs="3.805864" NOx_abs="106.200778" fuel_abs="119.755138" electricity_abs="0"
            CO_normed="162.802191" CO2_normed="13790.663927" HC_normed="1.056842" PMx_normed="0.188396" NOx_normed="5.257100" fuel_normed="5.928061" electricity_normed="0"
            traveltime="1.43" CO_perVeh="9.907933" CO2_perVeh="839.282176" HC_perVeh="0.064318" PMx_perVeh="0.011466" NOx_perVeh="0.319940" fuel_perVeh="0.360774" electricity_perVeh="0"/>
        <edge id=":1110673534_1" sampledSeconds="184.54" CO_abs="2645.543893" CO2_abs="364397.938694" HC_abs="20.388116" PMx_abs="4.761351" NOx_abs="134.148738" fuel_abs="156.639524" electricity_abs="0"
            CO_normed="127.338989" CO2_normed="17539.707094" HC_normed="0.981349" PMx_normed="0.229180" NOx_normed="6.457033" fuel_normed="7.539591" electricity_normed="0"
            traveltime="1.23" CO_perVeh="17.565462" CO2_perVeh="2419.471491" HC_perVeh="0.135370" PMx_perVeh="0.031614" NOx_perVeh="0.890699" fuel_perVeh="1.040030" electricity_perVeh="0"/>
        <edge id=":1110673549_0" sampledSeconds="60.76" CO_abs="40.419629" CO2_abs="3271.860610" HC_abs="0.257186" PMx_abs="0.036275" NOx_abs="1.195689" fuel_abs="1.406458" electricity_abs="0"
            CO_normed="1.938229" CO2_normed="156.894423" HC_normed="0.012333" PMx_normed="0.001739" NOx_normed="0.057336" fuel_normed="0.067443" electricity_normed="0"
            traveltime="1.27" CO_perVeh="0.842109" CO2_perVeh="68.166429" HC_perVeh="0.005358" PMx_perVeh="0.000756" NOx_perVeh="0.024911" fuel_perVeh="0.029302" electricity_perVeh="0"/>
        <edge id=":1110673549_1" sampledSeconds="639.20" CO_abs="13185.039465" CO2_abs="1789126.065716" HC_abs="102.730794" PMx_abs="31.214402" NOx_abs="665.098559" fuel_abs="769.063627" electricity_abs="0"
            CO_normed="611.590709" CO2_normed="82988.972647" HC_normed="4.765189" PMx_normed="1.447886" NOx_normed="30.850730" fuel_normed="35.673171" electricity_normed="0"
            traveltime="0.80" CO_perVeh="16.601746" CO2_perVeh="2252.751422" HC_perVeh="0.129352" PMx_perVeh="0.039303" NOx_perVeh="0.837449" fuel_perVeh="0.968355" electricity_perVeh="0"/>
        <edge id=":1110673556_0" sampledSeconds="416.74" CO_abs="51400.798562" CO2_abs="2584080.209834" HC_abs="295.497017" PMx_abs="52.138089" NOx_abs="1112.913006" fuel_abs="1110.784108" electricity_abs="0"
            CO_normed="1827.730167" CO2_normed="91885.758321" HC_normed="10.507401" PMx_normed="1.853947" NOx_normed="39.573406" fuel_normed="39.497706" electricity_normed="0"
            traveltime="2.59" CO_perVeh="319.071094" CO2_perVeh="16040.709910" HC_perVeh="1.834301" PMx_perVeh="0.323648" NOx_perVeh="6.908421" fuel_perVeh="6.895206" electricity_perVeh="0"/>
        <edge id=":1110673556_2" sampledSeconds="247.30" CO_abs="23360.317899" CO2_abs="1005838.064471" HC_abs="130.003750" PMx_abs="19.472139" NOx_abs="429.386763" fuel_abs="432.370167" electricity_abs="0"
            CO_normed="868.540841" CO2_normed="37397.241025" HC_normed="4.833563" PMx_normed="0.723978" NOx_normed="15.964677" fuel_normed="16.075601" electricity_normed="0"
            traveltime="3.00" CO_perVeh="283.356180" CO2_perVeh="12200.622975" HC_perVeh="1.576921" PMx_perVeh="0.236193" NOx_perVeh="5.208379" fuel_perVeh="5.244567" electricity_perVeh="0"/>
        <edge id=":1110673556_3" sampledSeconds="373.57" CO_abs="32236.104768" CO2_abs="1136674.119420" HC_abs="173.215816" PMx_abs="21.613033" NOx_abs="484.273376" fuel_abs="488.616865" electricity_abs="0"
            CO_normed="2726.489624" CO2_normed="96138.482439" HC_normed="14.650378" PMx_normed="1.828003" NOx_normed="40.959239" fuel_normed="41.326606" electricity_normed="0"
            traveltime="1.75" CO_perVeh="151.059848" CO2_perVeh="5326.506425" HC_perVeh="0.811697" PMx_perVeh="0.101280" NOx_perVeh="2.269327" fuel_perVeh="2.289681" electricity_perVeh="0"/>
        <edge id=":1110673556_4" sampledSeconds="170.62" CO_abs="17139.387811" CO2_abs="687922.437422" HC_abs="94.174748" PMx_abs="13.371375" NOx_abs="294.498689" fuel_abs="295.711623" electricity_abs="0"
            CO_normed="885.612307" CO2_normed="35545.760634" HC_normed="4.866120" PMx_normed="0.690915" NOx_normed="15.217093" fuel_normed="15.279767" electricity_normed="0"
            traveltime="2.39" CO_perVeh="240.397535" CO2_perVeh="9648.819418" HC_perVeh="1.320898" PMx_perVeh="0.187547" NOx_perVeh="4.130647" fuel_perVeh="4.147660" electricity_perVeh="0"/>
        <edge id=":1110673556_5" sampledSeconds="23.76" CO_abs="2067.722586" CO2_abs="86438.114923" HC_abs="11.434748" PMx_abs="1.626528" NOx_abs="36.639930" fuel_abs="37.156460" electricity_abs="0"
            CO_normed="148.915578" CO2_normed="6225.197687" HC_normed="0.823521" PMx_normed="0.117141" NOx_normed="2.638776" fuel_normed="2.675976" electricity_normed="0"
            traveltime="1.64" CO_perVeh="142.953660" CO2_perVeh="5975.968439" HC_perVeh="0.790550" PMx_perVeh="0.112451" NOx_perVeh="2.533131" fuel_perVeh="2.568842" electricity_perVeh="0"/>
        <edge id=":1110673556_6" sampledSeconds="305.83" CO_abs="36404.350472" CO2_abs="1876151.070246" HC_abs="210.395260" PMx_abs="37.736217" NOx_abs="806.442346" fuel_abs="806.475530" electricity_abs="0"
            CO_normed="1327.119600" CO2_normed="68395.035935" HC_normed="7.669953" PMx_normed="1.375673" NOx_normed="29.398834" fuel_normed="29.400043" electricity_normed="0"
            traveltime="2.42" CO_perVeh="288.293171" CO2_perVeh="14857.607249" HC_perVeh="1.666161" PMx_perVeh="0.298840" NOx_perVeh="6.386375" fuel_perVeh="6.386637" electricity_perVeh="0"/>
        <edge id=":1110673561_0" sampledSeconds="98.51" CO_abs="10637.821920" CO2_abs="748070.311863" HC_abs="66.502742" PMx_abs="15.392473" NOx_abs="318.243911" fuel_abs="321.559536" electricity_abs="0"
            CO_normed="487.243734" CO2_normed="34263.834755" HC_normed="3.046022" PMx_normed="0.705021" NOx_normed="14.576513" fuel_normed="14.728379" electricity_normed="0"
            traveltime="1.16" CO_perVeh="125.536624" CO2_perVeh="8827.955757" HC_perVeh="0.784797" PMx_perVeh="0.181646" NOx_perVeh="3.755587" fuel_perVeh="3.794715" electricity_perVeh="0"/>
        <edge id=":1110673561_1" sampledSeconds="1315.45" CO_abs="119119.589719" CO2_abs="8272541.714929" HC_abs="742.402414" PMx_abs="172.574663" NOx_abs="3534.196624" fuel_abs="3555.966450" electricity_abs="0"
            CO_normed="5319.311136" CO2_normed="369412.145993" HC_normed="33.152141" PMx_normed="7.706359" NOx_normed="157.820317" fuel_normed="158.792454" electricity_normed="0"
            traveltime="1.19" CO_perVeh="108.170611" CO2_perVeh="7512.163988" HC_perVeh="0.674164" PMx_perVeh="0.156712" NOx_perVeh="3.209348" fuel_perVeh="3.229117" electricity_perVeh="0"/>
        <edge id=":1110673562_0" sampledSeconds="104.11" CO_abs="2615.230964" CO2_abs="207232.874270" HC_abs="16.634283" PMx_abs="2.793524" NOx_abs="78.963606" fuel_abs="89.081401" electricity_abs="0"
            CO_normed="7422.253339" CO2_normed="588144.953229" HC_normed="47.209544" PMx_normed="7.928263" NOx_normed="224.105593" fuel_normed="252.820779" electricity_normed="0"
            traveltime="0.03" CO_perVeh="0.666634" CO2_perVeh="52.824603" HC_perVeh="0.004240" PMx_perVeh="0.000712" NOx_perVeh="0.020128" fuel_perVeh="0.022707" electricity_perVeh="0"/>
        <edge id=":1110673564_0" sampledSeconds="28.71" CO_abs="550.913823" CO2_abs="62584.658842" HC_abs="3.954539" PMx_abs="0.876337" NOx_abs="23.610634" fuel_abs="26.902517" electricity_abs="0"
            CO_normed="4221.561865" CO2_normed="479575.929822" HC_normed="30.302981" PMx_normed="6.715229" NOx_normed="180.924402" fuel_normed="206.149559" electricity_normed="0"
            traveltime="7.893819e-03" CO_perVeh="0.151454" CO2_perVeh="17.205404" HC_perVeh="0.001087" PMx_perVeh="0.000241" NOx_perVeh="0.006491" fuel_perVeh="0.007396" electricity_perVeh="0"/>
        <edge id=":1110673588_0" sampledSeconds="11.64" CO_abs="169.822567" CO2_abs="21589.642140" HC_abs="1.259954" PMx_abs="0.284904" NOx_abs="8.009108" fuel_abs="9.280491" electricity_abs="0"
            CO_normed="520.528941" CO2_normed="66175.148322" HC_normed="3.861929" PMx_normed="0.873268" NOx_normed="24.548990" fuel_normed="28.445948" electricity_normed="0"
            traveltime="0.02" CO_perVeh="0.283038" CO2_perVeh="35.982737" HC_perVeh="0.002100" PMx_perVeh="0.000475" NOx_perVeh="0.013349" fuel_perVeh="0.015467" electricity_perVeh="0"/>
        <edge id=":1110673601_0" sampledSeconds="29.84" CO_abs="562.452702" CO2_abs="59322.649936" HC_abs="3.906573" PMx_abs="0.864866" NOx_abs="22.650040" fuel_abs="25.500288" electricity_abs="0"
            CO_normed="1539.279426" CO2_normed="162349.890356" HC_normed="10.691224" PMx_normed="2.366901" NOx_normed="61.986972" fuel_normed="69.787324" electricity_normed="0"
            traveltime="0.02" CO_perVeh="0.417460" CO2_perVeh="44.030065" HC_perVeh="0.002900" PMx_perVeh="0.000642" NOx_perVeh="0.016811" fuel_perVeh="0.018927" electricity_perVeh="0"/>
        <edge id=":1110673617_0" sampledSeconds="238.27" CO_abs="5989.876658" CO2_abs="727641.783316" HC_abs="44.727972" PMx_abs="13.106284" NOx_abs="275.459361" fuel_abs="312.779668" electricity_abs="0"
            CO_normed="15299.812664" CO2_normed="1858599.701958" HC_normed="114.247693" PMx_normed="33.477099" NOx_normed="703.599901" fuel_normed="798.926356" electricity_normed="0"
            traveltime="0.01" CO_perVeh="0.367089" CO2_perVeh="44.593409" HC_perVeh="0.002741" PMx_perVeh="0.000803" NOx_perVeh="0.016881" fuel_perVeh="0.019169" electricity_perVeh="0"/>
        <edge id=":1110673621_0" sampledSeconds="25.67" CO_abs="566.389467" CO2_abs="59159.709799" HC_abs="3.938818" PMx_abs="0.876958" NOx_abs="22.688311" fuel_abs="25.430232" electricity_abs="0"
            CO_normed="1736.059669" CO2_normed="181332.443829" HC_normed="12.073005" PMx_normed="2.687993" NOx_normed="69.542716" fuel_normed="77.947071" electricity_normed="0"
            traveltime="0.02" CO_perVeh="0.429083" CO2_perVeh="44.817962" HC_perVeh="0.002984" PMx_perVeh="0.000664" NOx_perVeh="0.017188" fuel_perVeh="0.019265" electricity_perVeh="0"/>
        <edge id=":1110673630_0" sampledSeconds="54.29" CO_abs="175.424055" CO2_abs="14042.231405" HC_abs="1.122693" PMx_abs="0.207441" NOx_abs="5.460088" fuel_abs="6.036184" electricity_abs="0"
            CO_normed="9.588057" CO2_normed="767.498615" HC_normed="0.061362" PMx_normed="0.011338" NOx_normed="0.298429" fuel_normed="0.329916" electricity_normed="0"
            traveltime="1.27" CO_perVeh="4.094708" CO2_perVeh="327.770519" HC_perVeh="0.026206" PMx_perVeh="0.004842" NOx_perVeh="0.127448" fuel_perVeh="0.140895" electricity_perVeh="0"/>
        <edge id=":1110673630_1" sampledSeconds="7.45" CO_abs="8.433009" CO2_abs="608.300943" HC_abs="0.052335" PMx_abs="0.008748" NOx_abs="0.236606" fuel_abs="0.261485" electricity_abs="0"
            CO_normed="0.561920" CO2_normed="40.533130" HC_normed="0.003487" PMx_normed="0.000583" NOx_normed="0.015766" fuel_normed="0.017424" electricity_normed="0"
            traveltime="1.05" CO_perVeh="1.193595" CO2_perVeh="86.097980" HC_perVeh="0.007407" PMx_perVeh="0.001238" NOx_perVeh="0.033489" fuel_perVeh="0.037010" electricity_perVeh="0"/>
        <edge id=":1110673650_0" sampledSeconds="143.17" CO_abs="2234.862115" CO2_abs="274977.345023" HC_abs="16.451678" PMx_abs="3.773667" NOx_abs="102.781617" fuel_abs="118.201208" electricity_abs="0"
            CO_normed="5708.460063" CO2_normed="702368.697377" HC_normed="42.022166" PMx_normed="9.638996" NOx_normed="262.532867" fuel_normed="301.918795" electricity_normed="0"
            traveltime="0.02" CO_perVeh="0.359562" CO2_perVeh="44.240437" HC_perVeh="0.002647" PMx_perVeh="0.000607" NOx_perVeh="0.016536" fuel_perVeh="0.019017" electricity_perVeh="0"/>
        <edge id=":1110673655_0" sampledSeconds="44.82" CO_abs="1010.140655" CO2_abs="99393.915967" HC_abs="6.907462" PMx_abs="1.485226" NOx_abs="38.329995" fuel_abs="42.725221" electricity_abs="0"
            CO_normed="2580.180473" CO2_normed="253879.734271" HC_normed="17.643580" PMx_normed="3.793682" NOx_normed="97.905478" fuel_normed="109.132110" electricity_normed="0"
            traveltime="0.02" CO_perVeh="0.540616" CO2_perVeh="53.194496" HC_perVeh="0.003697" PMx_perVeh="0.000795" NOx_perVeh="0.020514" fuel_perVeh="0.022866" electricity_perVeh="0"/>
        <edge id=":1110673663_0" sampledSeconds="109.07" CO_abs="1757.017183" CO2_abs="200128.907926" HC_abs="12.539469" PMx_abs="2.835606" NOx_abs="75.573621" fuel_abs="86.026958" electricity_abs="0"
            CO_normed="82.196173" CO2_normed="9362.361722" HC_normed="0.586617" PMx_normed="0.132654" NOx_normed="3.535459" fuel_normed="4.024484" electricity_normed="0"
            traveltime="1.28" CO_perVeh="20.636996" CO2_perVeh="2350.608435" HC_perVeh="0.147282" PMx_perVeh="0.033306" NOx_perVeh="0.887648" fuel_perVeh="1.010427" electricity_perVeh="0"/>
        <edge id=":1110673663_1" sampledSeconds="154.02" CO_abs="2593.434786" CO2_abs="324669.398510" HC_abs="19.125241" PMx_abs="4.452679" NOx_abs="121.133866" fuel_abs="139.561703" electricity_abs="0"
            CO_normed="121.473493" CO2_normed="15207.140044" HC_normed="0.895804" PMx_normed="0.208558" NOx_normed="5.673771" fuel_normed="6.536909" electricity_normed="0"
            traveltime="1.25" CO_perVeh="20.998926" CO2_perVeh="2628.833676" HC_perVeh="0.154856" PMx_perVeh="0.036053" NOx_perVeh="0.980816" fuel_perVeh="1.130025" electricity_perVeh="0"/>
        <edge id=":1110673666_0" sampledSeconds="191.32" CO_abs="4046.679273" CO2_abs="329675.651100" HC_abs="25.943824" PMx_abs="4.413490" NOx_abs="125.314014" fuel_abs="141.714778" electricity_abs="0"