<?xml version="1.0" encoding="UTF-8"?>

<!-- generated on ter 01 set 2020 17:22:19 by Eclipse SUMO GUI Version 1.6.0
<configuration xmlns:xsi="http://www.w3.org/2001/XMLSchema-instance" xsi:noNamespaceSchemaLocation="http://sumo.dlr.de/xsd/sumoConfiguration.xsd">

    <input>
        <net-file value="../dataSets/Angeja_Estarreja/angeja_estarreja.net.xml"/>
        <route-files value="../results/angeja_estarreja/length-ttime/solution8/angeja_estarreja.rou.xml"/>
        <additional-files value="moreOutputInfo.xml"/>
    </input>

    <output>
        <emission-output.precision value="6"/>
        <tripinfo-output value="../results/angeja_estarreja/length-ttime/solution8/angeja_estarreja-tripinfo"/>
    </output>

    <processing>
        <collision.action value="warn"/>
        <time-to-teleport value="-1"/>
    </processing>

    <emissions>
        <device.emissions.probability value="1"/>
    </emissions>

    <gui_only>
        <gui-settings-file value="gui-settings.xml"/>
        <quit-on-end value="true"/>
        <start value="true"/>
    </gui_only>

</configuration>
-->

<meandata xmlns:xsi="http://www.w3.org/2001/XMLSchema-instance" xsi:noNamespaceSchemaLocation="http://sumo.dlr.de/xsd/meandata_file.xsd">
    <interval begin="0.00" end="19080.00" id="emissions-detector">
        <edge id=":10_0" sampledSeconds="418.80" CO_abs="42020.256302" CO2_abs="2313025.608327" HC_abs="246.198184" PMx_abs="45.249236" NOx_abs="986.177748" fuel_abs="994.268322" electricity_abs="0"
            CO_normed="453.307618" CO2_normed="24952.540086" HC_normed="2.655946" PMx_normed="0.488141" NOx_normed="10.638723" fuel_normed="10.726003" electricity_normed="0"
            traveltime="1.90" CO_perVeh="191.015065" CO2_perVeh="10514.517895" HC_perVeh="1.119164" PMx_perVeh="0.205693" NOx_perVeh="4.482952" fuel_perVeh="4.519730" electricity_perVeh="0"/>
        <edge id=":10_1" sampledSeconds="0.00" CO_abs="0" CO2_abs="0" HC_abs="0" PMx_abs="0" NOx_abs="0" fuel_abs="0" electricity_abs="0"
            CO_normed="0" CO2_normed="0" HC_normed="0" PMx_normed="0" NOx_normed="0" fuel_normed="0" electricity_normed="0"/>
        <edge id=":100_0" sampledSeconds="0.00" CO_abs="0" CO2_abs="0" HC_abs="0" PMx_abs="0" NOx_abs="0" fuel_abs="0" electricity_abs="0"
            CO_normed="0" CO2_normed="0" HC_normed="0" PMx_normed="0" NOx_normed="0" fuel_normed="0" electricity_normed="0"/>
        <edge id=":100_1" sampledSeconds="912.04" CO_abs="22019.625643" CO2_abs="2756812.501077" HC_abs="167.188835" PMx_abs="49.951354" NOx_abs="1030.808173" fuel_abs="1185.027244" electricity_abs="0"
            CO_normed="140.549606" CO2_normed="17596.525781" HC_normed="1.067154" PMx_normed="0.318836" NOx_normed="6.579571" fuel_normed="7.563939" electricity_normed="0"
            traveltime="1.37" CO_perVeh="33.112324" CO2_perVeh="4145.595807" HC_perVeh="0.251413" PMx_perVeh="0.075115" NOx_perVeh="1.550092" fuel_perVeh="1.782001" electricity_perVeh="0"/>
        <edge id=":101_0" sampledSeconds="438.32" CO_abs="11263.282090" CO2_abs="1366371.209986" HC_abs="84.517667" PMx_abs="24.990934" NOx_abs="513.553932" fuel_abs="587.340142" electricity_abs="0"
            CO_normed="260.115981" CO2_normed="31555.188333" HC_normed="1.951864" PMx_normed="0.577145" NOx_normed="11.860094" fuel_normed="13.564124" electricity_normed="0"
            traveltime="0.38" CO_perVeh="9.730013" CO2_perVeh="1180.367286" HC_perVeh="0.073012" PMx_perVeh="0.021589" NOx_perVeh="0.443644" fuel_perVeh="0.507386" electricity_perVeh="0"/>
        <edge id=":102_0" sampledSeconds="341.53" CO_abs="7831.621070" CO2_abs="1005280.601529" HC_abs="60.026918" PMx_abs="18.087579" NOx_abs="374.238826" fuel_abs="432.124125" electricity_abs="0"
            CO_normed="182.427698" CO2_normed="23416.738913" HC_normed="1.398251" PMx_normed="0.421327" NOx_normed="8.717420" fuel_normed="10.065784" electricity_normed="0"
            traveltime="0.38" CO_perVeh="8.615471" CO2_perVeh="1105.896952" HC_perVeh="0.066035" PMx_perVeh="0.019898" NOx_perVeh="0.411696" fuel_perVeh="0.475374" electricity_perVeh="0"/>
        <edge id=":103_0" sampledSeconds="434.13" CO_abs="10450.131582" CO2_abs="1304707.682895" HC_abs="79.311772" PMx_abs="23.671151" NOx_abs="488.029002" fuel_abs="560.833977" electricity_abs="0"
            CO_normed="244.934527" CO2_normed="30580.280860" HC_normed="1.858942" PMx_normed="0.554814" NOx_normed="11.438627" fuel_normed="13.145060" electricity_normed="0"
            traveltime="0.37" CO_perVeh="8.978358" CO2_perVeh="1120.955534" HC_perVeh="0.068142" PMx_perVeh="0.020337" NOx_perVeh="0.419296" fuel_perVeh="0.481847" electricity_perVeh="0"/>
        <edge id=":104_0" sampledSeconds="340.84" CO_abs="8626.104961" CO2_abs="1046842.481248" HC_abs="64.714445" PMx_abs="19.143874" NOx_abs="393.325423" fuel_abs="449.989446" electricity_abs="0"
            CO_normed="201.182568" CO2_normed="24415.012273" HC_normed="1.509304" PMx_normed="0.446484" NOx_normed="9.173343" fuel_normed="10.494891" electricity_normed="0"
            traveltime="0.37" CO_perVeh="9.485137" CO2_perVeh="1151.092473" HC_perVeh="0.071159" PMx_perVeh="0.021050" NOx_perVeh="0.432495" fuel_perVeh="0.494802" electricity_perVeh="0"/>
        <edge id=":105_0" sampledSeconds="168.68" CO_abs="4085.963878" CO2_abs="510929.672049" HC_abs="31.021324" PMx_abs="9.264089" NOx_abs="191.060820" fuel_abs="219.625230" electricity_abs="0"
            CO_normed="3504.257185" CO2_normed="438190.113249" HC_normed="26.604909" PMx_normed="7.945188" NOx_normed="163.860051" fuel_normed="188.357830" electricity_normed="0"
            traveltime="0.01" CO_perVeh="0.247087" CO2_perVeh="30.897002" HC_perVeh="0.001876" PMx_perVeh="0.000560" NOx_perVeh="0.011554" fuel_perVeh="0.013281" electricity_perVeh="0"/>
        <edge id=":106_0" sampledSeconds="134.53" CO_abs="3285.518541" CO2_abs="411130.227636" HC_abs="24.951182" PMx_abs="7.452577" NOx_abs="153.738298" fuel_abs="176.726026" electricity_abs="0"
            CO_normed="1999.706963" CO2_normed="250231.422785" HC_normed="15.186356" PMx_normed="4.535957" NOx_normed="93.571697" fuel_normed="107.563011" electricity_normed="0"
            traveltime="0.01" CO_perVeh="0.351286" CO2_perVeh="43.957802" HC_perVeh="0.002668" PMx_perVeh="0.000797" NOx_perVeh="0.016438" fuel_perVeh="0.018895" electricity_perVeh="0"/>
        <edge id=":107_0" sampledSeconds="438.58" CO_abs="10705.305520" CO2_abs="1352821.366753" HC_abs="81.638913" PMx_abs="24.455300" NOx_abs="505.160228" fuel_abs="581.515898" electricity_abs="0"
            CO_normed="247.229984" CO2_normed="31242.266154" HC_normed="1.885382" PMx_normed="0.564774" NOx_normed="11.666249" fuel_normed="13.429618" electricity_normed="0"
            traveltime="0.38" CO_perVeh="9.247994" CO2_perVeh="1168.661981" HC_perVeh="0.070525" PMx_perVeh="0.021126" NOx_perVeh="0.436393" fuel_perVeh="0.502354" electricity_perVeh="0"/>
        <edge id=":108_0" sampledSeconds="93.07" CO_abs="8155.195878" CO2_abs="598572.941269" HC_abs="51.490785" PMx_abs="11.941732" NOx_abs="251.844978" fuel_abs="257.298088" electricity_abs="0"
            CO_normed="127.906584" CO2_normed="9388.054099" HC_normed="0.807585" PMx_normed="0.187295" NOx_normed="3.949952" fuel_normed="4.035479" electricity_normed="0"
            traveltime="0.85" CO_perVeh="74.534068" CO2_perVeh="5470.632119" HC_perVeh="0.470598" PMx_perVeh="0.109141" NOx_perVeh="2.301727" fuel_perVeh="2.351565" electricity_perVeh="0"/>
        <edge id=":108_1" sampledSeconds="402.91" CO_abs="9757.122317" CO2_abs="1207141.062352" HC_abs="73.762882" PMx_abs="21.951189" NOx_abs="452.229421" fuel_abs="518.894519" electricity_abs="0"
            CO_normed="142.710579" CO2_normed="17656.005007" HC_normed="1.078878" PMx_normed="0.321065" NOx_normed="6.614442" fuel_normed="7.589506" electricity_normed="0"
            traveltime="0.60" CO_perVeh="14.494447" CO2_perVeh="1793.237949" HC_perVeh="0.109577" PMx_perVeh="0.032609" NOx_perVeh="0.671798" fuel_perVeh="0.770831" electricity_perVeh="0"/>
        <edge id=":109_0" sampledSeconds="306.74" CO_abs="141.240165" CO2_abs="19397.615278" HC_abs="1.083891" PMx_abs="0.276969" NOx_abs="7.135343" fuel_abs="8.338207" electricity_abs="0"
            CO_normed="2.123433" CO2_normed="291.627682" HC_normed="0.016295" PMx_normed="0.004164" NOx_normed="0.107274" fuel_normed="0.125358" electricity_normed="0"
            traveltime="0.85" CO_perVeh="0.392569" CO2_perVeh="53.914514" HC_perVeh="0.003013" PMx_perVeh="0.000770" NOx_perVeh="0.019832" fuel_perVeh="0.023176" electricity_perVeh="0"/>
        <edge id=":109_1" sampledSeconds="524.31" CO_abs="12172.622575" CO2_abs="1549541.998403" HC_abs="92.965267" PMx_abs="27.938158" NOx_abs="577.672563" fuel_abs="666.077140" electricity_abs="0"
            CO_normed="119.372206" CO2_normed="15195.759605" HC_normed="0.911674" PMx_normed="0.273979" NOx_normed="5.665012" fuel_normed="6.531961" electricity_normed="0"
            traveltime="0.89" CO_perVeh="20.727077" CO2_perVeh="2638.501008" HC_perVeh="0.158298" PMx_perVeh="0.047572" NOx_perVeh="0.983639" fuel_perVeh="1.134171" electricity_perVeh="0"/>
        <edge id=":11_0" sampledSeconds="298.20" CO_abs="18009.691264" CO2_abs="1321880.537596" HC_abs="113.171999" PMx_abs="23.374475" NOx_abs="540.316238" fuel_abs="568.217913" electricity_abs="0"
            CO_normed="186.194792" CO2_normed="13666.379298" HC_normed="1.170039" PMx_normed="0.241659" NOx_normed="5.586107" fuel_normed="5.874571" electricity_normed="0"
            traveltime="1.59" CO_perVeh="95.908044" CO2_perVeh="7039.486376" HC_perVeh="0.602681" PMx_perVeh="0.124477" NOx_perVeh="2.877377" fuel_perVeh="3.025963" electricity_perVeh="0"/>
        <edge id=":11_1" sampledSeconds="50.62" CO_abs="1141.172753" CO2_abs="101018.288107" HC_abs="7.490736" PMx_abs="1.281034" NOx_abs="37.823197" fuel_abs="43.423881" electricity_abs="0"
            CO_normed="12.096383" CO2_normed="1070.789571" HC_normed="0.079401" PMx_normed="0.013579" NOx_normed="0.400924" fuel_normed="0.460291" electricity_normed="0"
            traveltime="1.66" CO_perVeh="37.533028" CO2_perVeh="3322.478803" HC_perVeh="0.246369" PMx_perVeh="0.042133" NOx_perVeh="1.244000" fuel_perVeh="1.428206" electricity_perVeh="0"/>
        <edge id=":110_0" sampledSeconds="94.66" CO_abs="2.945253" CO2_abs="223.964571" HC_abs="0.018454" PMx_abs="0.002728" NOx_abs="0.083763" fuel_abs="0.096274" electricity_abs="0"
            CO_normed="0.038193" CO2_normed="2.904293" HC_normed="0.000239" PMx_normed="0.000035" NOx_normed="0.001086" fuel_normed="0.001248" electricity_normed="0"
            traveltime="0.93" CO_perVeh="0.028836" CO2_perVeh="2.192776" HC_perVeh="0.000181" PMx_perVeh="0.000027" NOx_perVeh="0.000820" fuel_perVeh="0.000943" electricity_perVeh="0"/>
        <edge id=":110_1" sampledSeconds="444.22" CO_abs="10207.233525" CO2_abs="1275066.927443" HC_abs="77.527943" PMx_abs="23.132480" NOx_abs="477.067821" fuel_abs="548.092767" electricity_abs="0"
            CO_normed="131.013137" CO2_normed="16365.895616" HC_normed="0.995096" PMx_normed="0.296913" NOx_normed="6.123319" fuel_normed="7.034948" electricity_normed="0"
            traveltime="0.68" CO_perVeh="15.679806" CO2_perVeh="1958.689556" HC_perVeh="0.119094" PMx_perVeh="0.035535" NOx_perVeh="0.732846" fuel_perVeh="0.841951" electricity_perVeh="0"/>
        <edge id=":111_0" sampledSeconds="340.99" CO_abs="8167.448210" CO2_abs="1070480.332086" HC_abs="63.182604" PMx_abs="19.152905" NOx_abs="397.441195" fuel_abs="460.150573" electricity_abs="0"
            CO_normed="188.620314" CO2_normed="24721.838574" HC_normed="1.459149" PMx_normed="0.442320" NOx_normed="9.178568" fuel_normed="10.626789" electricity_normed="0"
            traveltime="0.38" CO_perVeh="9.076874" CO2_perVeh="1189.675774" HC_perVeh="0.070218" PMx_perVeh="0.021286" NOx_perVeh="0.441695" fuel_perVeh="0.511387" electricity_perVeh="0"/>
        <edge id=":114_0" sampledSeconds="106.58" CO_abs="11202.999708" CO2_abs="792729.051100" HC_abs="70.101965" PMx_abs="16.282674" NOx_abs="336.959712" fuel_abs="340.756170" electricity_abs="0"
            CO_normed="148.857291" CO2_normed="10533.205569" HC_normed="0.931464" PMx_normed="0.216352" NOx_normed="4.477275" fuel_normed="4.527720" electricity_normed="0"
            traveltime="0.99" CO_perVeh="103.640246" CO2_perVeh="7333.628148" HC_perVeh="0.648521" PMx_perVeh="0.150633" NOx_perVeh="3.117253" fuel_perVeh="3.152375" electricity_perVeh="0"/>
        <edge id=":114_1" sampledSeconds="416.37" CO_abs="9731.648323" CO2_abs="1233910.826759" HC_abs="74.228776" PMx_abs="22.266365" NOx_abs="460.533537" fuel_abs="530.401721" electricity_abs="0"
            CO_normed="128.492656" CO2_normed="16292.047833" HC_normed="0.980086" PMx_normed="0.293996" NOx_normed="6.080694" fuel_normed="7.003205" electricity_normed="0"
            traveltime="0.66" CO_perVeh="15.507107" CO2_perVeh="1966.202086" HC_perVeh="0.118281" PMx_perVeh="0.035481" NOx_perVeh="0.733847" fuel_perVeh="0.845180" electricity_perVeh="0"/>
        <edge id=":115_0" sampledSeconds="80.32" CO_abs="74.443702" CO2_abs="12273.403313" HC_abs="0.617618" PMx_abs="0.147125" NOx_abs="4.415086" fuel_abs="5.275835" electricity_abs="0"
            CO_normed="1.682153" CO2_normed="277.333709" HC_normed="0.013956" PMx_normed="0.003324" NOx_normed="0.099765" fuel_normed="0.119214" electricity_normed="0"
            traveltime="0.63" CO_perVeh="0.585812" CO2_perVeh="96.581771" HC_perVeh="0.004860" PMx_perVeh="0.001158" NOx_perVeh="0.034743" fuel_perVeh="0.041517" electricity_perVeh="0"/>
        <edge id=":115_1" sampledSeconds="72.22" CO_abs="1130.074681" CO2_abs="183106.700367" HC_abs="9.237790" PMx_abs="2.695798" NOx_abs="67.570964" fuel_abs="78.709475" electricity_abs="0"
            CO_normed="22.804453" CO2_normed="3695.019683" HC_normed="0.186415" PMx_normed="0.054400" NOx_normed="1.363555" fuel_normed="1.588326" electricity_normed="0"
            traveltime="0.59" CO_perVeh="9.251685" CO2_perVeh="1499.056262" HC_perVeh="0.075628" PMx_perVeh="0.022070" NOx_perVeh="0.553189" fuel_perVeh="0.644378" electricity_perVeh="0"/>
        <edge id=":116_0" sampledSeconds="75.31" CO_abs="125.024239" CO2_abs="19217.224746" HC_abs="0.998786" PMx_abs="0.240999" NOx_abs="6.981864" fuel_abs="8.260690" electricity_abs="0"
            CO_normed="3.153674" CO2_normed="484.744848" HC_normed="0.025194" PMx_normed="0.006079" NOx_normed="0.176114" fuel_normed="0.208372" electricity_normed="0"
            traveltime="0.57" CO_perVeh="0.944027" CO2_perVeh="145.104470" HC_perVeh="0.007542" PMx_perVeh="0.001820" NOx_perVeh="0.052718" fuel_perVeh="0.062374" electricity_perVeh="0"/>
        <edge id=":117_0" sampledSeconds="241.65" CO_abs="14065.139190" CO2_abs="1166197.818079" HC_abs="91.810750" PMx_abs="21.499167" NOx_abs="476.710152" fuel_abs="501.294484" electricity_abs="0"
            CO_normed="317.820341" CO2_normed="26351.775349" HC_normed="2.074585" PMx_normed="0.485802" NOx_normed="10.771894" fuel_normed="11.327409" electricity_normed="0"
            traveltime="0.60" CO_perVeh="35.066233" CO2_perVeh="2907.483812" HC_perVeh="0.228896" PMx_perVeh="0.053600" NOx_perVeh="1.188501" fuel_perVeh="1.249793" electricity_perVeh="0"/>
        <edge id=":117_1" sampledSeconds="75.61" CO_abs="4581.232351" CO2_abs="384573.886596" HC_abs="29.995504" PMx_abs="7.038680" NOx_abs="156.775997" fuel_abs="165.310557" electricity_abs="0"
            CO_normed="97.560210" CO2_normed="8189.741612" HC_normed="0.638773" PMx_normed="0.149893" NOx_normed="3.338643" fuel_normed="3.520392" electricity_normed="0"
            traveltime="0.64" CO_perVeh="38.731756" CO2_perVeh="3251.357038" HC_perVeh="0.253595" PMx_perVeh="0.059508" NOx_perVeh="1.325453" fuel_perVeh="1.397608" electricity_perVeh="0"/>
        <edge id=":118_0" sampledSeconds="898.43" CO_abs="12229.067274" CO2_abs="1939561.908647" HC_abs="98.916661" PMx_abs="28.417283" NOx_abs="716.435730" fuel_abs="833.732169" electricity_abs="0"
            CO_normed="37.101965" CO2_normed="5884.468196" HC_normed="0.300105" PMx_normed="0.086216" NOx_normed="2.173606" fuel_normed="2.529473" electricity_normed="0"
            traveltime="3.92" CO_perVeh="53.353042" CO2_perVeh="8461.931346" HC_perVeh="0.431554" PMx_perVeh="0.123979" NOx_perVeh="3.125670" fuel_perVeh="3.637411" electricity_perVeh="0"/>
        <edge id=":118_4" sampledSeconds="284.21" CO_abs="3609.216836" CO2_abs="603964.686338" HC_abs="29.842908" PMx_abs="8.572852" NOx_abs="220.932464" fuel_abs="259.618085" electricity_abs="0"
            CO_normed="10.971231" CO2_normed="1835.920754" HC_normed="0.090716" PMx_normed="0.026060" NOx_normed="0.671586" fuel_normed="0.789182" electricity_normed="0"
            traveltime="3.94" CO_perVeh="50.039556" CO2_perVeh="8373.596269" HC_perVeh="0.413753" PMx_perVeh="0.118857" NOx_perVeh="3.063092" fuel_perVeh="3.599444" electricity_perVeh="0"/>
        <edge id=":118_5" sampledSeconds="238.52" CO_abs="3674.521749" CO2_abs="564274.146740" HC_abs="29.243237" PMx_abs="8.453495" NOx_abs="209.611028" fuel_abs="242.556382" electricity_abs="0"
            CO_normed="11.280605" CO2_normed="1732.294503" HC_normed="0.089775" PMx_normed="0.025952" NOx_normed="0.643496" fuel_normed="0.744636" electricity_normed="0"
            traveltime="3.82" CO_perVeh="58.808729" CO2_perVeh="9030.901952" HC_perVeh="0.468022" PMx_perVeh="0.135294" NOx_perVeh="3.354711" fuel_perVeh="3.881983" electricity_perVeh="0"/>
        <edge id=":119_0" sampledSeconds="138.84" CO_abs="2004.237326" CO2_abs="315182.464562" HC_abs="16.163589" PMx_abs="4.636200" NOx_abs="116.644320" fuel_abs="135.483026" electricity_abs="0"
            CO_normed="42.972498" CO2_normed="6757.771539" HC_normed="0.346561" PMx_normed="0.099404" NOx_normed="2.500950" fuel_normed="2.904868" electricity_normed="0"
            traveltime="0.56" CO_perVeh="8.034872" CO2_perVeh="1263.548362" HC_perVeh="0.064799" PMx_perVeh="0.018586" NOx_perVeh="0.467620" fuel_perVeh="0.543144" electricity_perVeh="0"/>
        <edge id=":12_0" sampledSeconds="586.85" CO_abs="54354.651963" CO2_abs="3092293.165039" HC_abs="320.941742" PMx_abs="60.574626" NOx_abs="1317.268314" fuel_abs="1329.239779" electricity_abs="0"
            CO_normed="509.215229" CO2_normed="28969.788509" HC_normed="3.006705" PMx_normed="0.567486" NOx_normed="12.340675" fuel_normed="12.452828" electricity_normed="0"
            traveltime="2.11" CO_perVeh="195.471042" CO2_perVeh="11120.552612" HC_perVeh="1.154176" PMx_perVeh="0.217839" NOx_perVeh="4.737181" fuel_perVeh="4.780233" electricity_perVeh="0"/>
        <edge id=":12_1" sampledSeconds="56.38" CO_abs="990.101654" CO2_abs="86514.422926" HC_abs="6.482827" PMx_abs="1.148818" NOx_abs="32.738023" fuel_abs="37.189157" electricity_abs="0"
            CO_normed="9.266450" CO2_normed="809.696231" HC_normed="0.060673" PMx_normed="0.010752" NOx_normed="0.306398" fuel_normed="0.348057" electricity_normed="0"
            traveltime="1.90" CO_perVeh="33.387611" CO2_perVeh="2917.387204" HC_perVeh="0.218610" PMx_perVeh="0.038740" NOx_perVeh="1.103972" fuel_perVeh="1.254070" electricity_perVeh="0"/>
        <edge id=":120_0" sampledSeconds="39.02" CO_abs="462.324358" CO2_abs="78879.784547" HC_abs="3.846560" PMx_abs="1.131123" NOx_abs="28.829738" fuel_abs="33.906962" electricity_abs="0"
            CO_normed="363.462546" CO2_normed="62012.409235" HC_normed="3.024025" PMx_normed="0.889247" NOx_normed="22.664888" fuel_normed="26.656417" electricity_normed="0"
            traveltime="0.02" CO_perVeh="0.177888" CO2_perVeh="30.350538" HC_perVeh="0.001480" PMx_perVeh="0.000435" NOx_perVeh="0.011093" fuel_perVeh="0.013046" electricity_perVeh="0"/>
        <edge id=":121_0" sampledSeconds="373.05" CO_abs="53118.369338" CO2_abs="1425766.689676" HC_abs="275.352238" PMx_abs="30.773640" NOx_abs="630.547343" fuel_abs="612.893069" electricity_abs="0"
            CO_normed="30370.708598" CO2_normed="815189.645326" HC_normed="157.434098" PMx_normed="17.594991" NOx_normed="360.518778" fuel_normed="350.424854" electricity_normed="0"
            traveltime="0.11" CO_perVeh="16.294955" CO2_perVeh="437.377950" HC_perVeh="0.084469" PMx_perVeh="0.009440" NOx_perVeh="0.193431" fuel_perVeh="0.188015" electricity_perVeh="0"/>
        <edge id=":122_0" sampledSeconds="134.72" CO_abs="1314.728861" CO2_abs="126691.288095" HC_abs="8.986587" PMx_abs="2.310971" NOx_abs="50.701250" fuel_abs="54.458669" electricity_abs="0"
            CO_normed="28.945397" CO2_normed="2789.266817" HC_normed="0.197851" PMx_normed="0.050879" NOx_normed="1.116251" fuel_normed="1.198976" electricity_normed="0"
            traveltime="0.54" CO_perVeh="5.228684" CO2_perVeh="503.851935" HC_perVeh="0.035740" PMx_perVeh="0.009191" NOx_perVeh="0.201639" fuel_perVeh="0.216582" electricity_perVeh="0"/>
        <edge id=":123_0" sampledSeconds="312.04" CO_abs="40769.291154" CO2_abs="2488708.492854" HC_abs="245.437887" PMx_abs="51.292547" NOx_abs="1069.289799" fuel_abs="1069.779809" electricity_abs="0"
            CO_normed="155.463199" CO2_normed="9490.049316" HC_normed="0.935914" PMx_normed="0.195591" NOx_normed="4.077461" fuel_normed="4.079330" electricity_normed="0"
            traveltime="4.25" CO_perVeh="555.198705" CO2_perVeh="33891.384740" HC_perVeh="3.342388" PMx_perVeh="0.698505" NOx_perVeh="14.561654" fuel_perVeh="14.568327" electricity_perVeh="0"/>
        <edge id=":123_1" sampledSeconds="0.00" CO_abs="0" CO2_abs="0" HC_abs="0" PMx_abs="0" NOx_abs="0" fuel_abs="0" electricity_abs="0"
            CO_normed="0" CO2_normed="0" HC_normed="0" PMx_normed="0" NOx_normed="0" fuel_normed="0" electricity_normed="0"/>
        <edge id=":123_2" sampledSeconds="265.62" CO_abs="35519.756792" CO2_abs="2174286.338807" HC_abs="214.002208" PMx_abs="44.950996" NOx_abs="934.965521" fuel_abs="934.624092" electricity_abs="0"
            CO_normed="136.744356" CO2_normed="8370.591827" HC_normed="0.823868" PMx_normed="0.173053" NOx_normed="3.599441" fuel_normed="3.598126" electricity_normed="0"
            traveltime="4.17" CO_perVeh="558.299749" CO2_perVeh="34175.445616" HC_perVeh="3.363688" PMx_perVeh="0.706540" NOx_perVeh="14.695794" fuel_perVeh="14.690427" electricity_perVeh="0"/>
        <edge id=":123_3" sampledSeconds="469.10" CO_abs="22486.027396" CO2_abs="2132865.567791" HC_abs="152.821004" PMx_abs="39.644455" NOx_abs="854.354170" fuel_abs="916.818847" electricity_abs="0"
            CO_normed="88.573000" CO2_normed="8401.408468" HC_normed="0.601966" PMx_normed="0.156160" NOx_normed="3.365322" fuel_normed="3.611371" electricity_normed="0"
            traveltime="2.81" CO_perVeh="134.587983" CO2_perVeh="12766.064465" HC_perVeh="0.914696" PMx_perVeh="0.237288" NOx_perVeh="5.113656" fuel_perVeh="5.487532" electricity_perVeh="0"/>
        <edge id=":123_5" sampledSeconds="0.00" CO_abs="0" CO2_abs="0" HC_abs="0" PMx_abs="0" NOx_abs="0" fuel_abs="0" electricity_abs="0"
            CO_normed="0" CO2_normed="0" HC_normed="0" PMx_normed="0" NOx_normed="0" fuel_normed="0" electricity_normed="0"/>
        <edge id=":123_6" sampledSeconds="194.89" CO_abs="9570.993269" CO2_abs="890091.152748" HC_abs="64.681233" PMx_abs="16.680459" NOx_abs="358.051087" fuel_abs="382.608324" electricity_abs="0"
            CO_normed="36.415563" CO2_normed="3386.604697" HC_normed="0.246098" PMx_normed="0.063466" NOx_normed="1.362307" fuel_normed="1.455742" electricity_normed="0"
            traveltime="2.92" CO_perVeh="143.186360" CO2_perVeh="13316.163640" HC_perVeh="0.967660" PMx_perVeh="0.249547" NOx_perVeh="5.356605" fuel_perVeh="5.723992" electricity_perVeh="0"/>
        <edge id=":124_0" sampledSeconds="118.74" CO_abs="4096.569336" CO2_abs="372683.481281" HC_abs="27.394689" PMx_abs="7.046580" NOx_abs="150.185723" fuel_abs="160.199076" electricity_abs="0"
            CO_normed="95.897967" CO2_normed="8724.272702" HC_normed="0.641291" PMx_normed="0.164956" NOx_normed="3.515748" fuel_normed="3.750154" electricity_normed="0"
            traveltime="0.46" CO_perVeh="15.949620" CO2_perVeh="1451.009184" HC_perVeh="0.106659" PMx_perVeh="0.027435" NOx_perVeh="0.584734" fuel_perVeh="0.623721" electricity_perVeh="0"/>
        <edge id=":125_0" sampledSeconds="141.07" CO_abs="5805.671160" CO2_abs="584335.878848" HC_abs="40.170121" PMx_abs="10.886627" NOx_abs="230.680763" fuel_abs="251.178580" electricity_abs="0"
            CO_normed="365.136551" CO2_normed="36750.684204" HC_normed="2.526423" PMx_normed="0.684694" NOx_normed="14.508224" fuel_normed="15.797395" electricity_normed="0"
            traveltime="0.16" CO_perVeh="6.648984" CO2_perVeh="669.214597" HC_perVeh="0.046005" PMx_perVeh="0.012468" NOx_perVeh="0.264189" fuel_perVeh="0.287664" electricity_perVeh="0"/>
        <edge id=":125_3" sampledSeconds="0.00" CO_abs="0" CO2_abs="0" HC_abs="0" PMx_abs="0" NOx_abs="0" fuel_abs="0" electricity_abs="0"
            CO_normed="0" CO2_normed="0" HC_normed="0" PMx_normed="0" NOx_normed="0" fuel_normed="0" electricity_normed="0"/>
        <edge id=":126_0" sampledSeconds="27.93" CO_abs="330.253355" CO2_abs="24515.718494" HC_abs="2.073214" PMx_abs="0.389049" NOx_abs="9.741346" fuel_abs="10.538286" electricity_abs="0"
            CO_normed="10.874687" CO2_normed="807.261302" HC_normed="0.068267" PMx_normed="0.012811" NOx_normed="0.320766" fuel_normed="0.347008" electricity_normed="0"
            traveltime="0.56" CO_perVeh="6.587878" CO2_perVeh="489.038402" HC_perVeh="0.041356" PMx_perVeh="0.007761" NOx_perVeh="0.194320" fuel_perVeh="0.210217" electricity_perVeh="0"/>
        <edge id=":126_1" sampledSeconds="80.85" CO_abs="1436.573044" CO2_abs="203352.371345" HC_abs="11.184810" PMx_abs="3.349791" NOx_abs="76.021063" fuel_abs="87.411946" electricity_abs="0"
            CO_normed="42.088745" CO2_normed="5957.821732" HC_normed="0.327693" PMx_normed="0.098142" NOx_normed="2.227267" fuel_normed="2.560997" electricity_normed="0"
            traveltime="0.35" CO_perVeh="6.216298" CO2_perVeh="879.940650" HC_perVeh="0.048399" PMx_perVeh="0.014495" NOx_perVeh="0.328956" fuel_perVeh="0.378247" electricity_perVeh="0"/>
        <edge id=":127_0" sampledSeconds="234.74" CO_abs="4694.766562" CO2_abs="643801.814032" HC_abs="36.334795" PMx_abs="10.798550" NOx_abs="241.618367" fuel_abs="276.741055" electricity_abs="0"
            CO_normed="108.554536" CO2_normed="14886.279459" HC_normed="0.840150" PMx_normed="0.249689" NOx_normed="5.586810" fuel_normed="6.398933" electricity_normed="0"
            traveltime="0.44" CO_perVeh="8.779327" CO2_perVeh="1203.924943" HC_perVeh="0.067947" PMx_perVeh="0.020194" NOx_perVeh="0.451832" fuel_perVeh="0.517512" electricity_perVeh="0"/>
        <edge id=":128_0" sampledSeconds="229.62" CO_abs="332.603221" CO2_abs="44578.728622" HC_abs="2.531551" PMx_abs="0.706904" NOx_abs="16.800388" fuel_abs="19.162396" electricity_abs="0"
            CO_normed="5.139666" CO2_normed="688.868212" HC_normed="0.039120" PMx_normed="0.010924" NOx_normed="0.259614" fuel_normed="0.296114" electricity_normed="0"
            traveltime="0.75" CO_perVeh="1.093388" CO2_perVeh="146.546508" HC_perVeh="0.008322" PMx_perVeh="0.002324" NOx_perVeh="0.055229" fuel_perVeh="0.062994" electricity_perVeh="0"/>
        <edge id=":128_1" sampledSeconds="141.91" CO_abs="145.051000" CO2_abs="21021.784653" HC_abs="1.141236" PMx_abs="0.260871" NOx_abs="7.663278" fuel_abs="9.036405" electricity_abs="0"
            CO_normed="2.315407" CO2_normed="335.564675" HC_normed="0.018217" PMx_normed="0.004164" NOx_normed="0.122327" fuel_normed="0.144246" electricity_normed="0"
            traveltime="0.85" CO_perVeh="0.869498" CO2_perVeh="126.013650" HC_perVeh="0.006841" PMx_perVeh="0.001564" NOx_perVeh="0.045937" fuel_perVeh="0.054168" electricity_perVeh="0"/>
        <edge id=":129_0" sampledSeconds="104.52" CO_abs="6127.713385" CO2_abs="540708.092216" HC_abs="40.702405" PMx_abs="10.276440" NOx_abs="219.838603" fuel_abs="232.424878" electricity_abs="0"
            CO_normed="142.737326" CO2_normed="12595.110464" HC_normed="0.948111" PMx_normed="0.239377" NOx_normed="5.120862" fuel_normed="5.414043" electricity_normed="0"
            traveltime="0.50" CO_perVeh="29.042145" CO2_perVeh="2562.672565" HC_perVeh="0.192908" PMx_perVeh="0.048705" NOx_perVeh="1.041920" fuel_perVeh="1.101572" electricity_perVeh="0"/>
        <edge id=":13_0" sampledSeconds="60.06" CO_abs="5337.700237" CO2_abs="378479.546382" HC_abs="33.351663" PMx_abs="7.349625" NOx_abs="158.808169" fuel_abs="162.690764" electricity_abs="0"
            CO_normed="37.733730" CO2_normed="2675.580186" HC_normed="0.235772" PMx_normed="0.051957" NOx_normed="1.122660" fuel_normed="1.150108" electricity_normed="0"
            traveltime="2.12" CO_perVeh="188.803037" CO2_perVeh="13387.429884" HC_perVeh="1.179702" PMx_perVeh="0.259968" NOx_perVeh="5.617300" fuel_perVeh="5.754634" electricity_perVeh="0"/>
        <edge id=":13_1" sampledSeconds="535.65" CO_abs="13610.820251" CO2_abs="1031564.384424" HC_abs="85.683057" PMx_abs="15.005222" NOx_abs="400.969944" fuel_abs="443.428394" electricity_abs="0"
            CO_normed="135.590248" CO2_normed="10276.388042" HC_normed="0.853570" PMx_normed="0.149481" NOx_normed="3.994441" fuel_normed="4.417409" electricity_normed="0"
            traveltime="1.87" CO_perVeh="47.518610" CO2_perVeh="3601.436576" HC_perVeh="0.299140" PMx_perVeh="0.052387" NOx_perVeh="1.399881" fuel_perVeh="1.548114" electricity_perVeh="0"/>
        <edge id=":132_0" sampledSeconds="41.24" CO_abs="468.228222" CO2_abs="86034.872671" HC_abs="3.993584" PMx_abs="1.180432" NOx_abs="31.187647" fuel_abs="36.982658" electricity_abs="0"
            CO_normed="883.449476" CO2_normed="162329.948436" HC_normed="7.535064" PMx_normed="2.227230" NOx_normed="58.844617" fuel_normed="69.778599" electricity_normed="0"
            traveltime="6.393638e-03" CO_perVeh="0.072589" CO2_perVeh="13.337907" HC_perVeh="0.000619" PMx_perVeh="0.000183" NOx_perVeh="0.004835" fuel_perVeh="0.005733" electricity_perVeh="0"/>