<?xml version="1.0" encoding="UTF-8"?>

<!-- generated on Tue Nov 10 04:53:39 2020 by Eclipse SUMO sumo Version 1.7.0
<configuration xmlns:xsi="http://www.w3.org/2001/XMLSchema-instance" xsi:noNamespaceSchemaLocation="http://sumo.dlr.de/xsd/sumoConfiguration.xsd">

    <input>
        <net-file value="../dataSets/Porto/8AM9AM_Routing_SaoBento/Porto.net.xml"/>
        <route-files value="../results/Porto/8AM9AM_Routing_SaoBento/cost_PMx-ttime/solution6/Porto.rou.xml"/>
        <additional-files value="moreOutputInfo.xml"/>
    </input>

    <output>
        <emission-output.precision value="6"/>
        <tripinfo-output value="../results/Porto/8AM9AM_Routing_SaoBento/cost_PMx-ttime/solution6/Porto-tripinfo"/>
    </output>

    <processing>
        <collision.action value="warn"/>
        <time-to-teleport value="-1"/>
    </processing>

    <emissions>
        <device.emissions.probability value="1"/>
    </emissions>

    <gui_only>
        <quit-on-end value="true"/>
        <start value="true"/>
    </gui_only>

</configuration>
-->

<meandata xmlns:xsi="http://www.w3.org/2001/XMLSchema-instance" xsi:noNamespaceSchemaLocation="http://sumo.dlr.de/xsd/meandata_file.xsd">
    <interval begin="0.00" end="8561.00" id="emissions-detector">
        <edge id=":1092997347_0" sampledSeconds="595.60" CO_abs="72778.297050" CO2_abs="3112344.437822" HC_abs="405.026055" PMx_abs="62.989878" NOx_abs="1346.905804" fuel_abs="1337.870470" electricity_abs="0"
            CO_normed="69554.817667" CO2_normed="2974493.202833" HC_normed="387.086735" PMx_normed="60.199945" NOx_normed="1287.248966" fuel_normed="1278.613822" electricity_normed="0"
            traveltime="0.07" CO_perVeh="8.333879" CO2_perVeh="356.396097" HC_perVeh="0.046380" PMx_perVeh="0.007213" NOx_perVeh="0.154235" fuel_perVeh="0.153200" electricity_perVeh="0"/>
        <edge id=":1103427051_0" sampledSeconds="19.35" CO_abs="1633.926268" CO2_abs="91996.166767" HC_abs="9.623192" PMx_abs="1.800080" NOx_abs="39.226850" fuel_abs="39.545087" electricity_abs="0"
            CO_normed="2369.258572" CO2_normed="133398.128789" HC_normed="13.954015" PMx_normed="2.610189" NOx_normed="56.880505" fuel_normed="57.341961" electricity_normed="0"
            traveltime="0.03" CO_perVeh="2.540962" CO2_perVeh="143.065682" HC_perVeh="0.014965" PMx_perVeh="0.002799" NOx_perVeh="0.061003" fuel_perVeh="0.061498" electricity_perVeh="0"/>
        <edge id=":1105984386_0" sampledSeconds="10.58" CO_abs="288.475914" CO2_abs="20394.058735" HC_abs="1.777930" PMx_abs="0.279505" NOx_abs="7.843886" fuel_abs="8.766633" electricity_abs="0"
            CO_normed="12.493046" CO2_normed="883.206872" HC_normed="0.076997" PMx_normed="0.012105" NOx_normed="0.339696" fuel_normed="0.379657" electricity_normed="0"
            traveltime="1.02" CO_perVeh="27.673396" CO2_perVeh="1956.395083" HC_perVeh="0.170556" PMx_perVeh="0.026813" NOx_perVeh="0.752461" fuel_perVeh="0.840980" electricity_perVeh="0"/>
        <edge id=":1105984390_0" sampledSeconds="10.34" CO_abs="0" CO2_abs="0" HC_abs="0" PMx_abs="0" NOx_abs="0" fuel_abs="0" electricity_abs="0"
            CO_normed="0" CO2_normed="0" HC_normed="0" PMx_normed="0" NOx_normed="0" fuel_normed="0" electricity_normed="0"
            traveltime="1.07" CO_perVeh="0" CO2_perVeh="0" HC_perVeh="0" PMx_perVeh="0" NOx_perVeh="0" fuel_perVeh="0" electricity_perVeh="0"/>
        <edge id=":1105984390_1" sampledSeconds="2395.79" CO_abs="60536.154317" CO2_abs="7271947.210073" HC_abs="448.812135" PMx_abs="130.892812" NOx_abs="2760.465426" fuel_abs="3125.874625" electricity_abs="0"
            CO_normed="1938.778101" CO2_normed="232897.054063" HC_normed="14.374008" PMx_normed="4.192075" NOx_normed="88.408819" fuel_normed="100.111699" electricity_normed="0"
            traveltime="0.65" CO_perVeh="16.344439" CO2_perVeh="1963.386996" HC_perVeh="0.121177" PMx_perVeh="0.035340" NOx_perVeh="0.745311" fuel_perVeh="0.843969" electricity_perVeh="0"/>
        <edge id=":1105984395_0" sampledSeconds="4.17" CO_abs="75.577080" CO2_abs="5424.812555" HC_abs="0.466095" PMx_abs="0.066023" NOx_abs="2.032204" fuel_abs="2.331933" electricity_abs="0"
            CO_normed="34.544609" CO2_normed="2479.561662" HC_normed="0.213042" PMx_normed="0.030178" NOx_normed="0.928876" fuel_normed="1.065875" electricity_normed="0"
            traveltime="0.10" CO_perVeh="1.751850" CO2_perVeh="125.745214" HC_perVeh="0.010804" PMx_perVeh="0.001530" NOx_perVeh="0.047106" fuel_perVeh="0.054053" electricity_perVeh="0"/>
        <edge id=":1105984398_0" sampledSeconds="10.96" CO_abs="750.473956" CO2_abs="50344.004017" HC_abs="4.599380" PMx_abs="0.883376" NOx_abs="20.634751" fuel_abs="21.640713" electricity_abs="0"
            CO_normed="26.102814" CO2_normed="1751.053665" HC_normed="0.159975" PMx_normed="0.030725" NOx_normed="0.717713" fuel_normed="0.752702" electricity_normed="0"
            traveltime="1.15" CO_perVeh="78.747439" CO2_perVeh="5282.610192" HC_perVeh="0.482614" PMx_perVeh="0.092693" NOx_perVeh="2.165210" fuel_perVeh="2.270766" electricity_perVeh="0"/>
        <edge id=":1105984398_1" sampledSeconds="648.16" CO_abs="11833.638887" CO2_abs="1380112.354751" HC_abs="85.662629" PMx_abs="19.856476" NOx_abs="522.513662" fuel_abs="593.251398" electricity_abs="0"
            CO_normed="398.413346" CO2_normed="46465.435188" HC_normed="2.884078" PMx_normed="0.668525" NOx_normed="17.591919" fuel_normed="19.973507" electricity_normed="0"
            traveltime="0.95" CO_perVeh="17.424670" CO2_perVeh="2032.173122" HC_perVeh="0.126136" PMx_perVeh="0.029238" NOx_perVeh="0.769385" fuel_perVeh="0.873544" electricity_perVeh="0"/>
        <edge id=":1106006327_0" sampledSeconds="67.01" CO_abs="9074.947714" CO2_abs="296321.985732" HC_abs="48.300115" PMx_abs="6.188837" NOx_abs="129.753750" fuel_abs="127.378301" electricity_abs="0"
            CO_normed="430.713430" CO2_normed="14063.977313" HC_normed="2.292411" PMx_normed="0.293733" NOx_normed="6.158348" fuel_normed="6.045605" electricity_normed="0"
            traveltime="2.08" CO_perVeh="281.319886" CO2_perVeh="9185.867512" HC_perVeh="1.497285" PMx_perVeh="0.191852" NOx_perVeh="4.022316" fuel_perVeh="3.948678" electricity_perVeh="0"/>
        <edge id=":1106006327_1" sampledSeconds="680.74" CO_abs="92098.546549" CO2_abs="3083855.003141" HC_abs="492.042493" PMx_abs="64.319353" NOx_abs="1349.580743" fuel_abs="1325.637928" electricity_abs="0"
            CO_normed="3811.861145" CO2_normed="127637.487288" HC_normed="20.365117" PMx_normed="2.662110" NOx_normed="55.857715" fuel_normed="54.866748" electricity_normed="0"
            traveltime="2.29" CO_perVeh="309.152529" CO2_perVeh="10351.754809" HC_perVeh="1.651668" PMx_perVeh="0.215904" NOx_perVeh="4.530216" fuel_perVeh="4.449846" electricity_perVeh="0"/>
        <edge id=":1106006327_2" sampledSeconds="0.00" CO_abs="0" CO2_abs="0" HC_abs="0" PMx_abs="0" NOx_abs="0" fuel_abs="0" electricity_abs="0"
            CO_normed="0" CO2_normed="0" HC_normed="0" PMx_normed="0" NOx_normed="0" fuel_normed="0" electricity_normed="0"/>
        <edge id=":1106006327_3" sampledSeconds="0.00" CO_abs="0" CO2_abs="0" HC_abs="0" PMx_abs="0" NOx_abs="0" fuel_abs="0" electricity_abs="0"
            CO_normed="0" CO2_normed="0" HC_normed="0" PMx_normed="0" NOx_normed="0" fuel_normed="0" electricity_normed="0"/>
        <edge id=":1107381198_0" sampledSeconds="0.00" CO_abs="0" CO2_abs="0" HC_abs="0" PMx_abs="0" NOx_abs="0" fuel_abs="0" electricity_abs="0"
            CO_normed="0" CO2_normed="0" HC_normed="0" PMx_normed="0" NOx_normed="0" fuel_normed="0" electricity_normed="0"/>
        <edge id=":1107381198_1" sampledSeconds="102.73" CO_abs="4648.141434" CO2_abs="182873.848714" HC_abs="25.381604" PMx_abs="3.201183" NOx_abs="76.055986" fuel_abs="78.611107" electricity_abs="0"
            CO_normed="213.151308" CO2_normed="8386.104562" HC_normed="1.163932" PMx_normed="0.146798" NOx_normed="3.487724" fuel_normed="3.604895" electricity_normed="0"
            traveltime="1.54" CO_perVeh="69.591590" CO2_perVeh="2737.972167" HC_perVeh="0.380011" PMx_perVeh="0.047928" NOx_perVeh="1.138704" fuel_perVeh="1.176959" electricity_perVeh="0"/>
        <edge id=":1110338277_0" sampledSeconds="159.66" CO_abs="2789.385605" CO2_abs="323801.616919" HC_abs="20.107452" PMx_abs="4.577132" NOx_abs="122.202411" fuel_abs="139.188611" electricity_abs="0"
            CO_normed="4189.175238" CO2_normed="486294.083179" HC_normed="30.197919" PMx_normed="6.874062" NOx_normed="183.526908" fuel_normed="209.037245" electricity_normed="0"
            traveltime="0.02" CO_perVeh="0.378471" CO2_perVeh="43.934264" HC_perVeh="0.002728" PMx_perVeh="0.000621" NOx_perVeh="0.016581" fuel_perVeh="0.018885" electricity_perVeh="0"/>
        <edge id=":1110338293_0" sampledSeconds="6424.32" CO_abs="600270.213342" CO2_abs="10541658.207667" HC_abs="2979.879820" PMx_abs="251.310271" NOx_abs="4763.624780" fuel_abs="4531.679992" electricity_abs="0"
            CO_normed="841402.004451" CO2_normed="14776299.321574" HC_normed="4176.913660" PMx_normed="352.262966" NOx_normed="6677.198618" fuel_normed="6352.080354" electricity_normed="0"
            traveltime="0.43" CO_perVeh="40.195886" CO2_perVeh="705.900909" HC_perVeh="0.199542" PMx_perVeh="0.016828" NOx_perVeh="0.318987" fuel_perVeh="0.303455" electricity_perVeh="0"/>
        <edge id=":1110338295_0" sampledSeconds="0.00" CO_abs="0" CO2_abs="0" HC_abs="0" PMx_abs="0" NOx_abs="0" fuel_abs="0" electricity_abs="0"
            CO_normed="0" CO2_normed="0" HC_normed="0" PMx_normed="0" NOx_normed="0" fuel_normed="0" electricity_normed="0"/>
        <edge id=":1110673403_0" sampledSeconds="200.38" CO_abs="3026.624054" CO2_abs="386125.622781" HC_abs="22.661356" PMx_abs="5.250360" NOx_abs="143.854326" fuel_abs="165.979192" electricity_abs="0"
            CO_normed="4242.435305" CO2_normed="541234.373714" HC_normed="31.764545" PMx_normed="7.359458" NOx_normed="201.641386" fuel_normed="232.653932" electricity_normed="0"
            traveltime="0.02" CO_perVeh="0.349804" CO2_perVeh="44.626762" HC_perVeh="0.002619" PMx_perVeh="0.000607" NOx_perVeh="0.016626" fuel_perVeh="0.019183" electricity_perVeh="0"/>
        <edge id=":1110673412_0" sampledSeconds="938.55" CO_abs="166406.009162" CO2_abs="11363977.317864" HC_abs="1035.845432" PMx_abs="249.745561" NOx_abs="4882.774829" fuel_abs="4884.814095" electricity_abs="0"
            CO_normed="241295.382421" CO2_normed="16478222.550664" HC_normed="1502.017391" PMx_normed="362.141073" NOx_normed="7080.219191" fuel_normed="7083.176209" electricity_normed="0"
            traveltime="0.02" CO_perVeh="2.747021" CO2_perVeh="187.595906" HC_perVeh="0.017100" PMx_perVeh="0.004123" NOx_perVeh="0.080605" fuel_perVeh="0.080638" electricity_perVeh="0"/>
        <edge id=":1110673414_0" sampledSeconds="0.00" CO_abs="0" CO2_abs="0" HC_abs="0" PMx_abs="0" NOx_abs="0" fuel_abs="0" electricity_abs="0"
            CO_normed="0" CO2_normed="0" HC_normed="0" PMx_normed="0" NOx_normed="0" fuel_normed="0" electricity_normed="0"/>
        <edge id=":1110673414_1" sampledSeconds="299.69" CO_abs="21247.566277" CO2_abs="817934.205577" HC_abs="115.755921" PMx_abs="15.156421" NOx_abs="345.640431" fuel_abs="351.600573" electricity_abs="0"
            CO_normed="989.462743" CO2_normed="38089.794005" HC_normed="5.390555" PMx_normed="0.705809" NOx_normed="16.095882" fuel_normed="16.373436" electricity_normed="0"
            traveltime="1.57" CO_perVeh="111.387822" CO2_perVeh="4287.922134" HC_perVeh="0.606837" PMx_perVeh="0.079456" NOx_perVeh="1.811979" fuel_perVeh="1.843224" electricity_perVeh="0"/>
        <edge id=":1110673417_0" sampledSeconds="28.99" CO_abs="472.535030" CO2_abs="56738.709886" HC_abs="3.440101" PMx_abs="0.771318" NOx_abs="21.200362" fuel_abs="24.389604" electricity_abs="0"
            CO_normed="709.665972" CO2_normed="85211.739112" HC_normed="5.166437" PMx_normed="1.158386" NOx_normed="31.839281" fuel_normed="36.628971" electricity_normed="0"
            traveltime="0.02" CO_perVeh="0.360331" CO2_perVeh="43.265990" HC_perVeh="0.002623" PMx_perVeh="0.000588" NOx_perVeh="0.016166" fuel_perVeh="0.018598" electricity_perVeh="0"/>
        <edge id=":1110673446_0" sampledSeconds="1311.05" CO_abs="14929.854873" CO2_abs="1194997.317543" HC_abs="96.340728" PMx_abs="22.045174" NOx_abs="489.963872" fuel_abs="513.674321" electricity_abs="0"
            CO_normed="20927.258320" CO2_normed="1675034.202840" HC_normed="135.041320" PMx_normed="30.900839" NOx_normed="686.785010" fuel_normed="720.020073" electricity_normed="0"
            traveltime="0.02" CO_perVeh="0.259217" CO2_perVeh="20.747960" HC_perVeh="0.001673" PMx_perVeh="0.000383" NOx_perVeh="0.008507" fuel_perVeh="0.008919" electricity_perVeh="0"/>
        <edge id=":1110673451_0" sampledSeconds="36.64" CO_abs="388.944614" CO2_abs="27955.978408" HC_abs="2.413910" PMx_abs="0.413276" NOx_abs="10.926847" fuel_abs="12.017166" electricity_abs="0"
            CO_normed="605.761966" CO2_normed="43540.051253" HC_normed="3.759545" PMx_normed="0.643657" NOx_normed="17.018023" fuel_normed="18.716140" electricity_normed="0"
            traveltime="0.03" CO_perVeh="0.286566" CO2_perVeh="20.597375" HC_perVeh="0.001779" PMx_perVeh="0.000304" NOx_perVeh="0.008051" fuel_perVeh="0.008854" electricity_perVeh="0"/>
        <edge id=":1110673464_0" sampledSeconds="1031.80" CO_abs="4277.199838" CO2_abs="304243.779192" HC_abs="26.484828" PMx_abs="4.579189" NOx_abs="119.568140" fuel_abs="130.782226" electricity_abs="0"
            CO_normed="127.380470" CO2_normed="9060.768075" HC_normed="0.788752" PMx_normed="0.136374" NOx_normed="3.560892" fuel_normed="3.894862" electricity_normed="0"
            traveltime="1.22" CO_perVeh="5.072163" CO2_perVeh="360.790750" HC_perVeh="0.031407" PMx_perVeh="0.005430" NOx_perVeh="0.141791" fuel_perVeh="0.155090" electricity_perVeh="0"/>
        <edge id=":1110673464_1" sampledSeconds="2597.18" CO_abs="63779.671110" CO2_abs="7822488.290109" HC_abs="476.875697" PMx_abs="139.646657" NOx_abs="2962.528855" fuel_abs="3362.527470" electricity_abs="0"
            CO_normed="1861.213947" CO2_normed="228275.311774" HC_normed="13.916154" PMx_normed="4.075159" NOx_normed="86.452312" fuel_normed="98.125044" electricity_normed="0"
            traveltime="0.72" CO_perVeh="17.582602" CO2_perVeh="2156.481771" HC_perVeh="0.131464" PMx_perVeh="0.038497" NOx_perVeh="0.816702" fuel_perVeh="0.926972" electricity_perVeh="0"/>
        <edge id=":1110673479_0" sampledSeconds="134.43" CO_abs="6299.155682" CO2_abs="437710.100099" HC_abs="38.951220" PMx_abs="7.572165" NOx_abs="178.416769" fuel_abs="188.152673" electricity_abs="0"
            CO_normed="8829.560586" CO2_normed="613540.614553" HC_normed="54.598135" PMx_normed="10.613945" NOx_normed="250.087750" fuel_normed="263.734620" electricity_normed="0"
            traveltime="0.03" CO_perVeh="1.331698" CO2_perVeh="92.535873" HC_perVeh="0.008235" PMx_perVeh="0.001601" NOx_perVeh="0.037719" fuel_perVeh="0.039777" electricity_perVeh="0"/>
        <edge id=":1110673511_0" sampledSeconds="63.05" CO_abs="1100.443272" CO2_abs="119850.404194" HC_abs="7.756398" PMx_abs="1.647106" NOx_abs="45.147713" fuel_abs="51.518727" electricity_abs="0"
            CO_normed="1542.497286" CO2_normed="167994.959740" HC_normed="10.872185" PMx_normed="2.308757" NOx_normed="63.283794" fuel_normed="72.214078" electricity_normed="0"
            traveltime="0.02" CO_perVeh="0.421760" CO2_perVeh="45.934361" HC_perVeh="0.002973" PMx_perVeh="0.000631" NOx_perVeh="0.017303" fuel_perVeh="0.019745" electricity_perVeh="0"/>
        <edge id=":1110673517_0" sampledSeconds="182.54" CO_abs="8128.828480" CO2_abs="580906.281962" HC_abs="50.639922" PMx_abs="10.025462" NOx_abs="236.280318" fuel_abs="249.706403" electricity_abs="0"
            CO_normed="11394.222843" CO2_normed="814259.477111" HC_normed="70.982253" PMx_normed="14.052744" NOx_normed="331.195400" fuel_normed="350.014815" electricity_normed="0"
            traveltime="0.03" CO_perVeh="1.244589" CO2_perVeh="88.941454" HC_perVeh="0.007753" PMx_perVeh="0.001535" NOx_perVeh="0.036176" fuel_perVeh="0.038232" electricity_perVeh="0"/>
        <edge id=":1110673534_0" sampledSeconds="659.45" CO_abs="4927.958341" CO2_abs="408181.466229" HC_abs="31.780423" PMx_abs="5.615057" NOx_abs="155.993626" fuel_abs="175.461097" electricity_abs="0"
            CO_normed="133.867168" CO2_normed="11088.181565" HC_normed="0.863310" PMx_normed="0.152532" NOx_normed="4.237541" fuel_normed="4.766371" electricity_normed="0"
            traveltime="1.45" CO_perVeh="10.835853" CO2_perVeh="897.530827" HC_perVeh="0.069880" PMx_perVeh="0.012347" NOx_perVeh="0.343007" fuel_perVeh="0.385813" electricity_perVeh="0"/>
        <edge id=":1110673534_1" sampledSeconds="264.24" CO_abs="4150.353474" CO2_abs="537908.428539" HC_abs="31.126191" PMx_abs="7.130355" NOx_abs="199.135539" fuel_abs="231.224459" electricity_abs="0"
            CO_normed="109.627630" CO2_normed="14208.338318" HC_normed="0.822169" PMx_normed="0.188342" NOx_normed="5.259975" fuel_normed="6.107574" electricity_normed="0"
            traveltime="1.23" CO_perVeh="19.256599" CO2_perVeh="2495.760162" HC_perVeh="0.144418" PMx_perVeh="0.033083" NOx_perVeh="0.923939" fuel_perVeh="1.072823" electricity_perVeh="0"/>
        <edge id=":1110673549_0" sampledSeconds="650.87" CO_abs="1479.668402" CO2_abs="135825.656377" HC_abs="9.862715" PMx_abs="1.929772" NOx_abs="51.551290" fuel_abs="58.385933" electricity_abs="0"
            CO_normed="38.937282" CO2_normed="3574.234489" HC_normed="0.259536" PMx_normed="0.050782" NOx_normed="1.356565" fuel_normed="1.536418" electricity_normed="0"
            traveltime="1.29" CO_perVeh="2.939748" CO2_perVeh="269.853192" HC_perVeh="0.019595" PMx_perVeh="0.003834" NOx_perVeh="0.102420" fuel_perVeh="0.115999" electricity_perVeh="0"/>
        <edge id=":1110673549_1" sampledSeconds="3197.78" CO_abs="71428.361598" CO2_abs="9237247.003467" HC_abs="546.134183" PMx_abs="163.158827" NOx_abs="3462.695234" fuel_abs="3970.669071" electricity_abs="0"
            CO_normed="1818.187423" CO2_normed="235131.339263" HC_normed="13.901681" PMx_normed="4.153159" NOx_normed="88.141864" fuel_normed="101.072185" electricity_normed="0"
            traveltime="0.81" CO_perVeh="18.018527" CO2_perVeh="2330.189063" HC_perVeh="0.137768" PMx_perVeh="0.041158" NOx_perVeh="0.873500" fuel_perVeh="1.001641" electricity_perVeh="0"/>
        <edge id=":1110673556_0" sampledSeconds="466.82" CO_abs="58361.466094" CO2_abs="2799817.104562" HC_abs="332.294555" PMx_abs="56.862344" NOx_abs="1209.390122" fuel_abs="1203.521646" electricity_abs="0"
            CO_normed="1138.824817" CO2_normed="54633.672077" HC_normed="6.484163" PMx_normed="1.109572" NOx_normed="23.599193" fuel_normed="23.484679" electricity_normed="0"
            traveltime="2.75" CO_perVeh="344.035231" CO2_perVeh="16504.652626" HC_perVeh="1.958844" PMx_perVeh="0.335198" NOx_perVeh="7.129238" fuel_perVeh="7.094644" electricity_perVeh="0"/>
        <edge id=":1110673556_2" sampledSeconds="175.56" CO_abs="17408.430105" CO2_abs="743356.132731" HC_abs="96.741864" PMx_abs="14.454153" NOx_abs="317.789597" fuel_abs="319.539545" electricity_abs="0"
            CO_normed="355.189092" CO2_normed="15166.904098" HC_normed="1.973851" PMx_normed="0.294912" NOx_normed="6.483950" fuel_normed="6.519655" electricity_normed="0"
            traveltime="3.04" CO_perVeh="301.016632" CO2_perVeh="12853.689757" HC_perVeh="1.672805" PMx_perVeh="0.249933" NOx_perVeh="5.495036" fuel_perVeh="5.525295" electricity_perVeh="0"/>
        <edge id=":1110673556_3" sampledSeconds="193.53" CO_abs="20271.822861" CO2_abs="685094.945027" HC_abs="108.327561" PMx_abs="13.629964" NOx_abs="295.773321" fuel_abs="294.498406" electricity_abs="0"
            CO_normed="940.898137" CO2_normed="31798.055947" HC_normed="5.027925" PMx_normed="0.632622" NOx_normed="13.728048" fuel_normed="13.668874" electricity_normed="0"
            traveltime="1.89" CO_perVeh="198.496347" CO2_perVeh="6708.269156" HC_perVeh="1.060715" PMx_perVeh="0.133461" NOx_perVeh="2.896134" fuel_perVeh="2.883651" electricity_perVeh="0"/>
        <edge id=":1110673556_4" sampledSeconds="27.13" CO_abs="2956.838955" CO2_abs="112289.406876" HC_abs="16.100748" PMx_abs="2.228967" NOx_abs="48.388904" fuel_abs="48.268998" electricity_abs="0"
            CO_normed="83.842559" CO2_normed="3184.018926" HC_normed="0.456544" PMx_normed="0.063203" NOx_normed="1.372090" fuel_normed="1.368690" electricity_normed="0"
            traveltime="2.57" CO_perVeh="279.940767" CO2_perVeh="10631.077017" HC_perVeh="1.524349" PMx_perVeh="0.211029" NOx_perVeh="4.581253" fuel_perVeh="4.569901" electricity_perVeh="0"/>
        <edge id=":1110673556_5" sampledSeconds="23.10" CO_abs="1525.618880" CO2_abs="64941.278862" HC_abs="8.452956" PMx_abs="1.159244" NOx_abs="27.112438" fuel_abs="27.915860" electricity_abs="0"
            CO_normed="60.295157" CO2_normed="2566.594224" HC_normed="0.334076" PMx_normed="0.045815" NOx_normed="1.071532" fuel_normed="1.103284" electricity_normed="0"
            traveltime="1.60" CO_perVeh="105.474886" CO2_perVeh="4489.767428" HC_perVeh="0.584402" PMx_perVeh="0.080145" NOx_perVeh="1.874440" fuel_perVeh="1.929985" electricity_perVeh="0"/>
        <edge id=":1110673556_6" sampledSeconds="213.19" CO_abs="25832.555497" CO2_abs="1302607.552156" HC_abs="148.619027" PMx_abs="26.344042" NOx_abs="561.197235" fuel_abs="559.934402" electricity_abs="0"
            CO_normed="516.788289" CO2_normed="26059.068278" HC_normed="2.973170" PMx_normed="0.527021" NOx_normed="11.226925" fuel_normed="11.201661" electricity_normed="0"
            traveltime="2.48" CO_perVeh="301.014644" CO2_perVeh="15178.674398" HC_perVeh="1.731788" PMx_perVeh="0.306975" NOx_perVeh="6.539368" fuel_perVeh="6.524653" electricity_perVeh="0"/>
        <edge id=":1110673561_0" sampledSeconds="103.06" CO_abs="10140.046960" CO2_abs="723416.265901" HC_abs="63.574986" PMx_abs="14.546355" NOx_abs="305.776220" fuel_abs="310.962314" electricity_abs="0"
            CO_normed="254.871943" CO2_normed="18183.200699" HC_normed="1.597969" PMx_normed="0.365625" NOx_normed="7.685741" fuel_normed="7.816095" electricity_normed="0"
            traveltime="1.22" CO_perVeh="119.662396" CO2_perVeh="8537.014085" HC_perVeh="0.750247" PMx_perVeh="0.171661" NOx_perVeh="3.608456" fuel_perVeh="3.669657" electricity_perVeh="0"/>
        <edge id=":1110673561_1" sampledSeconds="5185.16" CO_abs="486585.631794" CO2_abs="33710485.017167" HC_abs="3031.307870" PMx_abs="704.729506" NOx_abs="14412.758560" fuel_abs="14490.509312" electricity_abs="0"
            CO_normed="11923.946008" CO2_normed="826086.873482" HC_normed="74.283228" PMx_normed="17.269636" NOx_normed="353.189539" fuel_normed="355.094847" electricity_normed="0"
            traveltime="1.19" CO_perVeh="111.730058" CO2_perVeh="7740.619956" HC_perVeh="0.696051" PMx_perVeh="0.161820" NOx_perVeh="3.309465" fuel_perVeh="3.327319" electricity_perVeh="0"/>
        <edge id=":1110673562_0" sampledSeconds="300.03" CO_abs="6951.691380" CO2_abs="527944.066975" HC_abs="43.726991" PMx_abs="7.368129" NOx_abs="203.231615" fuel_abs="226.942562" electricity_abs="0"
            CO_normed="10826.914893" CO2_normed="822246.726589" HC_normed="68.102622" PMx_normed="11.475495" NOx_normed="316.523171" fuel_normed="353.451796" electricity_normed="0"
            traveltime="0.03" CO_perVeh="0.623161" CO2_perVeh="47.325788" HC_perVeh="0.003920" PMx_perVeh="0.000660" NOx_perVeh="0.018218" fuel_perVeh="0.020344" electricity_perVeh="0"/>
        <edge id=":1110673564_0" sampledSeconds="27.92" CO_abs="472.486019" CO2_abs="53912.422065" HC_abs="3.400683" PMx_abs="0.763789" NOx_abs="20.367101" fuel_abs="23.174675" electricity_abs="0"
            CO_normed="1986.858624" CO2_normed="226708.000742" HC_normed="14.300267" PMx_normed="3.211821" NOx_normed="85.646028" fuel_normed="97.452201" electricity_normed="0"
            traveltime="7.885685e-03" CO_perVeh="0.133452" CO2_perVeh="15.227347" HC_perVeh="0.000961" PMx_perVeh="0.000216" NOx_perVeh="0.005753" fuel_perVeh="0.006546" electricity_perVeh="0"/>
        <edge id=":1110673588_0" sampledSeconds="62.62" CO_abs="1186.299659" CO2_abs="130893.780860" HC_abs="8.400345" PMx_abs="1.799968" NOx_abs="49.254723" fuel_abs="56.265808" electricity_abs="0"
            CO_normed="1995.411177" CO2_normed="220169.424644" HC_normed="14.129771" PMx_normed="3.027630" NOx_normed="82.848734" fuel_normed="94.641705" electricity_normed="0"
            traveltime="0.02" CO_perVeh="0.382677" CO2_perVeh="42.223800" HC_perVeh="0.002710" PMx_perVeh="0.000581" NOx_perVeh="0.015889" fuel_perVeh="0.018150" electricity_perVeh="0"/>
        <edge id=":1110673601_0" sampledSeconds="28.96" CO_abs="512.374253" CO2_abs="55467.293538" HC_abs="3.606626" PMx_abs="0.809231" NOx_abs="21.140983" fuel_abs="23.843029" electricity_abs="0"
            CO_normed="769.497602" CO2_normed="83302.291428" HC_normed="5.416529" PMx_normed="1.215326" NOx_normed="31.750104" fuel_normed="35.808110" electricity_normed="0"
            traveltime="0.02" CO_perVeh="0.390710" CO2_perVeh="42.296474" HC_perVeh="0.002750" PMx_perVeh="0.000617" NOx_perVeh="0.016121" fuel_perVeh="0.018181" electricity_perVeh="0"/>
        <edge id=":1110673617_0" sampledSeconds="852.48" CO_abs="32850.698192" CO2_abs="3284888.362492" HC_abs="228.352563" PMx_abs="62.256954" NOx_abs="1291.585430" fuel_abs="1412.019440" electricity_abs="0"
            CO_normed="46047.001320" CO2_normed="4604445.783192" HC_normed="320.083023" PMx_normed="87.265909" NOx_normed="1810.422283" fuel_normed="1979.235285" electricity_normed="0"
            traveltime="0.02" CO_perVeh="0.581712" CO2_perVeh="58.167999" HC_perVeh="0.004044" PMx_perVeh="0.001102" NOx_perVeh="0.022871" fuel_perVeh="0.025004" electricity_perVeh="0"/>
        <edge id=":1110673621_0" sampledSeconds="26.56" CO_abs="592.994005" CO2_abs="62627.350618" HC_abs="4.144730" PMx_abs="0.883080" NOx_abs="23.762277" fuel_abs="26.920885" electricity_abs="0"
            CO_normed="997.443484" CO2_normed="105342.115279" HC_normed="6.971628" PMx_normed="1.485382" NOx_normed="39.969254" fuel_normed="45.282180" electricity_normed="0"
            traveltime="0.02" CO_perVeh="0.449238" CO2_perVeh="47.444963" HC_perVeh="0.003140" PMx_perVeh="0.000669" NOx_perVeh="0.018002" fuel_perVeh="0.020395" electricity_perVeh="0"/>
        <edge id=":1110673630_0" sampledSeconds="286.50" CO_abs="1463.712767" CO2_abs="127582.691405" HC_abs="9.584692" PMx_abs="1.733487" NOx_abs="48.496097" fuel_abs="54.842742" electricity_abs="0"
            CO_normed="43.902156" CO2_normed="3826.676502" HC_normed="0.287480" PMx_normed="0.051994" NOx_normed="1.454577" fuel_normed="1.644937" electricity_normed="0"
            traveltime="1.29" CO_perVeh="6.586148" CO2_perVeh="574.073385" HC_perVeh="0.043127" PMx_perVeh="0.007800" NOx_perVeh="0.218214" fuel_perVeh="0.246771" electricity_perVeh="0"/>
        <edge id=":1110673630_1" sampledSeconds="336.51" CO_abs="1164.282345" CO2_abs="98688.894524" HC_abs="7.540263" PMx_abs="1.249700" NOx_abs="37.001494" fuel_abs="42.422603" electricity_abs="0"
            CO_normed="42.573414" CO2_normed="3608.680622" HC_normed="0.275719" PMx_normed="0.045697" NOx_normed="1.353005" fuel_normed="1.551235" electricity_normed="0"
            traveltime="1.07" CO_perVeh="3.711510" CO2_perVeh="314.601339" HC_perVeh="0.024037" PMx_perVeh="0.003984" NOx_perVeh="0.117954" fuel_perVeh="0.135235" electricity_perVeh="0"/>
        <edge id=":1110673650_0" sampledSeconds="199.65" CO_abs="3387.005814" CO2_abs="412225.205341" HC_abs="24.867628" PMx_abs="5.715875" NOx_abs="154.547091" fuel_abs="177.198236" electricity_abs="0"
            CO_normed="4747.584367" CO2_normed="577818.299742" HC_normed="34.857089" PMx_normed="8.011973" NOx_normed="216.629493" fuel_normed="248.379725" electricity_normed="0"
            traveltime="0.02" CO_perVeh="0.391456" CO2_perVeh="47.643241" HC_perVeh="0.002874" PMx_perVeh="0.000661" NOx_perVeh="0.017862" fuel_perVeh="0.020480" electricity_perVeh="0"/>
        <edge id=":1110673655_0" sampledSeconds="20.65" CO_abs="284.512856" CO2_abs="34098.776198" HC_abs="2.057125" PMx_abs="0.456727" NOx_abs="12.693552" fuel_abs="14.657650" electricity_abs="0"
            CO_normed="398.803209" CO2_normed="47796.439011" HC_normed="2.883483" PMx_normed="0.640197" NOx_normed="17.792620" fuel_normed="20.545707" electricity_normed="0"
            traveltime="0.02" CO_perVeh="0.325034" CO2_perVeh="38.955190" HC_perVeh="0.002350" PMx_perVeh="0.000522" NOx_perVeh="0.014501" fuel_perVeh="0.016745" electricity_perVeh="0"/>
        <edge id=":1110673663_0" sampledSeconds="111.17" CO_abs="1505.042680" CO2_abs="192258.932630" HC_abs="11.224897" PMx_abs="2.493320" NOx_abs="70.990047" fuel_abs="82.644206" electricity_abs="0"
            CO_normed="38.637847" CO2_normed="4935.721349" HC_normed="0.288168" PMx_normed="0.064009" NOx_normed="1.822475" fuel_normed="2.121664" electricity_normed="0"
            traveltime="1.31" CO_perVeh="17.677436" CO2_perVeh="2258.171863" HC_perVeh="0.131842" PMx_perVeh="0.029285" NOx_perVeh="0.833812" fuel_perVeh="0.970695" electricity_perVeh="0"/>
        <edge id=":1110673663_1" sampledSeconds="170.07" CO_abs="2805.485410" CO2_abs="343983.972479" HC_abs="20.608684" PMx_abs="4.643438" NOx_abs="128.213946" fuel_abs="147.864371" electricity_abs="0"
            CO_normed="72.111199" CO2_normed="8841.641710" HC_normed="0.529718" PMx_normed="0.119353" NOx_normed="3.295566" fuel_normed="3.800653" electricity_normed="0"
            traveltime="1.27" CO_perVeh="21.023740" CO2_perVeh="2577.746241" HC_perVeh="0.154437" PMx_perVeh="0.034797" NOx_perVeh="0.960809" fuel_perVeh="1.108066" electricity_perVeh="0"/>
        <edge id=":1110673666_0" sampledSeconds="274.43" CO_abs="5763.075920" CO2_abs="456074.482847" HC_abs="36.611995" PMx_abs="5.996202" NOx_abs="172.879852" fuel_abs="196.049019" electricity_abs="0"