<?xml version="1.0" encoding="UTF-8"?>

<!-- generated on Sun Nov  1 00:16:50 2020 by Eclipse SUMO sumo Version 1.7.0
<configuration xmlns:xsi="http://www.w3.org/2001/XMLSchema-instance" xsi:noNamespaceSchemaLocation="http://sumo.dlr.de/xsd/sumoConfiguration.xsd">

    <input>
        <net-file value="../dataSets/Porto/8AM9AM_Routing_SaoBento/Porto.net.xml"/>
        <route-files value="../results/Porto/8AM9AM_Routing_SaoBento_fewerv/cost_co-ttime/solution8/Porto.rou.xml"/>
        <additional-files value="moreOutputInfo.xml"/>
    </input>

    <output>
        <emission-output.precision value="6"/>
        <tripinfo-output value="../results/Porto/8AM9AM_Routing_SaoBento_fewerv/cost_co-ttime/solution8/Porto-tripinfo"/>
    </output>

    <processing>
        <collision.action value="warn"/>
        <time-to-teleport value="-1"/>
    </processing>

    <emissions>
        <device.emissions.probability value="1"/>
    </emissions>

    <gui_only>
        <quit-on-end value="true"/>
        <start value="true"/>
    </gui_only>

</configuration>
-->

<meandata xmlns:xsi="http://www.w3.org/2001/XMLSchema-instance" xsi:noNamespaceSchemaLocation="http://sumo.dlr.de/xsd/meandata_file.xsd">
    <interval begin="0.00" end="8752.00" id="emissions-detector">
        <edge id=":1092997347_0" sampledSeconds="596.55" CO_abs="72370.412022" CO2_abs="3074159.267871" HC_abs="402.232590" PMx_abs="62.129498" NOx_abs="1329.885388" fuel_abs="1321.456757" electricity_abs="0"
            CO_normed="67655.570488" CO2_normed="2873881.648957" HC_normed="376.027641" PMx_normed="58.081839" NOx_normed="1243.245023" fuel_normed="1235.365508" electricity_normed="0"
            traveltime="0.07" CO_perVeh="8.301031" CO2_perVeh="352.612234" HC_perVeh="0.046137" PMx_perVeh="0.007126" NOx_perVeh="0.152541" fuel_perVeh="0.151574" electricity_perVeh="0"/>
        <edge id=":1103427051_0" sampledSeconds="19.56" CO_abs="1622.917745" CO2_abs="90693.180218" HC_abs="9.540666" PMx_abs="1.768828" NOx_abs="38.633840" fuel_abs="38.985010" electricity_abs="0"
            CO_normed="2301.938426" CO2_normed="128638.754013" HC_normed="13.532433" PMx_normed="2.508896" NOx_normed="54.798046" fuel_normed="55.296143" electricity_normed="0"
            traveltime="0.03" CO_perVeh="2.523842" CO2_perVeh="141.039373" HC_perVeh="0.014837" PMx_perVeh="0.002751" NOx_perVeh="0.060081" fuel_perVeh="0.060627" electricity_perVeh="0"/>
        <edge id=":1105984386_0" sampledSeconds="10.57" CO_abs="300.585347" CO2_abs="21030.807978" HC_abs="1.849523" PMx_abs="0.299123" NOx_abs="8.162591" fuel_abs="9.040333" electricity_abs="0"
            CO_normed="12.733382" CO2_normed="890.906074" HC_normed="0.078349" PMx_normed="0.012671" NOx_normed="0.345783" fuel_normed="0.382966" electricity_normed="0"
            traveltime="1.01" CO_perVeh="28.835050" CO2_perVeh="2017.478220" HC_perVeh="0.177424" PMx_perVeh="0.028695" NOx_perVeh="0.783035" fuel_perVeh="0.867236" electricity_perVeh="0"/>
        <edge id=":1105984390_0" sampledSeconds="10.82" CO_abs="23.544688" CO2_abs="2170.490931" HC_abs="0.156306" PMx_abs="0.026313" NOx_abs="0.804773" fuel_abs="0.933012" electricity_abs="0"
            CO_normed="0.771078" CO2_normed="71.082637" HC_normed="0.005119" PMx_normed="0.000862" NOx_normed="0.026356" fuel_normed="0.030556" electricity_normed="0"
            traveltime="1.12" CO_perVeh="2.440549" CO2_perVeh="224.984452" HC_perVeh="0.016202" PMx_perVeh="0.002727" NOx_perVeh="0.083420" fuel_perVeh="0.096712" electricity_perVeh="0"/>
        <edge id=":1105984390_1" sampledSeconds="2398.02" CO_abs="63803.845361" CO2_abs="7563862.088147" HC_abs="471.343584" PMx_abs="136.731404" NOx_abs="2879.435166" fuel_abs="3251.354860" electricity_abs="0"
            CO_normed="1998.836722" CO2_normed="236959.468712" HC_normed="14.766177" PMx_normed="4.283500" NOx_normed="90.206487" fuel_normed="101.857928" electricity_normed="0"
            traveltime="0.65" CO_perVeh="17.229372" CO2_perVeh="2042.519462" HC_perVeh="0.127280" PMx_perVeh="0.036922" NOx_perVeh="0.777553" fuel_perVeh="0.877985" electricity_perVeh="0"/>
        <edge id=":1105984395_0" sampledSeconds="4.08" CO_abs="170.504005" CO2_abs="11648.681624" HC_abs="1.042002" PMx_abs="0.162994" NOx_abs="4.507706" fuel_abs="5.007326" electricity_abs="0"
            CO_normed="76.232814" CO2_normed="5208.157868" HC_normed="0.465882" PMx_normed="0.072875" NOx_normed="2.015408" fuel_normed="2.238789" electricity_normed="0"
            traveltime="0.09" CO_perVeh="3.952222" CO2_perVeh="270.012272" HC_perVeh="0.024153" PMx_perVeh="0.003778" NOx_perVeh="0.104487" fuel_perVeh="0.116068" electricity_perVeh="0"/>
        <edge id=":1105984398_0" sampledSeconds="10.60" CO_abs="536.846908" CO2_abs="38444.535127" HC_abs="3.339570" PMx_abs="0.626875" NOx_abs="15.420107" fuel_abs="16.525690" electricity_abs="0"
            CO_normed="18.264986" CO2_normed="1307.987232" HC_normed="0.113621" PMx_normed="0.021328" NOx_normed="0.524634" fuel_normed="0.562249" electricity_normed="0"
            traveltime="1.16" CO_perVeh="58.504397" CO2_perVeh="4189.601005" HC_perVeh="0.363939" PMx_perVeh="0.068315" NOx_perVeh="1.680449" fuel_perVeh="1.800933" electricity_perVeh="0"/>
        <edge id=":1105984398_1" sampledSeconds="644.90" CO_abs="13013.241698" CO2_abs="1448066.415543" HC_abs="92.670153" PMx_abs="21.384386" NOx_abs="552.629198" fuel_abs="622.461531" electricity_abs="0"
            CO_normed="428.566529" CO2_normed="47689.331501" HC_normed="3.051916" PMx_normed="0.704254" NOx_normed="18.199799" fuel_normed="20.499594" electricity_normed="0"
            traveltime="0.95" CO_perVeh="19.214991" CO2_perVeh="2138.174655" HC_perVeh="0.136834" PMx_perVeh="0.031576" NOx_perVeh="0.815997" fuel_perVeh="0.919109" electricity_perVeh="0"/>
        <edge id=":1106006327_0" sampledSeconds="66.07" CO_abs="8877.420491" CO2_abs="291946.931071" HC_abs="47.295065" PMx_abs="6.075742" NOx_abs="127.720552" fuel_abs="125.497597" electricity_abs="0"
            CO_normed="412.143316" CO2_normed="13553.934552" HC_normed="2.195722" PMx_normed="0.282073" NOx_normed="5.929557" fuel_normed="5.826354" electricity_normed="0"
            traveltime="2.05" CO_perVeh="275.196619" CO2_perVeh="9050.242501" HC_perVeh="1.466129" PMx_perVeh="0.188346" NOx_perVeh="3.959288" fuel_perVeh="3.890377" electricity_perVeh="0"/>
        <edge id=":1106006327_1" sampledSeconds="681.14" CO_abs="92271.972511" CO2_abs="3090233.720720" HC_abs="492.989147" PMx_abs="64.484089" NOx_abs="1352.576742" fuel_abs="1328.379846" electricity_abs="0"
            CO_normed="3735.693945" CO2_normed="125110.226713" HC_normed="19.959003" PMx_normed="2.610682" NOx_normed="54.759995" fuel_normed="53.780367" electricity_normed="0"
            traveltime="2.29" CO_perVeh="309.735348" CO2_perVeh="10373.189056" HC_perVeh="1.654849" PMx_perVeh="0.216458" NOx_perVeh="4.540283" fuel_perVeh="4.459059" electricity_perVeh="0"/>
        <edge id=":1106006327_2" sampledSeconds="0.00" CO_abs="0" CO2_abs="0" HC_abs="0" PMx_abs="0" NOx_abs="0" fuel_abs="0" electricity_abs="0"
            CO_normed="0" CO2_normed="0" HC_normed="0" PMx_normed="0" NOx_normed="0" fuel_normed="0" electricity_normed="0"/>
        <edge id=":1106006327_3" sampledSeconds="0.00" CO_abs="0" CO2_abs="0" HC_abs="0" PMx_abs="0" NOx_abs="0" fuel_abs="0" electricity_abs="0"
            CO_normed="0" CO2_normed="0" HC_normed="0" PMx_normed="0" NOx_normed="0" fuel_normed="0" electricity_normed="0"/>
        <edge id=":1107381198_0" sampledSeconds="0.00" CO_abs="0" CO2_abs="0" HC_abs="0" PMx_abs="0" NOx_abs="0" fuel_abs="0" electricity_abs="0"
            CO_normed="0" CO2_normed="0" HC_normed="0" PMx_normed="0" NOx_normed="0" fuel_normed="0" electricity_normed="0"/>
        <edge id=":1107381198_1" sampledSeconds="104.57" CO_abs="5235.767570" CO2_abs="203714.928000" HC_abs="28.525480" PMx_abs="3.512365" NOx_abs="84.394663" fuel_abs="87.570092" electricity_abs="0"
            CO_normed="234.858463" CO2_normed="9137.948600" HC_normed="1.279555" PMx_normed="0.157553" NOx_normed="3.785653" fuel_normed="3.928092" electricity_normed="0"
            traveltime="1.57" CO_perVeh="78.389480" CO2_perVeh="3050.003085" HC_perVeh="0.427081" PMx_perVeh="0.052587" NOx_perVeh="1.263550" fuel_perVeh="1.311092" electricity_perVeh="0"/>
        <edge id=":1110338277_0" sampledSeconds="160.48" CO_abs="2621.641689" CO2_abs="323399.878624" HC_abs="19.308825" PMx_abs="4.338113" NOx_abs="120.418957" fuel_abs="139.016152" electricity_abs="0"
            CO_normed="3851.327893" CO2_normed="475091.229370" HC_normed="28.365668" PMx_normed="6.372913" NOx_normed="176.901706" fuel_normed="204.221952" electricity_normed="0"
            traveltime="0.02" CO_perVeh="0.356131" CO2_perVeh="43.931573" HC_perVeh="0.002623" PMx_perVeh="0.000589" NOx_perVeh="0.016358" fuel_perVeh="0.018884" electricity_perVeh="0"/>
        <edge id=":1110338293_0" sampledSeconds="6338.93" CO_abs="562772.578563" CO2_abs="9909827.405017" HC_abs="2794.224625" PMx_abs="235.440255" NOx_abs="4474.422672" fuel_abs="4260.066425" electricity_abs="0"
            CO_normed="771626.021796" CO2_normed="13587514.723516" HC_normed="3831.203782" PMx_normed="322.815706" NOx_normed="6134.948819" fuel_normed="5841.041716" electricity_normed="0"
            traveltime="0.42" CO_perVeh="37.650216" CO2_perVeh="662.980321" HC_perVeh="0.186937" PMx_perVeh="0.015751" NOx_perVeh="0.299345" fuel_perVeh="0.285004" electricity_perVeh="0"/>
        <edge id=":1110338295_0" sampledSeconds="0.00" CO_abs="0" CO2_abs="0" HC_abs="0" PMx_abs="0" NOx_abs="0" fuel_abs="0" electricity_abs="0"
            CO_normed="0" CO2_normed="0" HC_normed="0" PMx_normed="0" NOx_normed="0" fuel_normed="0" electricity_normed="0"/>
        <edge id=":1110673403_0" sampledSeconds="200.77" CO_abs="3189.691465" CO2_abs="385794.837722" HC_abs="23.329468" PMx_abs="5.331302" NOx_abs="144.637826" fuel_abs="165.836962" electricity_abs="0"
            CO_normed="4373.434367" CO2_normed="528969.155926" HC_normed="31.987387" PMx_normed="7.309830" NOx_normed="198.315118" fuel_normed="227.381575" electricity_normed="0"
            traveltime="0.02" CO_perVeh="0.368652" CO2_perVeh="44.588679" HC_perVeh="0.002696" PMx_perVeh="0.000616" NOx_perVeh="0.016717" fuel_perVeh="0.019167" electricity_perVeh="0"/>
        <edge id=":1110673412_0" sampledSeconds="954.21" CO_abs="169827.770634" CO2_abs="11595402.886425" HC_abs="1057.094678" PMx_abs="254.773419" NOx_abs="4982.700114" fuel_abs="4984.292580" electricity_abs="0"
            CO_normed="240882.861959" CO2_normed="16446861.561152" HC_normed="1499.377814" PMx_normed="361.369346" NOx_normed="7067.436965" fuel_normed="7069.695710" electricity_normed="0"
            traveltime="0.02" CO_perVeh="2.763417" CO2_perVeh="188.679018" HC_perVeh="0.017201" PMx_perVeh="0.004146" NOx_perVeh="0.081078" fuel_perVeh="0.081104" electricity_perVeh="0"/>
        <edge id=":1110673414_0" sampledSeconds="0.00" CO_abs="0" CO2_abs="0" HC_abs="0" PMx_abs="0" NOx_abs="0" fuel_abs="0" electricity_abs="0"
            CO_normed="0" CO2_normed="0" HC_normed="0" PMx_normed="0" NOx_normed="0" fuel_normed="0" electricity_normed="0"/>
        <edge id=":1110673414_1" sampledSeconds="56.16" CO_abs="3999.861000" CO2_abs="151882.816669" HC_abs="21.761607" PMx_abs="2.921376" NOx_abs="64.860920" fuel_abs="65.288859" electricity_abs="0"
            CO_normed="182.201665" CO2_normed="6918.565932" HC_normed="0.991285" PMx_normed="0.133074" NOx_normed="2.954545" fuel_normed="2.974038" electricity_normed="0"
            traveltime="1.60" CO_perVeh="113.960828" CO2_perVeh="4327.323262" HC_perVeh="0.620014" PMx_perVeh="0.083233" NOx_perVeh="1.847965" fuel_perVeh="1.860158" electricity_perVeh="0"/>
        <edge id=":1110673417_0" sampledSeconds="28.73" CO_abs="447.470694" CO2_abs="51540.899668" HC_abs="3.219424" PMx_abs="0.718247" NOx_abs="19.398156" fuel_abs="22.155270" electricity_abs="0"
            CO_normed="657.357706" CO2_normed="75716.260286" HC_normed="4.729501" PMx_normed="1.055143" NOx_normed="28.496900" fuel_normed="32.547243" electricity_normed="0"
            traveltime="0.02" CO_perVeh="0.341218" CO2_perVeh="39.302410" HC_perVeh="0.002455" PMx_perVeh="0.000548" NOx_perVeh="0.014792" fuel_perVeh="0.016894" electricity_perVeh="0"/>
        <edge id=":1110673446_0" sampledSeconds="1329.08" CO_abs="14119.189019" CO2_abs="1155696.392825" HC_abs="91.652906" PMx_abs="20.980152" NOx_abs="471.247894" fuel_abs="496.780948" electricity_abs="0"
            CO_normed="19359.034304" CO2_normed="1584592.860363" HC_normed="125.666690" PMx_normed="28.766205" NOx_normed="646.135138" fuel_normed="681.143896" electricity_normed="0"
            traveltime="0.02" CO_perVeh="0.242144" CO2_perVeh="19.820181" HC_perVeh="0.001572" PMx_perVeh="0.000360" NOx_perVeh="0.008082" fuel_perVeh="0.008520" electricity_perVeh="0"/>
        <edge id=":1110673451_0" sampledSeconds="36.17" CO_abs="319.618822" CO2_abs="25369.343731" HC_abs="2.035186" PMx_abs="0.348736" NOx_abs="9.713709" fuel_abs="10.905289" electricity_abs="0"
            CO_normed="486.926907" CO2_normed="38649.213485" HC_normed="3.100527" PMx_normed="0.531285" NOx_normed="14.798459" fuel_normed="16.613786" electricity_normed="0"
            traveltime="0.03" CO_perVeh="0.235488" CO2_perVeh="18.691597" HC_perVeh="0.001499" PMx_perVeh="0.000257" NOx_perVeh="0.007157" fuel_perVeh="0.008035" electricity_perVeh="0"/>
        <edge id=":1110673464_0" sampledSeconds="1027.99" CO_abs="3417.952946" CO2_abs="258779.911608" HC_abs="21.472581" PMx_abs="3.564575" NOx_abs="99.258873" fuel_abs="111.239477" electricity_abs="0"
            CO_normed="99.569557" CO2_normed="7538.606164" HC_normed="0.625525" PMx_normed="0.103841" NOx_normed="2.891544" fuel_normed="3.240555" electricity_normed="0"
            traveltime="1.22" CO_perVeh="4.053214" CO2_perVeh="306.876758" HC_perVeh="0.025463" PMx_perVeh="0.004227" NOx_perVeh="0.117707" fuel_perVeh="0.131914" electricity_perVeh="0"/>
        <edge id=":1110673464_1" sampledSeconds="2605.37" CO_abs="65422.605548" CO2_abs="7840347.868326" HC_abs="484.116597" PMx_abs="140.680850" NOx_abs="2980.738396" fuel_abs="3370.203834" electricity_abs="0"
            CO_normed="1867.493279" CO2_normed="223803.329545" HC_normed="13.819145" PMx_normed="4.015746" NOx_normed="85.085405" fuel_normed="96.202726" electricity_normed="0"
            traveltime="0.72" CO_perVeh="18.041631" CO2_perVeh="2162.137440" HC_perVeh="0.133505" PMx_perVeh="0.038796" NOx_perVeh="0.822000" fuel_perVeh="0.929403" electricity_perVeh="0"/>
        <edge id=":1110673479_0" sampledSeconds="135.44" CO_abs="6173.846297" CO2_abs="425183.096230" HC_abs="38.082883" PMx_abs="7.348953" NOx_abs="173.330746" fuel_abs="182.767906" electricity_abs="0"
            CO_normed="8465.054337" CO2_normed="582974.994830" HC_normed="52.216019" PMx_normed="10.076261" NOx_normed="237.656416" fuel_normed="250.595849" electricity_normed="0"
            traveltime="0.03" CO_perVeh="1.305207" CO2_perVeh="89.887551" HC_perVeh="0.008051" PMx_perVeh="0.001554" NOx_perVeh="0.036644" fuel_perVeh="0.038639" electricity_perVeh="0"/>
        <edge id=":1110673511_0" sampledSeconds="63.15" CO_abs="1274.048827" CO2_abs="132748.289564" HC_abs="8.877822" PMx_abs="1.935638" NOx_abs="50.751215" fuel_abs="57.062871" electricity_abs="0"
            CO_normed="1746.867678" CO2_normed="182013.194101" HC_normed="12.172517" PMx_normed="2.653983" NOx_normed="69.585761" fuel_normed="78.239769" electricity_normed="0"
            traveltime="0.02" CO_perVeh="0.488297" CO2_perVeh="50.877658" HC_perVeh="0.003403" PMx_perVeh="0.000742" NOx_perVeh="0.019451" fuel_perVeh="0.021870" electricity_perVeh="0"/>
        <edge id=":1110673517_0" sampledSeconds="183.02" CO_abs="7875.790541" CO2_abs="561490.149425" HC_abs="49.033418" PMx_abs="9.654518" NOx_abs="228.197849" fuel_abs="241.360318" electricity_abs="0"
            CO_normed="10798.615915" CO2_normed="769867.663745" HC_normed="67.230463" PMx_normed="13.237456" NOx_normed="312.885533" fuel_normed="330.932794" electricity_normed="0"
            traveltime="0.03" CO_perVeh="1.205849" CO2_perVeh="85.968804" HC_perVeh="0.007507" PMx_perVeh="0.001478" NOx_perVeh="0.034939" fuel_perVeh="0.036954" electricity_perVeh="0"/>
        <edge id=":1110673534_0" sampledSeconds="734.38" CO_abs="4612.814711" CO2_abs="400060.851573" HC_abs="30.112049" PMx_abs="5.257321" NOx_abs="150.944331" fuel_abs="171.970591" electricity_abs="0"
            CO_normed="122.571710" CO2_normed="10630.416744" HC_normed="0.800137" PMx_normed="0.139698" NOx_normed="4.010893" fuel_normed="4.569602" electricity_normed="0"
            traveltime="1.45" CO_perVeh="9.097234" CO2_perVeh="788.986193" HC_perVeh="0.059386" PMx_perVeh="0.010368" NOx_perVeh="0.297687" fuel_perVeh="0.339154" electricity_perVeh="0"/>
        <edge id=":1110673534_1" sampledSeconds="200.03" CO_abs="2994.826872" CO2_abs="396878.429937" HC_abs="22.699306" PMx_abs="5.295162" NOx_abs="146.931229" fuel_abs="170.601447" electricity_abs="0"
            CO_normed="77.379131" CO2_normed="10254.385127" HC_normed="0.586496" PMx_normed="0.136814" NOx_normed="3.796350" fuel_normed="4.407932" electricity_normed="0"
            traveltime="1.22" CO_perVeh="18.306434" CO2_perVeh="2425.992968" HC_perVeh="0.138754" PMx_perVeh="0.032368" NOx_perVeh="0.898144" fuel_perVeh="1.042833" electricity_perVeh="0"/>
        <edge id=":1110673549_0" sampledSeconds="653.75" CO_abs="1869.435619" CO2_abs="164115.207333" HC_abs="12.315289" PMx_abs="2.531475" NOx_abs="63.678157" fuel_abs="70.546215" electricity_abs="0"
            CO_normed="48.120367" CO2_normed="4224.421483" HC_normed="0.317003" PMx_normed="0.065162" NOx_normed="1.639113" fuel_normed="1.815901" electricity_normed="0"
            traveltime="1.30" CO_perVeh="3.714123" CO2_perVeh="326.057784" HC_perVeh="0.024468" PMx_perVeh="0.005029" NOx_perVeh="0.126513" fuel_perVeh="0.140159" electricity_perVeh="0"/>
        <edge id=":1110673549_1" sampledSeconds="3197.17" CO_abs="69021.682712" CO2_abs="9035592.718271" HC_abs="529.844595" PMx_abs="158.990512" NOx_abs="3379.870067" fuel_abs="3883.987596" electricity_abs="0"
            CO_normed="1718.583713" CO2_normed="224978.903375" HC_normed="13.192699" PMx_normed="3.958734" NOx_normed="84.156013" fuel_normed="96.708129" electricity_normed="0"
            traveltime="0.81" CO_perVeh="17.411613" CO2_perVeh="2279.345216" HC_perVeh="0.133660" PMx_perVeh="0.040107" NOx_perVeh="0.852616" fuel_perVeh="0.979786" electricity_perVeh="0"/>
        <edge id=":1110673556_0" sampledSeconds="464.78" CO_abs="57098.207842" CO2_abs="2750201.780684" HC_abs="325.319560" PMx_abs="55.592643" NOx_abs="1186.261940" fuel_abs="1182.194345" electricity_abs="0"
            CO_normed="1089.859199" CO2_normed="52494.339566" HC_normed="6.209521" PMx_normed="1.061122" NOx_normed="22.642716" fuel_normed="22.565076" electricity_normed="0"
            traveltime="2.74" CO_perVeh="336.588445" CO2_perVeh="16212.175062" HC_perVeh="1.917728" PMx_perVeh="0.327713" NOx_perVeh="6.992900" fuel_perVeh="6.968922" electricity_perVeh="0"/>
        <edge id=":1110673556_2" sampledSeconds="169.32" CO_abs="16025.872029" CO2_abs="699839.100987" HC_abs="89.410828" PMx_abs="13.473025" NOx_abs="298.166161" fuel_abs="300.833196" electricity_abs="0"
            CO_normed="319.844488" CO2_normed="13967.394621" HC_normed="1.784462" PMx_normed="0.268895" NOx_normed="5.950803" fuel_normed="6.004031" electricity_normed="0"
            traveltime="2.93" CO_perVeh="277.110228" CO2_perVeh="12101.218095" HC_perVeh="1.546041" PMx_perVeh="0.232968" NOx_perVeh="5.155719" fuel_perVeh="5.201836" electricity_perVeh="0"/>
        <edge id=":1110673556_3" sampledSeconds="321.80" CO_abs="32607.532121" CO2_abs="1134697.390028" HC_abs="175.007860" PMx_abs="22.398828" NOx_abs="488.690024" fuel_abs="487.766251" electricity_abs="0"
            CO_normed="1480.419936" CO2_normed="51516.583079" HC_normed="7.945561" PMx_normed="1.016933" NOx_normed="22.187096" fuel_normed="22.145156" electricity_normed="0"
            traveltime="1.82" CO_perVeh="184.414243" CO2_perVeh="6417.362702" HC_perVeh="0.989770" PMx_perVeh="0.126678" NOx_perVeh="2.763822" fuel_perVeh="2.758597" electricity_perVeh="0"/>
        <edge id=":1110673556_4" sampledSeconds="69.83" CO_abs="8155.276316" CO2_abs="319436.139778" HC_abs="44.656928" PMx_abs="6.404703" NOx_abs="138.019567" fuel_abs="137.313284" electricity_abs="0"
            CO_normed="226.200063" CO2_normed="8860.089109" HC_normed="1.238634" PMx_normed="0.177645" NOx_normed="3.828201" fuel_normed="3.808611" electricity_normed="0"
            traveltime="2.52" CO_perVeh="294.135775" CO2_perVeh="11521.080677" HC_perVeh="1.610638" PMx_perVeh="0.230998" NOx_perVeh="4.977942" fuel_perVeh="4.952469" electricity_perVeh="0"/>
        <edge id=":1110673556_5" sampledSeconds="22.65" CO_abs="1561.760772" CO2_abs="68299.514335" HC_abs="8.696456" PMx_abs="1.218431" NOx_abs="28.517099" fuel_abs="29.359406" electricity_abs="0"
            CO_normed="60.376520" CO2_normed="2640.408848" HC_normed="0.336199" PMx_normed="0.047104" NOx_normed="1.102450" fuel_normed="1.135013" electricity_normed="0"
            traveltime="1.57" CO_perVeh="107.973584" CO2_perVeh="4721.941732" HC_perVeh="0.601236" PMx_perVeh="0.084237" NOx_perVeh="1.971552" fuel_perVeh="2.029786" electricity_perVeh="0"/>
        <edge id=":1110673556_6" sampledSeconds="488.13" CO_abs="57647.936839" CO2_abs="2757132.876776" HC_abs="327.946194" PMx_abs="55.581956" NOx_abs="1188.255759" fuel_abs="1185.174307" electricity_abs="0"
            CO_normed="1128.096493" CO2_normed="53953.568837" HC_normed="6.417488" PMx_normed="1.087668" NOx_normed="23.252647" fuel_normed="23.192347" electricity_normed="0"
            traveltime="2.69" CO_perVeh="317.716922" CO2_perVeh="15195.474800" HC_perVeh="1.807420" PMx_perVeh="0.306331" NOx_perVeh="6.548872" fuel_perVeh="6.531889" electricity_perVeh="0"/>
        <edge id=":1110673561_0" sampledSeconds="120.55" CO_abs="10584.151064" CO2_abs="763292.944326" HC_abs="66.531211" PMx_abs="15.323821" NOx_abs="322.200367" fuel_abs="328.103367" electricity_abs="0"
            CO_normed="260.228753" CO2_normed="18766.811798" HC_normed="1.635779" PMx_normed="0.376761" NOx_normed="7.921826" fuel_normed="8.066961" electricity_normed="0"
            traveltime="1.22" CO_perVeh="107.178454" CO2_perVeh="7729.345259" HC_perVeh="0.673716" PMx_perVeh="0.155174" NOx_perVeh="3.262703" fuel_perVeh="3.322478" electricity_perVeh="0"/>
        <edge id=":1110673561_1" sampledSeconds="5255.56" CO_abs="484216.988567" CO2_abs="33619188.020141" HC_abs="3017.967797" PMx_abs="701.383018" NOx_abs="14364.271547" fuel_abs="14451.266438" electricity_abs="0"
            CO_normed="11606.945111" CO2_normed="805870.259109" HC_normed="72.342333" PMx_normed="16.812533" NOx_normed="344.319417" fuel_normed="346.404732" electricity_normed="0"
            traveltime="1.19" CO_perVeh="110.010072" CO2_perVeh="7637.999858" HC_perVeh="0.685657" PMx_perVeh="0.159348" NOx_perVeh="3.263443" fuel_perVeh="3.283208" electricity_perVeh="0"/>
        <edge id=":1110673562_0" sampledSeconds="301.03" CO_abs="6791.656244" CO2_abs="519129.012887" HC_abs="42.766024" PMx_abs="7.077345" NOx_abs="198.731301" fuel_abs="223.153535" electricity_abs="0"
            CO_normed="10346.825478" CO2_normed="790872.962960" HC_normed="65.152382" PMx_normed="10.782062" NOx_normed="302.759447" fuel_normed="339.965776" electricity_normed="0"
            traveltime="0.03" CO_perVeh="0.608814" CO2_perVeh="46.535469" HC_perVeh="0.003834" PMx_perVeh="0.000634" NOx_perVeh="0.017815" fuel_perVeh="0.020004" electricity_perVeh="0"/>
        <edge id=":1110673564_0" sampledSeconds="27.60" CO_abs="537.425616" CO2_abs="61029.084292" HC_abs="3.861840" PMx_abs="0.889425" NOx_abs="23.188583" fuel_abs="26.233794" electricity_abs="0"
            CO_normed="2210.617252" CO2_normed="251033.710523" HC_normed="15.885083" PMx_normed="3.658511" NOx_normed="95.382655" fuel_normed="107.908658" electricity_normed="0"
            traveltime="7.794526e-03" CO_perVeh="0.151794" CO2_perVeh="17.237420" HC_perVeh="0.001091" PMx_perVeh="0.000251" NOx_perVeh="0.006550" fuel_perVeh="0.007410" electricity_perVeh="0"/>
        <edge id=":1110673588_0" sampledSeconds="62.46" CO_abs="1055.319088" CO2_abs="122898.025996" HC_abs="7.595869" PMx_abs="1.620330" NOx_abs="45.729514" fuel_abs="52.828826" electricity_abs="0"
            CO_normed="1736.356818" CO2_normed="202208.817910" HC_normed="12.497773" PMx_normed="2.665990" NOx_normed="75.240517" fuel_normed="86.921285" electricity_normed="0"
            traveltime="0.02" CO_perVeh="0.340426" CO2_perVeh="39.644525" HC_perVeh="0.002450" PMx_perVeh="0.000523" NOx_perVeh="0.014751" fuel_perVeh="0.017042" electricity_perVeh="0"/>
        <edge id=":1110673601_0" sampledSeconds="28.83" CO_abs="372.719850" CO2_abs="49113.089713" HC_abs="2.814263" PMx_abs="0.636918" NOx_abs="18.097090" fuel_abs="21.111691" electricity_abs="0"
            CO_normed="547.544830" CO2_normed="72149.681283" HC_normed="4.134298" PMx_normed="0.935666" NOx_normed="26.585565" fuel_normed="31.014171" electricity_normed="0"
            traveltime="0.02" CO_perVeh="0.284217" CO2_perVeh="37.451088" HC_perVeh="0.002146" PMx_perVeh="0.000486" NOx_perVeh="0.013800" fuel_perVeh="0.016099" electricity_perVeh="0"/>
        <edge id=":1110673617_0" sampledSeconds="855.44" CO_abs="32186.983343" CO2_abs="3298661.976002" HC_abs="225.443416" PMx_abs="61.870030" NOx_abs="1290.950736" fuel_abs="1417.940541" electricity_abs="0"
            CO_normed="44132.061257" CO2_normed="4522845.488120" HC_normed="309.108889" PMx_normed="84.830937" NOx_normed="1770.042143" fuel_normed="1944.159791" electricity_normed="0"
            traveltime="0.02" CO_perVeh="0.570548" CO2_perVeh="58.472189" HC_perVeh="0.003996" PMx_perVeh="0.001097" NOx_perVeh="0.022883" fuel_perVeh="0.025134" electricity_perVeh="0"/>
        <edge id=":1110673621_0" sampledSeconds="30.35" CO_abs="796.196136" CO2_abs="74467.965046" HC_abs="5.357152" PMx_abs="1.195975" NOx_abs="29.276773" fuel_abs="32.010516" electricity_abs="0"
            CO_normed="1310.011925" CO2_normed="122524.988192" HC_normed="8.814326" PMx_normed="1.967783" NOx_normed="48.170193" fuel_normed="52.668125" electricity_normed="0"
            traveltime="0.02" CO_perVeh="0.517010" CO2_perVeh="48.355821" HC_perVeh="0.003479" PMx_perVeh="0.000777" NOx_perVeh="0.019011" fuel_perVeh="0.020786" electricity_perVeh="0"/>
        <edge id=":1110673630_0" sampledSeconds="284.87" CO_abs="1307.665269" CO2_abs="110996.775058" HC_abs="8.487523" PMx_abs="1.484295" NOx_abs="42.130068" fuel_abs="47.713170" electricity_abs="0"
            CO_normed="38.365757" CO2_normed="3256.548413" HC_normed="0.249017" PMx_normed="0.043548" NOx_normed="1.236059" fuel_normed="1.399863" electricity_normed="0"
            traveltime="1.28" CO_perVeh="5.883994" CO2_perVeh="499.443096" HC_perVeh="0.038191" PMx_perVeh="0.006679" NOx_perVeh="0.189569" fuel_perVeh="0.214691" electricity_perVeh="0"/>
        <edge id=":1110673630_1" sampledSeconds="339.27" CO_abs="1081.880797" CO2_abs="90430.529012" HC_abs="6.975437" PMx_abs="1.136440" NOx_abs="33.858270" fuel_abs="38.872671" electricity_abs="0"
            CO_normed="38.696952" CO2_normed="3234.539230" HC_normed="0.249499" PMx_normed="0.040648" NOx_normed="1.211050" fuel_normed="1.390406" electricity_normed="0"
            traveltime="1.08" CO_perVeh="3.448823" CO2_perVeh="288.274729" HC_perVeh="0.022236" PMx_perVeh="0.003623" NOx_perVeh="0.107933" fuel_perVeh="0.123918" electricity_perVeh="0"/>
        <edge id=":1110673650_0" sampledSeconds="200.44" CO_abs="2844.442368" CO2_abs="374453.497138" HC_abs="21.455710" PMx_abs="4.896847" NOx_abs="138.213238" fuel_abs="160.962045" electricity_abs="0"
            CO_normed="3900.058092" CO2_normed="513418.871761" HC_normed="29.418250" PMx_normed="6.714142" NOx_normed="189.506267" fuel_normed="220.697503" electricity_normed="0"
            traveltime="0.02" CO_perVeh="0.329187" CO2_perVeh="43.335400" HC_perVeh="0.002483" PMx_perVeh="0.000567" NOx_perVeh="0.015995" fuel_perVeh="0.018628" electricity_perVeh="0"/>
        <edge id=":1110673655_0" sampledSeconds="20.53" CO_abs="326.342291" CO2_abs="42731.900379" HC_abs="2.446098" PMx_abs="0.556076" NOx_abs="15.753162" fuel_abs="18.368678" electricity_abs="0"
            CO_normed="447.452866" CO2_normed="58590.357009" HC_normed="3.353882" PMx_normed="0.762445" NOx_normed="21.599400" fuel_normed="25.185573" electricity_normed="0"
            traveltime="0.02" CO_perVeh="0.372821" CO2_perVeh="48.817860" HC_perVeh="0.002794" PMx_perVeh="0.000635" NOx_perVeh="0.017997" fuel_perVeh="0.020985" electricity_perVeh="0"/>
        <edge id=":1110673663_0" sampledSeconds="129.38" CO_abs="2188.182543" CO2_abs="260384.220271" HC_abs="15.922026" PMx_abs="3.533544" NOx_abs="97.326448" fuel_abs="111.928338" electricity_abs="0"
            CO_normed="54.949639" CO2_normed="6538.768414" HC_normed="0.399834" PMx_normed="0.088734" NOx_normed="2.444062" fuel_normed="2.810744" electricity_normed="0"
            traveltime="1.30" CO_perVeh="22.029631" CO2_perVeh="2621.430433" HC_perVeh="0.160296" PMx_perVeh="0.035574" NOx_perVeh="0.979839" fuel_perVeh="1.126844" electricity_perVeh="0"/>
        <edge id=":1110673663_1" sampledSeconds="170.49" CO_abs="2310.064051" CO2_abs="290869.774363" HC_abs="17.199259" PMx_abs="3.898592" NOx_abs="108.125816" fuel_abs="125.032803" electricity_abs="0"
            CO_normed="58.081245" CO2_normed="7313.251122" HC_normed="0.432436" PMx_normed="0.098021" NOx_normed="2.718575" fuel_normed="3.143662" electricity_normed="0"
            traveltime="1.27" CO_perVeh="17.241381" CO2_perVeh="2170.933966" HC_perVeh="0.128368" PMx_perVeh="0.029098" NOx_perVeh="0.807007" fuel_perVeh="0.933194" electricity_perVeh="0"/>