<?xml version="1.0" encoding="UTF-8"?>

<!-- generated on Tue Nov 10 01:24:08 2020 by Eclipse SUMO sumo Version 1.7.0
<configuration xmlns:xsi="http://www.w3.org/2001/XMLSchema-instance" xsi:noNamespaceSchemaLocation="http://sumo.dlr.de/xsd/sumoConfiguration.xsd">

    <input>
        <net-file value="../dataSets/Porto/6AM7AM_Routing_SaoBento/Porto.net.xml"/>
        <route-files value="../results/Porto/6AM7AM_Routing_SaoBento/cost_co-cost_nox/solution5/Porto.rou.xml"/>
        <additional-files value="moreOutputInfo.xml"/>
    </input>

    <output>
        <emission-output.precision value="6"/>
        <tripinfo-output value="../results/Porto/6AM7AM_Routing_SaoBento/cost_co-cost_nox/solution5/Porto-tripinfo"/>
    </output>

    <processing>
        <collision.action value="warn"/>
        <time-to-teleport value="-1"/>
    </processing>

    <emissions>
        <device.emissions.probability value="1"/>
    </emissions>

    <gui_only>
        <quit-on-end value="true"/>
        <start value="true"/>
    </gui_only>

</configuration>
-->

<meandata xmlns:xsi="http://www.w3.org/2001/XMLSchema-instance" xsi:noNamespaceSchemaLocation="http://sumo.dlr.de/xsd/meandata_file.xsd">
    <interval begin="0.00" end="4790.00" id="emissions-detector">
        <edge id=":1092997347_0" sampledSeconds="269.57" CO_abs="34741.686001" CO2_abs="1368978.283556" HC_abs="190.555893" PMx_abs="28.027139" NOx_abs="594.862967" fuel_abs="588.469974" electricity_abs="0"
            CO_normed="59342.412984" CO2_normed="2338357.288290" HC_normed="325.489283" PMx_normed="47.873268" NOx_normed="1016.087815" fuel_normed="1005.167919" electricity_normed="0"
            traveltime="0.08" CO_perVeh="9.778828" CO2_perVeh="385.329710" HC_perVeh="0.053636" PMx_perVeh="0.007889" NOx_perVeh="0.167438" fuel_perVeh="0.165638" electricity_perVeh="0"/>
        <edge id=":1103427051_0" sampledSeconds="10.85" CO_abs="831.012146" CO2_abs="47005.826891" HC_abs="4.900181" PMx_abs="0.922592" NOx_abs="20.059205" fuel_abs="20.205721" electricity_abs="0"
            CO_normed="2153.656127" CO2_normed="121820.586573" HC_normed="12.699338" PMx_normed="2.390995" NOx_normed="51.985557" fuel_normed="52.365268" electricity_normed="0"
            traveltime="0.03" CO_perVeh="2.276961" CO2_perVeh="128.795255" HC_perVeh="0.013426" PMx_perVeh="0.002528" NOx_perVeh="0.054962" fuel_perVeh="0.055363" electricity_perVeh="0"/>
        <edge id=":1105984386_0" sampledSeconds="22.97" CO_abs="389.211237" CO2_abs="32240.439021" HC_abs="2.503937" PMx_abs="0.413080" NOx_abs="12.142326" fuel_abs="13.858937" electricity_abs="0"
            CO_normed="30.125421" CO2_normed="2495.449034" HC_normed="0.193808" PMx_normed="0.031973" NOx_normed="0.939831" fuel_normed="1.072698" electricity_normed="0"
            traveltime="0.96" CO_perVeh="16.334894" CO2_perVeh="1353.106254" HC_perVeh="0.105088" PMx_perVeh="0.017337" NOx_perVeh="0.509604" fuel_perVeh="0.581649" electricity_perVeh="0"/>
        <edge id=":1105984390_0" sampledSeconds="23.21" CO_abs="3.633403" CO2_abs="587.685315" HC_abs="0.029958" PMx_abs="0.006915" NOx_abs="0.211432" fuel_abs="0.252622" electricity_abs="0"
            CO_normed="0.217416" CO2_normed="35.165936" HC_normed="0.001793" PMx_normed="0.000414" NOx_normed="0.012652" fuel_normed="0.015116" electricity_normed="0"
            traveltime="1.05" CO_perVeh="0.164773" CO2_perVeh="26.651240" HC_perVeh="0.001359" PMx_perVeh="0.000314" NOx_perVeh="0.009588" fuel_perVeh="0.011456" electricity_perVeh="0"/>
        <edge id=":1105984390_1" sampledSeconds="646.38" CO_abs="14467.105914" CO2_abs="1852555.941008" HC_abs="110.160979" PMx_abs="32.903327" NOx_abs="694.620918" fuel_abs="796.328820" electricity_abs="0"
            CO_normed="828.102169" CO2_normed="106040.945732" HC_normed="6.305653" PMx_normed="1.883398" NOx_normed="39.760343" fuel_normed="45.582138" electricity_normed="0"
            traveltime="0.64" CO_perVeh="14.241332" CO2_perVeh="1823.644881" HC_perVeh="0.108442" PMx_perVeh="0.032390" NOx_perVeh="0.683781" fuel_perVeh="0.783901" electricity_perVeh="0"/>
        <edge id=":1105984395_0" sampledSeconds="8.90" CO_abs="194.863891" CO2_abs="13922.680110" HC_abs="1.208909" PMx_abs="0.214143" NOx_abs="5.504039" fuel_abs="5.984795" electricity_abs="0"
            CO_normed="159.188075" CO2_normed="11373.706180" HC_normed="0.987581" PMx_normed="0.174938" NOx_normed="4.496355" fuel_normed="4.889095" electricity_normed="0"
            traveltime="0.09" CO_perVeh="1.976133" CO2_perVeh="141.191200" HC_perVeh="0.012260" PMx_perVeh="0.002172" NOx_perVeh="0.055817" fuel_perVeh="0.060692" electricity_perVeh="0"/>
        <edge id=":1105984398_0" sampledSeconds="23.17" CO_abs="1470.862959" CO2_abs="105000.960745" HC_abs="9.163940" PMx_abs="1.822679" NOx_abs="42.788898" fuel_abs="45.135341" electricity_abs="0"
            CO_normed="91.435090" CO2_normed="6527.305796" HC_normed="0.569669" PMx_normed="0.113305" NOx_normed="2.659940" fuel_normed="2.805805" electricity_normed="0"
            traveltime="1.10" CO_perVeh="69.868916" CO2_perVeh="4987.754450" HC_perVeh="0.435305" PMx_perVeh="0.086581" NOx_perVeh="2.032558" fuel_perVeh="2.144018" electricity_perVeh="0"/>
        <edge id=":1105984398_1" sampledSeconds="455.75" CO_abs="7690.384631" CO2_abs="898604.809392" HC_abs="55.657759" PMx_abs="12.858946" NOx_abs="339.721862" fuel_abs="386.271946" electricity_abs="0"
            CO_normed="462.756588" CO2_normed="54072.106350" HC_normed="3.349117" PMx_normed="0.773766" NOx_normed="20.442219" fuel_normed="23.243296" electricity_normed="0"
            traveltime="0.96" CO_perVeh="16.161709" CO2_perVeh="1888.460749" HC_perVeh="0.116967" PMx_perVeh="0.027024" NOx_perVeh="0.713942" fuel_perVeh="0.811769" electricity_perVeh="0"/>
        <edge id=":1106006327_0" sampledSeconds="528.77" CO_abs="70903.925657" CO2_abs="2290395.265536" HC_abs="376.734350" PMx_abs="47.665756" NOx_abs="1001.907083" fuel_abs="984.560509" electricity_abs="0"
            CO_normed="6014.555634" CO2_normed="194286.982284" HC_normed="31.957183" PMx_normed="4.043335" NOx_normed="84.988607" fuel_normed="83.517152" electricity_normed="0"
            traveltime="2.10" CO_perVeh="281.451330" CO2_perVeh="9091.665780" HC_perVeh="1.495437" PMx_perVeh="0.189208" NOx_perVeh="3.977045" fuel_perVeh="3.908188" electricity_perVeh="0"/>
        <edge id=":1106006327_1" sampledSeconds="163.17" CO_abs="21885.270099" CO2_abs="723827.340685" HC_abs="116.694813" PMx_abs="15.052948" NOx_abs="316.501924" fuel_abs="311.147536" electricity_abs="0"
            CO_normed="1618.919262" CO2_normed="53543.685715" HC_normed="8.632266" PMx_normed="1.113512" NOx_normed="23.412599" fuel_normed="23.016519" electricity_normed="0"
            traveltime="2.32" CO_perVeh="310.689616" CO2_perVeh="10275.662002" HC_perVeh="1.656633" PMx_perVeh="0.213696" NOx_perVeh="4.493153" fuel_perVeh="4.417140" electricity_perVeh="0"/>
        <edge id=":1106006327_2" sampledSeconds="0.00" CO_abs="0" CO2_abs="0" HC_abs="0" PMx_abs="0" NOx_abs="0" fuel_abs="0" electricity_abs="0"
            CO_normed="0" CO2_normed="0" HC_normed="0" PMx_normed="0" NOx_normed="0" fuel_normed="0" electricity_normed="0"/>
        <edge id=":1106006327_3" sampledSeconds="0.00" CO_abs="0" CO2_abs="0" HC_abs="0" PMx_abs="0" NOx_abs="0" fuel_abs="0" electricity_abs="0"
            CO_normed="0" CO2_normed="0" HC_normed="0" PMx_normed="0" NOx_normed="0" fuel_normed="0" electricity_normed="0"/>
        <edge id=":1107381198_0" sampledSeconds="0.00" CO_abs="0" CO2_abs="0" HC_abs="0" PMx_abs="0" NOx_abs="0" fuel_abs="0" electricity_abs="0"
            CO_normed="0" CO2_normed="0" HC_normed="0" PMx_normed="0" NOx_normed="0" fuel_normed="0" electricity_normed="0"/>
        <edge id=":1107381198_1" sampledSeconds="35.85" CO_abs="1489.845584" CO2_abs="60504.190120" HC_abs="8.173278" PMx_abs="1.020915" NOx_abs="24.903265" fuel_abs="26.008666" electricity_abs="0"
            CO_normed="122.106536" CO2_normed="4958.874346" HC_normed="0.669875" PMx_normed="0.083673" NOx_normed="2.041051" fuel_normed="2.131649" electricity_normed="0"
            traveltime="1.48" CO_perVeh="61.341074" CO2_perVeh="2491.125285" HC_perVeh="0.336517" PMx_perVeh="0.042034" NOx_perVeh="1.025336" fuel_perVeh="1.070849" electricity_perVeh="0"/>
        <edge id=":1110338277_0" sampledSeconds="96.52" CO_abs="1490.498593" CO2_abs="184055.281830" HC_abs="10.945521" PMx_abs="2.482903" NOx_abs="68.550795" fuel_abs="79.117685" electricity_abs="0"
            CO_normed="4000.741824" CO2_normed="494034.457640" HC_normed="29.379568" PMx_normed="6.664517" NOx_normed="184.001536" fuel_normed="212.364796" electricity_normed="0"
            traveltime="0.02" CO_perVeh="0.337160" CO2_perVeh="41.634421" HC_perVeh="0.002476" PMx_perVeh="0.000562" NOx_perVeh="0.015507" fuel_perVeh="0.017897" electricity_perVeh="0"/>
        <edge id=":1110338293_0" sampledSeconds="124.17" CO_abs="6204.559702" CO2_abs="423269.466438" HC_abs="38.222145" PMx_abs="7.560435" NOx_abs="174.204527" fuel_abs="181.944987" electricity_abs="0"
            CO_normed="15543.782135" CO2_normed="1060382.796923" HC_normed="95.754851" PMx_normed="18.940546" NOx_normed="436.420526" fuel_normed="455.812077" electricity_normed="0"
            traveltime="0.03" CO_perVeh="1.423119" CO2_perVeh="97.083864" HC_perVeh="0.008767" PMx_perVeh="0.001734" NOx_perVeh="0.039957" fuel_perVeh="0.041732" electricity_perVeh="0"/>
        <edge id=":1110338295_0" sampledSeconds="0.00" CO_abs="0" CO2_abs="0" HC_abs="0" PMx_abs="0" NOx_abs="0" fuel_abs="0" electricity_abs="0"
            CO_normed="0" CO2_normed="0" HC_normed="0" PMx_normed="0" NOx_normed="0" fuel_normed="0" electricity_normed="0"/>
        <edge id=":1110673403_0" sampledSeconds="143.77" CO_abs="2322.016615" CO2_abs="281754.687410" HC_abs="17.038721" PMx_abs="3.943316" NOx_abs="105.849179" fuel_abs="121.114414" electricity_abs="0"
            CO_normed="5817.160621" CO2_normed="705857.254473" HC_normed="42.685731" PMx_normed="9.878872" NOx_normed="265.175397" fuel_normed="303.418155" electricity_normed="0"
            traveltime="0.02" CO_perVeh="0.372815" CO2_perVeh="45.237574" HC_perVeh="0.002736" PMx_perVeh="0.000633" NOx_perVeh="0.016995" fuel_perVeh="0.019446" electricity_perVeh="0"/>
        <edge id=":1110673412_0" sampledSeconds="253.29" CO_abs="44219.139736" CO2_abs="3032171.611303" HC_abs="275.479637" PMx_abs="66.447044" NOx_abs="1301.624750" fuel_abs="1303.381345" electricity_abs="0"
            CO_normed="114598.591209" CO2_normed="7858194.370954" HC_normed="713.934700" PMx_normed="172.204562" NOx_normed="3373.298611" fuel_normed="3377.851013" electricity_normed="0"
            traveltime="0.02" CO_perVeh="2.722373" CO2_perVeh="186.677133" HC_perVeh="0.016960" PMx_perVeh="0.004091" NOx_perVeh="0.080135" fuel_perVeh="0.080243" electricity_perVeh="0"/>
        <edge id=":1110673414_0" sampledSeconds="0.00" CO_abs="0" CO2_abs="0" HC_abs="0" PMx_abs="0" NOx_abs="0" fuel_abs="0" electricity_abs="0"
            CO_normed="0" CO2_normed="0" HC_normed="0" PMx_normed="0" NOx_normed="0" fuel_normed="0" electricity_normed="0"/>
        <edge id=":1110673414_1" sampledSeconds="134.42" CO_abs="9520.552422" CO2_abs="359562.692767" HC_abs="51.716542" PMx_abs="6.744801" NOx_abs="152.489244" fuel_abs="154.563130" electricity_abs="0"
            CO_normed="792.394378" CO2_normed="29926.357606" HC_normed="4.304361" PMx_normed="0.561369" NOx_normed="12.691661" fuel_normed="12.864270" electricity_normed="0"
            traveltime="1.60" CO_perVeh="113.432627" CO2_perVeh="4284.009916" HC_perVeh="0.616177" PMx_perVeh="0.080361" NOx_perVeh="1.816833" fuel_perVeh="1.841543" electricity_perVeh="0"/>
        <edge id=":1110673417_0" sampledSeconds="29.75" CO_abs="403.137516" CO2_abs="52240.932018" HC_abs="3.015545" PMx_abs="0.680234" NOx_abs="19.260509" fuel_abs="22.456222" electricity_abs="0"
            CO_normed="1082.086979" CO2_normed="140223.199570" HC_normed="8.094215" PMx_normed="1.825859" NOx_normed="51.698355" fuel_normed="60.276169" electricity_normed="0"
            traveltime="0.02" CO_perVeh="0.299223" CO2_perVeh="38.775119" HC_perVeh="0.002238" PMx_perVeh="0.000505" NOx_perVeh="0.014296" fuel_perVeh="0.016668" electricity_perVeh="0"/>
        <edge id=":1110673446_0" sampledSeconds="333.93" CO_abs="3237.815151" CO2_abs="256198.574839" HC_abs="20.831833" PMx_abs="4.768761" NOx_abs="105.374435" fuel_abs="110.127932" electricity_abs="0"
            CO_normed="8111.436704" CO2_normed="641833.590411" HC_normed="52.188307" PMx_normed="11.946791" NOx_normed="263.986059" fuel_normed="275.894609" electricity_normed="0"
            traveltime="0.02" CO_perVeh="0.221583" CO2_perVeh="17.533195" HC_perVeh="0.001426" PMx_perVeh="0.000326" NOx_perVeh="0.007211" fuel_perVeh="0.007537" electricity_perVeh="0"/>
        <edge id=":1110673451_0" sampledSeconds="37.24" CO_abs="430.373713" CO2_abs="32330.725966" HC_abs="2.691616" PMx_abs="0.413798" NOx_abs="12.206101" fuel_abs="13.897779" electricity_abs="0"
            CO_normed="1197.978324" CO2_normed="89995.061841" HC_normed="7.492321" PMx_normed="1.151838" NOx_normed="33.976620" fuel_normed="38.685536" electricity_normed="0"
            traveltime="0.03" CO_perVeh="0.308635" CO2_perVeh="23.185381" HC_perVeh="0.001930" PMx_perVeh="0.000297" NOx_perVeh="0.008753" fuel_perVeh="0.009967" electricity_perVeh="0"/>
        <edge id=":1110673464_0" sampledSeconds="325.60" CO_abs="797.181101" CO2_abs="60285.901999" HC_abs="5.016328" PMx_abs="0.881141" NOx_abs="23.448185" fuel_abs="25.914502" electricity_abs="0"
            CO_normed="42.431588" CO2_normed="3208.839934" HC_normed="0.267004" PMx_normed="0.046901" NOx_normed="1.248077" fuel_normed="1.379352" electricity_normed="0"
            traveltime="1.18" CO_perVeh="2.881705" CO2_perVeh="217.925582" HC_perVeh="0.018133" PMx_perVeh="0.003185" NOx_perVeh="0.084762" fuel_perVeh="0.093678" electricity_perVeh="0"/>
        <edge id=":1110673464_1" sampledSeconds="708.26" CO_abs="16554.639228" CO2_abs="2053870.960133" HC_abs="124.569722" PMx_abs="36.765244" NOx_abs="774.515871" fuel_abs="882.864665" electricity_abs="0"
            CO_normed="863.421238" CO2_normed="107121.380514" HC_normed="6.497039" PMx_normed="1.917522" NOx_normed="40.395532" fuel_normed="46.046555" electricity_normed="0"
            traveltime="0.70" CO_perVeh="16.354904" CO2_perVeh="2029.090574" HC_perVeh="0.123067" PMx_perVeh="0.036322" NOx_perVeh="0.765171" fuel_perVeh="0.872213" electricity_perVeh="0"/>
        <edge id=":1110673479_0" sampledSeconds="134.64" CO_abs="6214.223703" CO2_abs="434505.185827" HC_abs="38.473417" PMx_abs="7.426764" NOx_abs="176.510215" fuel_abs="186.775125" electricity_abs="0"
            CO_normed="15567.992576" CO2_normed="1088530.736935" HC_normed="96.384342" PMx_normed="18.605673" NOx_normed="442.196781" fuel_normed="467.912631" electricity_normed="0"
            traveltime="0.03" CO_perVeh="1.309085" CO2_perVeh="91.532660" HC_perVeh="0.008105" PMx_perVeh="0.001565" NOx_perVeh="0.037184" fuel_perVeh="0.039346" electricity_perVeh="0"/>
        <edge id=":1110673511_0" sampledSeconds="11.82" CO_abs="163.265371" CO2_abs="19279.401905" HC_abs="1.187442" PMx_abs="0.258678" NOx_abs="7.192358" fuel_abs="8.287418" electricity_abs="0"
            CO_normed="409.015543" CO2_normed="48299.127945" HC_normed="2.974801" PMx_normed="0.648044" NOx_normed="18.018434" fuel_normed="20.761799" electricity_normed="0"
            traveltime="0.02" CO_perVeh="0.323298" CO2_perVeh="38.177033" HC_perVeh="0.002351" PMx_perVeh="0.000512" NOx_perVeh="0.014242" fuel_perVeh="0.016411" electricity_perVeh="0"/>
        <edge id=":1110673517_0" sampledSeconds="17.35" CO_abs="690.262915" CO2_abs="48695.913102" HC_abs="4.287989" PMx_abs="0.851664" NOx_abs="19.879918" fuel_abs="20.932250" electricity_abs="0"
            CO_normed="1729.259912" CO2_normed="121993.936789" HC_normed="10.742352" PMx_normed="2.133606" NOx_normed="49.803552" fuel_normed="52.439876" electricity_normed="0"
            traveltime="0.03" CO_perVeh="1.108263" CO2_perVeh="78.184501" HC_perVeh="0.006885" PMx_perVeh="0.001367" NOx_perVeh="0.031919" fuel_perVeh="0.033608" electricity_perVeh="0"/>
        <edge id=":1110673534_0" sampledSeconds="474.63" CO_abs="2770.550177" CO2_abs="260998.400245" HC_abs="18.557790" PMx_abs="3.360074" NOx_abs="97.759790" fuel_abs="112.192985" electricity_abs="0"
            CO_normed="134.512316" CO2_normed="12671.670644" HC_normed="0.900995" PMx_normed="0.163134" NOx_normed="4.746312" fuel_normed="5.447055" electricity_normed="0"
            traveltime="1.43" CO_perVeh="8.346557" CO2_perVeh="786.283573" HC_perVeh="0.055907" PMx_perVeh="0.010123" NOx_perVeh="0.294511" fuel_perVeh="0.337992" electricity_perVeh="0"/>
        <edge id=":1110673534_1" sampledSeconds="184.20" CO_abs="2725.840542" CO2_abs="365328.256035" HC_abs="20.746799" PMx_abs="4.806831" NOx_abs="134.861365" fuel_abs="157.039419" electricity_abs="0"
            CO_normed="128.683946" CO2_normed="17246.746805" HC_normed="0.979434" PMx_normed="0.226925" NOx_normed="6.366657" fuel_normed="7.413659" electricity_normed="0"
            traveltime="1.22" CO_perVeh="18.098603" CO2_perVeh="2425.648464" HC_perVeh="0.137751" PMx_perVeh="0.031916" NOx_perVeh="0.895431" fuel_perVeh="1.042685" electricity_perVeh="0"/>
        <edge id=":1110673549_0" sampledSeconds="60.87" CO_abs="95.243581" CO2_abs="10450.868667" HC_abs="0.676815" PMx_abs="0.154007" NOx_abs="3.991320" fuel_abs="4.492381" electricity_abs="0"
            CO_normed="4.479463" CO2_normed="491.521594" HC_normed="0.031832" PMx_normed="0.007243" NOx_normed="0.187718" fuel_normed="0.211284" electricity_normed="0"
            traveltime="1.27" CO_perVeh="1.984319" CO2_perVeh="217.734946" HC_perVeh="0.014101" PMx_perVeh="0.003209" NOx_perVeh="0.083156" fuel_perVeh="0.093595" electricity_perVeh="0"/>
        <edge id=":1110673549_1" sampledSeconds="639.23" CO_abs="13802.855975" CO2_abs="1799595.698914" HC_abs="105.768134" PMx_abs="31.711397" NOx_abs="673.241195" fuel_abs="773.563788" electricity_abs="0"
            CO_normed="627.951209" CO2_normed="81871.338544" HC_normed="4.811847" PMx_normed="1.442688" NOx_normed="30.628634" fuel_normed="35.192740" electricity_normed="0"
            traveltime="0.80" CO_perVeh="17.379390" CO2_perVeh="2265.898895" HC_perVeh="0.133174" PMx_perVeh="0.039928" NOx_perVeh="0.847688" fuel_perVeh="0.974006" electricity_perVeh="0"/>
        <edge id=":1110673556_0" sampledSeconds="422.60" CO_abs="52139.580070" CO2_abs="2595809.289846" HC_abs="299.125681" PMx_abs="52.414695" NOx_abs="1118.653699" fuel_abs="1115.826258" electricity_abs="0"
            CO_normed="1818.390869" CO2_normed="90529.994754" HC_normed="10.432140" PMx_normed="1.827986" NOx_normed="39.013542" fuel_normed="38.914933" electricity_normed="0"
            traveltime="2.62" CO_perVeh="323.657089" CO2_perVeh="16113.518319" HC_perVeh="1.856826" PMx_perVeh="0.325365" NOx_perVeh="6.944057" fuel_perVeh="6.926505" electricity_perVeh="0"/>
        <edge id=":1110673556_2" sampledSeconds="251.04" CO_abs="24342.745050" CO2_abs="1036691.486927" HC_abs="135.201279" PMx_abs="20.114873" NOx_abs="442.950737" fuel_abs="445.632986" electricity_abs="0"
            CO_normed="887.684315" CO2_normed="37804.067314" HC_normed="4.930260" PMx_normed="0.733510" NOx_normed="16.152674" fuel_normed="16.250485" electricity_normed="0"
            traveltime="3.05" CO_perVeh="295.272833" CO2_perVeh="12574.869077" HC_perVeh="1.639966" PMx_perVeh="0.243990" NOx_perVeh="5.372908" fuel_perVeh="5.405443" electricity_perVeh="0"/>
        <edge id=":1110673556_3" sampledSeconds="417.46" CO_abs="35844.795617" CO2_abs="1297785.875773" HC_abs="193.451926" PMx_abs="24.816967" NOx_abs="553.726259" fuel_abs="557.872206" electricity_abs="0"
            CO_normed="2973.479154" CO2_normed="107656.890800" HC_normed="16.047665" PMx_normed="2.058674" NOx_normed="45.933962" fuel_normed="46.277886" electricity_normed="0"
            traveltime="1.71" CO_perVeh="146.974044" CO2_perVeh="5321.297988" HC_perVeh="0.793209" PMx_perVeh="0.101757" NOx_perVeh="2.270438" fuel_perVeh="2.287438" electricity_perVeh="0"/>
        <edge id=":1110673556_4" sampledSeconds="187.59" CO_abs="19710.192886" CO2_abs="787893.728390" HC_abs="108.213739" PMx_abs="15.267598" NOx_abs="336.980224" fuel_abs="338.685611" electricity_abs="0"
            CO_normed="998.887804" CO2_normed="39929.463948" HC_normed="5.484136" PMx_normed="0.773743" NOx_normed="17.077734" fuel_normed="17.164161" electricity_normed="0"
            traveltime="2.41" CO_perVeh="253.027268" CO2_perVeh="10114.492471" HC_perVeh="1.389181" PMx_perVeh="0.195996" NOx_perVeh="4.325944" fuel_perVeh="4.347836" electricity_perVeh="0"/>
        <edge id=":1110673556_5" sampledSeconds="25.43" CO_abs="2247.183068" CO2_abs="89332.462680" HC_abs="12.324027" PMx_abs="1.722904" NOx_abs="38.152585" fuel_abs="38.400659" electricity_abs="0"
            CO_normed="158.731753" CO2_normed="6310.077104" HC_normed="0.870519" PMx_normed="0.121699" NOx_normed="2.694941" fuel_normed="2.712464" electricity_normed="0"
            traveltime="1.76" CO_perVeh="155.360805" CO2_perVeh="6176.071494" HC_perVeh="0.852032" PMx_perVeh="0.119114" NOx_perVeh="2.637710" fuel_perVeh="2.654860" electricity_perVeh="0"/>
        <edge id=":1110673556_6" sampledSeconds="301.16" CO_abs="35827.159434" CO2_abs="1853436.917233" HC_abs="207.284895" PMx_abs="37.547579" NOx_abs="798.263120" fuel_abs="796.711195" electricity_abs="0"
            CO_normed="1280.992692" CO2_normed="66269.254473" HC_normed="7.411429" PMx_normed="1.342506" NOx_normed="28.541733" fuel_normed="28.486244" electricity_normed="0"
            traveltime="2.38" CO_perVeh="283.722282" CO2_perVeh="14677.729429" HC_perVeh="1.641530" PMx_perVeh="0.297347" NOx_perVeh="6.321602" fuel_perVeh="6.309312" electricity_perVeh="0"/>
        <edge id=":1110673561_0" sampledSeconds="99.42" CO_abs="10751.571344" CO2_abs="758840.797732" HC_abs="67.268514" PMx_abs="15.545967" NOx_abs="322.411384" fuel_abs="326.189319" electricity_abs="0"
            CO_normed="482.995392" CO2_normed="34089.585319" HC_normed="3.021919" PMx_normed="0.698375" NOx_normed="14.483763" fuel_normed="14.653480" electricity_normed="0"
            traveltime="1.17" CO_perVeh="126.878977" CO2_perVeh="8955.057944" HC_perVeh="0.793834" PMx_perVeh="0.183458" NOx_perVeh="3.804767" fuel_perVeh="3.849351" electricity_perVeh="0"/>
        <edge id=":1110673561_1" sampledSeconds="1319.01" CO_abs="121730.213763" CO2_abs="8399423.363715" HC_abs="757.531215" PMx_abs="175.808130" NOx_abs="3593.751291" fuel_abs="3610.506380" electricity_abs="0"
            CO_normed="5331.483733" CO2_normed="367874.068808" HC_normed="33.178003" PMx_normed="7.699963" NOx_normed="157.397461" fuel_normed="158.131292" electricity_normed="0"
            traveltime="1.20" CO_perVeh="110.486038" CO2_perVeh="7623.571651" HC_perVeh="0.687558" PMx_perVeh="0.159569" NOx_perVeh="3.261798" fuel_perVeh="3.277005" electricity_perVeh="0"/>
        <edge id=":1110673562_0" sampledSeconds="104.20" CO_abs="2244.907923" CO2_abs="170606.476765" HC_abs="14.115449" PMx_abs="2.338241" NOx_abs="65.383724" fuel_abs="73.337136" electricity_abs="0"
            CO_normed="6248.873829" CO2_normed="474896.247083" HC_normed="39.291437" PMx_normed="6.508674" NOx_normed="182.000624" fuel_normed="204.139556" electricity_normed="0"
            traveltime="0.03" CO_perVeh="0.572241" CO2_perVeh="43.488638" HC_perVeh="0.003598" PMx_perVeh="0.000596" NOx_perVeh="0.016667" fuel_perVeh="0.018694" electricity_perVeh="0"/>
        <edge id=":1110673564_0" sampledSeconds="28.40" CO_abs="547.670122" CO2_abs="57189.683515" HC_abs="3.813778" PMx_abs="0.855090" NOx_abs="21.966549" fuel_abs="24.583393" electricity_abs="0"
            CO_normed="4116.101122" CO2_normed="429818.080699" HC_normed="28.663051" PMx_normed="6.426560" NOx_normed="165.093060" fuel_normed="184.760364" electricity_normed="0"
            traveltime="7.806918e-03" CO_perVeh="0.150565" CO2_perVeh="15.722518" HC_perVeh="0.001048" PMx_perVeh="0.000235" NOx_perVeh="0.006039" fuel_perVeh="0.006758" electricity_perVeh="0"/>
        <edge id=":1110673588_0" sampledSeconds="11.67" CO_abs="159.187644" CO2_abs="23597.764812" HC_abs="1.268004" PMx_abs="0.301978" NOx_abs="8.630665" fuel_abs="10.143700" electricity_abs="0"
            CO_normed="478.559931" CO2_normed="70941.088371" HC_normed="3.811955" PMx_normed="0.907825" NOx_normed="25.946050" fuel_normed="30.494629" electricity_normed="0"
            traveltime="0.02" CO_perVeh="0.265313" CO2_perVeh="39.329608" HC_perVeh="0.002113" PMx_perVeh="0.000503" NOx_perVeh="0.014384" fuel_perVeh="0.016906" electricity_perVeh="0"/>
        <edge id=":1110673601_0" sampledSeconds="29.58" CO_abs="547.785203" CO2_abs="62743.426145" HC_abs="3.941844" PMx_abs="0.881311" NOx_abs="23.673770" fuel_abs="26.970758" electricity_abs="0"
            CO_normed="1470.345013" CO2_normed="168413.610292" HC_normed="10.580552" PMx_normed="2.365584" NOx_normed="63.544269" fuel_normed="72.393922" electricity_normed="0"
            traveltime="0.02" CO_perVeh="0.406574" CO2_perVeh="46.569011" HC_perVeh="0.002926" PMx_perVeh="0.000654" NOx_perVeh="0.017571" fuel_perVeh="0.020018" electricity_perVeh="0"/>
        <edge id=":1110673617_0" sampledSeconds="238.10" CO_abs="6034.182277" CO2_abs="763835.802277" HC_abs="45.685724" PMx_abs="13.574717" NOx_abs="287.126971" fuel_abs="328.337942" electricity_abs="0"
            CO_normed="15116.949338" CO2_normed="1913576.122613" HC_normed="114.452753" PMx_normed="34.007641" NOx_normed="719.316002" fuel_normed="822.558519" electricity_normed="0"
            traveltime="0.01" CO_perVeh="0.369623" CO2_perVeh="46.788602" HC_perVeh="0.002798" PMx_perVeh="0.000832" NOx_perVeh="0.017588" fuel_perVeh="0.020112" electricity_perVeh="0"/>
        <edge id=":1110673621_0" sampledSeconds="26.00" CO_abs="473.032215" CO2_abs="50817.991065" HC_abs="3.333025" PMx_abs="0.737199" NOx_abs="19.370752" fuel_abs="21.844500" electricity_abs="0"
            CO_normed="1422.059269" CO2_normed="152772.248712" HC_normed="10.019950" PMx_normed="2.216214" NOx_normed="58.233576" fuel_normed="65.670315" electricity_normed="0"
            traveltime="0.02" CO_perVeh="0.358358" CO2_perVeh="38.498478" HC_perVeh="0.002525" PMx_perVeh="0.000558" NOx_perVeh="0.014675" fuel_perVeh="0.016549" electricity_perVeh="0"/>
        <edge id=":1110673630_0" sampledSeconds="54.68" CO_abs="111.648891" CO2_abs="8679.661940" HC_abs="0.704900" PMx_abs="0.110411" NOx_abs="3.270726" fuel_abs="3.731062" electricity_abs="0"
            CO_normed="5.985127" CO2_normed="465.287927" HC_normed="0.037787" PMx_normed="0.005919" NOx_normed="0.175333" fuel_normed="0.200010" electricity_normed="0"
            traveltime="1.28" CO_perVeh="2.606083" CO2_perVeh="202.598662" HC_perVeh="0.016454" PMx_perVeh="0.002577" NOx_perVeh="0.076345" fuel_perVeh="0.087090" electricity_perVeh="0"/>
        <edge id=":1110673630_1" sampledSeconds="7.51" CO_abs="9.808088" CO2_abs="869.222489" HC_abs="0.065043" PMx_abs="0.014244" NOx_abs="0.345109" fuel_abs="0.373641" electricity_abs="0"
            CO_normed="0.640993" CO2_normed="56.806771" HC_normed="0.004251" PMx_normed="0.000931" NOx_normed="0.022554" fuel_normed="0.024419" electricity_normed="0"
            traveltime="1.06" CO_perVeh="1.388222" CO2_perVeh="123.028414" HC_perVeh="0.009206" PMx_perVeh="0.002016" NOx_perVeh="0.048846" fuel_perVeh="0.052885" electricity_perVeh="0"/>
        <edge id=":1110673650_0" sampledSeconds="143.46" CO_abs="2187.491958" CO2_abs="279161.422831" HC_abs="16.311867" PMx_abs="3.821800" NOx_abs="104.123647" fuel_abs="119.999725" electricity_abs="0"
            CO_normed="5480.146868" CO2_normed="699360.558241" HC_normed="40.864802" PMx_normed="9.574446" NOx_normed="260.852559" fuel_normed="300.625615" electricity_normed="0"
            traveltime="0.02" CO_perVeh="0.351216" CO2_perVeh="44.821208" HC_perVeh="0.002619" PMx_perVeh="0.000614" NOx_perVeh="0.016718" fuel_perVeh="0.019267" electricity_perVeh="0"/>
        <edge id=":1110673655_0" sampledSeconds="44.79" CO_abs="1007.875463" CO2_abs="107058.512899" HC_abs="7.070191" PMx_abs="1.555201" NOx_abs="40.860980" fuel_abs="46.019919" electricity_abs="0"
            CO_normed="2524.948967" CO2_normed="268205.042754" HC_normed="17.712379" PMx_normed="3.896120" NOx_normed="102.365712" fuel_normed="115.289985" electricity_normed="0"
            traveltime="0.02" CO_perVeh="0.539404" CO2_perVeh="57.296501" HC_perVeh="0.003784" PMx_perVeh="0.000832" NOx_perVeh="0.021868" fuel_perVeh="0.024629" electricity_perVeh="0"/>
        <edge id=":1110673663_0" sampledSeconds="108.21" CO_abs="2010.745385" CO2_abs="238100.918624" HC_abs="14.617758" PMx_abs="3.303292" NOx_abs="89.392204" fuel_abs="102.349580" electricity_abs="0"
            CO_normed="92.259303" CO2_normed="10924.816748" HC_normed="0.670709" PMx_normed="0.151565" NOx_normed="4.101595" fuel_normed="4.696120" electricity_normed="0"
            traveltime="1.27" CO_perVeh="23.617153" CO2_perVeh="2796.607615" HC_perVeh="0.171692" PMx_perVeh="0.038799" NOx_perVeh="1.049954" fuel_perVeh="1.202144" electricity_perVeh="0"/>
        <edge id=":1110673663_1" sampledSeconds="153.66" CO_abs="2494.223991" CO2_abs="299900.872886" HC_abs="18.264292" PMx_abs="4.276685" NOx_abs="113.144100" fuel_abs="128.914594" electricity_abs="0"
            CO_normed="114.582723" CO2_normed="13777.214429" HC_normed="0.839047" PMx_normed="0.196468" NOx_normed="5.197753" fuel_normed="5.922237" electricity_normed="0"
            traveltime="1.25" CO_perVeh="20.237446" CO2_perVeh="2433.312989" HC_perVeh="0.148191" PMx_perVeh="0.034700" NOx_perVeh="0.918020" fuel_perVeh="1.045977" electricity_perVeh="0"/>
        <edge id=":1110673666_0" sampledSeconds="191.50" CO_abs="4007.592333" CO2_abs="319552.743511" HC_abs="25.532181" PMx_abs="4.283968" NOx_abs="121.596866" fuel_abs="137.363387" electricity_abs="0"