<?xml version="1.0" encoding="UTF-8"?>

<!-- generated on Tue Nov 10 00:25:37 2020 by Eclipse SUMO sumo Version 1.7.0
<configuration xmlns:xsi="http://www.w3.org/2001/XMLSchema-instance" xsi:noNamespaceSchemaLocation="http://sumo.dlr.de/xsd/sumoConfiguration.xsd">

    <input>
        <net-file value="../dataSets/Porto/6AM7AM_Routing_SaoBento/Porto.net.xml"/>
        <route-files value="../results/Porto/6AM7AM_Routing_SaoBento/cost_nox-length/solution5/Porto.rou.xml"/>
        <additional-files value="moreOutputInfo.xml"/>
    </input>

    <output>
        <emission-output.precision value="6"/>
        <tripinfo-output value="../results/Porto/6AM7AM_Routing_SaoBento/cost_nox-length/solution5/Porto-tripinfo"/>
    </output>

    <processing>
        <collision.action value="warn"/>
        <time-to-teleport value="-1"/>
    </processing>

    <emissions>
        <device.emissions.probability value="1"/>
    </emissions>

    <gui_only>
        <quit-on-end value="true"/>
        <start value="true"/>
    </gui_only>

</configuration>
-->

<meandata xmlns:xsi="http://www.w3.org/2001/XMLSchema-instance" xsi:noNamespaceSchemaLocation="http://sumo.dlr.de/xsd/meandata_file.xsd">
    <interval begin="0.00" end="4699.00" id="emissions-detector">
        <edge id=":1092997347_0" sampledSeconds="270.54" CO_abs="34834.901878" CO2_abs="1369069.899393" HC_abs="190.961422" PMx_abs="27.942031" NOx_abs="594.442118" fuel_abs="588.509556" electricity_abs="0"
            CO_normed="60653.933506" CO2_normed="2383801.020438" HC_normed="332.498752" PMx_normed="48.652185" NOx_normed="1035.032417" fuel_normed="1024.702743" electricity_normed="0"
            traveltime="0.08" CO_perVeh="9.779395" CO2_perVeh="384.346593" HC_perVeh="0.053610" PMx_perVeh="0.007844" NOx_perVeh="0.166881" fuel_perVeh="0.165216" electricity_perVeh="0"/>
        <edge id=":1103427051_0" sampledSeconds="11.33" CO_abs="783.534149" CO2_abs="43359.547131" HC_abs="4.594493" PMx_abs="0.839812" NOx_abs="18.446074" fuel_abs="18.638377" electricity_abs="0"
            CO_normed="2069.936330" CO2_normed="114547.020035" HC_normed="12.137706" PMx_normed="2.218610" NOx_normed="48.730741" fuel_normed="49.238764" electricity_normed="0"
            traveltime="0.03" CO_perVeh="2.146872" CO2_perVeh="118.804504" HC_perVeh="0.012589" PMx_perVeh="0.002301" NOx_perVeh="0.050542" fuel_perVeh="0.051069" electricity_perVeh="0"/>
        <edge id=":1105984386_0" sampledSeconds="22.90" CO_abs="389.789875" CO2_abs="31239.768314" HC_abs="2.485377" PMx_abs="0.410613" NOx_abs="11.838725" fuel_abs="13.428781" electricity_abs="0"
            CO_normed="30.754479" CO2_normed="2464.822389" HC_normed="0.196097" PMx_normed="0.032397" NOx_normed="0.934077" fuel_normed="1.059533" electricity_normed="0"
            traveltime="0.96" CO_perVeh="16.359179" CO2_perVeh="1311.108879" HC_perVeh="0.104309" PMx_perVeh="0.017233" NOx_perVeh="0.496862" fuel_perVeh="0.563596" electricity_perVeh="0"/>
        <edge id=":1105984390_0" sampledSeconds="23.05" CO_abs="31.385716" CO2_abs="3575.109586" HC_abs="0.224963" PMx_abs="0.046081" NOx_abs="1.315051" fuel_abs="1.536796" electricity_abs="0"
            CO_normed="1.914430" CO2_normed="218.070427" HC_normed="0.013722" PMx_normed="0.002811" NOx_normed="0.080214" fuel_normed="0.093740" electricity_normed="0"
            traveltime="1.05" CO_perVeh="1.423327" CO2_perVeh="162.129464" HC_perVeh="0.010202" PMx_perVeh="0.002090" NOx_perVeh="0.059637" fuel_perVeh="0.069693" electricity_perVeh="0"/>
        <edge id=":1105984390_1" sampledSeconds="645.69" CO_abs="15675.477912" CO2_abs="2003973.726492" HC_abs="119.376331" PMx_abs="35.611388" NOx_abs="751.669773" fuel_abs="861.416375" electricity_abs="0"
            CO_normed="914.646170" CO2_normed="116929.570103" HC_normed="6.965472" PMx_normed="2.077884" NOx_normed="43.859070" fuel_normed="50.262658" electricity_normed="0"
            traveltime="0.64" CO_perVeh="15.439930" CO2_perVeh="1973.861011" HC_perVeh="0.117583" PMx_perVeh="0.035076" NOx_perVeh="0.740375" fuel_perVeh="0.848472" electricity_perVeh="0"/>
        <edge id=":1105984395_0" sampledSeconds="8.80" CO_abs="145.925587" CO2_abs="13538.281117" HC_abs="0.969435" PMx_abs="0.157052" NOx_abs="4.969255" fuel_abs="5.819604" electricity_abs="0"
            CO_normed="121.518018" CO2_normed="11273.863084" HC_normed="0.807287" PMx_normed="0.130783" NOx_normed="4.138096" fuel_normed="4.846215" electricity_normed="0"
            traveltime="0.09" CO_perVeh="1.479845" CO2_perVeh="137.292974" HC_perVeh="0.009831" PMx_perVeh="0.001593" NOx_perVeh="0.050394" fuel_perVeh="0.059017" electricity_perVeh="0"/>
        <edge id=":1105984398_0" sampledSeconds="22.88" CO_abs="1410.999042" CO2_abs="97319.694309" HC_abs="8.728802" PMx_abs="1.793593" NOx_abs="40.383660" fuel_abs="41.833375" electricity_abs="0"
            CO_normed="89.412343" CO2_normed="6166.965104" HC_normed="0.553128" PMx_normed="0.113657" NOx_normed="2.559036" fuel_normed="2.650902" electricity_normed="0"
            traveltime="1.11" CO_perVeh="68.371606" CO2_perVeh="4715.739384" HC_perVeh="0.422964" PMx_perVeh="0.086911" NOx_perVeh="1.956837" fuel_perVeh="2.027085" electricity_perVeh="0"/>
        <edge id=":1105984398_1" sampledSeconds="450.32" CO_abs="7937.165237" CO2_abs="933950.682764" HC_abs="57.607529" PMx_abs="13.419979" NOx_abs="353.311753" fuel_abs="401.465513" electricity_abs="0"
            CO_normed="486.855453" CO2_normed="57287.327337" HC_normed="3.533571" PMx_normed="0.823164" NOx_normed="21.671686" fuel_normed="24.625376" electricity_normed="0"
            traveltime="0.95" CO_perVeh="16.815341" CO2_perVeh="1978.628263" HC_perVeh="0.122045" PMx_perVeh="0.028431" NOx_perVeh="0.748511" fuel_perVeh="0.850528" electricity_perVeh="0"/>
        <edge id=":1106006327_0" sampledSeconds="37.18" CO_abs="5088.466443" CO2_abs="170346.579351" HC_abs="27.187114" PMx_abs="3.567765" NOx_abs="74.665160" fuel_abs="73.225820" electricity_abs="0"
            CO_normed="439.997540" CO2_normed="14729.796639" HC_normed="2.350858" PMx_normed="0.308503" NOx_normed="6.456265" fuel_normed="6.331806" electricity_normed="0"
            traveltime="2.02" CO_perVeh="276.045877" CO2_perVeh="9241.187197" HC_perVeh="1.474883" PMx_perVeh="0.193549" NOx_perVeh="4.050535" fuel_perVeh="3.972451" electricity_perVeh="0"/>
        <edge id=":1106006327_1" sampledSeconds="162.01" CO_abs="22053.256012" CO2_abs="736794.082247" HC_abs="117.788587" PMx_abs="15.405972" NOx_abs="322.667397" fuel_abs="316.721161" electricity_abs="0"
            CO_normed="1662.938036" CO2_normed="55558.367589" HC_normed="8.881914" PMx_normed="1.161696" NOx_normed="24.330915" fuel_normed="23.882535" electricity_normed="0"
            traveltime="2.30" CO_perVeh="313.074392" CO2_perVeh="10459.741610" HC_perVeh="1.672161" PMx_perVeh="0.218708" NOx_perVeh="4.580680" fuel_perVeh="4.496265" electricity_perVeh="0"/>
        <edge id=":1106006327_2" sampledSeconds="0.00" CO_abs="0" CO2_abs="0" HC_abs="0" PMx_abs="0" NOx_abs="0" fuel_abs="0" electricity_abs="0"
            CO_normed="0" CO2_normed="0" HC_normed="0" PMx_normed="0" NOx_normed="0" fuel_normed="0" electricity_normed="0"/>
        <edge id=":1106006327_3" sampledSeconds="0.00" CO_abs="0" CO2_abs="0" HC_abs="0" PMx_abs="0" NOx_abs="0" fuel_abs="0" electricity_abs="0"
            CO_normed="0" CO2_normed="0" HC_normed="0" PMx_normed="0" NOx_normed="0" fuel_normed="0" electricity_normed="0"/>
        <edge id=":1107381198_0" sampledSeconds="0.00" CO_abs="0" CO2_abs="0" HC_abs="0" PMx_abs="0" NOx_abs="0" fuel_abs="0" electricity_abs="0"
            CO_normed="0" CO2_normed="0" HC_normed="0" PMx_normed="0" NOx_normed="0" fuel_normed="0" electricity_normed="0"/>
        <edge id=":1107381198_1" sampledSeconds="36.42" CO_abs="1434.635132" CO2_abs="60477.614882" HC_abs="7.929033" PMx_abs="1.051871" NOx_abs="25.092714" fuel_abs="25.997148" electricity_abs="0"
            CO_normed="119.858595" CO2_normed="5052.686761" HC_normed="0.662442" PMx_normed="0.087880" NOx_normed="2.096406" fuel_normed="2.171968" electricity_normed="0"
            traveltime="1.50" CO_perVeh="59.067907" CO2_perVeh="2490.031108" HC_perVeh="0.326460" PMx_perVeh="0.043308" NOx_perVeh="1.033137" fuel_perVeh="1.070375" electricity_perVeh="0"/>
        <edge id=":1110338277_0" sampledSeconds="97.04" CO_abs="1289.174260" CO2_abs="165679.474512" HC_abs="9.646466" PMx_abs="2.208169" NOx_abs="61.463381" fuel_abs="71.218702" electricity_abs="0"
            CO_normed="3527.367021" CO2_normed="453322.977718" HC_normed="26.394124" PMx_normed="6.041868" NOx_normed="168.172690" fuel_normed="194.864658" electricity_normed="0"
            traveltime="0.02" CO_perVeh="0.290539" CO2_perVeh="37.338924" HC_perVeh="0.002174" PMx_perVeh="0.000498" NOx_perVeh="0.013852" fuel_perVeh="0.016050" electricity_perVeh="0"/>
        <edge id=":1110338293_0" sampledSeconds="123.59" CO_abs="6293.849554" CO2_abs="430592.323963" HC_abs="38.797517" PMx_abs="7.667859" NOx_abs="177.049741" fuel_abs="185.092785" electricity_abs="0"
            CO_normed="16072.822865" CO2_normed="1099618.618335" HC_normed="99.078570" PMx_normed="19.581680" NOx_normed="452.138091" fuel_normed="472.677893" electricity_normed="0"
            traveltime="0.03" CO_perVeh="1.443599" CO2_perVeh="98.763483" HC_perVeh="0.008899" PMx_perVeh="0.001759" NOx_perVeh="0.040609" fuel_perVeh="0.042454" electricity_perVeh="0"/>
        <edge id=":1110338295_0" sampledSeconds="0.00" CO_abs="0" CO2_abs="0" HC_abs="0" PMx_abs="0" NOx_abs="0" fuel_abs="0" electricity_abs="0"
            CO_normed="0" CO2_normed="0" HC_normed="0" PMx_normed="0" NOx_normed="0" fuel_normed="0" electricity_normed="0"/>
        <edge id=":1110673403_0" sampledSeconds="143.84" CO_abs="2243.727167" CO2_abs="271246.799184" HC_abs="16.464032" PMx_abs="3.792938" NOx_abs="101.943718" fuel_abs="116.597528" electricity_abs="0"
            CO_normed="5729.884231" CO2_normed="692692.400554" HC_normed="42.044771" PMx_normed="9.686159" NOx_normed="260.337224" fuel_normed="297.759168" electricity_normed="0"
            traveltime="0.02" CO_perVeh="0.360245" CO2_perVeh="43.550463" HC_perVeh="0.002643" PMx_perVeh="0.000609" NOx_perVeh="0.016368" fuel_perVeh="0.018721" electricity_perVeh="0"/>
        <edge id=":1110673412_0" sampledSeconds="253.63" CO_abs="45173.663001" CO2_abs="3077832.953188" HC_abs="281.022272" PMx_abs="67.659077" NOx_abs="1323.305018" fuel_abs="1323.008769" electricity_abs="0"
            CO_normed="119339.541652" CO2_normed="8131002.657554" HC_normed="742.403137" PMx_normed="178.741389" NOx_normed="3495.900129" fuel_normed="3495.117501" electricity_normed="0"
            traveltime="0.02" CO_perVeh="2.776195" CO2_perVeh="189.151444" HC_perVeh="0.017271" PMx_perVeh="0.004158" NOx_perVeh="0.081325" fuel_perVeh="0.081307" electricity_perVeh="0"/>
        <edge id=":1110673414_0" sampledSeconds="0.00" CO_abs="0" CO2_abs="0" HC_abs="0" PMx_abs="0" NOx_abs="0" fuel_abs="0" electricity_abs="0"
            CO_normed="0" CO2_normed="0" HC_normed="0" PMx_normed="0" NOx_normed="0" fuel_normed="0" electricity_normed="0"/>
        <edge id=":1110673414_1" sampledSeconds="14.52" CO_abs="981.558559" CO2_abs="36978.967092" HC_abs="5.333620" PMx_abs="0.713488" NOx_abs="15.805409" fuel_abs="15.895907" electricity_abs="0"
            CO_normed="83.277086" CO2_normed="3137.358023" HC_normed="0.452513" PMx_normed="0.060533" NOx_normed="1.340958" fuel_normed="1.348636" electricity_normed="0"
            traveltime="1.59" CO_perVeh="107.202150" CO2_perVeh="4038.704316" HC_perVeh="0.582518" PMx_perVeh="0.077924" NOx_perVeh="1.726208" fuel_perVeh="1.736091" electricity_perVeh="0"/>
        <edge id=":1110673417_0" sampledSeconds="29.78" CO_abs="428.185496" CO2_abs="55370.130421" HC_abs="3.205127" PMx_abs="0.722976" NOx_abs="20.454731" fuel_abs="23.801331" electricity_abs="0"
            CO_normed="1171.577376" CO2_normed="151500.676067" HC_normed="8.769689" PMx_normed="1.978166" NOx_normed="55.967099" fuel_normed="65.123879" electricity_normed="0"
            traveltime="0.02" CO_perVeh="0.317805" CO2_perVeh="41.096452" HC_perVeh="0.002379" PMx_perVeh="0.000537" NOx_perVeh="0.015182" fuel_perVeh="0.017666" electricity_perVeh="0"/>
        <edge id=":1110673446_0" sampledSeconds="335.48" CO_abs="3400.420768" CO2_abs="269651.436681" HC_abs="21.898214" PMx_abs="4.976110" NOx_abs="110.611392" fuel_abs="115.910759" electricity_abs="0"
            CO_normed="8683.772976" CO2_normed="688618.267753" HC_normed="55.922231" PMx_normed="12.707665" NOx_normed="282.472166" fuel_normed="296.005344" electricity_normed="0"
            traveltime="0.02" CO_perVeh="0.231924" CO2_perVeh="18.391425" HC_perVeh="0.001494" PMx_perVeh="0.000339" NOx_perVeh="0.007544" fuel_perVeh="0.007906" electricity_perVeh="0"/>
        <edge id=":1110673451_0" sampledSeconds="37.80" CO_abs="400.972135" CO2_abs="27765.860972" HC_abs="2.461069" PMx_abs="0.398319" NOx_abs="10.803406" fuel_abs="11.935470" electricity_abs="0"
            CO_normed="1137.751677" CO2_normed="78785.162720" HC_normed="6.983243" PMx_normed="1.130225" NOx_normed="30.654484" fuel_normed="33.866694" electricity_normed="0"
            traveltime="0.03" CO_perVeh="0.287550" CO2_perVeh="19.911773" HC_perVeh="0.001765" PMx_perVeh="0.000286" NOx_perVeh="0.007747" fuel_perVeh="0.008559" electricity_perVeh="0"/>
        <edge id=":1110673464_0" sampledSeconds="323.55" CO_abs="612.870765" CO2_abs="45728.186240" HC_abs="3.836312" PMx_abs="0.639691" NOx_abs="17.613950" fuel_abs="19.656770" electricity_abs="0"
            CO_normed="33.253033" CO2_normed="2481.111804" HC_normed="0.208150" PMx_normed="0.034708" NOx_normed="0.955695" fuel_normed="1.066534" electricity_normed="0"
            traveltime="1.17" CO_perVeh="2.215449" CO2_perVeh="165.301503" HC_perVeh="0.013868" PMx_perVeh="0.002312" NOx_perVeh="0.063672" fuel_perVeh="0.071057" electricity_perVeh="0"/>
        <edge id=":1110673464_1" sampledSeconds="709.29" CO_abs="17828.022539" CO2_abs="2162348.385654" HC_abs="132.970097" PMx_abs="38.974741" NOx_abs="818.391103" fuel_abs="929.493922" electricity_abs="0"
            CO_normed="947.842656" CO2_normed="114963.172851" HC_normed="7.069473" PMx_normed="2.072127" NOx_normed="43.510490" fuel_normed="49.417370" electricity_normed="0"
            traveltime="0.70" CO_perVeh="17.592445" CO2_perVeh="2133.775326" HC_perVeh="0.131213" PMx_perVeh="0.038460" NOx_perVeh="0.807577" fuel_perVeh="0.917212" electricity_perVeh="0"/>
        <edge id=":1110673479_0" sampledSeconds="133.01" CO_abs="7056.048124" CO2_abs="480078.605487" HC_abs="43.449413" PMx_abs="8.641062" NOx_abs="198.025002" fuel_abs="206.364660" electricity_abs="0"
            CO_normed="18019.275906" CO2_normed="1225993.459426" HC_normed="110.958278" PMx_normed="22.066981" NOx_normed="505.703345" fuel_normed="527.000621" electricity_normed="0"
            traveltime="0.03" CO_perVeh="1.486423" CO2_perVeh="101.133054" HC_perVeh="0.009153" PMx_perVeh="0.001820" NOx_perVeh="0.041716" fuel_perVeh="0.043473" electricity_perVeh="0"/>
        <edge id=":1110673511_0" sampledSeconds="11.82" CO_abs="179.960454" CO2_abs="22090.385343" HC_abs="1.330017" PMx_abs="0.302413" NOx_abs="8.255821" fuel_abs="9.495731" electricity_abs="0"
            CO_normed="459.571281" CO2_normed="56412.986616" HC_normed="3.396511" PMx_normed="0.772283" NOx_normed="21.083179" fuel_normed="24.249579" electricity_normed="0"
            traveltime="0.02" CO_perVeh="0.356357" CO2_perVeh="43.743337" HC_perVeh="0.002634" PMx_perVeh="0.000599" NOx_perVeh="0.016348" fuel_perVeh="0.018803" electricity_perVeh="0"/>
        <edge id=":1110673517_0" sampledSeconds="17.12" CO_abs="821.907219" CO2_abs="59311.978990" HC_abs="5.134533" PMx_abs="1.019058" NOx_abs="24.065344" fuel_abs="25.495649" electricity_abs="0"
            CO_normed="2098.933099" CO2_normed="151467.067010" HC_normed="13.112237" PMx_normed="2.602405" NOx_normed="61.456508" fuel_normed="65.109128" electricity_normed="0"
            traveltime="0.03" CO_perVeh="1.319626" CO2_perVeh="95.229295" HC_perVeh="0.008244" PMx_perVeh="0.001636" NOx_perVeh="0.038638" fuel_perVeh="0.040935" electricity_perVeh="0"/>
        <edge id=":1110673534_0" sampledSeconds="475.29" CO_abs="2422.191355" CO2_abs="233974.695158" HC_abs="16.338010" PMx_abs="2.876338" NOx_abs="86.681139" fuel_abs="100.576717" electricity_abs="0"
            CO_normed="119.876637" CO2_normed="11579.638179" HC_normed="0.808584" PMx_normed="0.142353" NOx_normed="4.289935" fuel_normed="4.977641" electricity_normed="0"
            traveltime="1.43" CO_perVeh="7.297092" CO2_perVeh="704.871980" HC_perVeh="0.049220" PMx_perVeh="0.008665" NOx_perVeh="0.261136" fuel_perVeh="0.302997" electricity_perVeh="0"/>
        <edge id=":1110673534_1" sampledSeconds="183.99" CO_abs="2690.297146" CO2_abs="334132.105645" HC_abs="19.856915" PMx_abs="4.559752" NOx_abs="124.671397" fuel_abs="143.629375" electricity_abs="0"
            CO_normed="129.465557" CO2_normed="16079.487407" HC_normed="0.955577" PMx_normed="0.219430" NOx_normed="5.999580" fuel_normed="6.911897" electricity_normed="0"
            traveltime="1.22" CO_perVeh="17.862607" CO2_perVeh="2218.517225" HC_perVeh="0.131843" PMx_perVeh="0.030275" NOx_perVeh="0.827773" fuel_perVeh="0.953647" electricity_perVeh="0"/>
        <edge id=":1110673549_0" sampledSeconds="59.43" CO_abs="43.961517" CO2_abs="3137.759711" HC_abs="0.270180" PMx_abs="0.035457" NOx_abs="1.158057" fuel_abs="1.348815" electricity_abs="0"
            CO_normed="2.107623" CO2_normed="150.431908" HC_normed="0.012953" PMx_normed="0.001700" NOx_normed="0.055520" fuel_normed="0.064666" electricity_normed="0"
            traveltime="1.24" CO_perVeh="0.915901" CO2_perVeh="65.372551" HC_perVeh="0.005629" PMx_perVeh="0.000739" NOx_perVeh="0.024127" fuel_perVeh="0.028101" electricity_perVeh="0"/>
        <edge id=":1110673549_1" sampledSeconds="638.44" CO_abs="14282.684307" CO2_abs="1852513.365577" HC_abs="109.274015" PMx_abs="32.738134" NOx_abs="693.401343" fuel_abs="796.310623" electricity_abs="0"
            CO_normed="662.364198" CO2_normed="85910.918609" HC_normed="5.067619" PMx_normed="1.518242" NOx_normed="32.156716" fuel_normed="36.929168" electricity_normed="0"
            traveltime="0.80" CO_perVeh="17.989478" CO2_perVeh="2333.297218" HC_perVeh="0.137634" PMx_perVeh="0.041235" NOx_perVeh="0.873360" fuel_perVeh="1.002978" electricity_perVeh="0"/>
        <edge id=":1110673556_0" sampledSeconds="411.98" CO_abs="50863.142166" CO2_abs="2580345.287080" HC_abs="292.979603" PMx_abs="52.077550" NOx_abs="1111.229635" fuel_abs="1109.178225" electricity_abs="0"
            CO_normed="1808.227073" CO2_normed="91733.424384" HC_normed="10.415669" PMx_normed="1.851400" NOx_normed="39.505139" fuel_normed="39.432210" electricity_normed="0"
            traveltime="2.56" CO_perVeh="315.733585" CO2_perVeh="16017.525330" HC_perVeh="1.818675" PMx_perVeh="0.323272" NOx_perVeh="6.897972" fuel_perVeh="6.885238" electricity_perVeh="0"/>
        <edge id=":1110673556_2" sampledSeconds="244.98" CO_abs="22755.424327" CO2_abs="988956.204565" HC_abs="126.837140" PMx_abs="19.029069" NOx_abs="421.406554" fuel_abs="425.113318" electricity_abs="0"
            CO_normed="845.870740" CO2_normed="36761.745445" HC_normed="4.714824" PMx_normed="0.707354" NOx_normed="15.664638" fuel_normed="15.802426" electricity_normed="0"
            traveltime="2.97" CO_perVeh="276.018936" CO2_perVeh="11995.849249" HC_perVeh="1.538510" PMx_perVeh="0.230819" NOx_perVeh="5.111581" fuel_perVeh="5.156543" electricity_perVeh="0"/>
        <edge id=":1110673556_3" sampledSeconds="406.49" CO_abs="33485.222556" CO2_abs="1200097.639068" HC_abs="180.418397" PMx_abs="22.937449" NOx_abs="512.033654" fuel_abs="515.879792" electricity_abs="0"
            CO_normed="2831.535741" CO2_normed="101481.163872" HC_normed="15.256316" PMx_normed="1.939608" NOx_normed="43.297953" fuel_normed="43.623185" electricity_normed="0"
            traveltime="1.73" CO_perVeh="142.648427" CO2_perVeh="5112.465374" HC_perVeh="0.768590" PMx_perVeh="0.097714" NOx_perVeh="2.181284" fuel_perVeh="2.197669" electricity_perVeh="0"/>
        <edge id=":1110673556_4" sampledSeconds="206.16" CO_abs="22086.888349" CO2_abs="888269.883437" HC_abs="121.433241" PMx_abs="17.417164" NOx_abs="381.136019" fuel_abs="381.833093" electricity_abs="0"
            CO_normed="1141.012601" CO2_normed="45888.180974" HC_normed="6.273263" PMx_normed="0.899774" NOx_normed="19.689555" fuel_normed="19.725566" electricity_normed="0"
            traveltime="2.40" CO_perVeh="257.365093" CO2_perVeh="10350.469373" HC_perVeh="1.414988" PMx_perVeh="0.202952" NOx_perVeh="4.441147" fuel_perVeh="4.449269" electricity_perVeh="0"/>
        <edge id=":1110673556_5" sampledSeconds="22.77" CO_abs="1464.752053" CO2_abs="65565.256078" HC_abs="8.199124" PMx_abs="1.204581" NOx_abs="27.597503" fuel_abs="28.183968" electricity_abs="0"
            CO_normed="105.467716" CO2_normed="4720.947704" HC_normed="0.590368" PMx_normed="0.086734" NOx_normed="1.987125" fuel_normed="2.029353" electricity_normed="0"
            traveltime="1.57" CO_perVeh="101.266809" CO2_perVeh="4532.906593" HC_perVeh="0.566853" PMx_perVeh="0.083280" NOx_perVeh="1.907976" fuel_perVeh="1.948521" electricity_perVeh="0"/>
        <edge id=":1110673556_6" sampledSeconds="489.68" CO_abs="57688.400125" CO2_abs="2821783.052714" HC_abs="329.715135" PMx_abs="56.871880" NOx_abs="1215.201326" fuel_abs="1212.963657" electricity_abs="0"
            CO_normed="2102.581500" CO2_normed="102846.132513" HC_normed="12.017198" PMx_normed="2.072822" NOx_normed="44.290704" fuel_normed="44.209147" electricity_normed="0"
            traveltime="2.63" CO_perVeh="309.573089" CO2_perVeh="15142.525930" HC_perVeh="1.769349" PMx_perVeh="0.305191" NOx_perVeh="6.521131" fuel_perVeh="6.509123" electricity_perVeh="0"/>
        <edge id=":1110673561_0" sampledSeconds="100.91" CO_abs="10064.546753" CO2_abs="717654.653972" HC_abs="63.089964" PMx_abs="14.549283" NOx_abs="303.725263" fuel_abs="308.485528" electricity_abs="0"
            CO_normed="460.887932" CO2_normed="32863.712330" HC_normed="2.889092" PMx_normed="0.666258" NOx_normed="13.908556" fuel_normed="14.126543" electricity_normed="0"
            traveltime="1.19" CO_perVeh="118.771420" CO2_perVeh="8469.021472" HC_perVeh="0.744523" PMx_perVeh="0.171696" NOx_perVeh="3.584253" fuel_perVeh="3.640429" electricity_perVeh="0"/>
        <edge id=":1110673561_1" sampledSeconds="1320.00" CO_abs="121120.225142" CO2_abs="8401395.304641" HC_abs="754.772600" PMx_abs="175.273256" NOx_abs="3589.988811" fuel_abs="3611.354457" electricity_abs="0"
            CO_normed="5407.498924" CO2_normed="375086.291443" HC_normed="33.697362" PMx_normed="7.825200" NOx_normed="160.277613" fuel_normed="161.231498" electricity_normed="0"
            traveltime="1.20" CO_perVeh="109.840616" CO2_perVeh="7618.995393" HC_perVeh="0.684483" PMx_perVeh="0.158951" NOx_perVeh="3.255663" fuel_perVeh="3.275038" electricity_perVeh="0"/>
        <edge id=":1110673562_0" sampledSeconds="104.34" CO_abs="2143.642074" CO2_abs="172760.125125" HC_abs="13.703720" PMx_abs="2.334779" NOx_abs="65.821501" fuel_abs="74.262863" electricity_abs="0"
            CO_normed="6082.548271" CO2_normed="490203.944455" HC_normed="38.884074" PMx_normed="6.624895" NOx_normed="186.767399" fuel_normed="210.719624" electricity_normed="0"
            traveltime="0.03" CO_perVeh="0.546424" CO2_perVeh="44.037342" HC_perVeh="0.003493" PMx_perVeh="0.000595" NOx_perVeh="0.016778" fuel_perVeh="0.018930" electricity_perVeh="0"/>
        <edge id=":1110673564_0" sampledSeconds="28.65" CO_abs="439.258520" CO2_abs="51517.215066" HC_abs="3.185591" PMx_abs="0.719470" NOx_abs="19.389673" fuel_abs="22.145081" electricity_abs="0"
            CO_normed="3365.249353" CO2_normed="394683.920487" HC_normed="24.405460" PMx_normed="5.512003" NOx_normed="148.548254" fuel_normed="169.657995" electricity_normed="0"
            traveltime="7.876082e-03" CO_perVeh="0.120758" CO2_perVeh="14.162808" HC_perVeh="0.000876" PMx_perVeh="0.000198" NOx_perVeh="0.005330" fuel_perVeh="0.006088" electricity_perVeh="0"/>
        <edge id=":1110673588_0" sampledSeconds="11.87" CO_abs="146.167651" CO2_abs="21749.679447" HC_abs="1.166797" PMx_abs="0.281111" NOx_abs="7.968624" fuel_abs="9.349280" electricity_abs="0"
            CO_normed="447.928107" CO2_normed="66651.496924" HC_normed="3.575628" PMx_normed="0.861460" NOx_normed="24.419702" fuel_normed="28.650699" electricity_normed="0"
            traveltime="0.02" CO_perVeh="0.243613" CO2_perVeh="36.249466" HC_perVeh="0.001945" PMx_perVeh="0.000469" NOx_perVeh="0.013281" fuel_perVeh="0.015582" electricity_perVeh="0"/>
        <edge id=":1110673601_0" sampledSeconds="29.93" CO_abs="578.329420" CO2_abs="65345.843376" HC_abs="4.144245" PMx_abs="0.926069" NOx_abs="24.697116" fuel_abs="28.089423" electricity_abs="0"
            CO_normed="1582.392842" CO2_normed="178795.667887" HC_normed="11.339252" PMx_normed="2.533859" NOx_normed="67.574877" fuel_normed="76.856719" electricity_normed="0"
            traveltime="0.02" CO_perVeh="0.429244" CO2_perVeh="48.500560" HC_perVeh="0.003076" PMx_perVeh="0.000687" NOx_perVeh="0.018331" fuel_perVeh="0.020848" electricity_perVeh="0"/>
        <edge id=":1110673617_0" sampledSeconds="238.52" CO_abs="6025.434479" CO2_abs="745932.139458" HC_abs="45.271711" PMx_abs="13.349893" NOx_abs="281.465557" fuel_abs="320.641911" electricity_abs="0"
            CO_normed="15387.361939" CO2_normed="1904912.890721" HC_normed="115.611946" PMx_normed="34.092086" NOx_normed="718.788399" fuel_normed="818.834418" electricity_normed="0"
            traveltime="0.01" CO_perVeh="0.369327" CO2_perVeh="45.721602" HC_perVeh="0.002775" PMx_perVeh="0.000818" NOx_perVeh="0.017252" fuel_perVeh="0.019654" electricity_perVeh="0"/>
        <edge id=":1110673621_0" sampledSeconds="25.84" CO_abs="540.553378" CO2_abs="58746.359157" HC_abs="3.800414" PMx_abs="0.834642" NOx_abs="22.250981" fuel_abs="25.252590" electricity_abs="0"
            CO_normed="1656.515992" CO2_normed="180027.148726" HC_normed="11.646300" PMx_normed="2.557744" NOx_normed="68.187727" fuel_normed="77.386103" electricity_normed="0"
            traveltime="0.02" CO_perVeh="0.409510" CO2_perVeh="44.504818" HC_perVeh="0.002879" PMx_perVeh="0.000632" NOx_perVeh="0.016857" fuel_perVeh="0.019131" electricity_perVeh="0"/>
        <edge id=":1110673630_0" sampledSeconds="54.56" CO_abs="205.905500" CO2_abs="17526.362939" HC_abs="1.336527" PMx_abs="0.228461" NOx_abs="6.608351" fuel_abs="7.533907" electricity_abs="0"
            CO_normed="11.251670" CO2_normed="957.725042" HC_normed="0.073034" PMx_normed="0.012484" NOx_normed="0.361112" fuel_normed="0.411689" electricity_normed="0"
            traveltime="1.27" CO_perVeh="4.806199" CO2_perVeh="409.096311" HC_perVeh="0.031197" PMx_perVeh="0.005333" NOx_perVeh="0.154251" fuel_perVeh="0.175855" electricity_perVeh="0"/>
        <edge id=":1110673630_1" sampledSeconds="7.53" CO_abs="36.934355" CO2_abs="3065.323231" HC_abs="0.238585" PMx_abs="0.043341" NOx_abs="1.177230" fuel_abs="1.317660" electricity_abs="0"
            CO_normed="2.460536" CO2_normed="204.209288" HC_normed="0.015894" PMx_normed="0.002887" NOx_normed="0.078426" fuel_normed="0.087781" electricity_normed="0"
            traveltime="1.07" CO_perVeh="5.227632" CO2_perVeh="433.861134" HC_perVeh="0.033769" PMx_perVeh="0.006134" NOx_perVeh="0.166623" fuel_perVeh="0.186500" electricity_perVeh="0"/>
        <edge id=":1110673650_0" sampledSeconds="143.25" CO_abs="2374.523892" CO2_abs="298481.380271" HC_abs="17.606718" PMx_abs="4.074757" NOx_abs="111.355586" fuel_abs="128.304599" electricity_abs="0"
            CO_normed="6063.904385" CO2_normed="762242.299053" HC_normed="44.962890" PMx_normed="10.405850" NOx_normed="284.372639" fuel_normed="327.655925" electricity_normed="0"
            traveltime="0.02" CO_perVeh="0.381245" CO2_perVeh="47.923154" HC_perVeh="0.002827" PMx_perVeh="0.000654" NOx_perVeh="0.017879" fuel_perVeh="0.020600" electricity_perVeh="0"/>
        <edge id=":1110673655_0" sampledSeconds="45.02" CO_abs="910.269860" CO2_abs="94577.951904" HC_abs="6.334831" PMx_abs="1.380664" NOx_abs="36.169773" fuel_abs="40.655058" electricity_abs="0"
            CO_normed="2324.587854" CO2_normed="241527.010609" HC_normed="16.177479" PMx_normed="3.525850" NOx_normed="92.368010" fuel_normed="103.822238" electricity_normed="0"
            traveltime="0.02" CO_perVeh="0.487166" CO2_perVeh="50.617047" HC_perVeh="0.003390" PMx_perVeh="0.000739" NOx_perVeh="0.019358" fuel_perVeh="0.021758" electricity_perVeh="0"/>
        <edge id=":1110673663_0" sampledSeconds="108.02" CO_abs="1769.128409" CO2_abs="215958.823953" HC_abs="13.037200" PMx_abs="2.979854" NOx_abs="80.843755" fuel_abs="92.831621" electricity_abs="0"
            CO_normed="82.745144" CO2_normed="10100.761394" HC_normed="0.609772" PMx_normed="0.139373" NOx_normed="3.781200" fuel_normed="4.341893" electricity_normed="0"
            traveltime="1.27" CO_perVeh="20.779424" CO2_perVeh="2536.559732" HC_perVeh="0.153129" PMx_perVeh="0.035000" NOx_perVeh="0.949556" fuel_perVeh="1.090360" electricity_perVeh="0"/>
        <edge id=":1110673663_1" sampledSeconds="154.93" CO_abs="3076.037296" CO2_abs="350654.864989" HC_abs="22.064374" PMx_abs="5.139319" NOx_abs="133.416440" fuel_abs="150.731465" electricity_abs="0"
            CO_normed="144.047377" CO2_normed="16420.774044" HC_normed="1.033250" PMx_normed="0.240669" NOx_normed="6.247742" fuel_normed="7.058585" electricity_normed="0"
            traveltime="1.25" CO_perVeh="24.856776" CO2_perVeh="2833.564332" HC_perVeh="0.178297" PMx_perVeh="0.041530" NOx_perVeh="1.078109" fuel_perVeh="1.218028" electricity_perVeh="0"/>
        <edge id=":1110673666_0" sampledSeconds="190.46" CO_abs="4120.282115" CO2_abs="334411.721971" HC_abs="26.385636" PMx_abs="4.474609" NOx_abs="127.127058" fuel_abs="143.750645" electricity_abs="0"