<?xml version="1.0" encoding="UTF-8"?>

<!-- generated on Tue Nov 10 16:47:43 2020 by Eclipse SUMO sumo Version 1.7.0
<configuration xmlns:xsi="http://www.w3.org/2001/XMLSchema-instance" xsi:noNamespaceSchemaLocation="http://sumo.dlr.de/xsd/sumoConfiguration.xsd">

    <input>
        <net-file value="../dataSets/Porto/8AM9AM_Routing_SaoBento/Porto.net.xml"/>
        <route-files value="../results/Porto/8AM9AM_Routing_SaoBento/cost_PMx-cost_co/solution5/Porto.rou.xml"/>
        <additional-files value="moreOutputInfo.xml"/>
    </input>

    <output>
        <emission-output.precision value="6"/>
        <tripinfo-output value="../results/Porto/8AM9AM_Routing_SaoBento/cost_PMx-cost_co/solution5/Porto-tripinfo"/>
    </output>

    <processing>
        <collision.action value="warn"/>
        <time-to-teleport value="-1"/>
    </processing>

    <emissions>
        <device.emissions.probability value="1"/>
    </emissions>

    <gui_only>
        <quit-on-end value="true"/>
        <start value="true"/>
    </gui_only>

</configuration>
-->

<meandata xmlns:xsi="http://www.w3.org/2001/XMLSchema-instance" xsi:noNamespaceSchemaLocation="http://sumo.dlr.de/xsd/meandata_file.xsd">
    <interval begin="0.00" end="9619.00" id="emissions-detector">
        <edge id=":1092997347_0" sampledSeconds="606.00" CO_abs="72825.605629" CO2_abs="3077636.544493" HC_abs="404.401351" PMx_abs="62.324212" NOx_abs="1332.112708" fuel_abs="1322.951636" electricity_abs="0"
            CO_normed="61944.678682" CO2_normed="2617804.619686" HC_normed="343.979449" PMx_normed="53.012306" NOx_normed="1133.080775" fuel_normed="1125.288465" electricity_normed="0"
            traveltime="0.07" CO_perVeh="8.348164" CO2_perVeh="352.796448" HC_perVeh="0.046357" PMx_perVeh="0.007144" NOx_perVeh="0.152703" fuel_perVeh="0.151653" electricity_perVeh="0"/>
        <edge id=":1103427051_0" sampledSeconds="19.21" CO_abs="1644.359418" CO2_abs="91944.639654" HC_abs="9.674407" PMx_abs="1.827628" NOx_abs="39.404771" fuel_abs="39.522902" electricity_abs="0"
            CO_normed="2122.126791" CO2_normed="118659.084483" HC_normed="12.485299" PMx_normed="2.358644" NOx_normed="50.853797" fuel_normed="51.006251" electricity_normed="0"
            traveltime="0.03" CO_perVeh="2.557187" CO2_perVeh="142.985551" HC_perVeh="0.015045" PMx_perVeh="0.002842" NOx_perVeh="0.061279" fuel_perVeh="0.061463" electricity_perVeh="0"/>
        <edge id=":1105984386_0" sampledSeconds="10.49" CO_abs="192.753910" CO2_abs="14020.806810" HC_abs="1.193502" PMx_abs="0.173036" NOx_abs="5.264154" fuel_abs="6.027038" electricity_abs="0"
            CO_normed="7.429448" CO2_normed="540.413701" HC_normed="0.046002" PMx_normed="0.006669" NOx_normed="0.202900" fuel_normed="0.232304" electricity_normed="0"
            traveltime="1.01" CO_perVeh="18.490817" CO2_perVeh="1345.011205" HC_perVeh="0.114492" PMx_perVeh="0.016599" NOx_perVeh="0.504989" fuel_perVeh="0.578172" electricity_perVeh="0"/>
        <edge id=":1105984390_0" sampledSeconds="10.70" CO_abs="1.140648" CO2_abs="624.713225" HC_abs="0.019610" PMx_abs="0.007007" NOx_abs="0.213235" fuel_abs="0.268538" electricity_abs="0"
            CO_normed="0.033989" CO2_normed="18.615026" HC_normed="0.000584" PMx_normed="0.000209" NOx_normed="0.006354" fuel_normed="0.008002" electricity_normed="0"
            traveltime="1.11" CO_perVeh="0.118235" CO2_perVeh="64.755287" HC_perVeh="0.002033" PMx_perVeh="0.000726" NOx_perVeh="0.022103" fuel_perVeh="0.027836" electricity_perVeh="0"/>
        <edge id=":1105984390_1" sampledSeconds="2400.65" CO_abs="61389.126349" CO2_abs="7445960.108836" HC_abs="457.543580" PMx_abs="133.673878" NOx_abs="2824.122159" fuel_abs="3200.674924" electricity_abs="0"
            CO_normed="1749.843879" CO2_normed="212240.644186" HC_normed="13.041883" PMx_normed="3.810258" NOx_normed="80.499156" fuel_normed="91.232467" electricity_normed="0"
            traveltime="0.65" CO_perVeh="16.578624" CO2_perVeh="2010.841024" HC_perVeh="0.123563" PMx_perVeh="0.036100" NOx_perVeh="0.762677" fuel_perVeh="0.864368" electricity_perVeh="0"/>
        <edge id=":1105984395_0" sampledSeconds="4.08" CO_abs="125.182762" CO2_abs="9176.682109" HC_abs="0.778342" PMx_abs="0.121584" NOx_abs="3.499585" fuel_abs="3.944710" electricity_abs="0"
            CO_normed="50.924794" CO2_normed="3733.106984" HC_normed="0.316632" PMx_normed="0.049461" NOx_normed="1.423644" fuel_normed="1.604722" electricity_normed="0"
            traveltime="0.09" CO_perVeh="2.901692" CO2_perVeh="212.712208" HC_perVeh="0.018042" PMx_perVeh="0.002818" NOx_perVeh="0.081119" fuel_perVeh="0.091437" electricity_perVeh="0"/>
        <edge id=":1105984398_0" sampledSeconds="10.17" CO_abs="627.998972" CO2_abs="44616.772680" HC_abs="3.902585" PMx_abs="0.749616" NOx_abs="18.028986" fuel_abs="19.178848" electricity_abs="0"
            CO_normed="19.440401" CO2_normed="1381.161386" HC_normed="0.120809" PMx_normed="0.023205" NOx_normed="0.558107" fuel_normed="0.593702" electricity_normed="0"
            traveltime="1.12" CO_perVeh="69.158910" CO2_perVeh="4913.459245" HC_perVeh="0.429775" PMx_perVeh="0.082552" NOx_perVeh="1.985457" fuel_perVeh="2.112087" electricity_perVeh="0"/>
        <edge id=":1105984398_1" sampledSeconds="646.08" CO_abs="12935.343865" CO2_abs="1490858.522045" HC_abs="93.153516" PMx_abs="21.672804" NOx_abs="565.819662" fuel_abs="640.856223" electricity_abs="0"
            CO_normed="387.603880" CO2_normed="44673.149305" HC_normed="2.791318" PMx_normed="0.649419" NOx_normed="16.954624" fuel_normed="19.203073" electricity_normed="0"
            traveltime="0.95" CO_perVeh="19.052461" CO2_perVeh="2195.884720" HC_perVeh="0.137206" PMx_perVeh="0.031922" NOx_perVeh="0.833395" fuel_perVeh="0.943917" electricity_perVeh="0"/>
        <edge id=":1106006327_0" sampledSeconds="68.89" CO_abs="9237.696994" CO2_abs="294900.208208" HC_abs="48.997725" PMx_abs="6.140411" NOx_abs="129.014510" fuel_abs="126.767334" electricity_abs="0"
            CO_normed="390.213749" CO2_normed="12457.013449" HC_normed="2.069735" PMx_normed="0.259380" NOx_normed="5.449760" fuel_normed="5.354836" electricity_normed="0"
            traveltime="2.14" CO_perVeh="286.365051" CO2_perVeh="9141.792956" HC_perVeh="1.518911" PMx_perVeh="0.190350" NOx_perVeh="3.999400" fuel_perVeh="3.929739" electricity_perVeh="0"/>
        <edge id=":1106006327_1" sampledSeconds="679.84" CO_abs="92103.003526" CO2_abs="3088650.714478" HC_abs="492.185749" PMx_abs="64.449224" NOx_abs="1351.876045" fuel_abs="1327.699267" electricity_abs="0"
            CO_normed="3392.756265" CO2_normed="113775.215352" HC_normed="18.130422" PMx_normed="2.374087" NOx_normed="49.798440" fuel_normed="48.907851" electricity_normed="0"
            traveltime="2.28" CO_perVeh="309.167490" CO2_perVeh="10367.852851" HC_perVeh="1.652148" PMx_perVeh="0.216340" NOx_perVeh="4.537921" fuel_perVeh="4.456765" electricity_perVeh="0"/>
        <edge id=":1106006327_2" sampledSeconds="0.00" CO_abs="0" CO2_abs="0" HC_abs="0" PMx_abs="0" NOx_abs="0" fuel_abs="0" electricity_abs="0"
            CO_normed="0" CO2_normed="0" HC_normed="0" PMx_normed="0" NOx_normed="0" fuel_normed="0" electricity_normed="0"/>
        <edge id=":1106006327_3" sampledSeconds="0.00" CO_abs="0" CO2_abs="0" HC_abs="0" PMx_abs="0" NOx_abs="0" fuel_abs="0" electricity_abs="0"
            CO_normed="0" CO2_normed="0" HC_normed="0" PMx_normed="0" NOx_normed="0" fuel_normed="0" electricity_normed="0"/>
        <edge id=":1107381198_0" sampledSeconds="0.00" CO_abs="0" CO2_abs="0" HC_abs="0" PMx_abs="0" NOx_abs="0" fuel_abs="0" electricity_abs="0"
            CO_normed="0" CO2_normed="0" HC_normed="0" PMx_normed="0" NOx_normed="0" fuel_normed="0" electricity_normed="0"/>
        <edge id=":1107381198_1" sampledSeconds="103.73" CO_abs="4903.388455" CO2_abs="195446.308398" HC_abs="26.826596" PMx_abs="3.374146" NOx_abs="80.981642" fuel_abs="84.015587" electricity_abs="0"
            CO_normed="200.124169" CO2_normed="7976.836900" HC_normed="1.094886" PMx_normed="0.137711" NOx_normed="3.305140" fuel_normed="3.428965" electricity_normed="0"
            traveltime="1.55" CO_perVeh="73.413127" CO2_perVeh="2926.205995" HC_perVeh="0.401646" PMx_perVeh="0.050517" NOx_perVeh="1.212450" fuel_perVeh="1.257874" electricity_perVeh="0"/>
        <edge id=":1110338277_0" sampledSeconds="160.17" CO_abs="2544.354592" CO2_abs="309874.403749" HC_abs="18.651519" PMx_abs="4.200708" NOx_abs="115.675022" fuel_abs="133.202071" electricity_abs="0"
            CO_normed="3400.886835" CO2_normed="414190.609915" HC_normed="24.930372" PMx_normed="5.614835" NOx_normed="154.615894" fuel_normed="178.043254" electricity_normed="0"
            traveltime="0.02" CO_perVeh="0.344611" CO2_perVeh="41.969773" HC_perVeh="0.002526" PMx_perVeh="0.000569" NOx_perVeh="0.015667" fuel_perVeh="0.018041" electricity_perVeh="0"/>
        <edge id=":1110338293_0" sampledSeconds="6062.06" CO_abs="556795.982703" CO2_abs="9870275.922858" HC_abs="2766.073008" PMx_abs="233.898225" NOx_abs="4453.373962" fuel_abs="4243.061570" electricity_abs="0"
            CO_normed="694620.209215" CO2_normed="12313474.485321" HC_normed="3450.761628" PMx_normed="291.795270" NOx_normed="5555.721753" fuel_normed="5293.350540" electricity_normed="0"
            traveltime="0.41" CO_perVeh="37.233962" CO2_perVeh="660.043335" HC_perVeh="0.184972" PMx_perVeh="0.015641" NOx_perVeh="0.297805" fuel_perVeh="0.283741" electricity_perVeh="0"/>
        <edge id=":1110338295_0" sampledSeconds="0.00" CO_abs="0" CO2_abs="0" HC_abs="0" PMx_abs="0" NOx_abs="0" fuel_abs="0" electricity_abs="0"
            CO_normed="0" CO2_normed="0" HC_normed="0" PMx_normed="0" NOx_normed="0" fuel_normed="0" electricity_normed="0"/>
        <edge id=":1110673403_0" sampledSeconds="200.18" CO_abs="3667.572817" CO2_abs="430405.134769" HC_abs="26.617344" PMx_abs="6.092342" NOx_abs="162.423444" fuel_abs="185.012924" electricity_abs="0"
            CO_normed="4575.410522" CO2_normed="536943.717353" HC_normed="33.205960" PMx_normed="7.600385" NOx_normed="202.628270" fuel_normed="230.809345" electricity_normed="0"
            traveltime="0.02" CO_perVeh="0.423883" CO2_perVeh="49.744401" HC_perVeh="0.003076" PMx_perVeh="0.000704" NOx_perVeh="0.018772" fuel_perVeh="0.021383" electricity_perVeh="0"/>
        <edge id=":1110673412_0" sampledSeconds="949.57" CO_abs="168772.855784" CO2_abs="11510235.837271" HC_abs="1050.234973" PMx_abs="253.105407" NOx_abs="4947.252693" fuel_abs="4947.683330" electricity_abs="0"
            CO_normed="217809.680131" CO2_normed="14854526.068799" HC_normed="1355.379942" PMx_normed="326.644990" NOx_normed="6384.673185" fuel_normed="6385.228943" electricity_normed="0"
            traveltime="0.02" CO_perVeh="2.757067" CO2_perVeh="188.030801" HC_perVeh="0.017157" PMx_perVeh="0.004135" NOx_perVeh="0.080818" fuel_perVeh="0.080825" electricity_perVeh="0"/>
        <edge id=":1110673414_0" sampledSeconds="0.00" CO_abs="0" CO2_abs="0" HC_abs="0" PMx_abs="0" NOx_abs="0" fuel_abs="0" electricity_abs="0"
            CO_normed="0" CO2_normed="0" HC_normed="0" PMx_normed="0" NOx_normed="0" fuel_normed="0" electricity_normed="0"/>
        <edge id=":1110673414_1" sampledSeconds="237.54" CO_abs="17274.001493" CO2_abs="672353.047777" HC_abs="94.292259" PMx_abs="12.491728" NOx_abs="284.307783" fuel_abs="289.020244" electricity_abs="0"
            CO_normed="715.941898" CO2_normed="27866.485777" HC_normed="3.908057" PMx_normed="0.517735" NOx_normed="11.783480" fuel_normed="11.978794" electricity_normed="0"
            traveltime="1.54" CO_perVeh="112.075352" CO2_perVeh="4362.290032" HC_perVeh="0.611777" PMx_perVeh="0.081048" NOx_perVeh="1.844616" fuel_perVeh="1.875191" electricity_perVeh="0"/>
        <edge id=":1110673417_0" sampledSeconds="29.41" CO_abs="484.442878" CO2_abs="56327.093590" HC_abs="3.503833" PMx_abs="0.768025" NOx_abs="21.089342" fuel_abs="24.212677" electricity_abs="0"
            CO_normed="647.525864" CO2_normed="75289.062170" HC_normed="4.683364" PMx_normed="1.026573" NOx_normed="28.188864" fuel_normed="32.363640" electricity_normed="0"
            traveltime="0.02" CO_perVeh="0.369411" CO2_perVeh="42.952113" HC_perVeh="0.002672" PMx_perVeh="0.000586" NOx_perVeh="0.016082" fuel_perVeh="0.018463" electricity_perVeh="0"/>
        <edge id=":1110673446_0" sampledSeconds="1326.20" CO_abs="13758.416110" CO2_abs="1109151.193550" HC_abs="88.942282" PMx_abs="20.353288" NOx_abs="453.902561" fuel_abs="476.773120" electricity_abs="0"
            CO_normed="17164.049623" CO2_normed="1383700.418193" HC_normed="110.958248" PMx_normed="25.391356" NOx_normed="566.257483" fuel_normed="594.789214" electricity_normed="0"
            traveltime="0.02" CO_perVeh="0.236235" CO2_perVeh="19.044327" HC_perVeh="0.001527" PMx_perVeh="0.000349" NOx_perVeh="0.007794" fuel_perVeh="0.008186" electricity_perVeh="0"/>
        <edge id=":1110673451_0" sampledSeconds="37.20" CO_abs="328.379908" CO2_abs="23806.581138" HC_abs="2.038533" PMx_abs="0.329992" NOx_abs="9.165356" fuel_abs="10.233535" electricity_abs="0"
            CO_normed="455.182324" CO2_normed="32999.384742" HC_normed="2.825704" PMx_normed="0.457417" NOx_normed="12.704517" fuel_normed="14.185169" electricity_normed="0"
            traveltime="0.03" CO_perVeh="0.241943" CO2_perVeh="17.540187" HC_perVeh="0.001502" PMx_perVeh="0.000243" NOx_perVeh="0.006753" fuel_perVeh="0.007540" electricity_perVeh="0"/>
        <edge id=":1110673464_0" sampledSeconds="1036.54" CO_abs="3400.286259" CO2_abs="244215.192670" HC_abs="21.106250" PMx_abs="3.648709" NOx_abs="95.705129" fuel_abs="104.978362" electricity_abs="0"
            CO_normed="90.126677" CO2_normed="6473.073783" HC_normed="0.559434" PMx_normed="0.096711" NOx_normed="2.536723" fuel_normed="2.782516" electricity_normed="0"
            traveltime="1.23" CO_perVeh="4.032264" CO2_perVeh="289.605040" HC_perVeh="0.025029" PMx_perVeh="0.004327" NOx_perVeh="0.113493" fuel_perVeh="0.124490" electricity_perVeh="0"/>
        <edge id=":1110673464_1" sampledSeconds="2606.58" CO_abs="61413.384863" CO2_abs="7483865.994876" HC_abs="457.744555" PMx_abs="133.605092" NOx_abs="2838.439075" fuel_abs="3216.969202" electricity_abs="0"
            CO_normed="1595.040188" CO2_normed="194372.400258" HC_normed="11.888629" PMx_normed="3.470017" NOx_normed="73.720483" fuel_normed="83.551740" electricity_normed="0"
            traveltime="0.72" CO_perVeh="16.934812" CO2_perVeh="2063.684726" HC_perVeh="0.126224" PMx_perVeh="0.036842" NOx_perVeh="0.782703" fuel_perVeh="0.887083" electricity_perVeh="0"/>
        <edge id=":1110673479_0" sampledSeconds="135.51" CO_abs="6261.088935" CO2_abs="428304.255837" HC_abs="38.578347" PMx_abs="7.540798" NOx_abs="175.514546" fuel_abs="184.109381" electricity_abs="0"
            CO_normed="7810.902092" CO2_normed="534322.805909" HC_normed="48.127681" PMx_normed="9.407379" NOx_normed="218.959825" fuel_normed="229.682147" electricity_normed="0"
            traveltime="0.03" CO_perVeh="1.323651" CO2_perVeh="90.547392" HC_perVeh="0.008156" PMx_perVeh="0.001594" NOx_perVeh="0.037105" fuel_perVeh="0.038922" electricity_perVeh="0"/>
        <edge id=":1110673511_0" sampledSeconds="63.38" CO_abs="1180.091586" CO2_abs="129457.480194" HC_abs="8.354893" PMx_abs="1.797205" NOx_abs="48.836856" fuel_abs="55.648383" electricity_abs="0"
            CO_normed="1472.200752" CO2_normed="161502.210451" HC_normed="10.422987" PMx_normed="2.242068" NOx_normed="60.925489" fuel_normed="69.423079" electricity_normed="0"
            traveltime="0.02" CO_perVeh="0.452287" CO2_perVeh="49.616409" HC_perVeh="0.003202" PMx_perVeh="0.000689" NOx_perVeh="0.018717" fuel_perVeh="0.021328" electricity_perVeh="0"/>
        <edge id=":1110673517_0" sampledSeconds="182.55" CO_abs="8066.438085" CO2_abs="574431.595256" HC_abs="50.218883" PMx_abs="9.948850" NOx_abs="233.905917" fuel_abs="246.923185" electricity_abs="0"
            CO_normed="10063.130993" CO2_normed="716621.181315" HC_normed="62.649610" PMx_normed="12.411498" NOx_normed="291.804865" fuel_normed="308.044310" electricity_normed="0"
            traveltime="0.03" CO_perVeh="1.235037" CO2_perVeh="87.950127" HC_perVeh="0.007689" PMx_perVeh="0.001523" NOx_perVeh="0.035813" fuel_perVeh="0.037806" electricity_perVeh="0"/>
        <edge id=":1110673534_0" sampledSeconds="735.82" CO_abs="5038.288046" CO2_abs="430034.824133" HC_abs="32.755452" PMx_abs="5.732016" NOx_abs="162.941321" fuel_abs="184.855165" electricity_abs="0"
            CO_normed="121.810468" CO2_normed="10396.933011" HC_normed="0.791927" PMx_normed="0.138583" NOx_normed="3.939425" fuel_normed="4.469235" electricity_normed="0"
            traveltime="1.45" CO_perVeh="9.936338" CO2_perVeh="848.099826" HC_perVeh="0.064599" PMx_perVeh="0.011304" NOx_perVeh="0.321347" fuel_perVeh="0.364565" electricity_perVeh="0"/>
        <edge id=":1110673534_1" sampledSeconds="200.18" CO_abs="2992.160131" CO2_abs="379118.771455" HC_abs="22.325763" PMx_abs="5.154835" NOx_abs="141.174276" fuel_abs="162.967263" electricity_abs="0"
            CO_normed="70.341940" CO2_normed="8912.607907" HC_normed="0.524851" PMx_normed="0.121184" NOx_normed="3.318831" fuel_normed="3.831156" electricity_normed="0"
            traveltime="1.22" CO_perVeh="18.290133" CO2_perVeh="2317.433763" HC_perVeh="0.136470" PMx_perVeh="0.031510" NOx_perVeh="0.862954" fuel_perVeh="0.996168" electricity_perVeh="0"/>
        <edge id=":1110673549_0" sampledSeconds="649.74" CO_abs="1246.427017" CO2_abs="135022.721598" HC_abs="8.647452" PMx_abs="1.791168" NOx_abs="50.064905" fuel_abs="58.040800" electricity_abs="0"
            CO_normed="29.191920" CO2_normed="3162.297019" HC_normed="0.202527" PMx_normed="0.041950" NOx_normed="1.172544" fuel_normed="1.359343" electricity_normed="0"
            traveltime="1.29" CO_perVeh="2.476353" CO2_perVeh="268.257952" HC_perVeh="0.017180" PMx_perVeh="0.003559" NOx_perVeh="0.099467" fuel_perVeh="0.115313" electricity_perVeh="0"/>
        <edge id=":1110673549_1" sampledSeconds="3195.60" CO_abs="68435.674122" CO2_abs="9119564.735179" HC_abs="529.192560" PMx_abs="159.700746" NOx_abs="3402.180811" fuel_abs="3920.083886" electricity_abs="0"
            CO_normed="1550.404723" CO2_normed="206603.009572" HC_normed="11.988815" PMx_normed="3.618008" NOx_normed="77.076134" fuel_normed="88.809187" electricity_normed="0"
            traveltime="0.81" CO_perVeh="17.261064" CO2_perVeh="2300.165714" HC_perVeh="0.133475" PMx_perVeh="0.040280" NOx_perVeh="0.858109" fuel_perVeh="0.988736" electricity_perVeh="0"/>
        <edge id=":1110673556_0" sampledSeconds="473.34" CO_abs="57811.388385" CO2_abs="2749896.678602" HC_abs="328.485023" PMx_abs="55.320206" NOx_abs="1184.500606" fuel_abs="1182.064208" electricity_abs="0"
            CO_normed="1004.011532" CO2_normed="47757.510298" HC_normed="5.704806" PMx_normed="0.960747" NOx_normed="20.571246" fuel_normed="20.528933" electricity_normed="0"
            traveltime="2.79" CO_perVeh="340.792576" CO2_perVeh="16210.376514" HC_perVeh="1.936388" PMx_perVeh="0.326107" NOx_perVeh="6.982517" fuel_perVeh="6.968155" electricity_perVeh="0"/>
        <edge id=":1110673556_2" sampledSeconds="172.10" CO_abs="17323.621481" CO2_abs="750920.217150" HC_abs="96.508819" PMx_abs="14.424925" NOx_abs="319.795415" fuel_abs="322.791101" electricity_abs="0"
            CO_normed="314.581566" CO2_normed="13636.043605" HC_normed="1.752514" PMx_normed="0.261944" NOx_normed="5.807200" fuel_normed="5.861599" electricity_normed="0"
            traveltime="2.98" CO_perVeh="299.550170" CO2_perVeh="12984.483586" HC_perVeh="1.668775" PMx_perVeh="0.249428" NOx_perVeh="5.529720" fuel_perVeh="5.581519" electricity_perVeh="0"/>
        <edge id=":1110673556_3" sampledSeconds="241.85" CO_abs="26624.153068" CO2_abs="930530.238706" HC_abs="143.054967" PMx_abs="18.686004" NOx_abs="402.738071" fuel_abs="400.001441" electricity_abs="0"
            CO_normed="1099.816371" CO2_normed="38439.246774" HC_normed="5.909454" PMx_normed="0.771900" NOx_normed="16.636695" fuel_normed="16.523648" electricity_normed="0"
            traveltime="1.82" CO_perVeh="200.766417" CO2_perVeh="7016.907590" HC_perVeh="1.078744" PMx_perVeh="0.140907" NOx_perVeh="3.036952" fuel_perVeh="3.016316" electricity_perVeh="0"/>
        <edge id=":1110673556_4" sampledSeconds="42.76" CO_abs="5327.532508" CO2_abs="200660.008668" HC_abs="28.988524" PMx_abs="4.080521" NOx_abs="87.083007" fuel_abs="86.256090" electricity_abs="0"
            CO_normed="134.448987" CO2_normed="5063.983147" HC_normed="0.731573" PMx_normed="0.102979" NOx_normed="2.197682" fuel_normed="2.176813" electricity_normed="0"
            traveltime="2.70" CO_perVeh="336.258542" CO2_perVeh="12665.083114" HC_perVeh="1.829672" PMx_perVeh="0.257551" NOx_perVeh="5.496429" fuel_perVeh="5.444237" electricity_perVeh="0"/>
        <edge id=":1110673556_5" sampledSeconds="21.96" CO_abs="1126.582620" CO2_abs="50858.815687" HC_abs="6.310816" PMx_abs="0.903682" NOx_abs="21.194386" fuel_abs="21.862278" electricity_abs="0"
            CO_normed="39.627255" CO2_normed="1788.945833" HC_normed="0.221981" PMx_normed="0.031787" NOx_normed="0.745507" fuel_normed="0.769000" electricity_normed="0"
            traveltime="1.52" CO_perVeh="77.887193" CO2_perVeh="3516.165035" HC_perVeh="0.436303" PMx_perVeh="0.062477" NOx_perVeh="1.465291" fuel_perVeh="1.511466" electricity_perVeh="0"/>
        <edge id=":1110673556_6" sampledSeconds="218.27" CO_abs="27461.097845" CO2_abs="1365733.067154" HC_abs="157.545141" PMx_abs="27.734443" NOx_abs="589.240933" fuel_abs="587.069456" electricity_abs="0"
            CO_normed="488.942467" CO2_normed="24316.758913" HC_normed="2.805078" PMx_normed="0.493809" NOx_normed="10.491384" fuel_normed="10.452721" electricity_normed="0"
            traveltime="2.54" CO_perVeh="319.991284" CO2_perVeh="15914.246395" HC_perVeh="1.835800" PMx_perVeh="0.323176" NOx_perVeh="6.866148" fuel_perVeh="6.840845" electricity_perVeh="0"/>
        <edge id=":1110673561_0" sampledSeconds="101.80" CO_abs="9653.038780" CO2_abs="683094.188219" HC_abs="60.411249" PMx_abs="13.866780" NOx_abs="289.636076" fuel_abs="293.629628" electricity_abs="0"
            CO_normed="215.943773" CO2_normed="15281.191754" HC_normed="1.351433" PMx_normed="0.310207" NOx_normed="6.479318" fuel_normed="6.568656" electricity_normed="0"
            traveltime="1.20" CO_perVeh="113.915227" CO2_perVeh="8061.174432" HC_perVeh="0.712911" PMx_perVeh="0.163641" NOx_perVeh="3.417987" fuel_perVeh="3.465115" electricity_perVeh="0"/>
        <edge id=":1110673561_1" sampledSeconds="5238.23" CO_abs="494342.800725" CO2_abs="34208287.112570" HC_abs="3078.822952" PMx_abs="715.816106" NOx_abs="14630.665157" fuel_abs="14704.489778" electricity_abs="0"
            CO_normed="10781.607222" CO2_normed="746082.101041" HC_normed="67.149071" PMx_normed="15.611936" NOx_normed="319.094533" fuel_normed="320.704647" electricity_normed="0"
            traveltime="1.19" CO_perVeh="112.263684" CO2_perVeh="7768.593651" HC_perVeh="0.699191" PMx_perVeh="0.162560" NOx_perVeh="3.322578" fuel_perVeh="3.339343" electricity_perVeh="0"/>
        <edge id=":1110673562_0" sampledSeconds="301.30" CO_abs="7014.673689" CO2_abs="532622.874679" HC_abs="44.103616" PMx_abs="7.344671" NOx_abs="204.458470" fuel_abs="228.953936" electricity_abs="0"
            CO_normed="9723.358199" CO2_normed="738292.788133" HC_normed="61.134028" PMx_normed="10.180782" NOx_normed="283.409183" fuel_normed="317.363463" electricity_normed="0"
            traveltime="0.03" CO_perVeh="0.628807" CO2_perVeh="47.745217" HC_perVeh="0.003954" PMx_perVeh="0.000658" NOx_perVeh="0.018328" fuel_perVeh="0.020524" electricity_perVeh="0"/>
        <edge id=":1110673564_0" sampledSeconds="27.86" CO_abs="526.253615" CO2_abs="61934.254018" HC_abs="3.796034" PMx_abs="0.826251" NOx_abs="23.074380" fuel_abs="26.622980" electricity_abs="0"
            CO_normed="1969.552984" CO2_normed="231794.692239" HC_normed="14.207009" PMx_normed="3.092320" NOx_normed="86.358009" fuel_normed="99.638974" electricity_normed="0"
            traveltime="7.868429e-03" CO_perVeh="0.148638" CO2_perVeh="17.493081" HC_perVeh="0.001072" PMx_perVeh="0.000233" NOx_perVeh="0.006517" fuel_perVeh="0.007520" electricity_perVeh="0"/>
        <edge id=":1110673588_0" sampledSeconds="62.66" CO_abs="1118.637692" CO2_abs="122234.265675" HC_abs="7.917180" PMx_abs="1.723810" NOx_abs="46.288784" fuel_abs="52.543387" electricity_abs="0"
            CO_normed="1674.642142" CO2_normed="182989.232324" HC_normed="11.852312" PMx_normed="2.580608" NOx_normed="69.296028" fuel_normed="78.659400" electricity_normed="0"
            traveltime="0.02" CO_perVeh="0.360851" CO2_perVeh="39.430408" HC_perVeh="0.002554" PMx_perVeh="0.000556" NOx_perVeh="0.014932" fuel_perVeh="0.016949" electricity_perVeh="0"/>
        <edge id=":1110673601_0" sampledSeconds="29.11" CO_abs="597.958594" CO2_abs="62943.686381" HC_abs="4.156854" PMx_abs="0.899945" NOx_abs="23.907778" fuel_abs="27.056849" electricity_abs="0"
            CO_normed="799.255543" CO2_normed="84133.066614" HC_normed="5.556218" PMx_normed="1.202902" NOx_normed="31.956099" fuel_normed="36.165274" electricity_normed="0"
            traveltime="0.02" CO_perVeh="0.455972" CO2_perVeh="47.997582" HC_perVeh="0.003170" PMx_perVeh="0.000686" NOx_perVeh="0.018231" fuel_perVeh="0.020632" electricity_perVeh="0"/>
        <edge id=":1110673617_0" sampledSeconds="853.69" CO_abs="31559.383801" CO2_abs="3190996.785667" HC_abs="220.273998" PMx_abs="60.288363" NOx_abs="1251.837085" fuel_abs="1371.660020" electricity_abs="0"
            CO_normed="39371.307373" CO2_normed="3980867.182452" HC_normed="274.798625" PMx_normed="75.211597" NOx_normed="1561.705480" fuel_normed="1711.188298" electricity_normed="0"
            traveltime="0.02" CO_perVeh="0.559112" CO2_perVeh="56.532332" HC_perVeh="0.003902" PMx_perVeh="0.001068" NOx_perVeh="0.022178" fuel_perVeh="0.024301" electricity_perVeh="0"/>
        <edge id=":1110673621_0" sampledSeconds="26.24" CO_abs="636.438194" CO2_abs="60971.089029" HC_abs="4.317061" PMx_abs="0.928221" NOx_abs="23.651339" fuel_abs="26.208866" electricity_abs="0"
            CO_normed="952.771598" CO2_normed="91275.983161" HC_normed="6.462800" PMx_normed="1.389581" NOx_normed="35.406932" fuel_normed="39.235645" electricity_normed="0"
            traveltime="0.02" CO_perVeh="0.482150" CO2_perVeh="46.190219" HC_perVeh="0.003271" PMx_perVeh="0.000703" NOx_perVeh="0.017918" fuel_perVeh="0.019855" electricity_perVeh="0"/>
        <edge id=":1110673630_0" sampledSeconds="286.55" CO_abs="1015.629177" CO2_abs="92956.758755" HC_abs="6.722969" PMx_abs="1.104997" NOx_abs="34.285137" fuel_abs="39.958627" electricity_abs="0"
            CO_normed="27.111886" CO2_normed="2481.450033" HC_normed="0.179467" PMx_normed="0.029498" NOx_normed="0.915230" fuel_normed="1.066682" electricity_normed="0"
            traveltime="1.29" CO_perVeh="4.569943" CO2_perVeh="418.269912" HC_perVeh="0.030251" PMx_perVeh="0.004972" NOx_perVeh="0.154270" fuel_perVeh="0.179799" electricity_perVeh="0"/>
        <edge id=":1110673630_1" sampledSeconds="338.27" CO_abs="1155.435471" CO2_abs="95666.663371" HC_abs="7.435509" PMx_abs="1.240180" NOx_abs="36.096402" fuel_abs="41.123435" electricity_abs="0"
            CO_normed="37.602821" CO2_normed="3113.403166" HC_normed="0.241983" PMx_normed="0.040361" NOx_normed="1.174732" fuel_normed="1.338333" electricity_normed="0"
            traveltime="1.08" CO_perVeh="3.683308" CO2_perVeh="304.967095" HC_perVeh="0.023703" PMx_perVeh="0.003953" NOx_perVeh="0.115068" fuel_perVeh="0.131094" electricity_perVeh="0"/>
        <edge id=":1110673650_0" sampledSeconds="200.47" CO_abs="3001.588578" CO2_abs="390888.007907" HC_abs="22.547281" PMx_abs="5.187280" NOx_abs="144.738834" fuel_abs="168.026474" electricity_abs="0"
            CO_normed="3744.574585" CO2_normed="487644.879393" HC_normed="28.128430" PMx_normed="6.471292" NOx_normed="180.566172" fuel_normed="209.618223" electricity_normed="0"
            traveltime="0.02" CO_perVeh="0.346912" CO2_perVeh="45.177278" HC_perVeh="0.002606" PMx_perVeh="0.000600" NOx_perVeh="0.016728" fuel_perVeh="0.019420" electricity_perVeh="0"/>
        <edge id=":1110673655_0" sampledSeconds="20.71" CO_abs="347.893579" CO2_abs="42340.195858" HC_abs="2.558757" PMx_abs="0.576740" NOx_abs="15.811158" fuel_abs="18.200282" electricity_abs="0"
            CO_normed="434.008000" CO2_normed="52820.703846" HC_normed="3.192129" PMx_normed="0.719501" NOx_normed="19.724909" fuel_normed="22.705414" electricity_normed="0"
            traveltime="0.02" CO_perVeh="0.397441" CO2_perVeh="48.370368" HC_perVeh="0.002923" PMx_perVeh="0.000659" NOx_perVeh="0.018063" fuel_perVeh="0.020792" electricity_perVeh="0"/>
        <edge id=":1110673663_0" sampledSeconds="111.58" CO_abs="2118.967860" CO2_abs="229407.414541" HC_abs="14.928581" PMx_abs="3.249337" NOx_abs="86.949285" fuel_abs="98.612624" electricity_abs="0"
            CO_normed="48.415347" CO2_normed="5241.627195" HC_normed="0.341096" PMx_normed="0.074243" NOx_normed="1.986665" fuel_normed="2.253156" electricity_normed="0"
            traveltime="1.31" CO_perVeh="24.888277" CO2_perVeh="2694.498308" HC_perVeh="0.175343" PMx_perVeh="0.038165" NOx_perVeh="1.021260" fuel_perVeh="1.158252" electricity_perVeh="0"/>
        <edge id=":1110673663_1" sampledSeconds="170.86" CO_abs="2282.687636" CO2_abs="296655.746995" HC_abs="17.163704" PMx_abs="3.852720" NOx_abs="109.435081" fuel_abs="127.520078" electricity_abs="0"
            CO_normed="52.219867" CO2_normed="6786.440455" HC_normed="0.392645" PMx_normed="0.088137" NOx_normed="2.503490" fuel_normed="2.917211" electricity_normed="0"
            traveltime="1.28" CO_perVeh="17.090035" CO2_perVeh="2221.003484" HC_perVeh="0.128501" PMx_perVeh="0.028845" NOx_perVeh="0.819319" fuel_perVeh="0.954718" electricity_perVeh="0"/>