<?xml version="1.0" encoding="UTF-8"?>

<!-- generated on Wed Sep 30 00:35:36 2020 by Eclipse SUMO Version 1.1.0
<configuration xmlns:xsi="http://www.w3.org/2001/XMLSchema-instance" xsi:noNamespaceSchemaLocation="http://sumo.dlr.de/xsd/sumoConfiguration.xsd">

    <input>
        <net-file value="../dataSets/Angeja_Estarreja/angeja_estarreja.net.xml"/>
        <route-files value="../results/angeja_estarreja/cost_co-ttime/solution1/angeja_estarreja.rou.xml"/>
        <additional-files value="moreOutputInfo.xml"/>
    </input>

    <output>
        <emission-output.precision value="6"/>
        <tripinfo-output value="../results/angeja_estarreja/cost_co-ttime/solution1/angeja_estarreja-tripinfo"/>
    </output>

    <processing>
        <collision.action value="warn"/>
        <time-to-teleport value="-1"/>
    </processing>

    <emissions>
        <device.emissions.probability value="1"/>
    </emissions>

    <gui_only>
        <quit-on-end value="true"/>
        <start value="true"/>
    </gui_only>

</configuration>
-->

<tripinfos xmlns:xsi="http://www.w3.org/2001/XMLSchema-instance" xsi:noNamespaceSchemaLocation="http://sumo.dlr.de/xsd/tripinfo_file.xsd">
    <tripinfo id="sveh22" depart="88.00" departLane="1_0" departPos="4.85" departSpeed="14.03" departDelay="0.00" arrival="141.00" arrivalLane="77477309_0" arrivalPos="222.43" arrivalSpeed="15.58" duration="53.00" routeLength="718.95" waitingTime="0.00" waitingCount="0" stopTime="0.00" timeLoss="3.35" rerouteNo="0" devices="tripinfo_sveh22 emissions_sveh22" vType="SCar" speedFactor="1.01" vaporized="">
        <emissions CO_abs="1250.603942" CO2_abs="133479.873809" HC_abs="8.792519" PMx_abs="2.072239" NOx_abs="51.486579" fuel_abs="57.377162" electricity_abs="0"/>
    </tripinfo>
    <tripinfo id="sveh24" depart="94.00" departLane="100_0" departPos="4.85" departSpeed="14.83" departDelay="0.00" arrival="145.00" arrivalLane="2_0" arrivalPos="142.18" arrivalSpeed="11.89" duration="51.00" routeLength="613.33" waitingTime="0.00" waitingCount="0" stopTime="0.00" timeLoss="3.90" rerouteNo="0" devices="tripinfo_sveh24 emissions_sveh24" vType="SCar" speedFactor="0.89" vaporized="">
        <emissions CO_abs="1177.184459" CO2_abs="115009.092874" HC_abs="7.996274" PMx_abs="1.616726" NOx_abs="43.685504" fuel_abs="49.437683" electricity_abs="0"/>
    </tripinfo>
    <tripinfo id="sveh7" depart="41.00" departLane="389783911.154_0" departPos="4.85" departSpeed="22.22" departDelay="0.00" arrival="216.00" arrivalLane="462392869_1" arrivalPos="125.48" arrivalSpeed="21.95" duration="175.00" routeLength="3746.53" waitingTime="0.00" waitingCount="0" stopTime="0.00" timeLoss="5.46" rerouteNo="0" devices="tripinfo_sveh7 emissions_sveh7" vType="SCar" speedFactor="1.05" vaporized="">
        <emissions CO_abs="4415.343901" CO2_abs="535534.102391" HC_abs="33.162071" PMx_abs="9.795845" NOx_abs="201.462251" fuel_abs="230.201468" electricity_abs="0"/>
    </tripinfo>
    <tripinfo id="sveh8" depart="42.00" departLane="389783911.154_0" departPos="4.85" departSpeed="19.80" departDelay="0.00" arrival="217.00" arrivalLane="462392869_2" arrivalPos="125.48" arrivalSpeed="21.80" duration="175.00" routeLength="3746.53" waitingTime="0.00" waitingCount="0" stopTime="0.00" timeLoss="5.45" rerouteNo="0" devices="tripinfo_sveh8 emissions_sveh8" vType="SCar" speedFactor="0.89" vaporized="">
        <emissions CO_abs="4887.994391" CO2_abs="565495.288705" HC_abs="36.034647" PMx_abs="10.483837" NOx_abs="214.411802" fuel_abs="243.080299" electricity_abs="0"/>
    </tripinfo>
    <tripinfo id="sveh12" depart="55.00" departLane="462392872_0" departPos="4.85" departSpeed="22.22" departDelay="0.00" arrival="220.00" arrivalLane="389783908_0" arrivalPos="273.35" arrivalSpeed="21.68" duration="165.00" routeLength="3556.47" waitingTime="0.00" waitingCount="0" stopTime="0.00" timeLoss="4.33" rerouteNo="0" devices="tripinfo_sveh12 emissions_sveh12" vType="SCar" speedFactor="1.03" vaporized="">
        <emissions CO_abs="3736.656906" CO2_abs="494941.822634" HC_abs="29.068173" PMx_abs="8.841224" NOx_abs="183.349805" fuel_abs="212.752897" electricity_abs="0"/>
    </tripinfo>
    <tripinfo id="sveh32" depart="147.00" departLane="1_0" departPos="4.85" departSpeed="16.28" departDelay="0.00" arrival="240.00" arrivalLane="245327988#1_0" arrivalPos="180.33" arrivalSpeed="21.52" duration="93.00" routeLength="1550.83" waitingTime="0.00" waitingCount="0" stopTime="0.00" timeLoss="13.84" rerouteNo="0" devices="tripinfo_sveh32 emissions_sveh32" vType="SCar" speedFactor="1.17" vaporized="">
        <emissions CO_abs="4945.418696" CO2_abs="394081.471595" HC_abs="31.977875" PMx_abs="7.706457" NOx_abs="160.782851" fuel_abs="169.397201" electricity_abs="0"/>
    </tripinfo>
    <tripinfo id="sveh27" depart="125.00" departLane="462392872_0" departPos="4.85" departSpeed="22.22" departDelay="0.00" arrival="291.00" arrivalLane="389783908_0" arrivalPos="273.35" arrivalSpeed="21.48" duration="166.00" routeLength="3556.47" waitingTime="0.00" waitingCount="0" stopTime="0.00" timeLoss="5.13" rerouteNo="0" devices="tripinfo_sveh27 emissions_sveh27" vType="SCar" speedFactor="0.92" vaporized="">
        <emissions CO_abs="3636.666775" CO2_abs="468163.998710" HC_abs="27.960854" PMx_abs="8.419494" NOx_abs="174.426757" fuel_abs="201.242269" electricity_abs="0"/>
    </tripinfo>
    <tripinfo id="sveh13" depart="58.00" departLane="462392872_0" departPos="4.85" departSpeed="22.22" departDelay="0.00" arrival="307.00" arrivalLane="319615436_0" arrivalPos="125.64" arrivalSpeed="21.73" duration="249.00" routeLength="4773.89" waitingTime="0.00" waitingCount="0" stopTime="0.00" timeLoss="10.37" rerouteNo="0" devices="tripinfo_sveh13 emissions_sveh13" vType="SCar" speedFactor="1.05" vaporized="">
        <emissions CO_abs="5992.085684" CO2_abs="720108.406826" HC_abs="44.318061" PMx_abs="12.622662" NOx_abs="272.737990" fuel_abs="309.541730" electricity_abs="0"/>
    </tripinfo>
    <tripinfo id="sveh35" depart="151.00" departLane="462392872_0" departPos="4.85" departSpeed="22.22" departDelay="0.00" arrival="316.00" arrivalLane="389783908_0" arrivalPos="273.35" arrivalSpeed="21.25" duration="165.00" routeLength="3556.47" waitingTime="0.00" waitingCount="0" stopTime="0.00" timeLoss="4.85" rerouteNo="0" devices="tripinfo_sveh35 emissions_sveh35" vType="SCar" speedFactor="0.99" vaporized="">
        <emissions CO_abs="3870.461404" CO2_abs="464299.794089" HC_abs="28.914223" PMx_abs="8.520046" NOx_abs="174.810807" fuel_abs="199.581108" electricity_abs="0"/>
    </tripinfo>
    <tripinfo id="sveh54" depart="264.00" departLane="24443879.82_0" departPos="4.85" departSpeed="16.72" departDelay="0.00" arrival="333.00" arrivalLane="319615436_0" arrivalPos="125.64" arrivalSpeed="21.79" duration="69.00" routeLength="1041.49" waitingTime="0.00" waitingCount="0" stopTime="0.00" timeLoss="4.93" rerouteNo="0" devices="tripinfo_sveh54 emissions_sveh54" vType="SCar" speedFactor="1.00" vaporized="">
        <emissions CO_abs="1839.060596" CO2_abs="199243.764160" HC_abs="13.011399" PMx_abs="3.305570" NOx_abs="77.457436" fuel_abs="85.645908" electricity_abs="0"/>
    </tripinfo>
    <tripinfo id="sveh19" depart="77.00" departLane="319615443_0" departPos="4.85" departSpeed="22.22" departDelay="0.00" arrival="362.00" arrivalLane="462392869_1" arrivalPos="125.48" arrivalSpeed="21.48" duration="285.00" routeLength="5127.13" waitingTime="1.00" waitingCount="1" stopTime="0.00" timeLoss="20.38" rerouteNo="0" devices="tripinfo_sveh19 emissions_sveh19" vType="SCar" speedFactor="0.94" vaporized="">
        <emissions CO_abs="8474.165728" CO2_abs="851903.576867" HC_abs="59.035223" PMx_abs="15.458424" NOx_abs="330.229612" fuel_abs="366.194461" electricity_abs="0"/>
    </tripinfo>
    <tripinfo id="sveh49" depart="226.00" departLane="389783911.154_0" departPos="4.85" departSpeed="22.22" departDelay="0.00" arrival="400.00" arrivalLane="462392869_1" arrivalPos="125.48" arrivalSpeed="20.92" duration="174.00" routeLength="3746.53" waitingTime="0.00" waitingCount="0" stopTime="0.00" timeLoss="4.62" rerouteNo="0" devices="tripinfo_sveh49 emissions_sveh49" vType="SCar" speedFactor="0.88" vaporized="">
        <emissions CO_abs="4137.795398" CO2_abs="528836.166639" HC_abs="31.697546" PMx_abs="9.536668" NOx_abs="196.937716" fuel_abs="227.322463" electricity_abs="0"/>
    </tripinfo>
    <tripinfo id="sveh29" depart="136.00" departLane="319615443_0" departPos="4.85" departSpeed="22.22" departDelay="0.00" arrival="403.00" arrivalLane="462392869_1" arrivalPos="125.48" arrivalSpeed="21.36" duration="267.00" routeLength="5127.13" waitingTime="1.00" waitingCount="1" stopTime="0.00" timeLoss="19.80" rerouteNo="0" devices="tripinfo_sveh29 emissions_sveh29" vType="SCar" speedFactor="1.13" vaporized="">
        <emissions CO_abs="7462.199446" CO2_abs="837339.588963" HC_abs="54.088705" PMx_abs="15.004172" NOx_abs="319.325450" fuel_abs="359.934029" electricity_abs="0"/>
    </tripinfo>
    <tripinfo id="sveh51" depart="239.00" departLane="27_0" departPos="4.85" departSpeed="16.62" departDelay="0.00" arrival="413.00" arrivalLane="389783908_0" arrivalPos="273.35" arrivalSpeed="21.19" duration="174.00" routeLength="3248.08" waitingTime="0.00" waitingCount="0" stopTime="0.00" timeLoss="7.67" rerouteNo="0" devices="tripinfo_sveh51 emissions_sveh51" vType="SCar" speedFactor="0.85" vaporized="">
        <emissions CO_abs="4865.480471" CO2_abs="482091.569318" HC_abs="33.800267" PMx_abs="8.917969" NOx_abs="187.361359" fuel_abs="207.229030" electricity_abs="0"/>
    </tripinfo>
    <tripinfo id="sveh72" depart="435.00" departLane="1_0" departPos="4.85" departSpeed="14.66" departDelay="0.00" arrival="487.00" arrivalLane="77477309_0" arrivalPos="222.43" arrivalSpeed="16.69" duration="52.00" routeLength="718.95" waitingTime="0.00" waitingCount="0" stopTime="0.00" timeLoss="4.18" rerouteNo="0" devices="tripinfo_sveh72 emissions_sveh72" vType="SCar" speedFactor="1.06" vaporized="">
        <emissions CO_abs="1388.764940" CO2_abs="135750.331771" HC_abs="9.521117" PMx_abs="2.234184" NOx_abs="53.203896" fuel_abs="58.353042" electricity_abs="0"/>
    </tripinfo>
    <tripinfo id="sveh58" depart="321.00" departLane="389783911.154_0" departPos="4.85" departSpeed="22.22" departDelay="0.00" arrival="495.00" arrivalLane="462392869_1" arrivalPos="125.48" arrivalSpeed="21.89" duration="174.00" routeLength="3746.53" waitingTime="0.00" waitingCount="0" stopTime="0.00" timeLoss="5.33" rerouteNo="0" devices="tripinfo_sveh58 emissions_sveh58" vType="SCar" speedFactor="1.02" vaporized="">
        <emissions CO_abs="4363.886619" CO2_abs="543677.609337" HC_abs="33.088522" PMx_abs="9.865504" NOx_abs="203.523281" fuel_abs="233.702052" electricity_abs="0"/>
    </tripinfo>
    <tripinfo id="sveh21" depart="86.00" departLane="248846659#1.206_0" departPos="4.85" departSpeed="11.31" departDelay="0.00" arrival="499.00" arrivalLane="188949094#1_0" arrivalPos="37.15" arrivalSpeed="15.43" duration="413.00" routeLength="5895.24" waitingTime="1.00" waitingCount="1" stopTime="0.00" timeLoss="31.79" rerouteNo="0" devices="tripinfo_sveh21 emissions_sveh21" vType="SCar" speedFactor="1.02" vaporized="">
        <emissions CO_abs="9604.996404" CO2_abs="1005987.838906" HC_abs="67.068538" PMx_abs="16.278289" NOx_abs="389.176206" fuel_abs="432.429628" electricity_abs="0"/>
    </tripinfo>
    <tripinfo id="sveh20" depart="80.00" departLane="248846659#1.206_0" departPos="4.85" departSpeed="12.87" departDelay="0.00" arrival="505.00" arrivalLane="77477309_0" arrivalPos="222.43" arrivalSpeed="19.17" duration="425.00" routeLength="6518.69" waitingTime="0.00" waitingCount="0" stopTime="0.00" timeLoss="32.08" rerouteNo="0" devices="tripinfo_sveh20 emissions_sveh20" vType="SCar" speedFactor="1.16" vaporized="">
        <emissions CO_abs="11108.183468" CO2_abs="1184949.347831" HC_abs="77.836400" PMx_abs="19.744423" NOx_abs="458.819268" fuel_abs="509.356477" electricity_abs="0"/>
    </tripinfo>
    <tripinfo id="sveh23" depart="92.00" departLane="27_0" departPos="4.85" departSpeed="18.95" departDelay="0.00" arrival="526.00" arrivalLane="-248846659#1_0" arrivalPos="144.53" arrivalSpeed="9.67" duration="434.00" routeLength="5825.70" waitingTime="0.00" waitingCount="0" stopTime="0.00" timeLoss="23.75" rerouteNo="0" devices="tripinfo_sveh23 emissions_sveh23" vType="SCar" speedFactor="0.98" vaporized="">
        <emissions CO_abs="7390.196607" CO2_abs="904776.286586" HC_abs="54.338395" PMx_abs="12.918864" NOx_abs="340.163852" fuel_abs="388.924697" electricity_abs="0"/>
    </tripinfo>
    <tripinfo id="sveh50" depart="237.00" departLane="319615443_0" departPos="4.85" departSpeed="22.22" departDelay="0.00" arrival="533.00" arrivalLane="462392869_1" arrivalPos="125.48" arrivalSpeed="21.41" duration="296.00" routeLength="5127.13" waitingTime="1.00" waitingCount="1" stopTime="0.00" timeLoss="21.01" rerouteNo="0" devices="tripinfo_sveh50 emissions_sveh50" vType="SCar" speedFactor="0.85" vaporized="">
        <emissions CO_abs="7471.090666" CO2_abs="824981.791005" HC_abs="53.646971" PMx_abs="14.119822" NOx_abs="313.117934" fuel_abs="354.622798" electricity_abs="0"/>
    </tripinfo>
    <tripinfo id="sveh39" depart="170.00" departLane="248846659#1.206_0" departPos="4.85" departSpeed="12.25" departDelay="0.00" arrival="546.00" arrivalLane="188949094#1_0" arrivalPos="37.15" arrivalSpeed="15.33" duration="376.00" routeLength="5895.24" waitingTime="0.00" waitingCount="0" stopTime="0.00" timeLoss="23.61" rerouteNo="0" devices="tripinfo_sveh39 emissions_sveh39" vType="SCar" speedFactor="1.10" vaporized="">
        <emissions CO_abs="8711.062457" CO2_abs="953446.984702" HC_abs="61.952107" PMx_abs="16.050884" NOx_abs="369.175326" fuel_abs="409.843737" electricity_abs="0"/>
    </tripinfo>
    <tripinfo id="sveh6" depart="31.00" departLane="319611362_0" departPos="4.85" departSpeed="22.22" departDelay="0.00" arrival="550.00" arrivalLane="319615436_1" arrivalPos="125.64" arrivalSpeed="21.56" duration="519.00" routeLength="11178.14" waitingTime="0.00" waitingCount="0" stopTime="0.00" timeLoss="15.24" rerouteNo="0" devices="tripinfo_sveh6 emissions_sveh6" vType="SCar" speedFactor="1.03" vaporized="">
        <emissions CO_abs="13144.709962" CO2_abs="1606543.178204" HC_abs="98.819131" PMx_abs="29.305694" NOx_abs="602.933527" fuel_abs="690.579081" electricity_abs="0"/>
    </tripinfo>
    <tripinfo id="sveh31" depart="141.00" departLane="248846659#1.206_0" departPos="4.85" departSpeed="13.09" departDelay="0.00" arrival="559.00" arrivalLane="77477309_0" arrivalPos="222.43" arrivalSpeed="18.73" duration="418.00" routeLength="6518.69" waitingTime="0.00" waitingCount="0" stopTime="0.00" timeLoss="32.08" rerouteNo="0" devices="tripinfo_sveh31 emissions_sveh31" vType="SCar" speedFactor="1.18" vaporized="">
        <emissions CO_abs="11209.520798" CO2_abs="1187317.119042" HC_abs="78.415270" PMx_abs="19.917137" NOx_abs="460.147035" fuel_abs="510.374192" electricity_abs="0"/>
    </tripinfo>
    <tripinfo id="sveh9" depart="45.00" departLane="319615443_0" departPos="4.85" departSpeed="22.22" departDelay="0.00" arrival="560.00" arrivalLane="319611370_1" arrivalPos="380.09" arrivalSpeed="21.57" duration="515.00" routeLength="11083.48" waitingTime="0.00" waitingCount="0" stopTime="0.00" timeLoss="15.75" rerouteNo="0" devices="tripinfo_sveh9 emissions_sveh9" vType="SCar" speedFactor="0.94" vaporized="">
        <emissions CO_abs="12286.029225" CO2_abs="1529022.297788" HC_abs="93.095134" PMx_abs="27.754686" NOx_abs="572.372555" fuel_abs="657.256510" electricity_abs="0"/>
    </tripinfo>
    <tripinfo id="sveh10" depart="52.00" departLane="319611362_0" departPos="4.85" departSpeed="22.22" departDelay="0.00" arrival="571.00" arrivalLane="319615436_1" arrivalPos="125.64" arrivalSpeed="21.80" duration="519.00" routeLength="11178.14" waitingTime="0.00" waitingCount="0" stopTime="0.00" timeLoss="15.49" rerouteNo="0" devices="tripinfo_sveh10 emissions_sveh10" vType="SCar" speedFactor="0.86" vaporized="">
        <emissions CO_abs="12091.765393" CO2_abs="1505235.170914" HC_abs="91.670110" PMx_abs="27.323684" NOx_abs="563.552422" fuel_abs="647.031511" electricity_abs="0"/>
    </tripinfo>
    <tripinfo id="sveh71" depart="423.00" departLane="27_0" departPos="4.85" departSpeed="18.91" departDelay="0.00" arrival="590.00" arrivalLane="389783908_0" arrivalPos="273.35" arrivalSpeed="21.28" duration="167.00" routeLength="3248.08" waitingTime="0.00" waitingCount="0" stopTime="0.00" timeLoss="6.61" rerouteNo="0" devices="tripinfo_sveh71 emissions_sveh71" vType="SCar" speedFactor="0.97" vaporized="">
        <emissions CO_abs="4339.657510" CO2_abs="515570.449088" HC_abs="32.162418" PMx_abs="9.162526" NOx_abs="194.691412" fuel_abs="221.620226" electricity_abs="0"/>
    </tripinfo>
    <tripinfo id="sveh18" depart="72.00" departLane="319611362_0" departPos="4.85" departSpeed="22.22" departDelay="0.00" arrival="592.00" arrivalLane="319615436_1" arrivalPos="125.64" arrivalSpeed="21.90" duration="520.00" routeLength="11178.14" waitingTime="0.00" waitingCount="0" stopTime="0.00" timeLoss="16.17" rerouteNo="0" devices="tripinfo_sveh18 emissions_sveh18" vType="SCar" speedFactor="0.94" vaporized="">
        <emissions CO_abs="12894.033284" CO2_abs="1562440.505581" HC_abs="96.707709" PMx_abs="28.574772" NOx_abs="587.632871" fuel_abs="671.621289" electricity_abs="0"/>
    </tripinfo>
    <tripinfo id="sveh38" depart="165.00" departLane="248846659#1.206_0" departPos="4.85" departSpeed="13.11" departDelay="0.00" arrival="594.00" arrivalLane="77477309_0" arrivalPos="222.43" arrivalSpeed="19.55" duration="429.00" routeLength="6518.69" waitingTime="7.00" waitingCount="1" stopTime="0.00" timeLoss="43.03" rerouteNo="0" devices="tripinfo_sveh38 emissions_sveh38" vType="SCar" speedFactor="1.18" vaporized="">
        <emissions CO_abs="12387.733545" CO2_abs="1199873.357256" HC_abs="84.554076" PMx_abs="20.576903" NOx_abs="469.365510" fuel_abs="515.771709" electricity_abs="0"/>
    </tripinfo>
    <tripinfo id="sveh44" depart="191.00" departLane="27_0" departPos="4.85" departSpeed="20.17" departDelay="0.00" arrival="600.00" arrivalLane="-248846659#1_0" arrivalPos="144.53" arrivalSpeed="10.49" duration="409.00" routeLength="5825.70" waitingTime="0.00" waitingCount="0" stopTime="0.00" timeLoss="22.99" rerouteNo="0" devices="tripinfo_sveh44 emissions_sveh44" vType="SCar" speedFactor="1.04" vaporized="">
        <emissions CO_abs="7738.153122" CO2_abs="903937.867254" HC_abs="56.026038" PMx_abs="13.956693" NOx_abs="345.486259" fuel_abs="388.563099" electricity_abs="0"/>
    </tripinfo>
    <tripinfo id="sveh85" depart="535.00" departLane="27_0" departPos="4.85" departSpeed="19.47" departDelay="0.00" arrival="604.00" arrivalLane="462392869_0" arrivalPos="125.48" arrivalSpeed="21.71" duration="69.00" routeLength="996.02" waitingTime="0.00" waitingCount="0" stopTime="0.00" timeLoss="7.11" rerouteNo="0" devices="tripinfo_sveh85 emissions_sveh85" vType="SCar" speedFactor="1.00" vaporized="">
        <emissions CO_abs="2365.344067" CO2_abs="218682.456443" HC_abs="15.866151" PMx_abs="3.738052" NOx_abs="86.223763" fuel_abs="94.001803" electricity_abs="0"/>
    </tripinfo>
    <tripinfo id="sveh25" depart="103.00" departLane="319615443_0" departPos="4.85" departSpeed="22.22" departDelay="0.00" arrival="618.00" arrivalLane="319611370_1" arrivalPos="380.09" arrivalSpeed="21.33" duration="515.00" routeLength="11083.48" waitingTime="0.00" waitingCount="0" stopTime="0.00" timeLoss="15.35" rerouteNo="0" devices="tripinfo_sveh25 emissions_sveh25" vType="SCar" speedFactor="0.83" vaporized="">
        <emissions CO_abs="12380.887438" CO2_abs="1540320.078451" HC_abs="93.754007" PMx_abs="27.958691" NOx_abs="576.451064" fuel_abs="662.112918" electricity_abs="0"/>
    </tripinfo>
    <tripinfo id="sveh74" depart="450.00" departLane="389783911.154_0" departPos="4.85" departSpeed="22.22" departDelay="0.00" arrival="624.00" arrivalLane="462392869_1" arrivalPos="125.48" arrivalSpeed="21.22" duration="174.00" routeLength="3746.53" waitingTime="0.00" waitingCount="0" stopTime="0.00" timeLoss="4.75" rerouteNo="0" devices="tripinfo_sveh74 emissions_sveh74" vType="SCar" speedFactor="0.98" vaporized="">
        <emissions CO_abs="3713.271881" CO2_abs="519731.437235" HC_abs="29.559732" PMx_abs="9.148898" NOx_abs="190.967396" fuel_abs="223.408920" electricity_abs="0"/>
    </tripinfo>
    <tripinfo id="sveh15" depart="62.00" departLane="319611362_0" departPos="4.85" departSpeed="22.22" departDelay="0.00" arrival="641.00" arrivalLane="95223234_0" arrivalPos="261.08" arrivalSpeed="12.81" duration="579.00" routeLength="11796.58" waitingTime="0.00" waitingCount="0" stopTime="0.00" timeLoss="20.69" rerouteNo="0" devices="tripinfo_sveh15 emissions_sveh15" vType="SCar" speedFactor="0.99" vaporized="">
        <emissions CO_abs="13165.952942" CO2_abs="1650731.566043" HC_abs="99.877534" PMx_abs="29.250879" NOx_abs="617.835476" fuel_abs="709.574278" electricity_abs="0"/>
    </tripinfo>
    <tripinfo id="sveh69" depart="408.00" departLane="27_0" departPos="4.85" departSpeed="19.89" departDelay="0.00" arrival="659.00" arrivalLane="319615436_0" arrivalPos="125.64" arrivalSpeed="21.01" duration="251.00" routeLength="4465.50" waitingTime="0.00" waitingCount="0" stopTime="0.00" timeLoss="11.29" rerouteNo="0" devices="tripinfo_sveh69 emissions_sveh69" vType="SCar" speedFactor="1.02" vaporized="">
        <emissions CO_abs="5799.725657" CO2_abs="691158.612694" HC_abs="42.832445" PMx_abs="11.850669" NOx_abs="262.709679" fuel_abs="297.097737" electricity_abs="0"/>
    </tripinfo>
    <tripinfo id="sveh3" depart="22.00" departLane="516175821_0" departPos="4.85" departSpeed="22.22" departDelay="0.00" arrival="667.00" arrivalLane="462392869_1" arrivalPos="125.48" arrivalSpeed="21.60" duration="645.00" routeLength="13909.04" waitingTime="0.00" waitingCount="0" stopTime="0.00" timeLoss="18.43" rerouteNo="0" devices="tripinfo_sveh3 emissions_sveh3" vType="SCar" speedFactor="1.01" vaporized="">
        <emissions CO_abs="14942.664559" CO2_abs="1926226.909437" HC_abs="114.764653" PMx_abs="34.622582" NOx_abs="716.661709" fuel_abs="827.996824" electricity_abs="0"/>
    </tripinfo>
    <tripinfo id="sveh36" depart="152.00" departLane="319615443_0" departPos="4.85" departSpeed="22.22" departDelay="0.00" arrival="667.00" arrivalLane="319611370_1" arrivalPos="380.09" arrivalSpeed="21.09" duration="515.00" routeLength="11083.48" waitingTime="0.00" waitingCount="0" stopTime="0.00" timeLoss="15.68" rerouteNo="0" devices="tripinfo_sveh36 emissions_sveh36" vType="SCar" speedFactor="1.02" vaporized="">
        <emissions CO_abs="12117.628974" CO2_abs="1558326.686830" HC_abs="93.087875" PMx_abs="28.039804" NOx_abs="580.298244" fuel_abs="669.853316" electricity_abs="0"/>
    </tripinfo>
    <tripinfo id="sveh87" depart="549.00" departLane="516175821_0" departPos="4.85" departSpeed="22.22" departDelay="0.00" arrival="669.00" arrivalLane="2_0" arrivalPos="142.18" arrivalSpeed="13.08" duration="120.00" routeLength="1876.02" waitingTime="0.00" waitingCount="0" stopTime="0.00" timeLoss="10.17" rerouteNo="0" devices="tripinfo_sveh87 emissions_sveh87" vType="SCar" speedFactor="1.01" vaporized="">
        <emissions CO_abs="3448.532820" CO2_abs="332426.595598" HC_abs="23.506722" PMx_abs="5.784169" NOx_abs="130.215205" fuel_abs="142.895197" electricity_abs="0"/>
    </tripinfo>
    <tripinfo id="sveh93" depart="562.00" departLane="516175821_0" departPos="4.85" departSpeed="22.22" departDelay="0.00" arrival="674.00" arrivalLane="2_0" arrivalPos="142.18" arrivalSpeed="14.00" duration="112.00" routeLength="1876.02" waitingTime="0.00" waitingCount="0" stopTime="0.00" timeLoss="8.34" rerouteNo="0" devices="tripinfo_sveh93 emissions_sveh93" vType="SCar" speedFactor="1.09" vaporized="">
        <emissions CO_abs="3132.198264" CO2_abs="329723.167980" HC_abs="22.106667" PMx_abs="5.795014" NOx_abs="128.318025" fuel_abs="141.732919" electricity_abs="0"/>
    </tripinfo>
    <tripinfo id="sveh1" depart="1.00" departLane="516175821_0" departPos="4.85" departSpeed="22.22" departDelay="0.00" arrival="684.00" arrivalLane="389783908_0" arrivalPos="273.35" arrivalSpeed="21.52" duration="683.00" routeLength="14621.90" waitingTime="0.00" waitingCount="0" stopTime="0.00" timeLoss="20.15" rerouteNo="0" devices="tripinfo_sveh1 emissions_sveh1" vType="SCar" speedFactor="1.06" vaporized="">
        <emissions CO_abs="16320.440290" CO2_abs="1997049.790329" HC_abs="122.738325" PMx_abs="36.340581" NOx_abs="750.046300" fuel_abs="858.439933" electricity_abs="0"/>
    </tripinfo>
    <tripinfo id="sveh43" depart="183.00" departLane="319615443_0" departPos="4.85" departSpeed="22.22" departDelay="0.00" arrival="698.00" arrivalLane="319611370_1" arrivalPos="380.09" arrivalSpeed="21.24" duration="515.00" routeLength="11083.48" waitingTime="0.00" waitingCount="0" stopTime="0.00" timeLoss="15.32" rerouteNo="0" devices="tripinfo_sveh43 emissions_sveh43" vType="SCar" speedFactor="1.09" vaporized="">
        <emissions CO_abs="11908.196597" CO2_abs="1535723.168358" HC_abs="91.457264" PMx_abs="27.593868" NOx_abs="571.408082" fuel_abs="660.137128" electricity_abs="0"/>
    </tripinfo>
    <tripinfo id="sveh2" depart="16.00" departLane="462392872_0" departPos="4.85" departSpeed="22.22" departDelay="0.00" arrival="700.00" arrivalLane="245327988#1_0" arrivalPos="180.33" arrivalSpeed="21.07" duration="684.00" routeLength="14544.77" waitingTime="0.00" waitingCount="0" stopTime="0.00" timeLoss="20.14" rerouteNo="0" devices="tripinfo_sveh2 emissions_sveh2" vType="SCar" speedFactor="0.94" vaporized="">
        <emissions CO_abs="16822.595433" CO2_abs="2058213.720680" HC_abs="126.568949" PMx_abs="37.370959" NOx_abs="772.926479" fuel_abs="884.731594" electricity_abs="0"/>
    </tripinfo>
    <tripinfo id="sveh86" depart="537.00" departLane="462392872_0" departPos="4.85" departSpeed="22.22" departDelay="0.00" arrival="703.00" arrivalLane="389783908_0" arrivalPos="273.35" arrivalSpeed="21.03" duration="166.00" routeLength="3556.47" waitingTime="0.00" waitingCount="0" stopTime="0.00" timeLoss="5.07" rerouteNo="0" devices="tripinfo_sveh86 emissions_sveh86" vType="SCar" speedFactor="1.04" vaporized="">
        <emissions CO_abs="3579.701989" CO2_abs="487175.393642" HC_abs="28.125798" PMx_abs="8.629302" NOx_abs="179.828008" fuel_abs="209.414504" electricity_abs="0"/>
    </tripinfo>
    <tripinfo id="sveh14" depart="59.00" departLane="516175821_0" departPos="4.85" departSpeed="22.22" departDelay="0.00" arrival="704.00" arrivalLane="462392869_1" arrivalPos="125.48" arrivalSpeed="21.33" duration="645.00" routeLength="13909.04" waitingTime="0.00" waitingCount="0" stopTime="0.00" timeLoss="18.94" rerouteNo="0" devices="tripinfo_sveh14 emissions_sveh14" vType="SCar" speedFactor="1.12" vaporized="">
        <emissions CO_abs="14979.783927" CO2_abs="1891923.208257" HC_abs="114.176071" PMx_abs="34.206599" NOx_abs="706.378761" fuel_abs="813.251074" electricity_abs="0"/>
    </tripinfo>
    <tripinfo id="sveh88" depart="550.00" departLane="462392872_0" departPos="4.85" departSpeed="22.22" departDelay="0.00" arrival="715.00" arrivalLane="389783908_0" arrivalPos="273.35" arrivalSpeed="21.03" duration="165.00" routeLength="3556.47" waitingTime="0.00" waitingCount="0" stopTime="0.00" timeLoss="4.69" rerouteNo="0" devices="tripinfo_sveh88 emissions_sveh88" vType="SCar" speedFactor="1.02" vaporized="">
        <emissions CO_abs="4289.547346" CO2_abs="507139.101106" HC_abs="31.911617" PMx_abs="9.353752" NOx_abs="191.431358" fuel_abs="217.995724" electricity_abs="0"/>
    </tripinfo>
    <tripinfo id="sveh89" depart="552.00" departLane="462392872_0" departPos="4.85" departSpeed="22.22" departDelay="0.00" arrival="717.00" arrivalLane="389783908_0" arrivalPos="273.35" arrivalSpeed="22.06" duration="165.00" routeLength="3556.47" waitingTime="0.00" waitingCount="0" stopTime="0.00" timeLoss="4.92" rerouteNo="0" devices="tripinfo_sveh89 emissions_sveh89" vType="SCar" speedFactor="1.02" vaporized="">
        <emissions CO_abs="3946.390089" CO2_abs="486822.113983" HC_abs="29.834542" PMx_abs="8.863508" NOx_abs="182.560586" fuel_abs="209.262463" electricity_abs="0"/>
    </tripinfo>
    <tripinfo id="sveh17" depart="69.00" departLane="516175821_0" departPos="4.85" departSpeed="22.22" departDelay="0.00" arrival="718.00" arrivalLane="462392869_1" arrivalPos="125.48" arrivalSpeed="21.13" duration="649.00" routeLength="13909.04" waitingTime="0.00" waitingCount="0" stopTime="0.00" timeLoss="18.55" rerouteNo="0" devices="tripinfo_sveh17 emissions_sveh17" vType="SCar" speedFactor="0.88" vaporized="">
        <emissions CO_abs="15555.104845" CO2_abs="1932409.558438" HC_abs="117.694555" PMx_abs="35.046589" NOx_abs="723.798938" fuel_abs="830.654172" electricity_abs="0"/>
    </tripinfo>
    <tripinfo id="sveh46" depart="215.00" departLane="319615443_0" departPos="4.85" departSpeed="22.22" departDelay="0.00" arrival="730.00" arrivalLane="319611370_1" arrivalPos="380.09" arrivalSpeed="21.80" duration="515.00" routeLength="11083.48" waitingTime="0.00" waitingCount="0" stopTime="0.00" timeLoss="15.55" rerouteNo="0" devices="tripinfo_sveh46 emissions_sveh46" vType="SCar" speedFactor="1.09" vaporized="">
        <emissions CO_abs="11347.380826" CO2_abs="1501427.480286" HC_abs="88.066403" PMx_abs="26.787857" NOx_abs="556.501039" fuel_abs="645.395116" electricity_abs="0"/>
    </tripinfo>
    <tripinfo id="sveh48" depart="226.00" departLane="319615443_0" departPos="4.85" departSpeed="22.22" departDelay="0.00" arrival="741.00" arrivalLane="319611370_1" arrivalPos="380.09" arrivalSpeed="21.97" duration="515.00" routeLength="11083.48" waitingTime="0.00" waitingCount="0" stopTime="0.00" timeLoss="15.72" rerouteNo="0" devices="tripinfo_sveh48 emissions_sveh48" vType="SCar" speedFactor="0.90" vaporized="">