<?xml version="1.0" encoding="UTF-8"?>

<!-- generated on Mon Nov  9 20:44:48 2020 by Eclipse SUMO sumo Version 1.7.0
<configuration xmlns:xsi="http://www.w3.org/2001/XMLSchema-instance" xsi:noNamespaceSchemaLocation="http://sumo.dlr.de/xsd/sumoConfiguration.xsd">

    <input>
        <net-file value="../dataSets/Angeja_Estarreja/angeja_estarreja.net.xml"/>
        <route-files value="../results/angeja_estarreja/cost_PMx-cost_co/solution16/angeja_estarreja.rou.xml"/>
        <additional-files value="moreOutputInfo.xml"/>
    </input>

    <output>
        <emission-output.precision value="6"/>
        <tripinfo-output value="../results/angeja_estarreja/cost_PMx-cost_co/solution16/angeja_estarreja-tripinfo"/>
    </output>

    <processing>
        <collision.action value="warn"/>
        <time-to-teleport value="-1"/>
    </processing>

    <emissions>
        <device.emissions.probability value="1"/>
    </emissions>

    <gui_only>
        <quit-on-end value="true"/>
        <start value="true"/>
    </gui_only>

</configuration>
-->

<meandata xmlns:xsi="http://www.w3.org/2001/XMLSchema-instance" xsi:noNamespaceSchemaLocation="http://sumo.dlr.de/xsd/meandata_file.xsd">
    <interval begin="0.00" end="19079.00" id="emissions-detector">
        <edge id=":10_0" sampledSeconds="386.25" CO_abs="38608.684791" CO2_abs="2142594.699048" HC_abs="226.646005" PMx_abs="41.967704" NOx_abs="913.535254" fuel_abs="921.007228" electricity_abs="0"
            CO_normed="416.525976" CO2_normed="23115.170936" HC_normed="2.445148" PMx_normed="0.452764" NOx_normed="9.855585" fuel_normed="9.936195" electricity_normed="0"
            traveltime="1.89" CO_perVeh="189.023334" CO2_perVeh="10489.877996" HC_perVeh="1.109631" PMx_perVeh="0.205469" NOx_perVeh="4.472555" fuel_perVeh="4.509137" electricity_perVeh="0"/>
        <edge id=":10_1" sampledSeconds="0.00" CO_abs="0" CO2_abs="0" HC_abs="0" PMx_abs="0" NOx_abs="0" fuel_abs="0" electricity_abs="0"
            CO_normed="0" CO2_normed="0" HC_normed="0" PMx_normed="0" NOx_normed="0" fuel_normed="0" electricity_normed="0"/>
        <edge id=":100_0" sampledSeconds="0.00" CO_abs="0" CO2_abs="0" HC_abs="0" PMx_abs="0" NOx_abs="0" fuel_abs="0" electricity_abs="0"
            CO_normed="0" CO2_normed="0" HC_normed="0" PMx_normed="0" NOx_normed="0" fuel_normed="0" electricity_normed="0"/>
        <edge id=":100_1" sampledSeconds="911.75" CO_abs="20356.481362" CO2_abs="2592690.882319" HC_abs="155.693274" PMx_abs="46.767486" NOx_abs="966.776615" fuel_abs="1114.479057" electricity_abs="0"
            CO_normed="129.940692" CO2_normed="16549.817287" HC_normed="0.993830" PMx_normed="0.298529" NOx_normed="6.171185" fuel_normed="7.114008" electricity_normed="0"
            traveltime="1.37" CO_perVeh="30.607790" CO2_perVeh="3898.342630" HC_perVeh="0.234099" PMx_perVeh="0.070319" NOx_perVeh="1.453635" fuel_perVeh="1.675719" electricity_perVeh="0"/>
        <edge id=":101_0" sampledSeconds="438.73" CO_abs="10093.027254" CO2_abs="1315318.060582" HC_abs="77.873480" PMx_abs="23.567799" NOx_abs="488.711347" fuel_abs="565.395100" electricity_abs="0"
            CO_normed="233.102152" CO2_normed="30377.751119" HC_normed="1.798516" PMx_normed="0.544307" NOx_normed="11.286967" fuel_normed="13.058006" electricity_normed="0"
            traveltime="0.38" CO_perVeh="8.719073" CO2_perVeh="1136.265037" HC_perVeh="0.067273" PMx_perVeh="0.020360" NOx_perVeh="0.422184" fuel_perVeh="0.488428" electricity_perVeh="0"/>
        <edge id=":102_0" sampledSeconds="341.31" CO_abs="8249.000662" CO2_abs="1030749.083693" HC_abs="62.649833" PMx_abs="18.699170" NOx_abs="385.559033" fuel_abs="443.071743" electricity_abs="0"
            CO_normed="192.160098" CO2_normed="24011.253413" HC_normed="1.459425" PMx_normed="0.435596" NOx_normed="8.981580" fuel_normed="10.321336" electricity_normed="0"
            traveltime="0.38" CO_perVeh="9.074623" CO2_perVeh="1133.914285" HC_perVeh="0.068920" PMx_perVeh="0.020571" NOx_perVeh="0.424149" fuel_perVeh="0.487418" electricity_perVeh="0"/>
        <edge id=":103_0" sampledSeconds="434.26" CO_abs="10012.031834" CO2_abs="1231304.235851" HC_abs="75.525401" PMx_abs="22.431234" NOx_abs="461.749348" fuel_abs="529.281128" electricity_abs="0"
            CO_normed="234.678462" CO2_normed="28861.333013" HC_normed="1.770289" PMx_normed="0.525780" NOx_normed="10.823240" fuel_normed="12.406161" electricity_normed="0"
            traveltime="0.37" CO_perVeh="8.601965" CO2_perVeh="1057.890748" HC_perVeh="0.064889" PMx_perVeh="0.019272" NOx_perVeh="0.396718" fuel_perVeh="0.454739" electricity_perVeh="0"/>
        <edge id=":104_0" sampledSeconds="340.90" CO_abs="8838.964851" CO2_abs="1060858.547591" HC_abs="66.028199" PMx_abs="19.459665" NOx_abs="399.410603" fuel_abs="456.014256" electricity_abs="0"
            CO_normed="206.157803" CO2_normed="24743.199176" HC_normed="1.540025" PMx_normed="0.453872" NOx_normed="9.315753" fuel_normed="10.635962" electricity_normed="0"
            traveltime="0.37" CO_perVeh="9.719199" CO2_perVeh="1166.504820" HC_perVeh="0.072604" PMx_perVeh="0.021398" NOx_perVeh="0.439186" fuel_perVeh="0.501427" electricity_perVeh="0"/>
        <edge id=":105_0" sampledSeconds="168.71" CO_abs="4018.587590" CO2_abs="503348.654526" HC_abs="30.526438" PMx_abs="9.121573" NOx_abs="188.176227" fuel_abs="216.366501" electricity_abs="0"
            CO_normed="3446.653704" CO2_normed="431711.009319" HC_normed="26.181851" PMx_normed="7.823371" NOx_normed="161.394588" fuel_normed="185.572763" electricity_normed="0"
            traveltime="0.01" CO_perVeh="0.243013" CO2_perVeh="30.438561" HC_perVeh="0.001846" PMx_perVeh="0.000552" NOx_perVeh="0.011379" fuel_perVeh="0.013084" electricity_perVeh="0"/>
        <edge id=":106_0" sampledSeconds="134.51" CO_abs="3050.265014" CO2_abs="397952.296456" HC_abs="23.549330" PMx_abs="7.128367" NOx_abs="147.853242" fuel_abs="171.061499" electricity_abs="0"
            CO_normed="1856.618922" CO2_normed="242223.465969" HC_normed="14.333879" PMx_normed="4.338856" NOx_normed="89.994517" fuel_normed="104.120794" electricity_normed="0"
            traveltime="0.01" CO_perVeh="0.326135" CO2_perVeh="42.549115" HC_perVeh="0.002518" PMx_perVeh="0.000762" NOx_perVeh="0.015808" fuel_perVeh="0.018290" electricity_perVeh="0"/>
        <edge id=":107_0" sampledSeconds="438.15" CO_abs="11584.700172" CO2_abs="1424042.427574" HC_abs="87.383282" PMx_abs="25.944643" NOx_abs="534.134430" fuel_abs="612.130416" electricity_abs="0"
            CO_normed="267.552883" CO2_normed="32888.780094" HC_normed="2.018149" PMx_normed="0.599201" NOx_normed="12.336030" fuel_normed="14.137376" electricity_normed="0"
            traveltime="0.38" CO_perVeh="10.007677" CO2_perVeh="1230.187729" HC_perVeh="0.075488" PMx_perVeh="0.022413" NOx_perVeh="0.461423" fuel_perVeh="0.528801" electricity_perVeh="0"/>
        <edge id=":108_0" sampledSeconds="92.04" CO_abs="8429.484311" CO2_abs="614358.626425" HC_abs="53.165631" PMx_abs="12.358099" NOx_abs="259.135280" fuel_abs="264.083506" electricity_abs="0"
            CO_normed="132.215470" CO2_normed="9636.142775" HC_normed="0.833897" PMx_normed="0.193835" NOx_normed="4.064506" fuel_normed="4.142119" electricity_normed="0"
            traveltime="0.84" CO_perVeh="77.311129" CO2_perVeh="5634.598424" HC_perVeh="0.487609" PMx_perVeh="0.113342" NOx_perVeh="2.376663" fuel_perVeh="2.422045" electricity_perVeh="0"/>
        <edge id=":108_1" sampledSeconds="402.96" CO_abs="9410.429397" CO2_abs="1177131.821265" HC_abs="71.468495" PMx_abs="21.340909" NOx_abs="440.232151" fuel_abs="505.994972" electricity_abs="0"
            CO_normed="137.646960" CO2_normed="17217.983312" HC_normed="1.045374" PMx_normed="0.312155" NOx_normed="6.439304" fuel_normed="7.401221" electricity_normed="0"
            traveltime="0.60" CO_perVeh="13.979426" CO2_perVeh="1748.658478" HC_perVeh="0.106168" PMx_perVeh="0.031702" NOx_perVeh="0.653976" fuel_perVeh="0.751668" electricity_perVeh="0"/>
        <edge id=":109_0" sampledSeconds="307.01" CO_abs="200.140170" CO2_abs="28922.506862" HC_abs="1.559652" PMx_abs="0.390160" NOx_abs="10.592931" fuel_abs="12.432567" electricity_abs="0"
            CO_normed="3.009106" CO2_normed="434.849625" HC_normed="0.023449" PMx_normed="0.005866" NOx_normed="0.159265" fuel_normed="0.186924" electricity_normed="0"
            traveltime="0.85" CO_perVeh="0.556277" CO2_perVeh="80.388338" HC_perVeh="0.004335" PMx_perVeh="0.001084" NOx_perVeh="0.029442" fuel_perVeh="0.034556" electricity_perVeh="0"/>
        <edge id=":109_1" sampledSeconds="524.43" CO_abs="11158.928330" CO2_abs="1470286.084980" HC_abs="86.501043" PMx_abs="26.272455" NOx_abs="545.276465" fuel_abs="632.008833" electricity_abs="0"
            CO_normed="109.437034" CO2_normed="14419.283215" HC_normed="0.848327" PMx_normed="0.257657" NOx_normed="5.347596" fuel_normed="6.198191" electricity_normed="0"
            traveltime="0.89" CO_perVeh="19.001014" CO2_perVeh="2503.549217" HC_perVeh="0.147291" PMx_perVeh="0.044736" NOx_perVeh="0.928477" fuel_perVeh="1.076161" electricity_perVeh="0"/>
        <edge id=":11_0" sampledSeconds="274.08" CO_abs="16717.629088" CO2_abs="1213839.653388" HC_abs="104.789353" PMx_abs="21.767241" NOx_abs="498.331334" fuel_abs="521.775588" electricity_abs="0"
            CO_normed="172.845752" CO2_normed="12550.046784" HC_normed="1.083431" PMx_normed="0.225054" NOx_normed="5.152313" fuel_normed="5.394706" electricity_normed="0"
            traveltime="1.59" CO_perVeh="96.825697" CO2_perVeh="7030.355201" HC_perVeh="0.606922" PMx_perVeh="0.126072" NOx_perVeh="2.886251" fuel_perVeh="3.022036" electricity_perVeh="0"/>
        <edge id=":11_1" sampledSeconds="50.89" CO_abs="727.495542" CO2_abs="68223.737549" HC_abs="4.860352" PMx_abs="0.868661" NOx_abs="25.507556" fuel_abs="29.326727" electricity_abs="0"
            CO_normed="7.711826" CO2_normed="723.206629" HC_normed="0.051522" PMx_normed="0.009208" NOx_normed="0.270393" fuel_normed="0.310878" electricity_normed="0"
            traveltime="1.67" CO_perVeh="23.927529" CO2_perVeh="2243.897547" HC_perVeh="0.159858" PMx_perVeh="0.028571" NOx_perVeh="0.838951" fuel_perVeh="0.964564" electricity_perVeh="0"/>
        <edge id=":110_0" sampledSeconds="94.52" CO_abs="4.834128" CO2_abs="1250.014291" HC_abs="0.051162" PMx_abs="0.016280" NOx_abs="0.444884" fuel_abs="0.537327" electricity_abs="0"
            CO_normed="0.062691" CO2_normed="16.210592" HC_normed="0.000663" PMx_normed="0.000211" NOx_normed="0.005769" fuel_normed="0.006968" electricity_normed="0"
            traveltime="0.93" CO_perVeh="0.047330" CO2_perVeh="12.238549" HC_perVeh="0.000501" PMx_perVeh="0.000159" NOx_perVeh="0.004356" fuel_perVeh="0.005261" electricity_perVeh="0"/>
        <edge id=":110_1" sampledSeconds="443.55" CO_abs="10515.635168" CO2_abs="1299339.247156" HC_abs="79.520528" PMx_abs="23.650168" NOx_abs="486.855381" fuel_abs="558.526280" electricity_abs="0"
            CO_normed="134.978646" CO2_normed="16678.312800" HC_normed="1.020725" PMx_normed="0.303573" NOx_normed="6.249274" fuel_normed="7.169241" electricity_normed="0"
            traveltime="0.68" CO_perVeh="16.153577" CO2_perVeh="1995.978055" HC_perVeh="0.122155" PMx_perVeh="0.036330" NOx_perVeh="0.747882" fuel_perVeh="0.857979" electricity_perVeh="0"/>
        <edge id=":111_0" sampledSeconds="340.65" CO_abs="8598.094528" CO2_abs="1060329.550721" HC_abs="64.919725" PMx_abs="19.305164" NOx_abs="397.296312" fuel_abs="455.786987" electricity_abs="0"
            CO_normed="198.576134" CO2_normed="24488.698332" HC_normed="1.499345" PMx_normed="0.445860" NOx_normed="9.175703" fuel_normed="10.526567" electricity_normed="0"
            traveltime="0.38" CO_perVeh="9.555496" CO2_perVeh="1178.397670" HC_perVeh="0.072149" PMx_perVeh="0.021455" NOx_perVeh="0.441535" fuel_perVeh="0.506539" electricity_perVeh="0"/>
        <edge id=":114_0" sampledSeconds="107.22" CO_abs="10353.689489" CO2_abs="747511.749340" HC_abs="65.161136" PMx_abs="15.158232" NOx_abs="316.236484" fuel_abs="321.319574" electricity_abs="0"
            CO_normed="137.579487" CO2_normed="9932.911628" HC_normed="0.865859" PMx_normed="0.201422" NOx_normed="4.202140" fuel_normed="4.269684" electricity_normed="0"
            traveltime="0.99" CO_perVeh="95.783179" CO2_perVeh="6915.317659" HC_perVeh="0.602813" PMx_perVeh="0.140231" NOx_perVeh="2.925540" fuel_perVeh="2.972565" electricity_perVeh="0"/>
        <edge id=":114_1" sampledSeconds="415.95" CO_abs="9932.645249" CO2_abs="1250355.950873" HC_abs="75.595059" PMx_abs="22.621347" NOx_abs="467.163559" fuel_abs="537.470695" electricity_abs="0"
            CO_normed="131.153411" CO2_normed="16510.047752" HC_normed="0.998178" PMx_normed="0.298699" NOx_normed="6.168558" fuel_normed="7.096913" electricity_normed="0"
            traveltime="0.66" CO_perVeh="15.827390" CO2_perVeh="1992.406927" HC_perVeh="0.120459" PMx_perVeh="0.036046" NOx_perVeh="0.744412" fuel_perVeh="0.856444" electricity_perVeh="0"/>
        <edge id=":115_0" sampledSeconds="80.29" CO_abs="175.359268" CO2_abs="17030.558969" HC_abs="1.199266" PMx_abs="0.279863" NOx_abs="6.716123" fuel_abs="7.320678" electricity_abs="0"
            CO_normed="3.962681" CO2_normed="384.848076" HC_normed="0.027100" PMx_normed="0.006324" NOx_normed="0.151768" fuel_normed="0.165429" electricity_normed="0"
            traveltime="0.63" CO_perVeh="1.379936" CO2_perVeh="134.016744" HC_perVeh="0.009437" PMx_perVeh="0.002202" NOx_perVeh="0.052850" fuel_perVeh="0.057608" electricity_perVeh="0"/>
        <edge id=":115_1" sampledSeconds="72.05" CO_abs="1060.698520" CO2_abs="164926.891797" HC_abs="8.499713" PMx_abs="2.405637" NOx_abs="61.051920" fuel_abs="70.894814" electricity_abs="0"
            CO_normed="21.405592" CO2_normed="3328.332887" HC_normed="0.171530" PMx_normed="0.048547" NOx_normed="1.232068" fuel_normed="1.430704" electricity_normed="0"
            traveltime="0.59" CO_perVeh="8.683593" CO2_perVeh="1350.202643" HC_perVeh="0.069584" PMx_perVeh="0.019694" NOx_perVeh="0.499812" fuel_perVeh="0.580393" electricity_perVeh="0"/>
        <edge id=":116_0" sampledSeconds="75.05" CO_abs="85.942115" CO2_abs="11195.171464" HC_abs="0.647426" PMx_abs="0.141507" NOx_abs="4.113983" fuel_abs="4.812348" electricity_abs="0"
            CO_normed="2.167960" CO2_normed="282.407382" HC_normed="0.016332" PMx_normed="0.003570" NOx_normed="0.103779" fuel_normed="0.121395" electricity_normed="0"
            traveltime="0.57" CO_perVeh="0.648927" CO2_perVeh="84.531947" HC_perVeh="0.004889" PMx_perVeh="0.001068" NOx_perVeh="0.031064" fuel_perVeh="0.036337" electricity_perVeh="0"/>
        <edge id=":117_0" sampledSeconds="240.31" CO_abs="13740.694328" CO2_abs="1140868.335261" HC_abs="89.705128" PMx_abs="20.914076" NOx_abs="465.746540" fuel_abs="490.406660" electricity_abs="0"
            CO_normed="310.505356" CO2_normed="25780.773525" HC_normed="2.027112" PMx_normed="0.472606" NOx_normed="10.524708" fuel_normed="11.081965" electricity_normed="0"
            traveltime="0.60" CO_perVeh="34.516995" CO2_perVeh="2865.892049" HC_perVeh="0.225342" PMx_perVeh="0.052537" NOx_perVeh="1.169968" fuel_perVeh="1.231915" electricity_perVeh="0"/>
        <edge id=":117_1" sampledSeconds="76.48" CO_abs="4514.873147" CO2_abs="376715.221161" HC_abs="29.465753" PMx_abs="6.869058" NOx_abs="153.522247" fuel_abs="161.932524" electricity_abs="0"
            CO_normed="96.152089" CO2_normed="8022.806895" HC_normed="0.627525" PMx_normed="0.146289" NOx_normed="3.269524" fuel_normed="3.448635" electricity_normed="0"
            traveltime="0.65" CO_perVeh="38.170726" CO2_perVeh="3184.916419" HC_perVeh="0.249116" PMx_perVeh="0.058074" NOx_perVeh="1.297945" fuel_perVeh="1.369049" electricity_perVeh="0"/>
        <edge id=":118_0" sampledSeconds="900.24" CO_abs="13166.266120" CO2_abs="2020469.417349" HC_abs="105.658911" PMx_abs="29.998015" NOx_abs="749.969975" fuel_abs="868.510506" electricity_abs="0"
            CO_normed="39.947441" CO2_normed="6130.256085" HC_normed="0.320577" PMx_normed="0.091016" NOx_normed="2.275465" fuel_normed="2.635126" electricity_normed="0"
            traveltime="3.93" CO_perVeh="57.434073" CO2_perVeh="8813.720318" HC_perVeh="0.460907" PMx_perVeh="0.130858" NOx_perVeh="3.271530" fuel_perVeh="3.788629" electricity_perVeh="0"/>
        <edge id=":118_4" sampledSeconds="283.24" CO_abs="4004.394419" CO2_abs="633416.629032" HC_abs="32.455547" PMx_abs="9.260866" NOx_abs="233.827321" fuel_abs="272.277949" electricity_abs="0"
            CO_normed="12.173123" CO2_normed="1925.549148" HC_normed="0.098663" PMx_normed="0.028152" NOx_normed="0.710821" fuel_normed="0.827709" electricity_normed="0"
            traveltime="3.93" CO_perVeh="55.518448" CO2_perVeh="8781.929211" HC_perVeh="0.449976" PMx_perVeh="0.128396" NOx_perVeh="3.241871" fuel_perVeh="3.774965" electricity_perVeh="0"/>
        <edge id=":118_5" sampledSeconds="238.36" CO_abs="3711.334748" CO2_abs="545632.631314" HC_abs="29.253034" PMx_abs="8.363531" NOx_abs="204.181713" fuel_abs="234.543084" electricity_abs="0"
            CO_normed="11.394216" CO2_normed="1675.153743" HC_normed="0.089810" PMx_normed="0.025677" NOx_normed="0.626861" fuel_normed="0.720074" electricity_normed="0"
            traveltime="3.81" CO_perVeh="59.397943" CO2_perVeh="8732.560670" HC_perVeh="0.468179" PMx_perVeh="0.133854" NOx_perVeh="3.267820" fuel_perVeh="3.753738" electricity_perVeh="0"/>
        <edge id=":119_0" sampledSeconds="138.93" CO_abs="1942.972867" CO2_abs="313928.029873" HC_abs="15.901355" PMx_abs="4.568485" NOx_abs="115.888399" fuel_abs="134.943837" electricity_abs="0"
            CO_normed="41.661121" CO2_normed="6731.228216" HC_normed="0.340956" PMx_normed="0.097957" NOx_normed="2.484873" fuel_normed="2.893459" electricity_normed="0"
            traveltime="0.56" CO_perVeh="7.789240" CO2_perVeh="1258.515176" HC_perVeh="0.063747" PMx_perVeh="0.018315" NOx_perVeh="0.464588" fuel_perVeh="0.540980" electricity_perVeh="0"/>
        <edge id=":12_0" sampledSeconds="589.11" CO_abs="52944.518935" CO2_abs="3012368.992386" HC_abs="312.638838" PMx_abs="59.104166" NOx_abs="1283.988588" fuel_abs="1294.883754" electricity_abs="0"
            CO_normed="496.030559" CO2_normed="28222.507370" HC_normed="2.929074" PMx_normed="0.553740" NOx_normed="12.029528" fuel_normed="12.131604" electricity_normed="0"
            traveltime="2.11" CO_perVeh="190.016487" CO2_perVeh="10811.313137" HC_perVeh="1.122053" PMx_perVeh="0.212123" NOx_perVeh="4.608201" fuel_perVeh="4.647304" electricity_perVeh="0"/>
        <edge id=":12_1" sampledSeconds="56.47" CO_abs="1135.751603" CO2_abs="97646.711470" HC_abs="7.394938" PMx_abs="1.275278" NOx_abs="36.844494" fuel_abs="41.974537" electricity_abs="0"
            CO_normed="10.630158" CO2_normed="913.932217" HC_normed="0.069214" PMx_normed="0.011936" NOx_normed="0.344849" fuel_normed="0.392864" electricity_normed="0"
            traveltime="1.90" CO_perVeh="38.299131" CO2_perVeh="3292.783526" HC_perVeh="0.249368" PMx_perVeh="0.043004" NOx_perVeh="1.242448" fuel_perVeh="1.415440" electricity_perVeh="0"/>
        <edge id=":120_0" sampledSeconds="39.01" CO_abs="621.010775" CO2_abs="88519.680976" HC_abs="4.886786" PMx_abs="1.362141" NOx_abs="33.256633" fuel_abs="38.050663" electricity_abs="0"
            CO_normed="488.241607" CO2_normed="69594.591679" HC_normed="3.842014" PMx_normed="1.070922" NOx_normed="26.146522" fuel_normed="29.915611" electricity_normed="0"
            traveltime="0.02" CO_perVeh="0.238946" CO2_perVeh="34.059677" HC_perVeh="0.001880" PMx_perVeh="0.000524" NOx_perVeh="0.012796" fuel_perVeh="0.014641" electricity_perVeh="0"/>
        <edge id=":121_0" sampledSeconds="374.54" CO_abs="53241.671544" CO2_abs="1425952.981700" HC_abs="275.911157" PMx_abs="30.760182" NOx_abs="630.515457" fuel_abs="612.973277" electricity_abs="0"
            CO_normed="30442.802821" CO2_normed="815338.891422" HC_normed="157.761932" PMx_normed="17.588219" NOx_normed="360.519442" fuel_normed="350.489082" electricity_normed="0"
            traveltime="0.11" CO_perVeh="16.295270" CO2_perVeh="436.430494" HC_perVeh="0.084446" PMx_perVeh="0.009415" NOx_perVeh="0.192977" fuel_perVeh="0.187608" electricity_perVeh="0"/>
        <edge id=":122_0" sampledSeconds="134.96" CO_abs="1022.792792" CO2_abs="112885.016824" HC_abs="7.232177" PMx_abs="1.919721" NOx_abs="44.009833" fuel_abs="48.524096" electricity_abs="0"
            CO_normed="22.519240" CO2_normed="2485.434789" HC_normed="0.159234" PMx_normed="0.042267" NOx_normed="0.968982" fuel_normed="1.068375" electricity_normed="0"
            traveltime="0.54" CO_perVeh="4.067652" CO2_perVeh="448.944320" HC_perVeh="0.028762" PMx_perVeh="0.007635" NOx_perVeh="0.175027" fuel_perVeh="0.192981" electricity_perVeh="0"/>
        <edge id=":123_0" sampledSeconds="312.23" CO_abs="40078.235263" CO2_abs="2465771.041520" HC_abs="241.691061" PMx_abs="50.549809" NOx_abs="1057.619674" fuel_abs="1059.920217" electricity_abs="0"
            CO_normed="152.836045" CO2_normed="9403.076073" HC_normed="0.921675" PMx_normed="0.192769" NOx_normed="4.033172" fuel_normed="4.041945" electricity_normed="0"
            traveltime="4.25" CO_perVeh="545.787863" CO2_perVeh="33579.021122" HC_perVeh="3.291364" PMx_perVeh="0.688390" NOx_perVeh="14.402730" fuel_perVeh="14.434058" electricity_perVeh="0"/>
        <edge id=":123_1" sampledSeconds="0.00" CO_abs="0" CO2_abs="0" HC_abs="0" PMx_abs="0" NOx_abs="0" fuel_abs="0" electricity_abs="0"
            CO_normed="0" CO2_normed="0" HC_normed="0" PMx_normed="0" NOx_normed="0" fuel_normed="0" electricity_normed="0"/>
        <edge id=":123_2" sampledSeconds="261.93" CO_abs="35294.427801" CO2_abs="2179167.022759" HC_abs="213.125550" PMx_abs="45.100487" NOx_abs="937.102759" fuel_abs="936.721765" electricity_abs="0"
            CO_normed="135.884004" CO2_normed="8389.821257" HC_normed="0.820536" PMx_normed="0.173637" NOx_normed="3.607858" fuel_normed="3.606391" electricity_normed="0"
            traveltime="4.12" CO_perVeh="554.758026" CO2_perVeh="34252.160235" HC_perVeh="3.349909" PMx_perVeh="0.708890" NOx_perVeh="14.729387" fuel_perVeh="14.723398" electricity_perVeh="0"/>
        <edge id=":123_3" sampledSeconds="468.79" CO_abs="23132.912343" CO2_abs="2170599.448231" HC_abs="156.864425" PMx_abs="40.558583" NOx_abs="871.495469" fuel_abs="933.038727" electricity_abs="0"
            CO_normed="91.125871" CO2_normed="8550.491264" HC_normed="0.617925" PMx_normed="0.159770" NOx_normed="3.433021" fuel_normed="3.675454" electricity_normed="0"
            traveltime="2.81" CO_perVeh="138.459852" CO2_perVeh="12991.917025" HC_perVeh="0.938897" PMx_perVeh="0.242760" NOx_perVeh="5.216253" fuel_perVeh="5.584615" electricity_perVeh="0"/>
        <edge id=":123_5" sampledSeconds="0.00" CO_abs="0" CO2_abs="0" HC_abs="0" PMx_abs="0" NOx_abs="0" fuel_abs="0" electricity_abs="0"
            CO_normed="0" CO2_normed="0" HC_normed="0" PMx_normed="0" NOx_normed="0" fuel_normed="0" electricity_normed="0"/>
        <edge id=":123_6" sampledSeconds="194.84" CO_abs="9381.236281" CO2_abs="859550.110465" HC_abs="63.109093" PMx_abs="16.234007" NOx_abs="346.896702" fuel_abs="369.480059" electricity_abs="0"
            CO_normed="35.695450" CO2_normed="3270.574038" HC_normed="0.240129" PMx_normed="0.061770" NOx_normed="1.319936" fuel_normed="1.405866" electricity_normed="0"
            traveltime="2.91" CO_perVeh="140.347511" CO2_perVeh="12859.255923" HC_perVeh="0.944140" PMx_perVeh="0.242868" NOx_perVeh="5.189731" fuel_perVeh="5.527588" electricity_perVeh="0"/>
        <edge id=":124_0" sampledSeconds="119.07" CO_abs="4150.854117" CO2_abs="359142.743624" HC_abs="27.406470" PMx_abs="6.931849" NOx_abs="146.395331" fuel_abs="154.378443" electricity_abs="0"
            CO_normed="97.173830" CO2_normed="8407.733686" HC_normed="0.641601" PMx_normed="0.162278" NOx_normed="3.427197" fuel_normed="3.614086" electricity_normed="0"
            traveltime="0.46" CO_perVeh="16.148810" CO2_perVeh="1397.237261" HC_perVeh="0.106624" PMx_perVeh="0.026968" NOx_perVeh="0.569548" fuel_perVeh="0.600606" electricity_perVeh="0"/>
        <edge id=":125_0" sampledSeconds="141.26" CO_abs="5491.200045" CO2_abs="555326.209748" HC_abs="38.105929" PMx_abs="10.337725" NOx_abs="219.071744" fuel_abs="238.708694" electricity_abs="0"
            CO_normed="345.376595" CO2_normed="34928.007322" HC_normed="2.396725" PMx_normed="0.650205" NOx_normed="13.778819" fuel_normed="15.013912" electricity_normed="0"
            traveltime="0.16" CO_perVeh="6.288834" CO2_perVeh="635.991078" HC_perVeh="0.043641" PMx_perVeh="0.011839" NOx_perVeh="0.250893" fuel_perVeh="0.273383" electricity_perVeh="0"/>
        <edge id=":125_3" sampledSeconds="0.00" CO_abs="0" CO2_abs="0" HC_abs="0" PMx_abs="0" NOx_abs="0" fuel_abs="0" electricity_abs="0"
            CO_normed="0" CO2_normed="0" HC_normed="0" PMx_normed="0" NOx_normed="0" fuel_normed="0" electricity_normed="0"/>
        <edge id=":126_0" sampledSeconds="26.91" CO_abs="183.903272" CO2_abs="13421.405934" HC_abs="1.144848" PMx_abs="0.192177" NOx_abs="5.209997" fuel_abs="5.769336" electricity_abs="0"
            CO_normed="6.055942" CO2_normed="441.967447" HC_normed="0.037700" PMx_normed="0.006328" NOx_normed="0.171565" fuel_normed="0.189984" electricity_normed="0"
            traveltime="0.57" CO_perVeh="3.881844" CO2_perVeh="283.300037" HC_perVeh="0.024166" PMx_perVeh="0.004056" NOx_perVeh="0.109973" fuel_perVeh="0.121780" electricity_perVeh="0"/>
        <edge id=":126_1" sampledSeconds="80.96" CO_abs="1288.797107" CO2_abs="204552.493099" HC_abs="10.553863" PMx_abs="3.256691" NOx_abs="75.451995" fuel_abs="87.927898" electricity_abs="0"
            CO_normed="37.761182" CO2_normed="5993.297036" HC_normed="0.309223" PMx_normed="0.095420" NOx_normed="2.210710" fuel_normed="2.576248" electricity_normed="0"
            traveltime="0.35" CO_perVeh="5.576847" CO2_perVeh="885.133783" HC_perVeh="0.045668" PMx_perVeh="0.014092" NOx_perVeh="0.326494" fuel_perVeh="0.380479" electricity_perVeh="0"/>
        <edge id=":127_0" sampledSeconds="234.77" CO_abs="5017.453909" CO2_abs="632546.208131" HC_abs="37.582141" PMx_abs="10.844175" NOx_abs="240.479006" fuel_abs="271.902613" electricity_abs="0"
            CO_normed="116.021941" CO2_normed="14626.788804" HC_normed="0.869037" PMx_normed="0.250757" NOx_normed="5.560757" fuel_normed="6.287386" electricity_normed="0"
            traveltime="0.44" CO_perVeh="9.382760" CO2_perVeh="1182.876688" HC_perVeh="0.070280" PMx_perVeh="0.020279" NOx_perVeh="0.449702" fuel_perVeh="0.508464" electricity_perVeh="0"/>
        <edge id=":128_0" sampledSeconds="229.54" CO_abs="266.638206" CO2_abs="39589.376356" HC_abs="2.131033" PMx_abs="0.598045" NOx_abs="14.757868" fuel_abs="17.017719" electricity_abs="0"
            CO_normed="4.120535" CO2_normed="611.800587" HC_normed="0.032932" PMx_normed="0.009242" NOx_normed="0.228063" fuel_normed="0.262986" electricity_normed="0"
            traveltime="0.75" CO_perVeh="0.876537" CO2_perVeh="130.144691" HC_perVeh="0.007005" PMx_perVeh="0.001966" NOx_perVeh="0.048514" fuel_perVeh="0.055943" electricity_perVeh="0"/>
        <edge id=":128_1" sampledSeconds="142.84" CO_abs="188.680865" CO2_abs="24714.181123" HC_abs="1.424959" PMx_abs="0.335843" NOx_abs="9.200524" fuel_abs="10.623585" electricity_abs="0"
            CO_normed="3.012016" CO2_normed="394.526011" HC_normed="0.022747" PMx_normed="0.005361" NOx_normed="0.146873" fuel_normed="0.169590" electricity_normed="0"
            traveltime="0.86" CO_perVeh="1.131035" CO2_perVeh="148.147468" HC_perVeh="0.008542" PMx_perVeh="0.002013" NOx_perVeh="0.055152" fuel_perVeh="0.063682" electricity_perVeh="0"/>
        <edge id=":129_0" sampledSeconds="105.07" CO_abs="5468.110967" CO2_abs="489483.532481" HC_abs="36.543896" PMx_abs="9.239746" NOx_abs="198.480968" fuel_abs="210.405913" electricity_abs="0"
            CO_normed="127.379398" CO2_normed="11402.496811" HC_normed="0.851288" PMx_normed="0.215239" NOx_normed="4.623605" fuel_normed="4.901396" electricity_normed="0"
            traveltime="0.50" CO_perVeh="25.915976" CO2_perVeh="2319.895037" HC_perVeh="0.173199" PMx_perVeh="0.043792" NOx_perVeh="0.940696" fuel_perVeh="0.997214" electricity_perVeh="0"/>
        <edge id=":13_0" sampledSeconds="60.07" CO_abs="4987.547666" CO2_abs="355802.760130" HC_abs="31.211364" PMx_abs="6.883342" NOx_abs="149.111217" fuel_abs="152.943083" electricity_abs="0"
            CO_normed="35.260249" CO2_normed="2515.403331" HC_normed="0.220654" PMx_normed="0.048663" NOx_normed="1.054165" fuel_normed="1.081255" electricity_normed="0"
            traveltime="2.12" CO_perVeh="176.417577" CO2_perVeh="12585.315506" HC_perVeh="1.103996" PMx_perVeh="0.243475" NOx_perVeh="5.274303" fuel_perVeh="5.409843" electricity_perVeh="0"/>
        <edge id=":13_1" sampledSeconds="533.08" CO_abs="14736.499362" CO2_abs="1104496.299874" HC_abs="92.534574" PMx_abs="16.364837" NOx_abs="431.443332" fuel_abs="474.778579" electricity_abs="0"
            CO_normed="146.811896" CO2_normed="11003.508503" HC_normed="0.921873" PMx_normed="0.163034" NOx_normed="4.298240" fuel_normed="4.729966" electricity_normed="0"
            traveltime="1.86" CO_perVeh="51.448703" CO2_perVeh="3856.065205" HC_perVeh="0.323061" PMx_perVeh="0.057134" NOx_perVeh="1.506274" fuel_perVeh="1.657567" electricity_perVeh="0"/>
        <edge id=":132_0" sampledSeconds="41.15" CO_abs="484.093205" CO2_abs="90723.005955" HC_abs="4.186395" PMx_abs="1.247930" NOx_abs="32.834467" fuel_abs="38.997880" electricity_abs="0"
            CO_normed="913.431280" CO2_normed="171184.454866" HC_normed="7.899272" PMx_normed="2.354708" NOx_normed="61.955071" fuel_normed="73.584763" electricity_normed="0"
            traveltime="6.379734e-03" CO_perVeh="0.075047" CO2_perVeh="14.064492" HC_perVeh="0.000649" PMx_perVeh="0.000193" NOx_perVeh="0.005090" fuel_perVeh="0.006046" electricity_perVeh="0"/>