<?xml version="1.0" encoding="UTF-8"?>

<!-- generated on Tue Nov 10 15:18:23 2020 by Eclipse SUMO sumo Version 1.7.0
<configuration xmlns:xsi="http://www.w3.org/2001/XMLSchema-instance" xsi:noNamespaceSchemaLocation="http://sumo.dlr.de/xsd/sumoConfiguration.xsd">

    <input>
        <net-file value="../dataSets/Porto/8AM9AM_Routing_SaoBento/Porto.net.xml"/>
        <route-files value="../results/Porto/8AM9AM_Routing_SaoBento/cost_nox-length/solution7/Porto.rou.xml"/>
        <additional-files value="moreOutputInfo.xml"/>
    </input>

    <output>
        <emission-output.precision value="6"/>
        <tripinfo-output value="../results/Porto/8AM9AM_Routing_SaoBento/cost_nox-length/solution7/Porto-tripinfo"/>
    </output>

    <processing>
        <collision.action value="warn"/>
        <time-to-teleport value="-1"/>
    </processing>

    <emissions>
        <device.emissions.probability value="1"/>
    </emissions>

    <gui_only>
        <quit-on-end value="true"/>
        <start value="true"/>
    </gui_only>

</configuration>
-->

<meandata xmlns:xsi="http://www.w3.org/2001/XMLSchema-instance" xsi:noNamespaceSchemaLocation="http://sumo.dlr.de/xsd/meandata_file.xsd">
    <interval begin="0.00" end="8471.00" id="emissions-detector">
        <edge id=":1092997347_0" sampledSeconds="587.73" CO_abs="71892.082081" CO2_abs="3095971.960663" HC_abs="400.632134" PMx_abs="62.718503" NOx_abs="1340.087696" fuel_abs="1330.832097" electricity_abs="0"
            CO_normed="69437.840196" CO2_normed="2990282.101069" HC_normed="386.955410" PMx_normed="60.577428" NOx_normed="1294.339969" fuel_normed="1285.400336" electricity_normed="0"
            traveltime="0.07" CO_perVeh="8.240632" CO2_perVeh="354.875856" HC_perVeh="0.045922" PMx_perVeh="0.007189" NOx_perVeh="0.153608" fuel_perVeh="0.152547" electricity_perVeh="0"/>
        <edge id=":1103427051_0" sampledSeconds="19.56" CO_abs="1639.024318" CO2_abs="91318.171012" HC_abs="9.634902" PMx_abs="1.814151" NOx_abs="39.125363" fuel_abs="39.253618" electricity_abs="0"
            CO_normed="2401.901638" CO2_normed="133821.848841" HC_normed="14.119428" PMx_normed="2.658541" NOx_normed="57.336107" fuel_normed="57.524058" electricity_normed="0"
            traveltime="0.03" CO_perVeh="2.548890" CO2_perVeh="142.011313" HC_perVeh="0.014983" PMx_perVeh="0.002821" NOx_perVeh="0.060845" fuel_perVeh="0.061044" electricity_perVeh="0"/>
        <edge id=":1105984386_0" sampledSeconds="10.67" CO_abs="230.766791" CO2_abs="17355.474938" HC_abs="1.445289" PMx_abs="0.230628" NOx_abs="6.610674" fuel_abs="7.460461" electricity_abs="0"
            CO_normed="10.100012" CO2_normed="759.600238" HC_normed="0.063256" PMx_normed="0.010094" NOx_normed="0.289331" fuel_normed="0.326523" electricity_normed="0"
            traveltime="1.02" CO_perVeh="22.137379" CO2_perVeh="1664.904778" HC_perVeh="0.138646" PMx_perVeh="0.022124" NOx_perVeh="0.634160" fuel_perVeh="0.715679" electricity_perVeh="0"/>
        <edge id=":1105984390_0" sampledSeconds="10.74" CO_abs="44.845449" CO2_abs="3710.530354" HC_abs="0.289077" PMx_abs="0.051003" NOx_abs="1.419815" fuel_abs="1.595010" electricity_abs="0"
            CO_normed="1.517388" CO2_normed="125.549263" HC_normed="0.009781" PMx_normed="0.001726" NOx_normed="0.048041" fuel_normed="0.053969" electricity_normed="0"
            traveltime="1.11" CO_perVeh="4.648501" CO2_perVeh="384.618810" HC_perVeh="0.029965" PMx_perVeh="0.005287" NOx_perVeh="0.147172" fuel_perVeh="0.165332" electricity_perVeh="0"/>
        <edge id=":1105984390_1" sampledSeconds="2400.98" CO_abs="62311.237372" CO2_abs="7509448.979350" HC_abs="462.847627" PMx_abs="135.050963" NOx_abs="2850.261931" fuel_abs="3227.965703" electricity_abs="0"
            CO_normed="2016.830816" CO2_normed="243058.696164" HC_normed="14.981011" PMx_normed="4.371201" NOx_normed="92.254565" fuel_normed="104.479721" electricity_normed="0"
            traveltime="0.65" CO_perVeh="16.829368" CO2_perVeh="2028.194082" HC_perVeh="0.125008" PMx_perVeh="0.036475" NOx_perVeh="0.769815" fuel_perVeh="0.871827" electricity_perVeh="0"/>
        <edge id=":1105984395_0" sampledSeconds="4.17" CO_abs="41.196135" CO2_abs="3276.571313" HC_abs="0.261874" PMx_abs="0.042037" NOx_abs="1.236488" fuel_abs="1.408474" electricity_abs="0"
            CO_normed="19.029898" CO2_normed="1513.559911" HC_normed="0.120968" PMx_normed="0.019418" NOx_normed="0.571176" fuel_normed="0.650622" electricity_normed="0"
            traveltime="0.10" CO_perVeh="0.954912" CO2_perVeh="75.949751" HC_perVeh="0.006070" PMx_perVeh="0.000974" NOx_perVeh="0.028661" fuel_perVeh="0.032648" electricity_perVeh="0"/>
        <edge id=":1105984398_0" sampledSeconds="12.10" CO_abs="614.578500" CO2_abs="40134.533055" HC_abs="3.737126" PMx_abs="0.689970" NOx_abs="16.389860" fuel_abs="17.252135" electricity_abs="0"
            CO_normed="21.603240" CO2_normed="1410.781424" HC_normed="0.131365" PMx_normed="0.024253" NOx_normed="0.576125" fuel_normed="0.606435" electricity_normed="0"
            traveltime="1.24" CO_perVeh="63.032355" CO2_perVeh="4116.275065" HC_perVeh="0.383287" PMx_perVeh="0.070765" NOx_perVeh="1.680976" fuel_perVeh="1.769412" electricity_perVeh="0"/>
        <edge id=":1105984398_1" sampledSeconds="645.36" CO_abs="11871.785291" CO2_abs="1368089.090190" HC_abs="85.382689" PMx_abs="19.815830" NOx_abs="518.942420" fuel_abs="588.082978" electricity_abs="0"
            CO_normed="403.944235" CO2_normed="46550.008036" HC_normed="2.905194" PMx_normed="0.674245" NOx_normed="17.657310" fuel_normed="20.009857" electricity_normed="0"
            traveltime="0.95" CO_perVeh="17.508504" CO2_perVeh="2017.657229" HC_perVeh="0.125922" PMx_perVeh="0.029224" NOx_perVeh="0.765336" fuel_perVeh="0.867305" electricity_perVeh="0"/>
        <edge id=":1106006327_0" sampledSeconds="392.48" CO_abs="52665.077671" CO2_abs="1694242.457151" HC_abs="279.658909" PMx_abs="35.277022" NOx_abs="741.197956" fuel_abs="728.295510" electricity_abs="0"
            CO_normed="2526.136571" CO2_normed="81266.144855" HC_normed="13.414138" PMx_normed="1.692100" NOx_normed="35.552350" fuel_normed="34.933470" electricity_normed="0"
            traveltime="2.11" CO_perVeh="283.343305" CO2_perVeh="9115.191291" HC_perVeh="1.504592" PMx_perVeh="0.189794" NOx_perVeh="3.987718" fuel_perVeh="3.918302" electricity_perVeh="0"/>
        <edge id=":1106006327_1" sampledSeconds="682.59" CO_abs="92587.794972" CO2_abs="3097576.243622" HC_abs="494.604878" PMx_abs="64.673802" NOx_abs="1355.993046" fuel_abs="1331.536161" electricity_abs="0"
            CO_normed="3872.824815" CO2_normed="129567.510983" HC_normed="20.688667" PMx_normed="2.705219" NOx_normed="56.719393" fuel_normed="55.696394" electricity_normed="0"
            traveltime="2.29" CO_perVeh="310.794817" CO2_perVeh="10397.813692" HC_perVeh="1.660269" PMx_perVeh="0.217094" NOx_perVeh="4.551740" fuel_perVeh="4.469645" electricity_perVeh="0"/>
        <edge id=":1106006327_2" sampledSeconds="0.00" CO_abs="0" CO2_abs="0" HC_abs="0" PMx_abs="0" NOx_abs="0" fuel_abs="0" electricity_abs="0"
            CO_normed="0" CO2_normed="0" HC_normed="0" PMx_normed="0" NOx_normed="0" fuel_normed="0" electricity_normed="0"/>
        <edge id=":1106006327_3" sampledSeconds="0.00" CO_abs="0" CO2_abs="0" HC_abs="0" PMx_abs="0" NOx_abs="0" fuel_abs="0" electricity_abs="0"
            CO_normed="0" CO2_normed="0" HC_normed="0" PMx_normed="0" NOx_normed="0" fuel_normed="0" electricity_normed="0"/>
        <edge id=":1107381198_0" sampledSeconds="0.00" CO_abs="0" CO2_abs="0" HC_abs="0" PMx_abs="0" NOx_abs="0" fuel_abs="0" electricity_abs="0"
            CO_normed="0" CO2_normed="0" HC_normed="0" PMx_normed="0" NOx_normed="0" fuel_normed="0" electricity_normed="0"/>
        <edge id=":1107381198_1" sampledSeconds="103.36" CO_abs="4326.882977" CO2_abs="168681.814781" HC_abs="23.582502" PMx_abs="2.913533" NOx_abs="69.918057" fuel_abs="72.510537" electricity_abs="0"
            CO_normed="200.527358" CO2_normed="7817.479447" HC_normed="1.092920" PMx_normed="0.135026" NOx_normed="3.240319" fuel_normed="3.360467" electricity_normed="0"
            traveltime="1.55" CO_perVeh="64.781735" CO2_perVeh="2525.490206" HC_perVeh="0.353075" PMx_perVeh="0.043621" NOx_perVeh="1.046807" fuel_perVeh="1.085622" electricity_perVeh="0"/>
        <edge id=":1110338277_0" sampledSeconds="160.69" CO_abs="2258.253427" CO2_abs="276209.599763" HC_abs="16.547768" PMx_abs="3.762457" NOx_abs="103.133242" fuel_abs="118.730944" electricity_abs="0"
            CO_normed="3427.539478" CO2_normed="419226.334867" HC_normed="25.115927" PMx_normed="5.710595" NOx_normed="156.533918" fuel_normed="180.207851" electricity_normed="0"
            traveltime="0.02" CO_perVeh="0.306113" CO2_perVeh="37.441010" HC_perVeh="0.002243" PMx_perVeh="0.000510" NOx_perVeh="0.013980" fuel_perVeh="0.016094" electricity_perVeh="0"/>
        <edge id=":1110338293_0" sampledSeconds="7054.68" CO_abs="696552.731576" CO2_abs="12052553.596695" HC_abs="3453.752594" PMx_abs="289.423687" NOx_abs="5458.394934" fuel_abs="5181.194011" electricity_abs="0"
            CO_normed="986735.070111" CO2_normed="17073620.960966" HC_normed="4892.578341" PMx_normed="409.996959" NOx_normed="7732.350278" fuel_normed="7339.668059" electricity_normed="0"
            traveltime="0.47" CO_perVeh="46.636566" CO2_perVeh="806.959317" HC_perVeh="0.231240" PMx_perVeh="0.019378" NOx_perVeh="0.365458" fuel_perVeh="0.346899" electricity_perVeh="0"/>
        <edge id=":1110338295_0" sampledSeconds="0.00" CO_abs="0" CO2_abs="0" HC_abs="0" PMx_abs="0" NOx_abs="0" fuel_abs="0" electricity_abs="0"
            CO_normed="0" CO2_normed="0" HC_normed="0" PMx_normed="0" NOx_normed="0" fuel_normed="0" electricity_normed="0"/>
        <edge id=":1110673403_0" sampledSeconds="200.05" CO_abs="3276.358383" CO2_abs="400335.443636" HC_abs="24.064260" PMx_abs="5.527467" NOx_abs="149.908632" fuel_abs="172.087352" electricity_abs="0"
            CO_normed="4641.282091" CO2_normed="567114.310427" HC_normed="34.089378" PMx_normed="7.830197" NOx_normed="212.360239" fuel_normed="243.778565" electricity_normed="0"
            traveltime="0.02" CO_perVeh="0.378669" CO2_perVeh="46.269211" HC_perVeh="0.002781" PMx_perVeh="0.000639" NOx_perVeh="0.017326" fuel_perVeh="0.019889" electricity_perVeh="0"/>
        <edge id=":1110673412_0" sampledSeconds="940.87" CO_abs="166213.226329" CO2_abs="11364261.419883" HC_abs="1034.908603" PMx_abs="249.508849" NOx_abs="4881.414653" fuel_abs="4884.936406" electricity_abs="0"
            CO_normed="243576.508406" CO2_normed="16653711.490961" HC_normed="1516.602677" PMx_normed="365.641745" NOx_normed="7153.449599" fuel_normed="7158.610537" electricity_normed="0"
            traveltime="0.02" CO_perVeh="2.743157" CO2_perVeh="187.554011" HC_perVeh="0.017080" PMx_perVeh="0.004118" NOx_perVeh="0.080562" fuel_perVeh="0.080620" electricity_perVeh="0"/>
        <edge id=":1110673414_0" sampledSeconds="0.00" CO_abs="0" CO2_abs="0" HC_abs="0" PMx_abs="0" NOx_abs="0" fuel_abs="0" electricity_abs="0"
            CO_normed="0" CO2_normed="0" HC_normed="0" PMx_normed="0" NOx_normed="0" fuel_normed="0" electricity_normed="0"/>
        <edge id=":1110673414_1" sampledSeconds="7.09" CO_abs="289.094560" CO2_abs="11605.295207" HC_abs="1.583642" PMx_abs="0.200658" NOx_abs="4.811649" fuel_abs="4.988711" electricity_abs="0"
            CO_normed="13.605672" CO2_normed="546.180588" HC_normed="0.074531" PMx_normed="0.009444" NOx_normed="0.226451" fuel_normed="0.234784" electricity_normed="0"
            traveltime="1.55" CO_perVeh="63.147651" CO2_perVeh="2534.973772" HC_perVeh="0.345919" PMx_perVeh="0.043830" NOx_perVeh="1.051021" fuel_perVeh="1.089697" electricity_perVeh="0"/>
        <edge id=":1110673417_0" sampledSeconds="29.05" CO_abs="457.781086" CO2_abs="57184.634636" HC_abs="3.363101" PMx_abs="0.735575" NOx_abs="21.058776" fuel_abs="24.581338" electricity_abs="0"
            CO_normed="694.812515" CO2_normed="86793.886996" HC_normed="5.104459" PMx_normed="1.116443" NOx_normed="31.962660" fuel_normed="37.309145" electricity_normed="0"
            traveltime="0.02" CO_perVeh="0.349080" CO2_perVeh="43.606029" HC_perVeh="0.002565" PMx_perVeh="0.000561" NOx_perVeh="0.016058" fuel_perVeh="0.018744" electricity_perVeh="0"/>
        <edge id=":1110673446_0" sampledSeconds="1312.10" CO_abs="14105.466479" CO2_abs="1149372.205124" HC_abs="91.434278" PMx_abs="21.000021" NOx_abs="469.507657" fuel_abs="494.062316" electricity_abs="0"
            CO_normed="19981.772842" CO2_normed="1628198.142072" HC_normed="129.525598" PMx_normed="29.748584" NOx_normed="665.103516" fuel_normed="699.887592" electricity_normed="0"
            traveltime="0.02" CO_perVeh="0.244826" CO2_perVeh="19.949449" HC_perVeh="0.001587" PMx_perVeh="0.000364" NOx_perVeh="0.008149" fuel_perVeh="0.008575" electricity_perVeh="0"/>
        <edge id=":1110673451_0" sampledSeconds="36.45" CO_abs="409.666936" CO2_abs="30006.117519" HC_abs="2.548393" PMx_abs="0.405508" NOx_abs="11.476272" fuel_abs="12.898491" electricity_abs="0"
            CO_normed="644.814757" CO2_normed="47229.555769" HC_normed="4.011164" PMx_normed="0.638269" NOx_normed="18.063624" fuel_normed="20.302194" electricity_normed="0"
            traveltime="0.03" CO_perVeh="0.301834" CO2_perVeh="22.107875" HC_perVeh="0.001878" PMx_perVeh="0.000299" NOx_perVeh="0.008455" fuel_perVeh="0.009503" electricity_perVeh="0"/>
        <edge id=":1110673464_0" sampledSeconds="1045.27" CO_abs="5073.981217" CO2_abs="357554.297294" HC_abs="31.302747" PMx_abs="5.238216" NOx_abs="139.581780" fuel_abs="153.698543" electricity_abs="0"
            CO_normed="152.715099" CO2_normed="10761.557347" HC_normed="0.942140" PMx_normed="0.157658" NOx_normed="4.201089" fuel_normed="4.625971" electricity_normed="0"
            traveltime="1.24" CO_perVeh="6.017034" CO2_perVeh="424.009521" HC_perVeh="0.037121" PMx_perVeh="0.006212" NOx_perVeh="0.165525" fuel_perVeh="0.182265" electricity_perVeh="0"/>
        <edge id=":1110673464_1" sampledSeconds="2606.50" CO_abs="63161.843369" CO2_abs="7660849.110131" HC_abs="470.515187" PMx_abs="137.088440" NOx_abs="2908.032565" fuel_abs="3293.045913" electricity_abs="0"
            CO_normed="1862.767425" CO2_normed="225933.560617" HC_normed="13.876422" PMx_normed="4.043009" NOx_normed="85.763620" fuel_normed="97.118424" electricity_normed="0"
            traveltime="0.72" CO_perVeh="17.412347" CO2_perVeh="2111.929519" HC_perVeh="0.129711" PMx_perVeh="0.037792" NOx_perVeh="0.801681" fuel_perVeh="0.907821" electricity_perVeh="0"/>
        <edge id=":1110673479_0" sampledSeconds="134.72" CO_abs="6367.789911" CO2_abs="440389.252157" HC_abs="39.319992" PMx_abs="7.592276" NOx_abs="179.380351" fuel_abs="189.304387" electricity_abs="0"
            CO_normed="9020.597205" CO2_normed="623854.447631" HC_normed="55.700614" PMx_normed="10.755202" NOx_normed="254.109811" fuel_normed="268.168179" electricity_normed="0"
            traveltime="0.03" CO_perVeh="1.346208" CO2_perVeh="93.102270" HC_perVeh="0.008313" PMx_perVeh="0.001605" NOx_perVeh="0.037923" fuel_perVeh="0.040021" electricity_perVeh="0"/>
        <edge id=":1110673511_0" sampledSeconds="63.36" CO_abs="1169.886409" CO2_abs="126732.005091" HC_abs="8.221627" PMx_abs="1.764229" NOx_abs="47.874087" fuel_abs="54.476812" electricity_abs="0"
            CO_normed="1657.258518" CO2_normed="179528.280143" HC_normed="11.646738" PMx_normed="2.499203" NOx_normed="67.818326" fuel_normed="77.171732" electricity_normed="0"
            traveltime="0.02" CO_perVeh="0.448376" CO2_perVeh="48.571832" HC_perVeh="0.003151" PMx_perVeh="0.000676" NOx_perVeh="0.018348" fuel_perVeh="0.020879" electricity_perVeh="0"/>
        <edge id=":1110673517_0" sampledSeconds="182.02" CO_abs="8426.522262" CO2_abs="595248.625284" HC_abs="52.360395" PMx_abs="10.392662" NOx_abs="242.984381" fuel_abs="255.871446" electricity_abs="0"
            CO_normed="11936.992934" CO2_normed="843227.895574" HC_normed="74.173621" PMx_normed="14.722222" NOx_normed="344.211140" fuel_normed="362.466928" electricity_normed="0"
            traveltime="0.03" CO_perVeh="1.290169" CO2_perVeh="91.137383" HC_perVeh="0.008017" PMx_perVeh="0.001591" NOx_perVeh="0.037203" fuel_perVeh="0.039176" electricity_perVeh="0"/>
        <edge id=":1110673534_0" sampledSeconds="657.72" CO_abs="4991.380487" CO2_abs="416985.544751" HC_abs="32.246128" PMx_abs="5.640573" NOx_abs="158.663106" fuel_abs="179.245739" electricity_abs="0"
            CO_normed="137.030594" CO2_normed="11447.690060" HC_normed="0.885267" PMx_normed="0.154853" NOx_normed="4.355849" fuel_normed="4.920913" electricity_normed="0"
            traveltime="1.45" CO_perVeh="10.975303" CO2_perVeh="916.889142" HC_perVeh="0.070904" PMx_perVeh="0.012403" NOx_perVeh="0.348877" fuel_perVeh="0.394135" electricity_perVeh="0"/>
        <edge id=":1110673534_1" sampledSeconds="264.49" CO_abs="3580.048768" CO2_abs="457089.564697" HC_abs="26.687144" PMx_abs="6.073827" NOx_abs="169.442794" fuel_abs="196.483800" electricity_abs="0"
            CO_normed="95.568264" CO2_normed="12201.860685" HC_normed="0.712405" PMx_normed="0.162139" NOx_normed="4.523222" fuel_normed="5.245073" electricity_normed="0"
            traveltime="1.23" CO_perVeh="16.610528" CO2_perVeh="2120.780909" HC_perVeh="0.123822" PMx_perVeh="0.028181" NOx_perVeh="0.786172" fuel_perVeh="0.911636" electricity_perVeh="0"/>
        <edge id=":1110673549_0" sampledSeconds="650.48" CO_abs="1218.274069" CO2_abs="121050.257424" HC_abs="8.333745" PMx_abs="1.738550" NOx_abs="45.885910" fuel_abs="52.034492" electricity_abs="0"
            CO_normed="32.399331" CO2_normed="3219.265248" HC_normed="0.221631" PMx_normed="0.046236" NOx_normed="1.220311" fuel_normed="1.383829" electricity_normed="0"
            traveltime="1.29" CO_perVeh="2.420420" CO2_perVeh="240.497998" HC_perVeh="0.016557" PMx_perVeh="0.003454" NOx_perVeh="0.091164" fuel_perVeh="0.103380" electricity_perVeh="0"/>
        <edge id=":1110673549_1" sampledSeconds="3196.82" CO_abs="72536.031533" CO2_abs="9279883.671186" HC_abs="551.979201" PMx_abs="164.459580" NOx_abs="3482.983441" fuel_abs="3988.996315" electricity_abs="0"
            CO_normed="1865.999691" CO2_normed="238726.322624" HC_normed="14.199743" PMx_normed="4.230746" NOx_normed="89.600243" fuel_normed="102.617496" electricity_normed="0"
            traveltime="0.81" CO_perVeh="18.295979" CO2_perVeh="2340.692644" HC_perVeh="0.139227" PMx_perVeh="0.041482" NOx_perVeh="0.878523" fuel_perVeh="1.006156" electricity_perVeh="0"/>
        <edge id=":1110673556_0" sampledSeconds="465.11" CO_abs="56970.178176" CO2_abs="2745946.228086" HC_abs="324.602288" PMx_abs="55.310238" NOx_abs="1182.928127" fuel_abs="1180.365355" electricity_abs="0"
            CO_normed="1123.487183" CO2_normed="54151.759592" HC_normed="6.401358" PMx_normed="1.090752" NOx_normed="23.328075" fuel_normed="23.277536" electricity_normed="0"
            traveltime="2.74" CO_perVeh="335.833723" CO2_perVeh="16187.088988" HC_perVeh="1.913499" PMx_perVeh="0.326049" NOx_perVeh="6.973248" fuel_perVeh="6.958140" electricity_perVeh="0"/>
        <edge id=":1110673556_2" sampledSeconds="175.93" CO_abs="17822.403140" CO2_abs="763535.964261" HC_abs="99.105934" PMx_abs="14.858008" NOx_abs="326.443655" fuel_abs="328.213997" electricity_abs="0"
            CO_normed="367.498940" CO2_normed="15744.153864" HC_normed="2.043570" PMx_normed="0.306373" NOx_normed="6.731286" fuel_normed="6.767791" electricity_normed="0"
            traveltime="3.04" CO_perVeh="308.174818" CO2_perVeh="13202.627881" HC_perVeh="1.713683" PMx_perVeh="0.256916" NOx_perVeh="5.644677" fuel_perVeh="5.675289" electricity_perVeh="0"/>
        <edge id=":1110673556_3" sampledSeconds="349.51" CO_abs="35265.572725" CO2_abs="1233034.611607" HC_abs="189.418014" PMx_abs="24.353517" NOx_abs="531.137311" fuel_abs="530.037777" electricity_abs="0"
            CO_normed="1654.209698" CO2_normed="57838.216006" HC_normed="8.885071" PMx_normed="1.142356" NOx_normed="24.914170" fuel_normed="24.862594" electricity_normed="0"
            traveltime="1.81" CO_perVeh="182.172047" CO2_perVeh="6369.510614" HC_perVeh="0.978480" PMx_perVeh="0.125803" NOx_perVeh="2.743706" fuel_perVeh="2.738026" electricity_perVeh="0"/>
        <edge id=":1110673556_4" sampledSeconds="74.94" CO_abs="9101.545279" CO2_abs="351999.873649" HC_abs="49.730391" PMx_abs="7.065337" NOx_abs="152.148622" fuel_abs="151.311264" electricity_abs="0"
            CO_normed="260.820547" CO2_normed="10087.166179" HC_normed="1.425111" PMx_normed="0.202469" NOx_normed="4.360082" fuel_normed="4.336086" electricity_normed="0"
            traveltime="2.58" CO_perVeh="313.343663" CO2_perVeh="12118.483903" HC_perVeh="1.712094" PMx_perVeh="0.243242" NOx_perVeh="5.238100" fuel_perVeh="5.209272" electricity_perVeh="0"/>
        <edge id=":1110673556_5" sampledSeconds="22.39" CO_abs="992.528583" CO2_abs="44200.525635" HC_abs="5.542124" PMx_abs="0.768309" NOx_abs="18.307466" fuel_abs="19.000169" electricity_abs="0"
            CO_normed="39.643247" CO2_normed="1765.442694" HC_normed="0.221362" PMx_normed="0.030688" NOx_normed="0.731231" fuel_normed="0.758898" electricity_normed="0"
            traveltime="1.55" CO_perVeh="68.619260" CO2_perVeh="3055.838809" HC_perVeh="0.383159" PMx_perVeh="0.053118" NOx_perVeh="1.265701" fuel_perVeh="1.313592" electricity_perVeh="0"/>
        <edge id=":1110673556_6" sampledSeconds="555.12" CO_abs="66320.293276" CO2_abs="3183005.071044" HC_abs="377.532173" PMx_abs="64.075605" NOx_abs="1371.334952" fuel_abs="1368.238601" electricity_abs="0"
            CO_normed="1340.854165" CO2_normed="64353.539410" HC_normed="7.632891" PMx_normed="1.295471" NOx_normed="27.725453" fuel_normed="27.662852" electricity_normed="0"
            traveltime="2.70" CO_perVeh="321.999687" CO2_perVeh="15454.193367" HC_perVeh="1.833002" PMx_perVeh="0.311101" NOx_perVeh="6.658134" fuel_perVeh="6.643101" electricity_perVeh="0"/>
        <edge id=":1110673561_0" sampledSeconds="105.58" CO_abs="9644.036553" CO2_abs="685401.348311" HC_abs="60.404928" PMx_abs="13.848586" NOx_abs="290.001416" fuel_abs="294.621447" electricity_abs="0"
            CO_normed="244.980054" CO2_normed="17410.724060" HC_normed="1.534420" PMx_normed="0.351785" NOx_normed="7.366683" fuel_normed="7.484042" electricity_normed="0"
            traveltime="1.25" CO_perVeh="113.808992" CO2_perVeh="8088.401161" HC_perVeh="0.712837" PMx_perVeh="0.163427" NOx_perVeh="3.422298" fuel_perVeh="3.476819" electricity_perVeh="0"/>
        <edge id=":1110673561_1" sampledSeconds="5191.26" CO_abs="480608.949096" CO2_abs="33383954.281653" HC_abs="2995.771055" PMx_abs="696.573160" NOx_abs="14262.961543" fuel_abs="14350.150595" electricity_abs="0"
            CO_normed="11902.615070" CO2_normed="826776.858975" HC_normed="74.192355" PMx_normed="17.251119" NOx_normed="353.232168" fuel_normed="355.391465" electricity_normed="0"
            traveltime="1.19" CO_perVeh="110.383688" CO2_perVeh="7667.447746" HC_perVeh="0.688053" PMx_perVeh="0.159985" NOx_perVeh="3.275841" fuel_perVeh="3.295866" electricity_perVeh="0"/>
        <edge id=":1110673562_0" sampledSeconds="300.50" CO_abs="7089.164881" CO2_abs="540654.988841" HC_abs="44.620273" PMx_abs="7.442387" NOx_abs="207.397596" fuel_abs="232.406629" electricity_abs="0"
            CO_normed="11158.328228" CO2_normed="850989.633402" HC_normed="70.232201" PMx_normed="11.714298" NOx_normed="326.443310" fuel_normed="365.807467" electricity_normed="0"
            traveltime="0.03" CO_perVeh="0.635483" CO2_perVeh="48.465089" HC_perVeh="0.004000" PMx_perVeh="0.000667" NOx_perVeh="0.018591" fuel_perVeh="0.020833" electricity_perVeh="0"/>
        <edge id=":1110673564_0" sampledSeconds="28.04" CO_abs="421.707050" CO2_abs="51597.170076" HC_abs="3.089932" PMx_abs="0.696209" NOx_abs="19.209748" fuel_abs="22.179475" electricity_abs="0"
            CO_normed="1792.167844" CO2_normed="219277.313511" HC_normed="13.131575" PMx_normed="2.958746" NOx_normed="81.637461" fuel_normed="94.258186" electricity_normed="0"
            traveltime="7.920250e-03" CO_perVeh="0.119109" CO2_perVeh="14.573413" HC_perVeh="0.000873" PMx_perVeh="0.000197" NOx_perVeh="0.005426" fuel_perVeh="0.006265" electricity_perVeh="0"/>
        <edge id=":1110673588_0" sampledSeconds="62.62" CO_abs="1303.747882" CO2_abs="143608.577840" HC_abs="9.246490" PMx_abs="1.999728" NOx_abs="54.220912" fuel_abs="61.731337" electricity_abs="0"
            CO_normed="2216.263664" CO2_normed="244122.715252" HC_normed="15.718269" PMx_normed="3.399372" NOx_normed="92.171071" fuel_normed="104.938172" electricity_normed="0"
            traveltime="0.02" CO_perVeh="0.420564" CO2_perVeh="46.325348" HC_perVeh="0.002983" PMx_perVeh="0.000645" NOx_perVeh="0.017491" fuel_perVeh="0.019913" electricity_perVeh="0"/>
        <edge id=":1110673601_0" sampledSeconds="29.01" CO_abs="534.701998" CO2_abs="60079.239597" HC_abs="3.824647" PMx_abs="0.855057" NOx_abs="22.733385" fuel_abs="25.825529" electricity_abs="0"
            CO_normed="811.561795" CO2_normed="91187.270245" HC_normed="5.804985" PMx_normed="1.297792" NOx_normed="34.504353" fuel_normed="39.197558" electricity_normed="0"
            traveltime="0.02" CO_perVeh="0.407736" CO2_perVeh="45.813304" HC_perVeh="0.002916" PMx_perVeh="0.000652" NOx_perVeh="0.017335" fuel_perVeh="0.019693" electricity_perVeh="0"/>
        <edge id=":1110673617_0" sampledSeconds="856.74" CO_abs="32505.723800" CO2_abs="3277261.552465" HC_abs="226.427062" PMx_abs="61.778362" NOx_abs="1286.194782" fuel_abs="1408.741314" electricity_abs="0"
            CO_normed="46047.536962" CO2_normed="4642561.519252" HC_normed="320.756079" PMx_normed="87.515092" NOx_normed="1822.020704" fuel_normed="1995.619852" electricity_normed="0"
            traveltime="0.02" CO_perVeh="0.575805" CO2_perVeh="58.053303" HC_perVeh="0.004011" PMx_perVeh="0.001094" NOx_perVeh="0.022784" fuel_perVeh="0.024954" electricity_perVeh="0"/>
        <edge id=":1110673621_0" sampledSeconds="26.21" CO_abs="813.038257" CO2_abs="76194.290270" HC_abs="5.468498" PMx_abs="1.203498" NOx_abs="29.823470" fuel_abs="32.752617" electricity_abs="0"
            CO_normed="1382.097852" CO2_normed="129523.997154" HC_normed="9.295994" PMx_normed="2.045847" NOx_normed="50.697434" fuel_normed="55.676742" electricity_normed="0"
            traveltime="0.02" CO_perVeh="0.615938" CO2_perVeh="57.722947" HC_perVeh="0.004143" PMx_perVeh="0.000912" NOx_perVeh="0.022594" fuel_perVeh="0.024813" electricity_perVeh="0"/>
        <edge id=":1110673630_0" sampledSeconds="286.83" CO_abs="1345.845574" CO2_abs="120448.545492" HC_abs="8.860026" PMx_abs="1.513365" NOx_abs="44.948685" fuel_abs="51.776217" electricity_abs="0"
            CO_normed="40.795761" CO2_normed="3651.080137" HC_normed="0.268568" PMx_normed="0.045874" NOx_normed="1.362501" fuel_normed="1.569460" electricity_normed="0"
            traveltime="1.29" CO_perVeh="6.055791" CO2_perVeh="541.972453" HC_perVeh="0.039867" PMx_perVeh="0.006810" NOx_perVeh="0.202252" fuel_perVeh="0.232973" electricity_perVeh="0"/>
        <edge id=":1110673630_1" sampledSeconds="338.61" CO_abs="1645.198083" CO2_abs="132598.270396" HC_abs="10.527898" PMx_abs="1.847085" NOx_abs="50.891150" fuel_abs="56.998757" electricity_abs="0"
            CO_normed="60.797843" CO2_normed="4900.132662" HC_normed="0.389056" PMx_normed="0.068259" NOx_normed="1.880668" fuel_normed="2.106373" electricity_normed="0"
            traveltime="1.08" CO_perVeh="5.244568" CO2_perVeh="422.697189" HC_perVeh="0.033561" PMx_perVeh="0.005888" NOx_perVeh="0.162231" fuel_perVeh="0.181701" electricity_perVeh="0"/>
        <edge id=":1110673650_0" sampledSeconds="199.46" CO_abs="2725.143100" CO2_abs="342944.768160" HC_abs="20.243456" PMx_abs="4.665341" NOx_abs="127.843435" fuel_abs="147.417568" electricity_abs="0"
            CO_normed="3860.431732" CO2_normed="485814.805562" HC_normed="28.676836" PMx_normed="6.608912" NOx_normed="181.102729" fuel_normed="208.831404" electricity_normed="0"
            traveltime="0.02" CO_perVeh="0.315374" CO2_perVeh="39.688088" HC_perVeh="0.002343" PMx_perVeh="0.000540" NOx_perVeh="0.014795" fuel_perVeh="0.017060" electricity_perVeh="0"/>
        <edge id=":1110673655_0" sampledSeconds="20.77" CO_abs="302.010990" CO2_abs="38560.684122" HC_abs="2.247631" PMx_abs="0.490329" NOx_abs="14.180061" fuel_abs="16.575666" electricity_abs="0"
            CO_normed="427.828105" CO2_normed="54624.980459" HC_normed="3.183989" PMx_normed="0.694599" NOx_normed="20.087443" fuel_normed="23.481052" electricity_normed="0"
            traveltime="0.02" CO_perVeh="0.345024" CO2_perVeh="44.052571" HC_perVeh="0.002568" PMx_perVeh="0.000560" NOx_perVeh="0.016200" fuel_perVeh="0.018936" electricity_perVeh="0"/>
        <edge id=":1110673663_0" sampledSeconds="111.37" CO_abs="2280.884059" CO2_abs="253365.071863" HC_abs="16.200118" PMx_abs="3.488228" NOx_abs="95.363807" fuel_abs="108.911120" electricity_abs="0"
            CO_normed="59.177571" CO2_normed="6573.560522" HC_normed="0.420312" PMx_normed="0.090502" NOx_normed="2.474215" fuel_normed="2.825701" electricity_normed="0"
            traveltime="1.31" CO_perVeh="26.790059" CO2_perVeh="2975.892295" HC_perVeh="0.190278" PMx_perVeh="0.040971" NOx_perVeh="1.120093" fuel_perVeh="1.279212" electricity_perVeh="0"/>
        <edge id=":1110673663_1" sampledSeconds="171.17" CO_abs="2483.229658" CO2_abs="314568.878957" HC_abs="18.465219" PMx_abs="4.182968" NOx_abs="116.676322" fuel_abs="135.220092" electricity_abs="0"
            CO_normed="64.506192" CO2_normed="8171.471575" HC_normed="0.479666" PMx_normed="0.108660" NOx_normed="3.030870" fuel_normed="3.512576" electricity_normed="0"
            traveltime="1.28" CO_perVeh="18.519128" CO2_perVeh="2345.953460" HC_perVeh="0.137708" PMx_perVeh="0.031195" NOx_perVeh="0.870134" fuel_perVeh="1.008428" electricity_perVeh="0"/>