<?xml version="1.0" encoding="UTF-8"?>

<!-- generated on Mon Nov  9 22:11:54 2020 by Eclipse SUMO sumo Version 1.7.0
<configuration xmlns:xsi="http://www.w3.org/2001/XMLSchema-instance" xsi:noNamespaceSchemaLocation="http://sumo.dlr.de/xsd/sumoConfiguration.xsd">

    <input>
        <net-file value="../dataSets/Porto/6AM7AM_Routing_SaoBento/Porto.net.xml"/>
        <route-files value="../results/Porto/6AM7AM_Routing_SaoBento/cost_hc-ttime/solution3/Porto.rou.xml"/>
        <additional-files value="moreOutputInfo.xml"/>
    </input>

    <output>
        <emission-output.precision value="6"/>
        <tripinfo-output value="../results/Porto/6AM7AM_Routing_SaoBento/cost_hc-ttime/solution3/Porto-tripinfo"/>
    </output>

    <processing>
        <collision.action value="warn"/>
        <time-to-teleport value="-1"/>
    </processing>

    <emissions>
        <device.emissions.probability value="1"/>
    </emissions>

    <gui_only>
        <quit-on-end value="true"/>
        <start value="true"/>
    </gui_only>

</configuration>
-->

<meandata xmlns:xsi="http://www.w3.org/2001/XMLSchema-instance" xsi:noNamespaceSchemaLocation="http://sumo.dlr.de/xsd/meandata_file.xsd">
    <interval begin="0.00" end="4700.00" id="emissions-detector">
        <edge id=":1092997347_0" sampledSeconds="275.25" CO_abs="35439.184336" CO2_abs="1377418.476198" HC_abs="193.915172" PMx_abs="28.208768" NOx_abs="598.799665" fuel_abs="592.098459" electricity_abs="0"
            CO_normed="61692.970797" CO2_normed="2397827.134580" HC_normed="337.569932" PMx_normed="49.106172" NOx_normed="1042.397869" fuel_normed="1030.732328" electricity_normed="0"
            traveltime="0.08" CO_perVeh="9.948634" CO2_perVeh="386.674588" HC_perVeh="0.054437" PMx_perVeh="0.007919" NOx_perVeh="0.168098" fuel_perVeh="0.166216" electricity_perVeh="0"/>
        <edge id=":1103427051_0" sampledSeconds="10.98" CO_abs="874.736099" CO2_abs="50526.072070" HC_abs="5.181020" PMx_abs="0.977207" NOx_abs="21.442735" fuel_abs="21.718927" electricity_abs="0"
            CO_normed="2310.381480" CO2_normed="133451.107447" HC_normed="13.684279" PMx_normed="2.581032" NOx_normed="56.635251" fuel_normed="57.364737" electricity_normed="0"
            traveltime="0.03" CO_perVeh="2.396764" CO2_perVeh="138.440674" HC_perVeh="0.014196" PMx_perVeh="0.002678" NOx_perVeh="0.058753" fuel_perVeh="0.059510" electricity_perVeh="0"/>
        <edge id=":1105984386_0" sampledSeconds="22.62" CO_abs="467.374766" CO2_abs="39797.423181" HC_abs="3.030827" PMx_abs="0.503085" NOx_abs="14.918591" fuel_abs="17.107398" electricity_abs="0"
            CO_normed="36.868093" CO2_normed="3139.354547" HC_normed="0.239082" PMx_normed="0.039685" NOx_normed="1.176829" fuel_normed="1.349489" electricity_normed="0"
            traveltime="0.95" CO_perVeh="19.615357" CO2_perVeh="1670.267026" HC_perVeh="0.127201" PMx_perVeh="0.021114" NOx_perVeh="0.626122" fuel_perVeh="0.717984" electricity_perVeh="0"/>
        <edge id=":1105984390_0" sampledSeconds="23.13" CO_abs="3.202059" CO2_abs="1051.316996" HC_abs="0.037805" PMx_abs="0.007624" NOx_abs="0.344695" fuel_abs="0.451923" electricity_abs="0"
            CO_normed="0.195274" CO2_normed="64.113382" HC_normed="0.002306" PMx_normed="0.000465" NOx_normed="0.021021" fuel_normed="0.027560" electricity_normed="0"
            traveltime="1.05" CO_perVeh="0.145212" CO2_perVeh="47.676710" HC_perVeh="0.001714" PMx_perVeh="0.000346" NOx_perVeh="0.015632" fuel_perVeh="0.020495" electricity_perVeh="0"/>
        <edge id=":1105984390_1" sampledSeconds="646.41" CO_abs="14161.938508" CO2_abs="1844536.880389" HC_abs="108.453134" PMx_abs="32.545700" NOx_abs="689.894997" fuel_abs="792.881930" electricity_abs="0"
            CO_normed="826.157065" CO2_normed="107603.713591" HC_normed="6.326770" PMx_normed="1.898600" NOx_normed="40.246018" fuel_normed="46.253909" electricity_normed="0"
            traveltime="0.64" CO_perVeh="13.938012" CO2_perVeh="1815.371384" HC_perVeh="0.106738" PMx_perVeh="0.032031" NOx_perVeh="0.678986" fuel_perVeh="0.780345" electricity_perVeh="0"/>
        <edge id=":1105984395_0" sampledSeconds="8.98" CO_abs="179.885959" CO2_abs="13734.088822" HC_abs="1.132836" PMx_abs="0.190011" NOx_abs="5.278733" fuel_abs="5.903751" electricity_abs="0"
            CO_normed="149.766293" CO2_normed="11434.486531" HC_normed="0.943157" PMx_normed="0.158196" NOx_normed="4.394875" fuel_normed="4.915241" electricity_normed="0"
            traveltime="0.09" CO_perVeh="1.824240" CO2_perVeh="139.278679" HC_perVeh="0.011488" PMx_perVeh="0.001927" NOx_perVeh="0.053532" fuel_perVeh="0.059870" electricity_perVeh="0"/>
        <edge id=":1105984398_0" sampledSeconds="22.86" CO_abs="1320.774664" CO2_abs="94915.974609" HC_abs="8.243370" PMx_abs="1.644795" NOx_abs="38.659737" fuel_abs="40.800241" electricity_abs="0"
            CO_normed="83.677187" CO2_normed="6013.366218" HC_normed="0.522256" PMx_normed="0.104205" NOx_normed="2.449273" fuel_normed="2.584884" electricity_normed="0"
            traveltime="1.11" CO_perVeh="63.922495" CO2_perVeh="4593.717649" HC_perVeh="0.398960" PMx_perVeh="0.079604" NOx_perVeh="1.871043" fuel_perVeh="1.974639" electricity_perVeh="0"/>
        <edge id=":1105984398_1" sampledSeconds="451.89" CO_abs="7666.230939" CO2_abs="913619.748966" HC_abs="55.804870" PMx_abs="12.872828" NOx_abs="344.032680" fuel_abs="392.726402" electricity_abs="0"
            CO_normed="470.136643" CO2_normed="56028.330686" HC_normed="3.422270" PMx_normed="0.789435" NOx_normed="21.098030" fuel_normed="24.084204" electricity_normed="0"
            traveltime="0.95" CO_perVeh="16.177737" CO2_perVeh="1927.974825" HC_perVeh="0.117763" PMx_perVeh="0.027165" NOx_perVeh="0.725998" fuel_perVeh="0.828755" electricity_perVeh="0"/>
        <edge id=":1106006327_0" sampledSeconds="199.38" CO_abs="26786.104799" CO2_abs="867317.497200" HC_abs="142.375589" PMx_abs="18.062393" NOx_abs="379.467524" fuel_abs="372.829268" electricity_abs="0"
            CO_normed="2315.690343" CO2_normed="74980.620285" HC_normed="12.308538" PMx_normed="1.561515" NOx_normed="32.805415" fuel_normed="32.231530" electricity_normed="0"
            traveltime="2.09" CO_perVeh="281.250609" CO2_perVeh="9106.720657" HC_perVeh="1.494925" PMx_perVeh="0.189653" NOx_perVeh="3.984360" fuel_perVeh="3.914659" electricity_perVeh="0"/>
        <edge id=":1106006327_1" sampledSeconds="161.83" CO_abs="21848.083159" CO2_abs="728421.350116" HC_abs="116.645786" PMx_abs="15.182612" NOx_abs="318.719236" fuel_abs="313.122135" electricity_abs="0"
            CO_normed="1647.116338" CO2_normed="54915.330466" HC_normed="8.793869" PMx_normed="1.144610" NOx_normed="24.028088" fuel_normed="23.606125" electricity_normed="0"
            traveltime="2.30" CO_perVeh="310.161699" CO2_perVeh="10340.879887" HC_perVeh="1.655937" PMx_perVeh="0.215537" NOx_perVeh="4.524630" fuel_perVeh="4.445172" electricity_perVeh="0"/>
        <edge id=":1106006327_2" sampledSeconds="0.00" CO_abs="0" CO2_abs="0" HC_abs="0" PMx_abs="0" NOx_abs="0" fuel_abs="0" electricity_abs="0"
            CO_normed="0" CO2_normed="0" HC_normed="0" PMx_normed="0" NOx_normed="0" fuel_normed="0" electricity_normed="0"/>
        <edge id=":1106006327_3" sampledSeconds="0.00" CO_abs="0" CO2_abs="0" HC_abs="0" PMx_abs="0" NOx_abs="0" fuel_abs="0" electricity_abs="0"
            CO_normed="0" CO2_normed="0" HC_normed="0" PMx_normed="0" NOx_normed="0" fuel_normed="0" electricity_normed="0"/>
        <edge id=":1107381198_0" sampledSeconds="0.00" CO_abs="0" CO2_abs="0" HC_abs="0" PMx_abs="0" NOx_abs="0" fuel_abs="0" electricity_abs="0"
            CO_normed="0" CO2_normed="0" HC_normed="0" PMx_normed="0" NOx_normed="0" fuel_normed="0" electricity_normed="0"/>
        <edge id=":1107381198_1" sampledSeconds="35.87" CO_abs="1395.128669" CO2_abs="59542.577285" HC_abs="7.728612" PMx_abs="1.037886" NOx_abs="24.713391" fuel_abs="25.595191" electricity_abs="0"
            CO_normed="116.533173" CO2_normed="4973.509321" HC_normed="0.645560" PMx_normed="0.086693" NOx_normed="2.064275" fuel_normed="2.137931" electricity_normed="0"
            traveltime="1.48" CO_perVeh="57.441316" CO2_perVeh="2451.533018" HC_perVeh="0.318208" PMx_perVeh="0.042733" NOx_perVeh="1.017519" fuel_perVeh="1.053825" electricity_perVeh="0"/>
        <edge id=":1110338277_0" sampledSeconds="96.55" CO_abs="1554.608697" CO2_abs="188729.359728" HC_abs="11.373258" PMx_abs="2.599692" NOx_abs="70.658938" fuel_abs="81.126818" electricity_abs="0"
            CO_normed="4252.728958" CO2_normed="516280.923268" HC_normed="31.112256" PMx_normed="7.111619" NOx_normed="193.291927" fuel_normed="221.927465" electricity_normed="0"
            traveltime="0.02" CO_perVeh="0.350360" CO2_perVeh="42.533641" HC_perVeh="0.002563" PMx_perVeh="0.000586" NOx_perVeh="0.015924" fuel_perVeh="0.018283" electricity_perVeh="0"/>
        <edge id=":1110338293_0" sampledSeconds="123.53" CO_abs="6703.281913" CO2_abs="456695.869535" HC_abs="41.265722" PMx_abs="8.082919" NOx_abs="187.481457" fuel_abs="196.313654" electricity_abs="0"
            CO_normed="17114.762332" CO2_normed="1166032.007324" HC_normed="105.359290" PMx_normed="20.637241" NOx_normed="478.676060" fuel_normed="501.226351" electricity_normed="0"
            traveltime="0.03" CO_perVeh="1.537509" CO2_perVeh="104.750763" HC_perVeh="0.009465" PMx_perVeh="0.001854" NOx_perVeh="0.043002" fuel_perVeh="0.045028" electricity_perVeh="0"/>
        <edge id=":1110338295_0" sampledSeconds="0.00" CO_abs="0" CO2_abs="0" HC_abs="0" PMx_abs="0" NOx_abs="0" fuel_abs="0" electricity_abs="0"
            CO_normed="0" CO2_normed="0" HC_normed="0" PMx_normed="0" NOx_normed="0" fuel_normed="0" electricity_normed="0"/>
        <edge id=":1110673403_0" sampledSeconds="143.88" CO_abs="2335.366688" CO2_abs="287073.862744" HC_abs="17.174395" PMx_abs="3.916293" NOx_abs="107.230694" fuel_abs="123.401022" electricity_abs="0"
            CO_normed="5962.638351" CO2_normed="732954.543177" HC_normed="43.849518" PMx_normed="9.999045" NOx_normed="273.780494" fuel_normed="315.066438" electricity_normed="0"
            traveltime="0.02" CO_perVeh="0.374959" CO2_perVeh="46.091691" HC_perVeh="0.002757" PMx_perVeh="0.000629" NOx_perVeh="0.017217" fuel_perVeh="0.019813" electricity_perVeh="0"/>
        <edge id=":1110673412_0" sampledSeconds="251.91" CO_abs="45028.487912" CO2_abs="3072590.203686" HC_abs="280.242610" PMx_abs="67.540539" NOx_abs="1320.483856" fuel_abs="1320.755173" electricity_abs="0"
            CO_normed="118930.709085" CO2_normed="8115425.336221" HC_normed="740.185910" PMx_normed="178.390273" NOx_normed="3487.704976" fuel_normed="3488.421587" electricity_normed="0"
            traveltime="0.02" CO_perVeh="2.771094" CO2_perVeh="189.089989" HC_perVeh="0.017246" PMx_perVeh="0.004157" NOx_perVeh="0.081264" fuel_perVeh="0.081280" electricity_perVeh="0"/>
        <edge id=":1110673414_0" sampledSeconds="0.00" CO_abs="0" CO2_abs="0" HC_abs="0" PMx_abs="0" NOx_abs="0" fuel_abs="0" electricity_abs="0"
            CO_normed="0" CO2_normed="0" HC_normed="0" PMx_normed="0" NOx_normed="0" fuel_normed="0" electricity_normed="0"/>
        <edge id=":1110673414_1" sampledSeconds="14.51" CO_abs="1211.037808" CO2_abs="46546.165251" HC_abs="6.609912" PMx_abs="0.935004" NOx_abs="20.137963" fuel_abs="20.008418" electricity_abs="0"
            CO_normed="102.724632" CO2_normed="3948.215049" HC_normed="0.560677" PMx_normed="0.079310" NOx_normed="1.708175" fuel_normed="1.697187" electricity_normed="0"
            traveltime="1.58" CO_perVeh="132.265015" CO2_perVeh="5083.597874" HC_perVeh="0.721910" PMx_perVeh="0.102118" NOx_perVeh="2.199393" fuel_perVeh="2.185244" electricity_perVeh="0"/>
        <edge id=":1110673417_0" sampledSeconds="29.43" CO_abs="575.347480" CO2_abs="63624.602940" HC_abs="4.077154" PMx_abs="0.898043" NOx_abs="24.080325" fuel_abs="27.349542" electricity_abs="0"
            CO_normed="1573.898882" CO2_normed="174049.065793" HC_normed="11.153307" PMx_normed="2.456651" NOx_normed="65.873229" fuel_normed="74.816377" electricity_normed="0"
            traveltime="0.02" CO_perVeh="0.427031" CO2_perVeh="47.223032" HC_perVeh="0.003026" PMx_perVeh="0.000667" NOx_perVeh="0.017873" fuel_perVeh="0.020299" electricity_perVeh="0"/>
        <edge id=":1110673446_0" sampledSeconds="333.82" CO_abs="3281.019915" CO2_abs="273952.687537" HC_abs="21.380623" PMx_abs="4.956432" NOx_abs="111.387073" fuel_abs="117.759696" electricity_abs="0"
            CO_normed="8377.072124" CO2_normed="699453.670307" HC_normed="54.588825" PMx_normed="12.654720" NOx_normed="284.392526" fuel_normed="300.663053" electricity_normed="0"
            traveltime="0.02" CO_perVeh="0.223780" CO2_perVeh="18.684759" HC_perVeh="0.001458" PMx_perVeh="0.000338" NOx_perVeh="0.007597" fuel_perVeh="0.008032" electricity_perVeh="0"/>
        <edge id=":1110673451_0" sampledSeconds="37.14" CO_abs="507.919487" CO2_abs="38628.742629" HC_abs="3.195314" PMx_abs="0.535435" NOx_abs="14.855031" fuel_abs="16.604994" electricity_abs="0"
            CO_normed="1440.906345" CO2_normed="109585.085471" HC_normed="9.064720" PMx_normed="1.518965" NOx_normed="42.141932" fuel_normed="47.106366" electricity_normed="0"
            traveltime="0.03" CO_perVeh="0.364245" CO2_perVeh="27.701887" HC_perVeh="0.002291" PMx_perVeh="0.000384" NOx_perVeh="0.010653" fuel_perVeh="0.011908" electricity_perVeh="0"/>
        <edge id=":1110673464_0" sampledSeconds="323.73" CO_abs="589.335636" CO2_abs="44859.260564" HC_abs="3.708655" PMx_abs="0.621981" NOx_abs="17.237598" fuel_abs="19.283252" electricity_abs="0"
            CO_normed="31.969265" CO2_normed="2433.447924" HC_normed="0.201181" PMx_normed="0.033740" NOx_normed="0.935076" fuel_normed="1.046045" electricity_normed="0"
            traveltime="1.17" CO_perVeh="2.130375" CO2_perVeh="162.160634" HC_perVeh="0.013406" PMx_perVeh="0.002248" NOx_perVeh="0.062312" fuel_perVeh="0.069707" electricity_perVeh="0"/>
        <edge id=":1110673464_1" sampledSeconds="708.19" CO_abs="16577.043589" CO2_abs="2048443.961457" HC_abs="124.611367" PMx_abs="36.698617" NOx_abs="773.396705" fuel_abs="880.531797" electricity_abs="0"
            CO_normed="881.145731" CO2_normed="108884.171176" HC_normed="6.623664" PMx_normed="1.950699" NOx_normed="41.109574" fuel_normed="46.804295" electricity_normed="0"
            traveltime="0.70" CO_perVeh="16.379811" CO2_perVeh="2024.071730" HC_perVeh="0.123129" PMx_perVeh="0.036262" NOx_perVeh="0.764195" fuel_perVeh="0.870055" electricity_perVeh="0"/>
        <edge id=":1110673479_0" sampledSeconds="132.45" CO_abs="7303.374587" CO2_abs="508146.877689" HC_abs="45.210132" PMx_abs="8.985361" NOx_abs="208.369856" fuel_abs="218.430098" electricity_abs="0"
            CO_normed="18646.913839" CO2_normed="1297396.283461" HC_normed="115.430124" PMx_normed="22.941347" NOx_normed="532.008142" fuel_normed="557.693868" electricity_normed="0"
            traveltime="0.03" CO_perVeh="1.538524" CO2_perVeh="107.045898" HC_perVeh="0.009524" PMx_perVeh="0.001893" NOx_perVeh="0.043895" fuel_perVeh="0.046014" electricity_perVeh="0"/>
        <edge id=":1110673511_0" sampledSeconds="11.57" CO_abs="141.275795" CO2_abs="21280.163302" HC_abs="1.117225" PMx_abs="0.257594" NOx_abs="7.681572" fuel_abs="9.147478" electricity_abs="0"
            CO_normed="360.704158" CO2_normed="54332.331834" HC_normed="2.852490" PMx_normed="0.657686" NOx_normed="19.612523" fuel_normed="23.355262" electricity_normed="0"
            traveltime="0.02" CO_perVeh="0.279754" CO2_perVeh="42.138937" HC_perVeh="0.002212" PMx_perVeh="0.000510" NOx_perVeh="0.015211" fuel_perVeh="0.018114" electricity_perVeh="0"/>
        <edge id=":1110673517_0" sampledSeconds="17.08" CO_abs="757.293883" CO2_abs="53068.884555" HC_abs="4.699990" PMx_abs="0.949019" NOx_abs="21.794006" fuel_abs="22.811973" electricity_abs="0"
            CO_normed="1933.516298" CO2_normed="135495.024395" HC_normed="11.999976" PMx_normed="2.423028" NOx_normed="55.644269" fuel_normed="58.243336" electricity_normed="0"
            traveltime="0.03" CO_perVeh="1.215885" CO2_perVeh="85.205595" HC_perVeh="0.007546" PMx_perVeh="0.001524" NOx_perVeh="0.034992" fuel_perVeh="0.036626" electricity_perVeh="0"/>
        <edge id=":1110673534_0" sampledSeconds="475.69" CO_abs="2792.976780" CO2_abs="237197.958631" HC_abs="18.105114" PMx_abs="3.107644" NOx_abs="89.566822" fuel_abs="101.962220" electricity_abs="0"
            CO_normed="138.197762" CO2_normed="11736.662970" HC_normed="0.895849" PMx_normed="0.153768" NOx_normed="4.431807" fuel_normed="5.045137" electricity_normed="0"
            traveltime="1.43" CO_perVeh="8.414120" CO2_perVeh="714.582381" HC_perVeh="0.054543" PMx_perVeh="0.009362" NOx_perVeh="0.269829" fuel_perVeh="0.307171" electricity_perVeh="0"/>
        <edge id=":1110673534_1" sampledSeconds="184.51" CO_abs="2535.731554" CO2_abs="328438.709084" HC_abs="19.011905" PMx_abs="4.381565" NOx_abs="121.723350" fuel_abs="141.182102" electricity_abs="0"
            CO_normed="122.001411" CO2_normed="15802.140392" HC_normed="0.914718" PMx_normed="0.210810" NOx_normed="5.856464" fuel_normed="6.792681" electricity_normed="0"
            traveltime="1.23" CO_perVeh="16.836347" CO2_perVeh="2180.715116" HC_perVeh="0.126232" PMx_perVeh="0.029092" NOx_perVeh="0.808199" fuel_perVeh="0.937398" electricity_perVeh="0"/>
        <edge id=":1110673549_0" sampledSeconds="60.34" CO_abs="37.164062" CO2_abs="3021.632711" HC_abs="0.238421" PMx_abs="0.042011" NOx_abs="1.158857" fuel_abs="1.298880" electricity_abs="0"
            CO_normed="1.781357" CO2_normed="144.833672" HC_normed="0.011428" PMx_normed="0.002014" NOx_normed="0.055547" fuel_normed="0.062258" electricity_normed="0"
            traveltime="1.26" CO_perVeh="0.774282" CO2_perVeh="62.953144" HC_perVeh="0.004967" PMx_perVeh="0.000875" NOx_perVeh="0.024144" fuel_perVeh="0.027061" electricity_perVeh="0"/>
        <edge id=":1110673549_1" sampledSeconds="639.22" CO_abs="12743.972998" CO2_abs="1775833.821293" HC_abs="100.189633" PMx_abs="30.701228" NOx_abs="657.773005" fuel_abs="763.350059" electricity_abs="0"
            CO_normed="590.880207" CO2_normed="82337.357126" HC_normed="4.645339" PMx_normed="1.423477" NOx_normed="30.497950" fuel_normed="35.393079" electricity_normed="0"
            traveltime="0.80" CO_perVeh="16.044622" CO2_perVeh="2235.769220" HC_perVeh="0.126138" PMx_perVeh="0.038653" NOx_perVeh="0.828134" fuel_perVeh="0.961055" electricity_perVeh="0"/>
        <edge id=":1110673556_0" sampledSeconds="419.52" CO_abs="50947.770463" CO2_abs="2543224.541814" HC_abs="292.444585" PMx_abs="51.286665" NOx_abs="1095.266918" fuel_abs="1093.222363" electricity_abs="0"
            CO_normed="1810.850310" CO2_normed="90394.514000" HC_normed="10.394437" PMx_normed="1.822896" NOx_normed="38.929367" fuel_normed="38.856697" electricity_normed="0"
            traveltime="2.60" CO_perVeh="316.258916" CO2_perVeh="15787.097844" HC_perVeh="1.815353" PMx_perVeh="0.318363" NOx_perVeh="6.798883" fuel_perVeh="6.786191" electricity_perVeh="0"/>
        <edge id=":1110673556_2" sampledSeconds="250.91" CO_abs="24034.757826" CO2_abs="1026597.192866" HC_abs="133.554094" PMx_abs="19.871759" NOx_abs="438.375933" fuel_abs="441.293852" electricity_abs="0"
            CO_normed="893.236377" CO2_normed="38152.827014" HC_normed="4.963452" PMx_normed="0.738521" NOx_normed="16.291961" fuel_normed="16.400403" electricity_normed="0"
            traveltime="3.04" CO_perVeh="291.537007" CO2_perVeh="12452.427224" HC_perVeh="1.619986" PMx_perVeh="0.241041" NOx_perVeh="5.317416" fuel_perVeh="5.352810" electricity_perVeh="0"/>
        <edge id=":1110673556_3" sampledSeconds="408.17" CO_abs="34425.449435" CO2_abs="1216165.458810" HC_abs="185.041590" PMx_abs="23.158638" NOx_abs="518.375874" fuel_abs="522.787331" electricity_abs="0"
            CO_normed="2910.422666" CO2_normed="102817.990036" HC_normed="15.643928" PMx_normed="1.957895" NOx_normed="43.824929" fuel_normed="44.197886" electricity_normed="0"
            traveltime="1.75" CO_perVeh="147.612354" CO2_perVeh="5214.777137" HC_perVeh="0.793437" PMx_perVeh="0.099302" NOx_perVeh="2.222736" fuel_perVeh="2.241652" electricity_perVeh="0"/>
        <edge id=":1110673556_4" sampledSeconds="210.52" CO_abs="22126.452535" CO2_abs="887736.994124" HC_abs="121.608832" PMx_abs="17.463088" NOx_abs="381.358381" fuel_abs="381.603974" electricity_abs="0"
            CO_normed="1142.813290" CO2_normed="45850.894232" HC_normed="6.280997" PMx_normed="0.901954" NOx_normed="19.696850" fuel_normed="19.709535" electricity_normed="0"
            traveltime="2.42" CO_perVeh="253.921253" CO2_perVeh="10187.592872" HC_perVeh="1.395572" PMx_perVeh="0.200405" NOx_perVeh="4.376436" fuel_perVeh="4.379254" electricity_perVeh="0"/>
        <edge id=":1110673556_5" sampledSeconds="23.91" CO_abs="1658.962476" CO2_abs="68984.505057" HC_abs="9.157739" PMx_abs="1.258622" NOx_abs="28.991958" fuel_abs="29.653884" electricity_abs="0"
            CO_normed="119.426190" CO2_normed="4966.089790" HC_normed="0.659252" PMx_normed="0.090606" NOx_normed="2.087087" fuel_normed="2.134738" electricity_normed="0"
            traveltime="1.65" CO_perVeh="114.693702" CO2_perVeh="4769.299115" HC_perVeh="0.633128" PMx_perVeh="0.087016" NOx_perVeh="2.004382" fuel_perVeh="2.050145" electricity_perVeh="0"/>
        <edge id=":1110673556_6" sampledSeconds="479.56" CO_abs="56923.459679" CO2_abs="2813627.592911" HC_abs="326.040768" PMx_abs="56.605196" NOx_abs="1210.765995" fuel_abs="1209.457645" electricity_abs="0"
            CO_normed="2074.260126" CO2_normed="102527.069807" HC_normed="11.880749" PMx_normed="2.062663" NOx_normed="44.119659" fuel_normed="44.071983" electricity_normed="0"
            traveltime="2.57" CO_perVeh="305.468364" CO2_perVeh="15098.769863" HC_perVeh="1.749633" PMx_perVeh="0.303760" NOx_perVeh="6.497334" fuel_perVeh="6.490313" electricity_perVeh="0"/>
        <edge id=":1110673561_0" sampledSeconds="98.21" CO_abs="10509.036658" CO2_abs="747534.839501" HC_abs="65.890442" PMx_abs="15.279966" NOx_abs="317.171006" fuel_abs="321.329433" electricity_abs="0"
            CO_normed="481.140161" CO2_normed="34224.738617" HC_normed="3.016693" PMx_normed="0.699570" NOx_normed="14.521189" fuel_normed="14.711576" electricity_normed="0"
            traveltime="1.16" CO_perVeh="124.016833" CO2_perVeh="8821.636663" HC_perVeh="0.777571" PMx_perVeh="0.180318" NOx_perVeh="3.742926" fuel_perVeh="3.791999" electricity_perVeh="0"/>
        <edge id=":1110673561_1" sampledSeconds="1309.22" CO_abs="121854.715131" CO2_abs="8463960.165116" HC_abs="759.505180" PMx_abs="176.699393" NOx_abs="3616.685565" fuel_abs="3638.247798" electricity_abs="0"
            CO_normed="5439.133245" CO2_normed="377799.144403" HC_normed="33.901436" PMx_normed="7.887192" NOx_normed="161.435154" fuel_normed="162.397610" electricity_normed="0"
            traveltime="1.19" CO_perVeh="110.874136" CO2_perVeh="7701.255300" HC_perVeh="0.691065" PMx_perVeh="0.160777" NOx_perVeh="3.290779" fuel_perVeh="3.310398" electricity_perVeh="0"/>
        <edge id=":1110673562_0" sampledSeconds="104.39" CO_abs="2281.281504" CO2_abs="180916.269936" HC_abs="14.515366" PMx_abs="2.449186" NOx_abs="69.017012" fuel_abs="77.768892" electricity_abs="0"
            CO_normed="6471.720578" CO2_normed="513237.645208" HC_normed="41.178344" PMx_normed="6.948045" NOx_normed="195.792941" fuel_normed="220.620969" electricity_normed="0"
            traveltime="0.03" CO_perVeh="0.581509" CO2_perVeh="46.116381" HC_perVeh="0.003700" PMx_perVeh="0.000624" NOx_perVeh="0.017593" fuel_perVeh="0.019824" electricity_perVeh="0"/>
        <edge id=":1110673564_0" sampledSeconds="28.59" CO_abs="467.831476" CO2_abs="54729.193053" HC_abs="3.373997" PMx_abs="0.754856" NOx_abs="20.527374" fuel_abs="23.525789" electricity_abs="0"
            CO_normed="3583.390032" CO2_normed="419202.329767" HC_normed="25.843382" PMx_normed="5.781873" NOx_normed="157.230952" fuel_normed="180.197533" electricity_normed="0"
            traveltime="7.859188e-03" CO_perVeh="0.128616" CO2_perVeh="15.046126" HC_perVeh="0.000928" PMx_perVeh="0.000208" NOx_perVeh="0.005643" fuel_perVeh="0.006468" electricity_perVeh="0"/>
        <edge id=":1110673588_0" sampledSeconds="11.37" CO_abs="300.405454" CO2_abs="32532.411668" HC_abs="2.126467" PMx_abs="0.495210" NOx_abs="12.501783" fuel_abs="13.984272" electricity_abs="0"
            CO_normed="920.391178" CO2_normed="99673.771918" HC_normed="6.515133" PMx_normed="1.517241" NOx_normed="38.303334" fuel_normed="42.845430" electricity_normed="0"
            traveltime="0.02" CO_perVeh="0.500676" CO2_perVeh="54.220686" HC_perVeh="0.003544" PMx_perVeh="0.000825" NOx_perVeh="0.020836" fuel_perVeh="0.023307" electricity_perVeh="0"/>
        <edge id=":1110673601_0" sampledSeconds="29.75" CO_abs="486.157504" CO2_abs="52558.952474" HC_abs="3.433738" PMx_abs="0.764978" NOx_abs="20.052505" fuel_abs="22.592859" electricity_abs="0"
            CO_normed="1329.914146" CO2_normed="143778.289442" HC_normed="9.393205" PMx_normed="2.092645" NOx_normed="54.854876" fuel_normed="61.804174" electricity_normed="0"
            traveltime="0.02" CO_perVeh="0.360833" CO2_perVeh="39.009958" HC_perVeh="0.002549" PMx_perVeh="0.000568" NOx_perVeh="0.014883" fuel_perVeh="0.016769" electricity_perVeh="0"/>
        <edge id=":1110673617_0" sampledSeconds="237.63" CO_abs="6151.347412" CO2_abs="766357.222780" HC_abs="46.331123" PMx_abs="13.697258" NOx_abs="288.812551" fuel_abs="329.421733" electricity_abs="0"
            CO_normed="15705.567862" CO2_normed="1956656.739012" HC_normed="118.292229" PMx_normed="34.971722" NOx_normed="737.393748" fuel_normed="841.076766" electricity_normed="0"
            traveltime="0.01" CO_perVeh="0.377429" CO2_perVeh="47.021436" HC_perVeh="0.002843" PMx_perVeh="0.000840" NOx_perVeh="0.017721" fuel_perVeh="0.020212" electricity_perVeh="0"/>
        <edge id=":1110673621_0" sampledSeconds="25.61" CO_abs="749.384690" CO2_abs="71217.026186" HC_abs="5.073679" PMx_abs="1.136256" NOx_abs="27.910458" fuel_abs="30.613086" electricity_abs="0"
            CO_normed="2295.987135" CO2_normed="218196.846188" HC_normed="15.544888" PMx_normed="3.481294" NOx_normed="85.512894" fuel_normed="93.793285" electricity_normed="0"
            traveltime="0.02" CO_perVeh="0.567716" CO2_perVeh="53.952293" HC_perVeh="0.003844" PMx_perVeh="0.000861" NOx_perVeh="0.021144" fuel_perVeh="0.023192" electricity_perVeh="0"/>
        <edge id=":1110673630_0" sampledSeconds="53.96" CO_abs="196.894140" CO2_abs="23161.412518" HC_abs="1.414126" PMx_abs="0.279850" NOx_abs="8.470950" fuel_abs="9.956177" electricity_abs="0"
            CO_normed="10.756957" CO2_normed="1265.382054" HC_normed="0.077258" PMx_normed="0.015289" NOx_normed="0.462795" fuel_normed="0.543938" electricity_normed="0"
            traveltime="1.26" CO_perVeh="4.595857" CO2_perVeh="540.628336" HC_perVeh="0.033008" PMx_perVeh="0.006532" NOx_perVeh="0.197727" fuel_perVeh="0.232395" electricity_perVeh="0"/>
        <edge id=":1110673630_1" sampledSeconds="7.25" CO_abs="85.194817" CO2_abs="6658.202374" HC_abs="0.543079" PMx_abs="0.106977" NOx_abs="2.646946" fuel_abs="2.862079" electricity_abs="0"
            CO_normed="5.674400" CO2_normed="443.469538" HC_normed="0.036172" PMx_normed="0.007125" NOx_normed="0.176300" fuel_normed="0.190629" electricity_normed="0"
            traveltime="1.03" CO_perVeh="12.058343" CO2_perVeh="942.391721" HC_perVeh="0.076867" PMx_perVeh="0.015141" NOx_perVeh="0.374645" fuel_perVeh="0.405094" electricity_perVeh="0"/>
        <edge id=":1110673650_0" sampledSeconds="143.34" CO_abs="2189.751898" CO2_abs="285493.765561" HC_abs="16.444106" PMx_abs="3.812888" NOx_abs="105.835240" fuel_abs="122.721840" electricity_abs="0"
            CO_normed="5590.855909" CO2_normed="728920.252495" HC_normed="41.984952" PMx_normed="9.735033" NOx_normed="270.217633" fuel_normed="313.332357" electricity_normed="0"
            traveltime="0.02" CO_perVeh="0.351580" CO2_perVeh="45.838050" HC_perVeh="0.002640" PMx_perVeh="0.000612" NOx_perVeh="0.016993" fuel_perVeh="0.019704" electricity_perVeh="0"/>
        <edge id=":1110673655_0" sampledSeconds="44.85" CO_abs="860.432497" CO2_abs="91617.983748" HC_abs="6.021071" PMx_abs="1.339106" NOx_abs="34.994249" fuel_abs="39.382674" electricity_abs="0"
            CO_normed="2196.848929" CO2_normed="233918.256377" HC_normed="15.372948" PMx_normed="3.418995" NOx_normed="89.347019" fuel_normed="100.551508" electricity_normed="0"
            traveltime="0.02" CO_perVeh="0.460494" CO2_perVeh="49.032905" HC_perVeh="0.003222" PMx_perVeh="0.000717" NOx_perVeh="0.018729" fuel_perVeh="0.021077" electricity_perVeh="0"/>
        <edge id=":1110673663_0" sampledSeconds="108.53" CO_abs="1986.033827" CO2_abs="230918.107365" HC_abs="14.344600" PMx_abs="3.218178" NOx_abs="86.877501" fuel_abs="99.261991" electricity_abs="0"
            CO_normed="92.870415" CO2_normed="10798.134551" HC_normed="0.670779" PMx_normed="0.150488" NOx_normed="4.062544" fuel_normed="4.641664" electricity_normed="0"
            traveltime="1.27" CO_perVeh="23.327075" CO2_perVeh="2712.261936" HC_perVeh="0.168485" PMx_perVeh="0.037799" NOx_perVeh="1.020425" fuel_perVeh="1.165887" electricity_perVeh="0"/>
        <edge id=":1110673663_1" sampledSeconds="153.82" CO_abs="2244.793423" CO2_abs="303477.091494" HC_abs="17.180241" PMx_abs="4.086217" NOx_abs="112.474197" fuel_abs="130.452036" electricity_abs="0"
            CO_normed="105.098792" CO2_normed="14208.468103" HC_normed="0.804360" PMx_normed="0.191312" NOx_normed="5.265920" fuel_normed="6.107623" electricity_normed="0"
            traveltime="1.25" CO_perVeh="18.207344" CO2_perVeh="2461.479017" HC_perVeh="0.139348" PMx_perVeh="0.033143" NOx_perVeh="0.912269" fuel_perVeh="1.058086" electricity_perVeh="0"/>
        <edge id=":1110673666_0" sampledSeconds="191.13" CO_abs="4129.719751" CO2_abs="320478.919915" HC_abs="26.126971" PMx_abs="4.416073" NOx_abs="122.864251" fuel_abs="137.761411" electricity_abs="0"