<?xml version="1.0" encoding="UTF-8"?>

<!-- generated on Tue Nov 10 15:09:30 2020 by Eclipse SUMO sumo Version 1.7.0
<configuration xmlns:xsi="http://www.w3.org/2001/XMLSchema-instance" xsi:noNamespaceSchemaLocation="http://sumo.dlr.de/xsd/sumoConfiguration.xsd">

    <input>
        <net-file value="../dataSets/Porto/8AM9AM_Routing_SaoBento/Porto.net.xml"/>
        <route-files value="../results/Porto/8AM9AM_Routing_SaoBento/cost_nox-length/solution4/Porto.rou.xml"/>
        <additional-files value="moreOutputInfo.xml"/>
    </input>

    <output>
        <emission-output.precision value="6"/>
        <tripinfo-output value="../results/Porto/8AM9AM_Routing_SaoBento/cost_nox-length/solution4/Porto-tripinfo"/>
    </output>

    <processing>
        <collision.action value="warn"/>
        <time-to-teleport value="-1"/>
    </processing>

    <emissions>
        <device.emissions.probability value="1"/>
    </emissions>

    <gui_only>
        <quit-on-end value="true"/>
        <start value="true"/>
    </gui_only>

</configuration>
-->

<meandata xmlns:xsi="http://www.w3.org/2001/XMLSchema-instance" xsi:noNamespaceSchemaLocation="http://sumo.dlr.de/xsd/meandata_file.xsd">
    <interval begin="0.00" end="8472.00" id="emissions-detector">
        <edge id=":1092997347_0" sampledSeconds="597.51" CO_abs="72608.071298" CO2_abs="3078150.683347" HC_abs="403.406537" PMx_abs="62.207938" NOx_abs="1331.451521" fuel_abs="1323.172647" electricity_abs="0"
            CO_normed="70121.109289" CO2_normed="2972718.275187" HC_normed="389.589110" PMx_normed="60.077200" NOx_normed="1285.846820" fuel_normed="1277.851513" electricity_normed="0"
            traveltime="0.07" CO_perVeh="8.328351" CO2_perVeh="353.072567" HC_perVeh="0.046272" PMx_perVeh="0.007135" NOx_perVeh="0.152721" fuel_perVeh="0.151772" electricity_perVeh="0"/>
        <edge id=":1103427051_0" sampledSeconds="19.44" CO_abs="1590.709739" CO2_abs="88576.674059" HC_abs="9.345470" PMx_abs="1.738301" NOx_abs="37.818086" fuel_abs="38.075204" electricity_abs="0"
            CO_normed="2330.824077" CO2_normed="129789.011515" HC_normed="13.693665" PMx_normed="2.547086" NOx_normed="55.413821" fuel_normed="55.790569" electricity_normed="0"
            traveltime="0.03" CO_perVeh="2.473755" CO2_perVeh="137.747938" HC_perVeh="0.014533" PMx_perVeh="0.002703" NOx_perVeh="0.058812" fuel_perVeh="0.059212" electricity_perVeh="0"/>
        <edge id=":1105984386_0" sampledSeconds="10.31" CO_abs="293.094050" CO2_abs="21162.113112" HC_abs="1.816451" PMx_abs="0.288229" NOx_abs="8.116999" fuel_abs="9.096789" electricity_abs="0"
            CO_normed="12.826387" CO2_normed="926.096739" HC_normed="0.079492" PMx_normed="0.012613" NOx_normed="0.355216" fuel_normed="0.398094" electricity_normed="0"
            traveltime="0.99" CO_perVeh="28.116412" CO2_perVeh="2030.074277" HC_perVeh="0.174251" PMx_perVeh="0.027650" NOx_perVeh="0.778661" fuel_perVeh="0.872652" electricity_perVeh="0"/>
        <edge id=":1105984390_0" sampledSeconds="10.93" CO_abs="18.399150" CO2_abs="1166.571090" HC_abs="0.110692" PMx_abs="0.018282" NOx_abs="0.465795" fuel_abs="0.501463" electricity_abs="0"
            CO_normed="0.622479" CO2_normed="39.467364" HC_normed="0.003745" PMx_normed="0.000619" NOx_normed="0.015759" fuel_normed="0.016965" electricity_normed="0"
            traveltime="1.13" CO_perVeh="1.907183" CO2_perVeh="120.922117" HC_perVeh="0.011474" PMx_perVeh="0.001895" NOx_perVeh="0.048282" fuel_perVeh="0.051980" electricity_perVeh="0"/>
        <edge id=":1105984390_1" sampledSeconds="2399.91" CO_abs="64708.903897" CO2_abs="7465559.961258" HC_abs="472.750599" PMx_abs="135.952295" NOx_abs="2854.910999" fuel_abs="3209.098527" electricity_abs="0"
            CO_normed="2094.188985" CO2_normed="241609.616234" HC_normed="15.299735" PMx_normed="4.399855" NOx_normed="92.394134" fuel_normed="103.856786" electricity_normed="0"
            traveltime="0.65" CO_perVeh="17.481614" CO2_perVeh="2016.879071" HC_perVeh="0.127717" PMx_perVeh="0.036729" NOx_perVeh="0.771276" fuel_perVeh="0.866963" electricity_perVeh="0"/>
        <edge id=":1105984395_0" sampledSeconds="4.17" CO_abs="79.684308" CO2_abs="5698.432786" HC_abs="0.493112" PMx_abs="0.080634" NOx_abs="2.207831" fuel_abs="2.449536" electricity_abs="0"
            CO_normed="36.804552" CO2_normed="2631.989524" HC_normed="0.227758" PMx_normed="0.037243" NOx_normed="1.019752" fuel_normed="1.131390" electricity_normed="0"
            traveltime="0.10" CO_perVeh="1.847054" CO2_perVeh="132.087633" HC_perVeh="0.011430" PMx_perVeh="0.001869" NOx_perVeh="0.051177" fuel_perVeh="0.056779" electricity_perVeh="0"/>
        <edge id=":1105984398_0" sampledSeconds="11.08" CO_abs="673.270418" CO2_abs="44995.806171" HC_abs="4.129223" PMx_abs="0.826429" NOx_abs="18.685996" fuel_abs="19.341699" electricity_abs="0"
            CO_normed="23.663544" CO2_normed="1581.474851" HC_normed="0.145130" PMx_normed="0.029047" NOx_normed="0.656760" fuel_normed="0.679806" electricity_normed="0"
            traveltime="1.16" CO_perVeh="70.788055" CO2_perVeh="4730.885990" HC_perVeh="0.434149" PMx_perVeh="0.086891" NOx_perVeh="1.964657" fuel_perVeh="2.033598" electricity_perVeh="0"/>
        <edge id=":1105984398_1" sampledSeconds="649.73" CO_abs="11922.271585" CO2_abs="1374487.497438" HC_abs="85.692816" PMx_abs="19.832330" NOx_abs="521.006001" fuel_abs="590.833469" electricity_abs="0"
            CO_normed="405.614177" CO2_normed="46762.197206" HC_normed="2.915403" PMx_normed="0.674727" NOx_normed="17.725432" fuel_normed="20.101071" electricity_normed="0"
            traveltime="0.95" CO_perVeh="17.473259" CO2_perVeh="2014.446322" HC_perVeh="0.125591" PMx_perVeh="0.029066" NOx_perVeh="0.763585" fuel_perVeh="0.865924" electricity_perVeh="0"/>
        <edge id=":1106006327_0" sampledSeconds="388.00" CO_abs="52470.752685" CO2_abs="1707039.895566" HC_abs="279.111318" PMx_abs="35.637274" NOx_abs="747.398495" fuel_abs="733.796031" electricity_abs="0"
            CO_normed="2516.518491" CO2_normed="81870.322849" HC_normed="13.386292" PMx_normed="1.709178" NOx_normed="35.845534" fuel_normed="35.193154" electricity_normed="0"
            traveltime="2.09" CO_perVeh="282.297817" CO2_perVeh="9184.042770" HC_perVeh="1.501646" PMx_perVeh="0.191732" NOx_perVeh="4.021078" fuel_perVeh="3.947895" electricity_perVeh="0"/>
        <edge id=":1106006327_1" sampledSeconds="677.47" CO_abs="91574.122251" CO2_abs="3075706.731415" HC_abs="489.464274" PMx_abs="64.117243" NOx_abs="1345.848824" fuel_abs="1322.135085" electricity_abs="0"
            CO_normed="3829.972100" CO2_normed="128637.552618" HC_normed="20.471226" PMx_normed="2.681623" NOx_normed="56.288429" fuel_normed="55.296631" electricity_normed="0"
            traveltime="2.27" CO_perVeh="307.392163" CO2_perVeh="10324.403033" HC_perVeh="1.643013" PMx_perVeh="0.215226" NOx_perVeh="4.517689" fuel_perVeh="4.438087" electricity_perVeh="0"/>
        <edge id=":1106006327_2" sampledSeconds="0.00" CO_abs="0" CO2_abs="0" HC_abs="0" PMx_abs="0" NOx_abs="0" fuel_abs="0" electricity_abs="0"
            CO_normed="0" CO2_normed="0" HC_normed="0" PMx_normed="0" NOx_normed="0" fuel_normed="0" electricity_normed="0"/>
        <edge id=":1106006327_3" sampledSeconds="0.00" CO_abs="0" CO2_abs="0" HC_abs="0" PMx_abs="0" NOx_abs="0" fuel_abs="0" electricity_abs="0"
            CO_normed="0" CO2_normed="0" HC_normed="0" PMx_normed="0" NOx_normed="0" fuel_normed="0" electricity_normed="0"/>
        <edge id=":1107381198_0" sampledSeconds="0.00" CO_abs="0" CO2_abs="0" HC_abs="0" PMx_abs="0" NOx_abs="0" fuel_abs="0" electricity_abs="0"
            CO_normed="0" CO2_normed="0" HC_normed="0" PMx_normed="0" NOx_normed="0" fuel_normed="0" electricity_normed="0"/>
        <edge id=":1107381198_1" sampledSeconds="102.20" CO_abs="4363.623536" CO2_abs="174466.848427" HC_abs="23.885389" PMx_abs="3.006821" NOx_abs="72.247599" fuel_abs="74.997242" electricity_abs="0"
            CO_normed="202.206212" CO2_normed="8084.629724" HC_normed="1.106826" PMx_normed="0.139333" NOx_normed="3.347886" fuel_normed="3.475302" electricity_normed="0"
            traveltime="1.53" CO_perVeh="65.331811" CO2_perVeh="2612.103252" HC_perVeh="0.357610" PMx_perVeh="0.045018" NOx_perVeh="1.081685" fuel_perVeh="1.122853" electricity_perVeh="0"/>
        <edge id=":1110338277_0" sampledSeconds="160.70" CO_abs="2456.959054" CO2_abs="317665.399868" HC_abs="18.442188" PMx_abs="4.236709" NOx_abs="117.836394" fuel_abs="136.551106" electricity_abs="0"
            CO_normed="3728.691401" CO2_normed="482090.347837" HC_normed="27.987941" PMx_normed="6.429648" NOx_normed="178.829008" fuel_normed="207.230533" electricity_normed="0"
            traveltime="0.02" CO_perVeh="0.333350" CO2_perVeh="43.099464" HC_perVeh="0.002502" PMx_perVeh="0.000575" NOx_perVeh="0.015988" fuel_perVeh="0.018527" electricity_perVeh="0"/>
        <edge id=":1110338293_0" sampledSeconds="6435.50" CO_abs="612923.065512" CO2_abs="10732899.028487" HC_abs="3041.951113" PMx_abs="256.031747" NOx_abs="4850.669962" fuel_abs="4613.892481" electricity_abs="0"
            CO_normed="868162.982311" CO2_normed="15202406.555930" HC_normed="4308.712625" PMx_normed="362.651200" NOx_normed="6870.637339" fuel_normed="6535.258472" electricity_normed="0"
            traveltime="0.43" CO_perVeh="40.978032" CO2_perVeh="717.566527" HC_perVeh="0.203375" PMx_perVeh="0.017117" NOx_perVeh="0.324300" fuel_perVeh="0.308470" electricity_perVeh="0"/>
        <edge id=":1110338295_0" sampledSeconds="0.00" CO_abs="0" CO2_abs="0" HC_abs="0" PMx_abs="0" NOx_abs="0" fuel_abs="0" electricity_abs="0"
            CO_normed="0" CO2_normed="0" HC_normed="0" PMx_normed="0" NOx_normed="0" fuel_normed="0" electricity_normed="0"/>
        <edge id=":1110673403_0" sampledSeconds="200.67" CO_abs="3113.822827" CO2_abs="367547.687610" HC_abs="22.630512" PMx_abs="5.181378" NOx_abs="138.492785" fuel_abs="157.993193" electricity_abs="0"
            CO_normed="4410.513919" CO2_normed="520605.789815" HC_normed="32.054550" PMx_normed="7.339063" NOx_normed="196.165417" fuel_normed="223.786393" electricity_normed="0"
            traveltime="0.02" CO_perVeh="0.359882" CO2_perVeh="42.479603" HC_perVeh="0.002616" PMx_perVeh="0.000599" NOx_perVeh="0.016006" fuel_perVeh="0.018260" electricity_perVeh="0"/>
        <edge id=":1110673412_0" sampledSeconds="942.02" CO_abs="167111.132460" CO2_abs="11403044.296728" HC_abs="1039.966938" PMx_abs="250.556319" NOx_abs="4900.379299" fuel_abs="4901.607131" electricity_abs="0"
            CO_normed="244863.435274" CO2_normed="16708573.258857" HC_normed="1523.835506" PMx_normed="367.133416" NOx_normed="7180.393620" fuel_normed="7182.192730" electricity_normed="0"
            traveltime="0.02" CO_perVeh="2.759366" CO2_perVeh="188.288913" HC_perVeh="0.017172" PMx_perVeh="0.004137" NOx_perVeh="0.080916" fuel_perVeh="0.080936" electricity_perVeh="0"/>
        <edge id=":1110673414_0" sampledSeconds="0.00" CO_abs="0" CO2_abs="0" HC_abs="0" PMx_abs="0" NOx_abs="0" fuel_abs="0" electricity_abs="0"
            CO_normed="0" CO2_normed="0" HC_normed="0" PMx_normed="0" NOx_normed="0" fuel_normed="0" electricity_normed="0"/>
        <edge id=":1110673414_1" sampledSeconds="7.21" CO_abs="205.267490" CO2_abs="8396.089794" HC_abs="1.128132" PMx_abs="0.144968" NOx_abs="3.478540" fuel_abs="3.609183" electricity_abs="0"
            CO_normed="9.659374" CO2_normed="395.098952" HC_normed="0.053087" PMx_normed="0.006822" NOx_normed="0.163691" fuel_normed="0.169839" electricity_normed="0"
            traveltime="1.57" CO_perVeh="44.837093" CO2_perVeh="1833.978975" HC_perVeh="0.246421" PMx_perVeh="0.031666" NOx_perVeh="0.759826" fuel_perVeh="0.788363" electricity_perVeh="0"/>
        <edge id=":1110673417_0" sampledSeconds="28.79" CO_abs="427.218218" CO2_abs="50917.237949" HC_abs="3.113736" PMx_abs="0.682177" NOx_abs="18.980754" fuel_abs="21.887215" electricity_abs="0"
            CO_normed="648.348166" CO2_normed="77272.214613" HC_normed="4.725419" PMx_normed="1.035274" NOx_normed="28.805272" fuel_normed="33.216129" electricity_normed="0"
            traveltime="0.02" CO_perVeh="0.325774" CO2_perVeh="38.826838" HC_perVeh="0.002374" PMx_perVeh="0.000520" NOx_perVeh="0.014474" fuel_perVeh="0.016690" electricity_perVeh="0"/>
        <edge id=":1110673446_0" sampledSeconds="1313.66" CO_abs="13205.718983" CO2_abs="1089516.419602" HC_abs="85.935281" PMx_abs="19.721704" NOx_abs="443.724088" fuel_abs="468.333227" electricity_abs="0"
            CO_normed="18704.984395" CO2_normed="1543224.390371" HC_normed="121.721361" PMx_normed="27.934425" NOx_normed="628.504373" fuel_normed="663.361511" electricity_normed="0"
            traveltime="0.02" CO_perVeh="0.229108" CO2_perVeh="18.902158" HC_perVeh="0.001491" PMx_perVeh="0.000342" NOx_perVeh="0.007698" fuel_perVeh="0.008125" electricity_perVeh="0"/>
        <edge id=":1110673451_0" sampledSeconds="36.29" CO_abs="280.573098" CO2_abs="20795.545982" HC_abs="1.753765" PMx_abs="0.295389" NOx_abs="8.048124" fuel_abs="8.939191" electricity_abs="0"
            CO_normed="441.569245" CO2_normed="32728.275073" HC_normed="2.760096" PMx_normed="0.464886" NOx_normed="12.666233" fuel_normed="14.068604" electricity_normed="0"
            traveltime="0.03" CO_perVeh="0.206720" CO2_perVeh="15.321720" HC_perVeh="0.001292" PMx_perVeh="0.000218" NOx_perVeh="0.005930" fuel_perVeh="0.006586" electricity_perVeh="0"/>
        <edge id=":1110673464_0" sampledSeconds="1031.80" CO_abs="3653.565068" CO2_abs="252848.325182" HC_abs="22.438369" PMx_abs="3.703327" NOx_abs="98.710047" fuel_abs="108.689618" electricity_abs="0"
            CO_normed="109.950878" CO2_normed="7609.251494" HC_normed="0.675263" PMx_normed="0.111448" NOx_normed="2.970593" fuel_normed="3.270920" electricity_normed="0"
            traveltime="1.22" CO_perVeh="4.332617" CO2_perVeh="299.842727" HC_perVeh="0.026609" PMx_perVeh="0.004392" NOx_perVeh="0.117056" fuel_perVeh="0.128891" electricity_perVeh="0"/>
        <edge id=":1110673464_1" sampledSeconds="2604.09" CO_abs="63502.748811" CO2_abs="7834046.942376" HC_abs="475.809853" PMx_abs="139.491819" NOx_abs="2964.492286" fuel_abs="3367.496241" electricity_abs="0"
            CO_normed="1872.600339" CO2_normed="231014.235345" HC_normed="14.030915" PMx_normed="4.113403" NOx_normed="87.418409" fuel_normed="99.302388" electricity_normed="0"
            traveltime="0.72" CO_perVeh="17.513297" CO2_perVeh="2160.536282" HC_perVeh="0.131223" PMx_perVeh="0.038470" NOx_perVeh="0.817571" fuel_perVeh="0.928715" electricity_perVeh="0"/>
        <edge id=":1110673479_0" sampledSeconds="135.25" CO_abs="6315.048706" CO2_abs="431500.348014" HC_abs="38.900228" PMx_abs="7.603680" NOx_abs="176.867748" fuel_abs="185.483238" electricity_abs="0"
            CO_normed="8944.828196" CO2_normed="611190.294637" HC_normed="55.099474" PMx_normed="10.770084" NOx_normed="250.520890" fuel_normed="262.724133" electricity_normed="0"
            traveltime="0.03" CO_perVeh="1.335058" CO2_perVeh="91.223075" HC_perVeh="0.008224" PMx_perVeh="0.001607" NOx_perVeh="0.037391" fuel_perVeh="0.039213" electricity_perVeh="0"/>
        <edge id=":1110673511_0" sampledSeconds="63.35" CO_abs="1377.014100" CO2_abs="141017.017006" HC_abs="9.525293" PMx_abs="2.049135" NOx_abs="53.921728" fuel_abs="60.617271" electricity_abs="0"
            CO_normed="1950.444901" CO2_normed="199740.817289" HC_normed="13.491916" PMx_normed="2.902458" NOx_normed="76.376385" fuel_normed="85.860157" electricity_normed="0"
            traveltime="0.02" CO_perVeh="0.527760" CO2_perVeh="54.046765" HC_perVeh="0.003651" PMx_perVeh="0.000785" NOx_perVeh="0.020666" fuel_perVeh="0.023232" electricity_perVeh="0"/>
        <edge id=":1110673517_0" sampledSeconds="183.39" CO_abs="7591.934365" CO2_abs="544427.600815" HC_abs="47.318227" PMx_abs="9.235801" NOx_abs="220.426494" fuel_abs="234.026023" electricity_abs="0"
            CO_normed="10753.448110" CO2_normed="771143.910503" HC_normed="67.022985" PMx_normed="13.081872" NOx_normed="312.218830" fuel_normed="331.481618" electricity_normed="0"
            traveltime="0.03" CO_perVeh="1.162391" CO2_perVeh="83.356608" HC_perVeh="0.007245" PMx_perVeh="0.001414" NOx_perVeh="0.033749" fuel_perVeh="0.035831" electricity_perVeh="0"/>
        <edge id=":1110673534_0" sampledSeconds="659.40" CO_abs="5041.427069" CO2_abs="414108.464930" HC_abs="32.455337" PMx_abs="5.860946" NOx_abs="159.277718" fuel_abs="178.008668" electricity_abs="0"
            CO_normed="138.388208" CO2_normed="11367.362390" HC_normed="0.890906" PMx_normed="0.160884" NOx_normed="4.372206" fuel_normed="4.886374" electricity_normed="0"
            traveltime="1.45" CO_perVeh="11.085358" CO2_perVeh="910.563721" HC_perVeh="0.071365" PMx_perVeh="0.012887" NOx_perVeh="0.350228" fuel_perVeh="0.391415" electricity_perVeh="0"/>
        <edge id=":1110673534_1" sampledSeconds="265.04" CO_abs="4444.337633" CO2_abs="516698.163069" HC_abs="32.092085" PMx_abs="7.301216" NOx_abs="194.820277" fuel_abs="222.106694" electricity_abs="0"
            CO_normed="118.626177" CO2_normed="13791.465198" HC_normed="0.856587" PMx_normed="0.194881" NOx_normed="5.200052" fuel_normed="5.928368" electricity_normed="0"
            traveltime="1.23" CO_perVeh="20.620612" CO2_perVeh="2397.349851" HC_perVeh="0.148899" PMx_perVeh="0.033876" NOx_perVeh="0.903917" fuel_perVeh="1.030519" electricity_perVeh="0"/>
        <edge id=":1110673549_0" sampledSeconds="653.91" CO_abs="1798.071030" CO2_abs="157744.164569" HC_abs="11.808745" PMx_abs="2.366008" NOx_abs="60.909045" fuel_abs="67.807658" electricity_abs="0"
            CO_normed="47.813069" CO2_normed="4194.624422" HC_normed="0.314010" PMx_normed="0.062915" NOx_normed="1.619651" fuel_normed="1.803095" electricity_normed="0"
            traveltime="1.30" CO_perVeh="3.572338" CO2_perVeh="313.400042" HC_perVeh="0.023461" PMx_perVeh="0.004701" NOx_perVeh="0.121012" fuel_perVeh="0.134718" electricity_perVeh="0"/>
        <edge id=":1110673549_1" sampledSeconds="3198.46" CO_abs="69203.419406" CO2_abs="9106042.889875" HC_abs="532.152272" PMx_abs="159.945800" NOx_abs="3403.150877" fuel_abs="3914.271124" electricity_abs="0"
            CO_normed="1780.057637" CO2_normed="234226.593481" HC_normed="13.688077" PMx_normed="4.114143" NOx_normed="87.536205" fuel_normed="100.683294" electricity_normed="0"
            traveltime="0.81" CO_perVeh="17.453156" CO2_perVeh="2296.551043" HC_perVeh="0.134209" PMx_perVeh="0.040338" NOx_perVeh="0.858277" fuel_perVeh="0.987182" electricity_perVeh="0"/>
        <edge id=":1110673556_0" sampledSeconds="474.39" CO_abs="58793.026424" CO2_abs="2789305.547746" HC_abs="333.949600" PMx_abs="56.462917" NOx_abs="1203.942423" fuel_abs="1199.003988" electricity_abs="0"
            CO_normed="1159.298024" CO2_normed="55000.339439" HC_normed="6.584916" PMx_normed="1.113352" NOx_normed="23.739687" fuel_normed="23.642310" electricity_normed="0"
            traveltime="2.80" CO_perVeh="346.579238" CO2_perVeh="16442.688009" HC_perVeh="1.968601" PMx_perVeh="0.332843" NOx_perVeh="7.097125" fuel_perVeh="7.068013" electricity_perVeh="0"/>
        <edge id=":1110673556_2" sampledSeconds="174.03" CO_abs="16820.555041" CO2_abs="722054.829499" HC_abs="93.566956" PMx_abs="14.040460" NOx_abs="308.696473" fuel_abs="310.382875" electricity_abs="0"
            CO_normed="346.799837" CO2_normed="14887.053154" HC_normed="1.929128" PMx_normed="0.289481" NOx_normed="6.364587" fuel_normed="6.399357" electricity_normed="0"
            traveltime="3.01" CO_perVeh="290.851432" CO2_perVeh="12485.359786" HC_perVeh="1.617906" PMx_perVeh="0.242780" NOx_perVeh="5.337803" fuel_perVeh="5.366963" electricity_perVeh="0"/>
        <edge id=":1110673556_3" sampledSeconds="355.86" CO_abs="35271.343633" CO2_abs="1214245.986022" HC_abs="188.970944" PMx_abs="23.896416" NOx_abs="522.537080" fuel_abs="521.961806" electricity_abs="0"
            CO_normed="1654.285107" CO2_normed="56950.171005" HC_normed="8.863054" PMx_normed="1.120782" NOx_normed="24.507864" fuel_normed="24.480883" electricity_normed="0"
            traveltime="1.84" CO_perVeh="182.201858" CO2_perVeh="6272.453850" HC_perVeh="0.976171" PMx_perVeh="0.123442" NOx_perVeh="2.699280" fuel_perVeh="2.696308" electricity_perVeh="0"/>
        <edge id=":1110673556_4" sampledSeconds="73.49" CO_abs="8417.965228" CO2_abs="326087.942962" HC_abs="45.994477" PMx_abs="6.476554" NOx_abs="140.531040" fuel_abs="140.172808" electricity_abs="0"
            CO_normed="241.202903" CO2_normed="9343.511916" HC_normed="1.317896" PMx_normed="0.185575" NOx_normed="4.026685" fuel_normed="4.016421" electricity_normed="0"
            traveltime="2.53" CO_perVeh="289.809695" CO2_perVeh="11226.400302" HC_perVeh="1.583476" PMx_perVeh="0.222972" NOx_perVeh="4.838136" fuel_perVeh="4.825803" electricity_perVeh="0"/>
        <edge id=":1110673556_5" sampledSeconds="22.32" CO_abs="1083.787926" CO2_abs="49186.880417" HC_abs="6.066284" PMx_abs="0.815841" NOx_abs="20.109054" fuel_abs="21.143662" electricity_abs="0"
            CO_normed="43.283187" CO2_normed="1964.374125" HC_normed="0.242269" PMx_normed="0.032582" NOx_normed="0.803094" fuel_normed="0.844413" electricity_normed="0"
            traveltime="1.54" CO_perVeh="74.928548" CO2_perVeh="3400.574449" HC_perVeh="0.419397" PMx_perVeh="0.056404" NOx_perVeh="1.390256" fuel_perVeh="1.461784" electricity_perVeh="0"/>
        <edge id=":1110673556_6" sampledSeconds="550.86" CO_abs="65511.325825" CO2_abs="3147312.411687" HC_abs="373.017753" PMx_abs="63.427365" NOx_abs="1356.361454" fuel_abs="1352.895686" electricity_abs="0"
            CO_normed="1324.342239" CO2_normed="63624.399500" HC_normed="7.540729" PMx_normed="1.282214" NOx_normed="27.419484" fuel_normed="27.349422" electricity_normed="0"
            traveltime="2.67" CO_perVeh="318.071971" CO2_perVeh="15280.897614" HC_perVeh="1.811084" PMx_perVeh="0.307954" NOx_perVeh="6.585435" fuel_perVeh="6.568608" electricity_perVeh="0"/>
        <edge id=":1110673561_0" sampledSeconds="104.34" CO_abs="10311.276710" CO2_abs="723374.175697" HC_abs="64.384774" PMx_abs="14.732990" NOx_abs="307.077457" fuel_abs="310.944071" electricity_abs="0"
            CO_normed="261.898526" CO2_normed="18373.149684" HC_normed="1.635324" PMx_normed="0.374207" NOx_normed="7.799532" fuel_normed="7.897741" electricity_normed="0"
            traveltime="1.23" CO_perVeh="121.683073" CO2_perVeh="8536.517380" HC_perVeh="0.759803" PMx_perVeh="0.173864" NOx_perVeh="3.623812" fuel_perVeh="3.669442" electricity_perVeh="0"/>
        <edge id=":1110673561_1" sampledSeconds="5197.31" CO_abs="476916.255495" CO2_abs="33092356.563762" HC_abs="2972.161049" PMx_abs="690.971831" NOx_abs="14143.020537" fuel_abs="14224.806385" electricity_abs="0"
            CO_normed="11809.768802" CO2_normed="819458.501648" HC_normed="73.598948" PMx_normed="17.110378" NOx_normed="350.220402" fuel_normed="352.245646" electricity_normed="0"
            traveltime="1.19" CO_perVeh="109.554517" CO2_perVeh="7601.789837" HC_perVeh="0.682748" PMx_perVeh="0.158726" NOx_perVeh="3.248855" fuel_perVeh="3.267642" electricity_perVeh="0"/>
        <edge id=":1110673562_0" sampledSeconds="301.80" CO_abs="6403.875005" CO2_abs="492766.963365" HC_abs="40.370104" PMx_abs="6.554642" NOx_abs="187.498250" fuel_abs="211.821729" electricity_abs="0"
            CO_normed="10078.493870" CO2_normed="775522.447851" HC_normed="63.534945" PMx_normed="10.315772" NOx_normed="295.086953" fuel_normed="333.367531" electricity_normed="0"
            traveltime="0.03" CO_perVeh="0.574053" CO2_perVeh="44.172337" HC_perVeh="0.003619" PMx_perVeh="0.000588" NOx_perVeh="0.016808" fuel_perVeh="0.018988" electricity_perVeh="0"/>
        <edge id=":1110673564_0" sampledSeconds="27.67" CO_abs="368.561657" CO2_abs="50464.249314" HC_abs="2.794119" PMx_abs="0.636397" NOx_abs="18.443393" fuel_abs="21.692512" electricity_abs="0"
            CO_normed="1566.126022" CO2_normed="214437.320033" HC_normed="11.873028" PMx_normed="2.704235" NOx_normed="78.371360" fuel_normed="92.177812" electricity_normed="0"
            traveltime="7.814063e-03" CO_perVeh="0.104099" CO2_perVeh="14.253424" HC_perVeh="0.000789" PMx_perVeh="0.000180" NOx_perVeh="0.005209" fuel_perVeh="0.006127" electricity_perVeh="0"/>
        <edge id=":1110673588_0" sampledSeconds="63.02" CO_abs="908.472924" CO2_abs="104012.363355" HC_abs="6.514250" PMx_abs="1.388541" NOx_abs="38.807317" fuel_abs="44.710643" electricity_abs="0"
            CO_normed="1544.146614" CO2_normed="176791.552446" HC_normed="11.072380" PMx_normed="2.360126" NOx_normed="65.961446" fuel_normed="75.995427" electricity_normed="0"
            traveltime="0.02" CO_perVeh="0.293056" CO2_perVeh="33.552375" HC_perVeh="0.002101" PMx_perVeh="0.000448" NOx_perVeh="0.012518" fuel_perVeh="0.014423" electricity_perVeh="0"/>
        <edge id=":1110673601_0" sampledSeconds="28.95" CO_abs="430.827698" CO2_abs="51022.491621" HC_abs="3.141342" PMx_abs="0.704967" NOx_abs="19.142359" fuel_abs="21.932431" electricity_abs="0"
            CO_normed="653.825928" CO2_normed="77431.948028" HC_normed="4.767314" PMx_normed="1.069861" NOx_normed="29.050525" fuel_normed="33.284749" electricity_normed="0"
            traveltime="0.02" CO_perVeh="0.328527" CO2_perVeh="38.907099" HC_perVeh="0.002395" PMx_perVeh="0.000538" NOx_perVeh="0.014597" fuel_perVeh="0.016725" electricity_perVeh="0"/>
        <edge id=":1110673617_0" sampledSeconds="851.72" CO_abs="31536.924415" CO2_abs="3196971.908107" HC_abs="220.276644" PMx_abs="60.312865" NOx_abs="1253.414711" fuel_abs="1374.228526" electricity_abs="0"
            CO_normed="44669.864611" CO2_normed="4528288.821682" HC_normed="312.006578" PMx_normed="85.428988" NOx_normed="1775.374945" fuel_normed="1946.499328" electricity_normed="0"
            traveltime="0.02" CO_perVeh="0.558792" CO2_perVeh="56.646075" HC_perVeh="0.003903" PMx_perVeh="0.001069" NOx_perVeh="0.022209" fuel_perVeh="0.024349" electricity_perVeh="0"/>
        <edge id=":1110673621_0" sampledSeconds="26.64" CO_abs="591.749659" CO2_abs="59399.398030" HC_abs="4.076678" PMx_abs="0.898004" NOx_abs="22.940805" fuel_abs="25.533254" electricity_abs="0"
            CO_normed="1005.806786" CO2_normed="100962.149626" HC_normed="6.929198" PMx_normed="1.526352" NOx_normed="38.992870" fuel_normed="43.399299" electricity_normed="0"
            traveltime="0.02" CO_perVeh="0.448295" CO2_perVeh="44.999544" HC_perVeh="0.003088" PMx_perVeh="0.000680" NOx_perVeh="0.017379" fuel_perVeh="0.019343" electricity_perVeh="0"/>
        <edge id=":1110673630_0" sampledSeconds="285.36" CO_abs="1288.946718" CO2_abs="115973.261895" HC_abs="8.506121" PMx_abs="1.499232" NOx_abs="43.569673" fuel_abs="49.852391" electricity_abs="0"
            CO_normed="39.066410" CO2_normed="3515.008766" HC_normed="0.257810" PMx_normed="0.045440" NOx_normed="1.320544" fuel_normed="1.510965" electricity_normed="0"
            traveltime="1.28" CO_perVeh="5.799768" CO2_perVeh="521.835386" HC_perVeh="0.038274" PMx_perVeh="0.006746" NOx_perVeh="0.196047" fuel_perVeh="0.224317" electricity_perVeh="0"/>
        <edge id=":1110673630_1" sampledSeconds="338.83" CO_abs="1384.531943" CO2_abs="105034.270565" HC_abs="8.712862" PMx_abs="1.500408" NOx_abs="40.657985" fuel_abs="45.150084" electricity_abs="0"
            CO_normed="51.158958" CO2_normed="3881.054461" HC_normed="0.321943" PMx_normed="0.055441" NOx_normed="1.502327" fuel_normed="1.668312" electricity_normed="0"
            traveltime="1.08" CO_perVeh="4.413615" CO2_perVeh="334.828583" HC_perVeh="0.027775" PMx_perVeh="0.004783" NOx_perVeh="0.129610" fuel_perVeh="0.143930" electricity_perVeh="0"/>
        <edge id=":1110673650_0" sampledSeconds="200.83" CO_abs="2885.153343" CO2_abs="354164.163793" HC_abs="21.288381" PMx_abs="4.919915" NOx_abs="132.760806" fuel_abs="152.240221" electricity_abs="0"
            CO_normed="4086.619466" CO2_normed="501648.957214" HC_normed="30.153514" PMx_normed="6.968718" NOx_normed="188.046468" fuel_normed="215.637707" electricity_normed="0"
            traveltime="0.02" CO_perVeh="0.333454" CO2_perVeh="40.932792" HC_perVeh="0.002460" PMx_perVeh="0.000569" NOx_perVeh="0.015344" fuel_perVeh="0.017595" electricity_perVeh="0"/>
        <edge id=":1110673655_0" sampledSeconds="20.60" CO_abs="342.410289" CO2_abs="46032.791182" HC_abs="2.611435" PMx_abs="0.593449" NOx_abs="16.939001" fuel_abs="19.787598" electricity_abs="0"
            CO_normed="485.000410" CO2_normed="65202.253798" HC_normed="3.698917" PMx_normed="0.840579" NOx_normed="23.992920" fuel_normed="28.027759" electricity_normed="0"
            traveltime="0.02" CO_perVeh="0.391177" CO2_perVeh="52.588870" HC_perVeh="0.002983" PMx_perVeh="0.000678" NOx_perVeh="0.019351" fuel_perVeh="0.022606" electricity_perVeh="0"/>
        <edge id=":1110673663_0" sampledSeconds="111.19" CO_abs="1527.469991" CO2_abs="204911.188843" HC_abs="11.567170" PMx_abs="2.549852" NOx_abs="74.849502" fuel_abs="88.082996" electricity_abs="0"
            CO_normed="39.625554" CO2_normed="5315.796284" HC_normed="0.300075" PMx_normed="0.066148" NOx_normed="1.941742" fuel_normed="2.285045" electricity_normed="0"
            traveltime="1.31" CO_perVeh="17.940856" CO2_perVeh="2406.778581" HC_perVeh="0.135862" PMx_perVeh="0.029949" NOx_perVeh="0.879143" fuel_perVeh="1.034576" electricity_perVeh="0"/>
        <edge id=":1110673663_1" sampledSeconds="170.53" CO_abs="2674.474004" CO2_abs="310447.020712" HC_abs="19.235166" PMx_abs="4.302676" NOx_abs="116.677712" fuel_abs="133.448154" electricity_abs="0"
            CO_normed="69.465895" CO2_normed="8063.447278" HC_normed="0.499608" PMx_normed="0.111756" NOx_normed="3.030548" fuel_normed="3.466138" electricity_normed="0"
            traveltime="1.28" CO_perVeh="20.020879" CO2_perVeh="2323.979304" HC_perVeh="0.143993" PMx_perVeh="0.032209" NOx_perVeh="0.873439" fuel_perVeh="0.998981" electricity_perVeh="0"/>