<?xml version="1.0" encoding="UTF-8"?>

<!-- generated on Tue Nov 10 01:35:45 2020 by Eclipse SUMO sumo Version 1.7.0
<configuration xmlns:xsi="http://www.w3.org/2001/XMLSchema-instance" xsi:noNamespaceSchemaLocation="http://sumo.dlr.de/xsd/sumoConfiguration.xsd">

    <input>
        <net-file value="../dataSets/Porto/6AM7AM_Routing_SaoBento/Porto.net.xml"/>
        <route-files value="../results/Porto/6AM7AM_Routing_SaoBento/cost_PMx-cost_co2/solution5/Porto.rou.xml"/>
        <additional-files value="moreOutputInfo.xml"/>
    </input>

    <output>
        <emission-output.precision value="6"/>
        <tripinfo-output value="../results/Porto/6AM7AM_Routing_SaoBento/cost_PMx-cost_co2/solution5/Porto-tripinfo"/>
    </output>

    <processing>
        <collision.action value="warn"/>
        <time-to-teleport value="-1"/>
    </processing>

    <emissions>
        <device.emissions.probability value="1"/>
    </emissions>

    <gui_only>
        <quit-on-end value="true"/>
        <start value="true"/>
    </gui_only>

</configuration>
-->

<meandata xmlns:xsi="http://www.w3.org/2001/XMLSchema-instance" xsi:noNamespaceSchemaLocation="http://sumo.dlr.de/xsd/meandata_file.xsd">
    <interval begin="0.00" end="4790.00" id="emissions-detector">
        <edge id=":1092997347_0" sampledSeconds="268.04" CO_abs="34534.936102" CO2_abs="1366088.057097" HC_abs="189.540083" PMx_abs="27.916949" NOx_abs="593.296824" fuel_abs="587.227541" electricity_abs="0"
            CO_normed="58989.262652" CO2_normed="2333420.480903" HC_normed="323.754175" PMx_normed="47.685052" NOx_normed="1013.412682" fuel_normed="1003.045715" electricity_normed="0"
            traveltime="0.08" CO_perVeh="9.694783" CO2_perVeh="383.493608" HC_perVeh="0.053208" PMx_perVeh="0.007837" NOx_perVeh="0.166553" fuel_perVeh="0.164849" electricity_perVeh="0"/>
        <edge id=":1103427051_0" sampledSeconds="11.37" CO_abs="825.931319" CO2_abs="45484.216347" HC_abs="4.838575" PMx_abs="0.885321" NOx_abs="19.378037" fuel_abs="19.551676" electricity_abs="0"
            CO_normed="2140.488624" CO2_normed="117877.171443" HC_normed="12.539682" PMx_normed="2.294402" NOx_normed="50.220239" fuel_normed="50.670242" electricity_normed="0"
            traveltime="0.03" CO_perVeh="2.263039" CO2_perVeh="124.626065" HC_perVeh="0.013258" PMx_perVeh="0.002426" NOx_perVeh="0.053096" fuel_perVeh="0.053571" electricity_perVeh="0"/>
        <edge id=":1105984386_0" sampledSeconds="22.87" CO_abs="574.960264" CO2_abs="44865.418092" HC_abs="3.636894" PMx_abs="0.586019" NOx_abs="17.002457" fuel_abs="19.285942" electricity_abs="0"
            CO_normed="44.502621" CO2_normed="3472.637707" HC_normed="0.281500" PMx_normed="0.045359" NOx_normed="1.316011" fuel_normed="1.492755" electricity_normed="0"
            traveltime="0.96" CO_perVeh="24.130637" CO2_perVeh="1882.966847" HC_perVeh="0.152638" PMx_perVeh="0.024595" NOx_perVeh="0.713580" fuel_perVeh="0.809416" electricity_perVeh="0"/>
        <edge id=":1105984390_0" sampledSeconds="22.77" CO_abs="0" CO2_abs="0" HC_abs="0" PMx_abs="0" NOx_abs="0" fuel_abs="0" electricity_abs="0"
            CO_normed="0" CO2_normed="0" HC_normed="0" PMx_normed="0" NOx_normed="0" fuel_normed="0" electricity_normed="0"
            traveltime="1.03" CO_perVeh="0" CO2_perVeh="0" HC_perVeh="0" PMx_perVeh="0" NOx_perVeh="0" fuel_perVeh="0" electricity_perVeh="0"/>
        <edge id=":1105984390_1" sampledSeconds="647.04" CO_abs="16391.201747" CO2_abs="1991531.061421" HC_abs="122.339329" PMx_abs="35.878614" NOx_abs="753.515315" fuel_abs="856.067441" electricity_abs="0"
            CO_normed="938.238083" CO2_normed="113995.929911" HC_normed="7.002746" PMx_normed="2.053704" NOx_normed="43.131478" fuel_normed="49.001598" electricity_normed="0"
            traveltime="0.64" CO_perVeh="16.131594" CO2_perVeh="1959.988708" HC_perVeh="0.120402" PMx_perVeh="0.035310" NOx_perVeh="0.741581" fuel_perVeh="0.842509" electricity_perVeh="0"/>
        <edge id=":1105984395_0" sampledSeconds="8.80" CO_abs="184.316787" CO2_abs="14048.103688" HC_abs="1.159458" PMx_abs="0.190772" NOx_abs="5.377979" fuel_abs="6.038739" electricity_abs="0"
            CO_normed="150.571942" CO2_normed="11476.167122" HC_normed="0.947184" PMx_normed="0.155845" NOx_normed="4.393375" fuel_normed="4.933162" electricity_normed="0"
            traveltime="0.09" CO_perVeh="1.869174" CO2_perVeh="142.463133" HC_perVeh="0.011758" PMx_perVeh="0.001935" NOx_perVeh="0.054539" fuel_perVeh="0.061239" electricity_perVeh="0"/>
        <edge id=":1105984398_0" sampledSeconds="24.24" CO_abs="1524.162741" CO2_abs="104339.446750" HC_abs="9.402481" PMx_abs="1.886738" NOx_abs="43.092253" fuel_abs="44.850914" electricity_abs="0"
            CO_normed="94.748431" CO2_normed="6486.183276" HC_normed="0.584498" PMx_normed="0.117288" NOx_normed="2.678798" fuel_normed="2.788123" electricity_normed="0"
            traveltime="1.10" CO_perVeh="69.149445" CO2_perVeh="4733.756195" HC_perVeh="0.426579" PMx_perVeh="0.085599" NOx_perVeh="1.955044" fuel_perVeh="2.034832" electricity_perVeh="0"/>
        <edge id=":1105984398_1" sampledSeconds="452.70" CO_abs="7887.962151" CO2_abs="957805.448169" HC_abs="57.688500" PMx_abs="13.467568" NOx_abs="360.016909" fuel_abs="411.719899" electricity_abs="0"
            CO_normed="474.645499" CO2_normed="57634.410048" HC_normed="3.471313" PMx_normed="0.810389" NOx_normed="21.663441" fuel_normed="24.774586" electricity_normed="0"
            traveltime="0.96" CO_perVeh="16.648718" CO2_perVeh="2021.590911" HC_perVeh="0.121760" PMx_perVeh="0.028425" NOx_perVeh="0.759869" fuel_perVeh="0.868996" electricity_perVeh="0"/>
        <edge id=":1106006327_0" sampledSeconds="450.68" CO_abs="60417.252913" CO2_abs="1943423.189427" HC_abs="320.815738" PMx_abs="40.449488" NOx_abs="850.116887" fuel_abs="835.409611" electricity_abs="0"
            CO_normed="5125.004371" CO2_normed="164854.439081" HC_normed="27.213784" PMx_normed="3.431202" NOx_normed="72.112725" fuel_normed="70.865154" electricity_normed="0"
            traveltime="2.11" CO_perVeh="282.957866" CO2_perVeh="9101.818626" HC_perVeh="1.502507" PMx_perVeh="0.189441" NOx_perVeh="3.981433" fuel_perVeh="3.912553" electricity_perVeh="0"/>
        <edge id=":1106006327_1" sampledSeconds="160.83" CO_abs="21689.355833" CO2_abs="725874.765063" HC_abs="115.863778" PMx_abs="15.120758" NOx_abs="317.553233" fuel_abs="312.027392" electricity_abs="0"
            CO_normed="1604.426894" CO2_normed="53695.139855" HC_normed="8.570792" PMx_normed="1.118528" NOx_normed="23.490368" fuel_normed="23.081605" electricity_normed="0"
            traveltime="2.28" CO_perVeh="307.908360" CO2_perVeh="10304.727830" HC_perVeh="1.644836" PMx_perVeh="0.214659" NOx_perVeh="4.508077" fuel_perVeh="4.429631" electricity_perVeh="0"/>
        <edge id=":1106006327_2" sampledSeconds="0.00" CO_abs="0" CO2_abs="0" HC_abs="0" PMx_abs="0" NOx_abs="0" fuel_abs="0" electricity_abs="0"
            CO_normed="0" CO2_normed="0" HC_normed="0" PMx_normed="0" NOx_normed="0" fuel_normed="0" electricity_normed="0"/>
        <edge id=":1106006327_3" sampledSeconds="0.00" CO_abs="0" CO2_abs="0" HC_abs="0" PMx_abs="0" NOx_abs="0" fuel_abs="0" electricity_abs="0"
            CO_normed="0" CO2_normed="0" HC_normed="0" PMx_normed="0" NOx_normed="0" fuel_normed="0" electricity_normed="0"/>
        <edge id=":1107381198_0" sampledSeconds="0.00" CO_abs="0" CO2_abs="0" HC_abs="0" PMx_abs="0" NOx_abs="0" fuel_abs="0" electricity_abs="0"
            CO_normed="0" CO2_normed="0" HC_normed="0" PMx_normed="0" NOx_normed="0" fuel_normed="0" electricity_normed="0"/>
        <edge id=":1107381198_1" sampledSeconds="36.12" CO_abs="1746.893678" CO2_abs="71088.732568" HC_abs="9.583113" PMx_abs="1.179809" NOx_abs="29.130996" fuel_abs="30.558623" electricity_abs="0"
            CO_normed="143.173989" CO2_normed="5826.374860" HC_normed="0.785424" PMx_normed="0.096696" NOx_normed="2.387553" fuel_normed="2.504560" electricity_normed="0"
            traveltime="1.49" CO_perVeh="71.924457" CO2_perVeh="2926.920248" HC_perVeh="0.394563" PMx_perVeh="0.048576" NOx_perVeh="1.199404" fuel_perVeh="1.258183" electricity_perVeh="0"/>
        <edge id=":1110338277_0" sampledSeconds="96.64" CO_abs="1320.218308" CO2_abs="163109.950001" HC_abs="9.678782" PMx_abs="2.192343" NOx_abs="60.701928" fuel_abs="70.114169" electricity_abs="0"
            CO_normed="3543.681709" CO2_normed="437813.763797" HC_normed="25.979432" PMx_normed="5.884608" NOx_normed="162.933896" fuel_normed="188.197888" electricity_normed="0"
            traveltime="0.02" CO_perVeh="0.297536" CO2_perVeh="36.759835" HC_perVeh="0.002181" PMx_perVeh="0.000494" NOx_perVeh="0.013680" fuel_perVeh="0.015802" electricity_perVeh="0"/>
        <edge id=":1110338293_0" sampledSeconds="124.41" CO_abs="5977.587768" CO2_abs="410373.428275" HC_abs="36.875711" PMx_abs="7.274043" NOx_abs="168.502457" fuel_abs="176.401603" electricity_abs="0"
            CO_normed="14975.167686" CO2_normed="1028075.394426" HC_normed="92.381741" PMx_normed="18.223073" NOx_normed="422.135593" fuel_normed="441.924683" electricity_normed="0"
            traveltime="0.03" CO_perVeh="1.371064" CO2_perVeh="94.126334" HC_perVeh="0.008458" PMx_perVeh="0.001668" NOx_perVeh="0.038649" fuel_perVeh="0.040461" electricity_perVeh="0"/>
        <edge id=":1110338295_0" sampledSeconds="0.00" CO_abs="0" CO2_abs="0" HC_abs="0" PMx_abs="0" NOx_abs="0" fuel_abs="0" electricity_abs="0"
            CO_normed="0" CO2_normed="0" HC_normed="0" PMx_normed="0" NOx_normed="0" fuel_normed="0" electricity_normed="0"/>
        <edge id=":1110673403_0" sampledSeconds="143.74" CO_abs="2338.680540" CO2_abs="290690.740809" HC_abs="17.285415" PMx_abs="4.005682" NOx_abs="108.698984" fuel_abs="124.955698" electricity_abs="0"
            CO_normed="5858.907408" CO2_normed="728244.027079" HC_normed="43.303754" PMx_normed="10.035111" NOx_normed="272.314781" fuel_normed="313.041414" electricity_normed="0"
            traveltime="0.02" CO_perVeh="0.375948" CO2_perVeh="46.729222" HC_perVeh="0.002779" PMx_perVeh="0.000644" NOx_perVeh="0.017474" fuel_perVeh="0.020087" electricity_perVeh="0"/>
        <edge id=":1110673412_0" sampledSeconds="252.92" CO_abs="44775.056303" CO2_abs="3059685.006168" HC_abs="278.747426" PMx_abs="67.193043" NOx_abs="1314.493586" fuel_abs="1315.207907" electricity_abs="0"
            CO_normed="116039.307962" CO2_normed="7929498.252254" HC_normed="722.403523" PMx_normed="174.137898" NOx_normed="3406.649564" fuel_normed="3408.500804" electricity_normed="0"
            traveltime="0.02" CO_perVeh="2.750569" CO2_perVeh="187.959001" HC_perVeh="0.017124" PMx_perVeh="0.004128" NOx_perVeh="0.080750" fuel_perVeh="0.080794" electricity_perVeh="0"/>
        <edge id=":1110673414_0" sampledSeconds="0.00" CO_abs="0" CO2_abs="0" HC_abs="0" PMx_abs="0" NOx_abs="0" fuel_abs="0" electricity_abs="0"
            CO_normed="0" CO2_normed="0" HC_normed="0" PMx_normed="0" NOx_normed="0" fuel_normed="0" electricity_normed="0"/>
        <edge id=":1110673414_1" sampledSeconds="132.22" CO_abs="9034.201521" CO2_abs="342486.751765" HC_abs="49.074178" PMx_abs="6.261988" NOx_abs="144.211493" fuel_abs="147.223012" electricity_abs="0"
            CO_normed="751.915454" CO2_normed="28505.129188" HC_normed="4.084438" PMx_normed="0.521184" NOx_normed="12.002704" fuel_normed="12.253353" electricity_normed="0"
            traveltime="1.58" CO_perVeh="107.637999" CO2_perVeh="4080.558607" HC_perVeh="0.584694" PMx_perVeh="0.074608" NOx_perVeh="1.718208" fuel_perVeh="1.754089" electricity_perVeh="0"/>
        <edge id=":1110673417_0" sampledSeconds="29.69" CO_abs="488.503679" CO2_abs="54958.427614" HC_abs="3.490101" PMx_abs="0.752164" NOx_abs="20.672275" fuel_abs="23.624346" electricity_abs="0"
            CO_normed="1311.223715" CO2_normed="147517.401887" HC_normed="9.368003" PMx_normed="2.018932" NOx_normed="55.487766" fuel_normed="63.411606" electricity_normed="0"
            traveltime="0.02" CO_perVeh="0.362574" CO2_perVeh="40.790881" HC_perVeh="0.002590" PMx_perVeh="0.000558" NOx_perVeh="0.015343" fuel_perVeh="0.017534" electricity_perVeh="0"/>
        <edge id=":1110673446_0" sampledSeconds="334.55" CO_abs="2899.548359" CO2_abs="232490.276219" HC_abs="18.702440" PMx_abs="4.315948" NOx_abs="95.414832" fuel_abs="99.936823" electricity_abs="0"
            CO_normed="7264.004239" CO2_normed="582439.105349" HC_normed="46.853713" PMx_normed="10.812395" NOx_normed="239.035070" fuel_normed="250.363648" electricity_normed="0"
            traveltime="0.02" CO_perVeh="0.197819" CO2_perVeh="15.861399" HC_perVeh="0.001276" PMx_perVeh="0.000294" NOx_perVeh="0.006510" fuel_perVeh="0.006818" electricity_perVeh="0"/>
        <edge id=":1110673451_0" sampledSeconds="37.39" CO_abs="334.940321" CO2_abs="23476.316994" HC_abs="2.062698" PMx_abs="0.337830" NOx_abs="9.133464" fuel_abs="10.091556" electricity_abs="0"
            CO_normed="932.332140" CO2_normed="65348.133595" HC_normed="5.741679" PMx_normed="0.940376" NOx_normed="25.423699" fuel_normed="28.090623" electricity_normed="0"
            traveltime="0.03" CO_perVeh="0.240196" CO2_perVeh="16.835606" HC_perVeh="0.001479" PMx_perVeh="0.000242" NOx_perVeh="0.006550" fuel_perVeh="0.007237" electricity_perVeh="0"/>
        <edge id=":1110673464_0" sampledSeconds="323.46" CO_abs="554.301845" CO2_abs="48110.914657" HC_abs="3.619128" PMx_abs="0.624151" NOx_abs="18.104242" fuel_abs="20.681022" electricity_abs="0"
            CO_normed="29.503845" CO2_normed="2560.801433" HC_normed="0.192635" PMx_normed="0.033222" NOx_normed="0.963635" fuel_normed="1.100790" electricity_normed="0"
            traveltime="1.17" CO_perVeh="2.003728" CO2_perVeh="173.914609" HC_perVeh="0.013083" PMx_perVeh="0.002256" NOx_perVeh="0.065444" fuel_perVeh="0.074759" electricity_perVeh="0"/>
        <edge id=":1110673464_1" sampledSeconds="709.39" CO_abs="16139.974266" CO2_abs="2042986.856551" HC_abs="122.619406" PMx_abs="36.393050" NOx_abs="768.592631" fuel_abs="878.186191" electricity_abs="0"
            CO_normed="841.794036" CO2_normed="106553.710868" HC_normed="6.395319" PMx_normed="1.898110" NOx_normed="40.086600" fuel_normed="45.802545" electricity_normed="0"
            traveltime="0.70" CO_perVeh="15.938369" CO2_perVeh="2017.467773" HC_perVeh="0.121088" PMx_perVeh="0.035938" NOx_perVeh="0.758992" fuel_perVeh="0.867217" electricity_perVeh="0"/>
        <edge id=":1110673479_0" sampledSeconds="133.48" CO_abs="6776.378591" CO2_abs="473242.644134" HC_abs="41.981931" PMx_abs="8.304428" NOx_abs="193.632826" fuel_abs="203.426374" electricity_abs="0"
            CO_normed="16976.313798" CO2_normed="1185576.561504" HC_normed="105.173941" PMx_normed="20.804412" NOx_normed="485.092674" fuel_normed="509.627659" electricity_normed="0"
            traveltime="0.03" CO_perVeh="1.427514" CO2_perVeh="99.693461" HC_perVeh="0.008844" PMx_perVeh="0.001749" NOx_perVeh="0.040791" fuel_perVeh="0.042854" electricity_perVeh="0"/>
        <edge id=":1110673511_0" sampledSeconds="11.68" CO_abs="289.310716" CO2_abs="30155.787471" HC_abs="2.010737" PMx_abs="0.461266" NOx_abs="11.643628" fuel_abs="12.962664" electricity_abs="0"
            CO_normed="724.786762" CO2_normed="75546.857965" HC_normed="5.037337" PMx_normed="1.155574" NOx_normed="29.169840" fuel_normed="32.474316" electricity_normed="0"
            traveltime="0.02" CO_perVeh="0.572893" CO2_perVeh="59.714431" HC_perVeh="0.003982" PMx_perVeh="0.000913" NOx_perVeh="0.023057" fuel_perVeh="0.025669" electricity_perVeh="0"/>
        <edge id=":1110673517_0" sampledSeconds="17.12" CO_abs="722.662271" CO2_abs="52871.116348" HC_abs="4.527973" PMx_abs="0.888983" NOx_abs="21.329871" fuel_abs="22.727022" electricity_abs="0"
            CO_normed="1810.427400" CO2_normed="132453.736153" HC_normed="11.343564" PMx_normed="2.227096" NOx_normed="53.436002" fuel_normed="56.936173" electricity_normed="0"
            traveltime="0.03" CO_perVeh="1.160282" CO2_perVeh="84.888065" HC_perVeh="0.007270" PMx_perVeh="0.001427" NOx_perVeh="0.034247" fuel_perVeh="0.036490" electricity_perVeh="0"/>
        <edge id=":1110673534_0" sampledSeconds="474.63" CO_abs="3247.869223" CO2_abs="289049.729913" HC_abs="21.363807" PMx_abs="3.798105" NOx_abs="108.966859" fuel_abs="124.251165" electricity_abs="0"
            CO_normed="157.686519" CO2_normed="14033.584013" HC_normed="1.037229" PMx_normed="0.184401" NOx_normed="5.290424" fuel_normed="6.032488" electricity_normed="0"
            traveltime="1.43" CO_perVeh="9.784528" CO2_perVeh="870.790986" HC_perVeh="0.064361" PMx_perVeh="0.011442" NOx_perVeh="0.328273" fuel_perVeh="0.374319" electricity_perVeh="0"/>
        <edge id=":1110673534_1" sampledSeconds="183.84" CO_abs="2942.094531" CO2_abs="372392.395430" HC_abs="21.943201" PMx_abs="5.082980" NOx_abs="138.843965" fuel_abs="160.075843" electricity_abs="0"
            CO_normed="138.893060" CO2_normed="17580.237088" HC_normed="1.035914" PMx_normed="0.239962" NOx_normed="6.554671" fuel_normed="7.557005" electricity_normed="0"
            traveltime="1.22" CO_perVeh="19.534451" CO2_perVeh="2472.551814" HC_perVeh="0.145695" PMx_perVeh="0.033749" NOx_perVeh="0.921874" fuel_perVeh="1.062846" electricity_perVeh="0"/>
        <edge id=":1110673549_0" sampledSeconds="59.51" CO_abs="105.765827" CO2_abs="14593.069980" HC_abs="0.816313" PMx_abs="0.182777" NOx_abs="5.323986" fuel_abs="6.272966" electricity_abs="0"
            CO_normed="4.974341" CO2_normed="686.336155" HC_normed="0.038393" PMx_normed="0.008596" NOx_normed="0.250396" fuel_normed="0.295028" electricity_normed="0"
            traveltime="1.24" CO_perVeh="2.203541" CO2_perVeh="304.034182" HC_perVeh="0.017007" PMx_perVeh="0.003808" NOx_perVeh="0.110921" fuel_perVeh="0.130692" electricity_perVeh="0"/>
        <edge id=":1110673549_1" sampledSeconds="638.46" CO_abs="14390.287858" CO2_abs="1887614.057578" HC_abs="110.701333" PMx_abs="33.269470" NOx_abs="705.481272" fuel_abs="811.398868" electricity_abs="0"
            CO_normed="654.676008" CO2_normed="85875.671765" HC_normed="5.036279" PMx_normed="1.513571" NOx_normed="32.095373" fuel_normed="36.914020" electricity_normed="0"
            traveltime="0.80" CO_perVeh="18.114539" CO2_perVeh="2376.134415" HC_perVeh="0.139351" PMx_perVeh="0.041880" NOx_perVeh="0.888062" fuel_perVeh="1.021391" electricity_perVeh="0"/>
        <edge id=":1110673556_0" sampledSeconds="428.16" CO_abs="53221.369614" CO2_abs="2627506.910338" HC_abs="304.797656" PMx_abs="53.099293" NOx_abs="1132.764106" fuel_abs="1129.451991" electricity_abs="0"
            CO_normed="1856.118757" CO2_normed="91635.463259" HC_normed="10.629953" PMx_normed="1.851861" NOx_normed="39.505648" fuel_normed="39.390137" electricity_normed="0"
            traveltime="2.66" CO_perVeh="330.372311" CO2_perVeh="16310.281691" HC_perVeh="1.892035" PMx_perVeh="0.329615" NOx_perVeh="7.031647" fuel_perVeh="7.011087" electricity_perVeh="0"/>
        <edge id=":1110673556_2" sampledSeconds="248.56" CO_abs="24697.144222" CO2_abs="1064526.963980" HC_abs="137.459182" PMx_abs="20.549763" NOx_abs="454.077744" fuel_abs="457.598279" electricity_abs="0"
            CO_normed="900.607861" CO2_normed="38819.117849" HC_normed="5.012597" PMx_normed="0.749369" NOx_normed="16.558432" fuel_normed="16.686812" electricity_normed="0"
            traveltime="3.01" CO_perVeh="299.571627" CO2_perVeh="12912.508079" HC_perVeh="1.667354" PMx_perVeh="0.249265" NOx_perVeh="5.507876" fuel_perVeh="5.550579" electricity_perVeh="0"/>
        <edge id=":1110673556_3" sampledSeconds="411.71" CO_abs="35186.336610" CO2_abs="1257041.461908" HC_abs="189.488875" PMx_abs="24.036181" NOx_abs="536.396812" fuel_abs="540.358020" electricity_abs="0"
            CO_normed="2918.857162" CO2_normed="104276.967350" HC_normed="15.718913" PMx_normed="1.993904" NOx_normed="44.496410" fuel_normed="44.825010" electricity_normed="0"
            traveltime="1.73" CO_perVeh="147.973761" CO2_perVeh="5286.402932" HC_perVeh="0.796883" PMx_perVeh="0.101083" NOx_perVeh="2.255781" fuel_perVeh="2.272439" electricity_perVeh="0"/>
        <edge id=":1110673556_4" sampledSeconds="200.57" CO_abs="20502.034019" CO2_abs="815169.936083" HC_abs="112.472738" PMx_abs="15.890594" NOx_abs="349.303311" fuel_abs="350.410562" electricity_abs="0"
            CO_normed="1039.017318" CO2_normed="41311.787874" HC_normed="5.699977" PMx_normed="0.805315" NOx_normed="17.702253" fuel_normed="17.758367" electricity_normed="0"
            traveltime="2.41" CO_perVeh="246.481804" CO2_perVeh="9800.225491" HC_perVeh="1.352182" PMx_perVeh="0.191042" NOx_perVeh="4.199433" fuel_perVeh="4.212744" electricity_perVeh="0"/>
        <edge id=":1110673556_5" sampledSeconds="25.96" CO_abs="2490.602094" CO2_abs="95953.294455" HC_abs="13.586618" PMx_abs="1.859653" NOx_abs="41.053470" fuel_abs="41.246755" electricity_abs="0"
            CO_normed="175.925870" CO2_normed="6777.745382" HC_normed="0.959703" PMx_normed="0.131358" NOx_normed="2.899848" fuel_normed="2.913501" electricity_normed="0"
            traveltime="1.79" CO_perVeh="172.189774" CO2_perVeh="6633.808012" HC_perVeh="0.939322" PMx_perVeh="0.128569" NOx_perVeh="2.838265" fuel_perVeh="2.851628" electricity_perVeh="0"/>
        <edge id=":1110673556_6" sampledSeconds="304.75" CO_abs="36237.635777" CO2_abs="1868167.369738" HC_abs="209.442820" PMx_abs="37.553222" NOx_abs="802.828303" fuel_abs="803.043713" electricity_abs="0"
            CO_normed="1295.669189" CO2_normed="66795.938763" HC_normed="7.488585" PMx_normed="1.342708" NOx_normed="28.704960" fuel_normed="28.712662" electricity_normed="0"
            traveltime="2.41" CO_perVeh="286.972925" CO2_perVeh="14794.382763" HC_perVeh="1.658619" PMx_perVeh="0.297391" NOx_perVeh="6.357754" fuel_perVeh="6.359460" electricity_perVeh="0"/>
        <edge id=":1110673561_0" sampledSeconds="99.24" CO_abs="10279.145372" CO2_abs="732749.184540" HC_abs="64.461671" PMx_abs="14.935130" NOx_abs="310.567968" fuel_abs="314.973837" electricity_abs="0"
            CO_normed="461.772488" CO2_normed="32917.465585" HC_normed="2.895827" PMx_normed="0.670934" NOx_normed="13.951719" fuel_normed="14.149644" electricity_normed="0"
            traveltime="1.17" CO_perVeh="121.303892" CO2_perVeh="8647.151584" HC_perVeh="0.760710" PMx_perVeh="0.176249" NOx_perVeh="3.665003" fuel_perVeh="3.716997" electricity_perVeh="0"/>
        <edge id=":1110673561_1" sampledSeconds="1315.22" CO_abs="120783.950035" CO2_abs="8354696.904841" HC_abs="752.102242" PMx_abs="174.822636" NOx_abs="3573.507538" fuel_abs="3591.280528" electricity_abs="0"
            CO_normed="5290.039711" CO2_normed="365915.160000" HC_normed="32.940227" PMx_normed="7.656801" NOx_normed="156.510834" fuel_normed="157.289247" electricity_normed="0"
            traveltime="1.19" CO_perVeh="109.707507" CO2_perVeh="7588.532816" HC_perVeh="0.683131" PMx_perVeh="0.158791" NOx_perVeh="3.245800" fuel_perVeh="3.261944" electricity_perVeh="0"/>
        <edge id=":1110673562_0" sampledSeconds="104.39" CO_abs="2046.972961" CO2_abs="163848.488466" HC_abs="13.046433" PMx_abs="2.146228" NOx_abs="61.996599" fuel_abs="70.432212" electricity_abs="0"
            CO_normed="5697.906642" CO2_normed="456084.866990" HC_normed="36.315751" PMx_normed="5.974189" NOx_normed="172.572300" fuel_normed="196.053478" electricity_normed="0"
            traveltime="0.03" CO_perVeh="0.521783" CO2_perVeh="41.765726" HC_perVeh="0.003326" PMx_perVeh="0.000547" NOx_perVeh="0.015803" fuel_perVeh="0.017953" electricity_perVeh="0"/>
        <edge id=":1110673564_0" sampledSeconds="28.51" CO_abs="419.208038" CO2_abs="51836.923136" HC_abs="3.090719" PMx_abs="0.680682" NOx_abs="19.218167" fuel_abs="22.282557" electricity_abs="0"
            CO_normed="3150.624085" CO2_normed="389588.566363" HC_normed="23.228789" PMx_normed="5.115769" NOx_normed="144.437162" fuel_normed="167.468072" electricity_normed="0"
            traveltime="7.838347e-03" CO_perVeh="0.115246" CO2_perVeh="14.250701" HC_perVeh="0.000850" PMx_perVeh="0.000187" NOx_perVeh="0.005283" fuel_perVeh="0.006126" electricity_perVeh="0"/>
        <edge id=":1110673588_0" sampledSeconds="11.70" CO_abs="242.821121" CO2_abs="25866.748283" HC_abs="1.707457" PMx_abs="0.389603" NOx_abs="9.944573" fuel_abs="11.118999" electricity_abs="0"
            CO_normed="729.984165" CO2_normed="77762.249534" HC_normed="5.133064" PMx_normed="1.171248" NOx_normed="29.896002" fuel_normed="33.426636" electricity_normed="0"
            traveltime="0.02" CO_perVeh="0.404702" CO2_perVeh="43.111247" HC_perVeh="0.002846" PMx_perVeh="0.000649" NOx_perVeh="0.016574" fuel_perVeh="0.018532" electricity_perVeh="0"/>
        <edge id=":1110673601_0" sampledSeconds="29.56" CO_abs="623.079223" CO2_abs="66369.083585" HC_abs="4.378062" PMx_abs="0.977332" NOx_abs="25.381229" fuel_abs="28.529239" electricity_abs="0"
            CO_normed="1672.446467" CO2_normed="178145.467421" HC_normed="11.751434" PMx_normed="2.623319" NOx_normed="68.127367" fuel_normed="76.577141" electricity_normed="0"
            traveltime="0.02" CO_perVeh="0.462458" CO2_perVeh="49.260022" HC_perVeh="0.003249" PMx_perVeh="0.000725" NOx_perVeh="0.018838" fuel_perVeh="0.021175" electricity_perVeh="0"/>
        <edge id=":1110673617_0" sampledSeconds="238.35" CO_abs="5576.730990" CO2_abs="706920.506266" HC_abs="42.350905" PMx_abs="12.573895" NOx_abs="265.807280" fuel_abs="303.872665" electricity_abs="0"
            CO_normed="13970.933586" CO2_normed="1770990.829893" HC_normed="106.098301" PMx_normed="31.500362" NOx_normed="665.905504" fuel_normed="761.267638" electricity_normed="0"
            traveltime="0.01" CO_perVeh="0.341537" CO2_perVeh="43.294156" HC_perVeh="0.002594" PMx_perVeh="0.000770" NOx_perVeh="0.016279" fuel_perVeh="0.018610" electricity_perVeh="0"/>
        <edge id=":1110673621_0" sampledSeconds="25.75" CO_abs="546.892506" CO2_abs="57511.235609" HC_abs="3.805661" PMx_abs="0.872637" NOx_abs="22.146489" fuel_abs="24.721591" electricity_abs="0"
            CO_normed="1644.102731" CO2_normed="172893.902457" HC_normed="11.440819" PMx_normed="2.623376" NOx_normed="66.578172" fuel_normed="74.319607" electricity_normed="0"
            traveltime="0.02" CO_perVeh="0.414313" CO2_perVeh="43.569118" HC_perVeh="0.002883" PMx_perVeh="0.000661" NOx_perVeh="0.016778" fuel_perVeh="0.018728" electricity_perVeh="0"/>
        <edge id=":1110673630_0" sampledSeconds="54.61" CO_abs="260.245219" CO2_abs="27018.623857" HC_abs="1.798191" PMx_abs="0.327669" NOx_abs="9.952979" fuel_abs="11.614260" electricity_abs="0"
            CO_normed="13.950884" CO2_normed="1448.378932" HC_normed="0.096395" PMx_normed="0.017565" NOx_normed="0.533546" fuel_normed="0.622602" electricity_normed="0"
            traveltime="1.27" CO_perVeh="6.074584" CO2_perVeh="630.662471" HC_perVeh="0.041973" PMx_perVeh="0.007648" NOx_perVeh="0.232320" fuel_perVeh="0.271097" electricity_perVeh="0"/>
        <edge id=":1110673630_1" sampledSeconds="7.33" CO_abs="3.344114" CO2_abs="209.676043" HC_abs="0.020093" PMx_abs="0.003442" NOx_abs="0.084775" fuel_abs="0.090131" electricity_abs="0"
            CO_normed="0.218550" CO2_normed="13.703073" HC_normed="0.001313" PMx_normed="0.000225" NOx_normed="0.005540" fuel_normed="0.005890" electricity_normed="0"
            traveltime="1.04" CO_perVeh="0.473321" CO2_perVeh="29.677225" HC_perVeh="0.002844" PMx_perVeh="0.000487" NOx_perVeh="0.011999" fuel_perVeh="0.012757" electricity_perVeh="0"/>
        <edge id=":1110673650_0" sampledSeconds="142.65" CO_abs="2332.170499" CO2_abs="285334.506162" HC_abs="17.140872" PMx_abs="3.996871" NOx_abs="107.146576" fuel_abs="122.653206" electricity_abs="0"
            CO_normed="5842.598327" CO2_normed="714825.485165" HC_normed="42.941642" PMx_normed="10.013039" NOx_normed="268.425660" fuel_normed="307.273168" electricity_normed="0"
            traveltime="0.02" CO_perVeh="0.375880" CO2_perVeh="45.987918" HC_perVeh="0.002763" PMx_perVeh="0.000644" NOx_perVeh="0.017269" fuel_perVeh="0.019768" electricity_perVeh="0"/>
        <edge id=":1110673655_0" sampledSeconds="44.87" CO_abs="896.885876" CO2_abs="89219.295092" HC_abs="6.160149" PMx_abs="1.347216" NOx_abs="34.486927" fuel_abs="38.351555" electricity_abs="0"
            CO_normed="2246.895724" CO2_normed="223513.891671" HC_normed="15.432524" PMx_normed="3.375072" NOx_normed="86.397311" fuel_normed="96.079053" electricity_normed="0"
            traveltime="0.02" CO_perVeh="0.480003" CO2_perVeh="47.749154" HC_perVeh="0.003297" PMx_perVeh="0.000721" NOx_perVeh="0.018457" fuel_perVeh="0.020525" electricity_perVeh="0"/>
        <edge id=":1110673663_0" sampledSeconds="107.79" CO_abs="1859.805838" CO2_abs="218031.029864" HC_abs="13.465091" PMx_abs="3.050995" NOx_abs="82.036261" fuel_abs="93.722351" electricity_abs="0"
            CO_normed="85.333724" CO2_normed="10003.947320" HC_normed="0.617821" PMx_normed="0.139989" NOx_normed="3.764081" fuel_normed="4.300275" electricity_normed="0"
            traveltime="1.27" CO_perVeh="21.844297" CO2_perVeh="2560.877303" HC_perVeh="0.158154" PMx_perVeh="0.035835" NOx_perVeh="0.963555" fuel_perVeh="1.100813" electricity_perVeh="0"/>
        <edge id=":1110673663_1" sampledSeconds="154.70" CO_abs="2390.863776" CO2_abs="306514.190029" HC_abs="17.831068" PMx_abs="4.108515" NOx_abs="113.697736" fuel_abs="131.757655" electricity_abs="0"
            CO_normed="109.834435" CO2_normed="14081.025110" HC_normed="0.819145" PMx_normed="0.188742" NOx_normed="5.223186" fuel_normed="6.052845" electricity_normed="0"
            traveltime="1.25" CO_perVeh="19.352790" CO2_perVeh="2481.071816" HC_perVeh="0.144333" PMx_perVeh="0.033256" NOx_perVeh="0.920324" fuel_perVeh="1.066509" electricity_perVeh="0"/>
        <edge id=":1110673666_0" sampledSeconds="191.14" CO_abs="3876.362099" CO2_abs="315260.988029" HC_abs="24.838727" PMx_abs="4.218016" NOx_abs="119.831225" fuel_abs="135.518482" electricity_abs="0"