<?xml version="1.0" encoding="UTF-8"?>

<!-- generated on ter 01 set 2020 21:23:11 by Eclipse SUMO GUI Version 1.6.0
<configuration xmlns:xsi="http://www.w3.org/2001/XMLSchema-instance" xsi:noNamespaceSchemaLocation="http://sumo.dlr.de/xsd/sumoConfiguration.xsd">

    <input>
        <net-file value="../dataSets/Angeja_Estarreja/angeja_estarreja.net.xml"/>
        <route-files value="../results/angeja_estarreja/cost_co-length/solution1/angeja_estarreja.rou.xml"/>
        <additional-files value="moreOutputInfo.xml"/>
    </input>

    <output>
        <emission-output.precision value="6"/>
        <tripinfo-output value="../results/angeja_estarreja/cost_co-length/solution1/angeja_estarreja-tripinfo"/>
    </output>

    <processing>
        <collision.action value="warn"/>
        <time-to-teleport value="-1"/>
    </processing>

    <emissions>
        <device.emissions.probability value="1"/>
    </emissions>

    <gui_only>
        <gui-settings-file value="gui-settings.xml"/>
        <quit-on-end value="true"/>
        <start value="true"/>
    </gui_only>

</configuration>
-->

<tripinfos xmlns:xsi="http://www.w3.org/2001/XMLSchema-instance" xsi:noNamespaceSchemaLocation="http://sumo.dlr.de/xsd/tripinfo_file.xsd">
    <tripinfo id="sveh22" depart="88.00" departLane="1_0" departPos="4.85" departSpeed="14.03" departDelay="0.00" arrival="141.00" arrivalLane="77477309_0" arrivalPos="222.43" arrivalSpeed="16.35" duration="53.00" routeLength="718.95" waitingTime="0.00" waitingCount="0" stopTime="0.00" timeLoss="3.15" rerouteNo="0" devices="tripinfo_sveh22 emissions_sveh22" vType="SCar" speedFactor="1.01" vaporized="">
        <emissions CO_abs="1111.363947" CO2_abs="121865.435267" HC_abs="7.834184" PMx_abs="1.861954" NOx_abs="46.773941" fuel_abs="52.384637" electricity_abs="0"/>
    </tripinfo>
    <tripinfo id="sveh24" depart="94.00" departLane="100_0" departPos="4.85" departSpeed="14.83" departDelay="0.00" arrival="145.00" arrivalLane="2_0" arrivalPos="142.18" arrivalSpeed="12.30" duration="51.00" routeLength="613.33" waitingTime="0.00" waitingCount="0" stopTime="0.00" timeLoss="3.55" rerouteNo="0" devices="tripinfo_sveh24 emissions_sveh24" vType="SCar" speedFactor="0.89" vaporized="">
        <emissions CO_abs="1106.536685" CO2_abs="102919.656223" HC_abs="7.431666" PMx_abs="1.563456" NOx_abs="39.945710" fuel_abs="44.240790" electricity_abs="0"/>
    </tripinfo>
    <tripinfo id="sveh7" depart="41.00" departLane="389783911.154_0" departPos="4.85" departSpeed="22.22" departDelay="0.00" arrival="215.00" arrivalLane="462392869_1" arrivalPos="125.48" arrivalSpeed="22.18" duration="174.00" routeLength="3746.53" waitingTime="0.00" waitingCount="0" stopTime="0.00" timeLoss="4.84" rerouteNo="0" devices="tripinfo_sveh7 emissions_sveh7" vType="SCar" speedFactor="1.05" vaporized="">
        <emissions CO_abs="4264.944013" CO2_abs="534868.000776" HC_abs="32.406679" PMx_abs="9.689871" NOx_abs="199.856941" fuel_abs="229.915229" electricity_abs="0"/>
    </tripinfo>
    <tripinfo id="sveh8" depart="42.00" departLane="389783911.154_0" departPos="4.85" departSpeed="20.72" departDelay="0.00" arrival="216.00" arrivalLane="462392869_2" arrivalPos="125.48" arrivalSpeed="22.11" duration="174.00" routeLength="3746.53" waitingTime="0.00" waitingCount="0" stopTime="0.00" timeLoss="5.03" rerouteNo="0" devices="tripinfo_sveh8 emissions_sveh8" vType="SCar" speedFactor="0.89" vaporized="">
        <emissions CO_abs="4728.803221" CO2_abs="542844.620829" HC_abs="34.755574" PMx_abs="10.093061" NOx_abs="205.940438" fuel_abs="233.343816" electricity_abs="0"/>
    </tripinfo>
    <tripinfo id="sveh12" depart="55.00" departLane="462392872_0" departPos="4.85" departSpeed="22.22" departDelay="0.00" arrival="220.00" arrivalLane="389783908_0" arrivalPos="273.35" arrivalSpeed="21.68" duration="165.00" routeLength="3556.47" waitingTime="0.00" waitingCount="0" stopTime="0.00" timeLoss="4.53" rerouteNo="0" devices="tripinfo_sveh12 emissions_sveh12" vType="SCar" speedFactor="1.03" vaporized="">
        <emissions CO_abs="3792.548055" CO2_abs="475147.653792" HC_abs="28.809019" PMx_abs="8.611539" NOx_abs="177.565901" fuel_abs="204.244189" electricity_abs="0"/>
    </tripinfo>
    <tripinfo id="sveh32" depart="147.00" departLane="1_0" departPos="4.85" departSpeed="16.28" departDelay="0.00" arrival="238.00" arrivalLane="245327988#1_0" arrivalPos="180.33" arrivalSpeed="21.29" duration="91.00" routeLength="1550.83" waitingTime="0.00" waitingCount="0" stopTime="0.00" timeLoss="11.68" rerouteNo="0" devices="tripinfo_sveh32 emissions_sveh32" vType="SCar" speedFactor="1.17" vaporized="">
        <emissions CO_abs="4848.442628" CO2_abs="384629.833497" HC_abs="31.340115" PMx_abs="7.624850" NOx_abs="157.659709" fuel_abs="165.334240" electricity_abs="0"/>
    </tripinfo>
    <tripinfo id="sveh27" depart="125.00" departLane="462392872_0" departPos="4.85" departSpeed="22.22" departDelay="0.00" arrival="290.00" arrivalLane="389783908_0" arrivalPos="273.35" arrivalSpeed="21.52" duration="165.00" routeLength="3556.47" waitingTime="0.00" waitingCount="0" stopTime="0.00" timeLoss="4.81" rerouteNo="0" devices="tripinfo_sveh27 emissions_sveh27" vType="SCar" speedFactor="0.92" vaporized="">
        <emissions CO_abs="3407.774346" CO2_abs="471317.385354" HC_abs="26.945342" PMx_abs="8.312528" NOx_abs="173.507447" fuel_abs="202.597898" electricity_abs="0"/>
    </tripinfo>
    <tripinfo id="sveh13" depart="58.00" departLane="462392872_0" departPos="4.85" departSpeed="22.22" departDelay="0.00" arrival="307.00" arrivalLane="319615436_0" arrivalPos="125.64" arrivalSpeed="22.12" duration="249.00" routeLength="4773.89" waitingTime="0.00" waitingCount="0" stopTime="0.00" timeLoss="9.90" rerouteNo="0" devices="tripinfo_sveh13 emissions_sveh13" vType="SCar" speedFactor="1.05" vaporized="">
        <emissions CO_abs="6180.729633" CO2_abs="754188.336624" HC_abs="46.006977" PMx_abs="13.175687" NOx_abs="284.847188" fuel_abs="324.191180" electricity_abs="0"/>
    </tripinfo>
    <tripinfo id="sveh35" depart="151.00" departLane="462392872_0" departPos="4.85" departSpeed="22.22" departDelay="0.00" arrival="317.00" arrivalLane="389783908_0" arrivalPos="273.35" arrivalSpeed="21.08" duration="166.00" routeLength="3556.47" waitingTime="0.00" waitingCount="0" stopTime="0.00" timeLoss="5.21" rerouteNo="0" devices="tripinfo_sveh35 emissions_sveh35" vType="SCar" speedFactor="0.99" vaporized="">
        <emissions CO_abs="3706.006389" CO2_abs="511240.045473" HC_abs="29.226342" PMx_abs="9.010907" NOx_abs="188.342528" fuel_abs="219.758824" electricity_abs="0"/>
    </tripinfo>
    <tripinfo id="sveh54" depart="264.00" departLane="24443879.82_0" departPos="4.85" departSpeed="16.72" departDelay="0.00" arrival="332.00" arrivalLane="319615436_0" arrivalPos="125.64" arrivalSpeed="21.85" duration="68.00" routeLength="1041.49" waitingTime="0.00" waitingCount="0" stopTime="0.00" timeLoss="4.50" rerouteNo="0" devices="tripinfo_sveh54 emissions_sveh54" vType="SCar" speedFactor="1.00" vaporized="">
        <emissions CO_abs="1991.531633" CO2_abs="204634.751701" HC_abs="13.906575" PMx_abs="3.543266" NOx_abs="80.412684" fuel_abs="87.963131" electricity_abs="0"/>
    </tripinfo>
    <tripinfo id="sveh19" depart="77.00" departLane="319615443_0" departPos="4.85" departSpeed="22.22" departDelay="0.00" arrival="359.00" arrivalLane="462392869_1" arrivalPos="125.48" arrivalSpeed="21.11" duration="282.00" routeLength="5127.13" waitingTime="1.00" waitingCount="1" stopTime="0.00" timeLoss="17.84" rerouteNo="0" devices="tripinfo_sveh19 emissions_sveh19" vType="SCar" speedFactor="0.94" vaporized="">
        <emissions CO_abs="7252.961288" CO2_abs="811319.629547" HC_abs="52.417279" PMx_abs="14.124813" NOx_abs="308.687238" fuel_abs="348.749687" electricity_abs="0"/>
    </tripinfo>
    <tripinfo id="sveh29" depart="136.00" departLane="319615443_0" departPos="4.85" departSpeed="22.22" departDelay="0.00" arrival="401.00" arrivalLane="462392869_2" arrivalPos="125.48" arrivalSpeed="21.14" duration="265.00" routeLength="5127.13" waitingTime="1.00" waitingCount="1" stopTime="0.00" timeLoss="17.61" rerouteNo="0" devices="tripinfo_sveh29 emissions_sveh29" vType="SCar" speedFactor="1.13" vaporized="">
        <emissions CO_abs="7838.985765" CO2_abs="818514.496532" HC_abs="55.447222" PMx_abs="15.129488" NOx_abs="316.660953" fuel_abs="351.841590" electricity_abs="0"/>
    </tripinfo>
    <tripinfo id="sveh49" depart="226.00" departLane="389783911.154_0" departPos="4.85" departSpeed="22.22" departDelay="0.00" arrival="401.00" arrivalLane="462392869_1" arrivalPos="125.48" arrivalSpeed="21.01" duration="175.00" routeLength="3746.53" waitingTime="0.00" waitingCount="0" stopTime="0.00" timeLoss="5.59" rerouteNo="0" devices="tripinfo_sveh49 emissions_sveh49" vType="SCar" speedFactor="0.88" vaporized="">
        <emissions CO_abs="4132.837468" CO2_abs="535940.906118" HC_abs="31.809033" PMx_abs="9.609861" NOx_abs="199.369885" fuel_abs="230.376477" electricity_abs="0"/>
    </tripinfo>
    <tripinfo id="sveh51" depart="239.00" departLane="27_0" departPos="4.85" departSpeed="16.62" departDelay="0.00" arrival="413.00" arrivalLane="389783908_0" arrivalPos="273.35" arrivalSpeed="21.01" duration="174.00" routeLength="3248.08" waitingTime="0.00" waitingCount="0" stopTime="0.00" timeLoss="7.65" rerouteNo="0" devices="tripinfo_sveh51 emissions_sveh51" vType="SCar" speedFactor="0.85" vaporized="">
        <emissions CO_abs="4848.921350" CO2_abs="509386.416931" HC_abs="34.375760" PMx_abs="9.202999" NOx_abs="195.648151" fuel_abs="218.962014" electricity_abs="0"/>
    </tripinfo>
    <tripinfo id="sveh72" depart="435.00" departLane="1_0" departPos="4.85" departSpeed="14.66" departDelay="0.00" arrival="487.00" arrivalLane="77477309_0" arrivalPos="222.43" arrivalSpeed="17.59" duration="52.00" routeLength="718.95" waitingTime="0.00" waitingCount="0" stopTime="0.00" timeLoss="4.49" rerouteNo="0" devices="tripinfo_sveh72 emissions_sveh72" vType="SCar" speedFactor="1.06" vaporized="">
        <emissions CO_abs="1465.855799" CO2_abs="140643.161618" HC_abs="9.939301" PMx_abs="2.358735" NOx_abs="55.299125" fuel_abs="60.456209" electricity_abs="0"/>
    </tripinfo>
    <tripinfo id="sveh58" depart="321.00" departLane="389783911.154_0" departPos="4.85" departSpeed="22.22" departDelay="0.00" arrival="495.00" arrivalLane="462392869_1" arrivalPos="125.48" arrivalSpeed="21.68" duration="174.00" routeLength="3746.53" waitingTime="0.00" waitingCount="0" stopTime="0.00" timeLoss="4.94" rerouteNo="0" devices="tripinfo_sveh58 emissions_sveh58" vType="SCar" speedFactor="1.02" vaporized="">
        <emissions CO_abs="4134.277852" CO2_abs="546885.313197" HC_abs="32.078327" PMx_abs="9.760350" NOx_abs="202.619994" fuel_abs="235.081030" electricity_abs="0"/>
    </tripinfo>
    <tripinfo id="sveh21" depart="86.00" departLane="248846659#1.206_0" departPos="4.85" departSpeed="11.31" departDelay="0.00" arrival="499.00" arrivalLane="188949094#1_0" arrivalPos="37.15" arrivalSpeed="17.28" duration="413.00" routeLength="5895.24" waitingTime="0.00" waitingCount="0" stopTime="0.00" timeLoss="31.56" rerouteNo="0" devices="tripinfo_sveh21 emissions_sveh21" vType="SCar" speedFactor="1.02" vaporized="">
        <emissions CO_abs="9423.681606" CO2_abs="989832.294914" HC_abs="65.825097" PMx_abs="15.922688" NOx_abs="382.339431" fuel_abs="425.485189" electricity_abs="0"/>
    </tripinfo>
    <tripinfo id="sveh20" depart="80.00" departLane="248846659#1.206_0" departPos="4.85" departSpeed="12.87" departDelay="0.00" arrival="505.00" arrivalLane="77477309_0" arrivalPos="222.43" arrivalSpeed="19.24" duration="425.00" routeLength="6518.69" waitingTime="0.00" waitingCount="0" stopTime="0.00" timeLoss="31.88" rerouteNo="0" devices="tripinfo_sveh20 emissions_sveh20" vType="SCar" speedFactor="1.16" vaporized="">
        <emissions CO_abs="11395.618412" CO2_abs="1199549.155013" HC_abs="79.711200" PMx_abs="20.059271" NOx_abs="465.377156" fuel_abs="515.632294" electricity_abs="0"/>
    </tripinfo>
    <tripinfo id="sveh23" depart="92.00" departLane="27_0" departPos="4.85" departSpeed="18.95" departDelay="0.00" arrival="527.00" arrivalLane="-248846659#1_0" arrivalPos="144.53" arrivalSpeed="9.92" duration="435.00" routeLength="5825.70" waitingTime="0.00" waitingCount="0" stopTime="0.00" timeLoss="24.07" rerouteNo="0" devices="tripinfo_sveh23 emissions_sveh23" vType="SCar" speedFactor="0.98" vaporized="">
        <emissions CO_abs="7978.530364" CO2_abs="935308.181275" HC_abs="57.783215" PMx_abs="13.594237" NOx_abs="353.843659" fuel_abs="402.048919" electricity_abs="0"/>
    </tripinfo>
    <tripinfo id="sveh50" depart="237.00" departLane="319615443_0" departPos="4.85" departSpeed="22.22" departDelay="0.00" arrival="532.00" arrivalLane="462392869_1" arrivalPos="125.48" arrivalSpeed="21.43" duration="295.00" routeLength="5127.13" waitingTime="1.00" waitingCount="1" stopTime="0.00" timeLoss="20.20" rerouteNo="0" devices="tripinfo_sveh50 emissions_sveh50" vType="SCar" speedFactor="0.85" vaporized="">
        <emissions CO_abs="7407.252828" CO2_abs="804336.768357" HC_abs="52.970003" PMx_abs="13.994821" NOx_abs="306.719467" fuel_abs="345.748198" electricity_abs="0"/>
    </tripinfo>
    <tripinfo id="sveh39" depart="170.00" departLane="248846659#1.206_0" departPos="4.85" departSpeed="12.25" departDelay="0.00" arrival="545.00" arrivalLane="188949094#1_0" arrivalPos="37.15" arrivalSpeed="16.17" duration="375.00" routeLength="5895.24" waitingTime="0.00" waitingCount="0" stopTime="0.00" timeLoss="22.41" rerouteNo="0" devices="tripinfo_sveh39 emissions_sveh39" vType="SCar" speedFactor="1.10" vaporized="">
        <emissions CO_abs="8327.296470" CO2_abs="990629.216040" HC_abs="60.953615" PMx_abs="16.032546" NOx_abs="378.137686" fuel_abs="425.827187" electricity_abs="0"/>
    </tripinfo>
    <tripinfo id="sveh6" depart="31.00" departLane="319611362_0" departPos="4.85" departSpeed="22.22" departDelay="0.00" arrival="549.00" arrivalLane="319615436_1" arrivalPos="125.64" arrivalSpeed="21.70" duration="518.00" routeLength="11178.14" waitingTime="0.00" waitingCount="0" stopTime="0.00" timeLoss="14.72" rerouteNo="0" devices="tripinfo_sveh6 emissions_sveh6" vType="SCar" speedFactor="1.03" vaporized="">
        <emissions CO_abs="12264.233399" CO2_abs="1553948.314970" HC_abs="93.643672" PMx_abs="28.080587" NOx_abs="579.837082" fuel_abs="667.971182" electricity_abs="0"/>
    </tripinfo>
    <tripinfo id="sveh31" depart="141.00" departLane="248846659#1.206_0" departPos="4.85" departSpeed="13.09" departDelay="0.00" arrival="556.00" arrivalLane="77477309_0" arrivalPos="222.43" arrivalSpeed="19.57" duration="415.00" routeLength="6518.69" waitingTime="0.00" waitingCount="0" stopTime="0.00" timeLoss="28.73" rerouteNo="0" devices="tripinfo_sveh31 emissions_sveh31" vType="SCar" speedFactor="1.18" vaporized="">
        <emissions CO_abs="10633.067285" CO2_abs="1175844.697751" HC_abs="75.492797" PMx_abs="19.423181" NOx_abs="453.069783" fuel_abs="505.442846" electricity_abs="0"/>
    </tripinfo>
    <tripinfo id="sveh9" depart="45.00" departLane="319615443_0" departPos="4.85" departSpeed="22.22" departDelay="0.00" arrival="560.00" arrivalLane="319611370_1" arrivalPos="380.09" arrivalSpeed="21.63" duration="515.00" routeLength="11083.48" waitingTime="0.00" waitingCount="0" stopTime="0.00" timeLoss="15.72" rerouteNo="0" devices="tripinfo_sveh9 emissions_sveh9" vType="SCar" speedFactor="0.94" vaporized="">
        <emissions CO_abs="12399.174992" CO2_abs="1585218.255059" HC_abs="94.862230" PMx_abs="28.539626" NOx_abs="590.790402" fuel_abs="681.412739" electricity_abs="0"/>
    </tripinfo>
    <tripinfo id="sveh10" depart="52.00" departLane="319611362_0" departPos="4.85" departSpeed="22.22" departDelay="0.00" arrival="571.00" arrivalLane="319615436_1" arrivalPos="125.64" arrivalSpeed="21.26" duration="519.00" routeLength="11178.14" waitingTime="0.00" waitingCount="0" stopTime="0.00" timeLoss="15.12" rerouteNo="0" devices="tripinfo_sveh10 emissions_sveh10" vType="SCar" speedFactor="0.86" vaporized="">
        <emissions CO_abs="12062.772562" CO2_abs="1540015.074725" HC_abs="92.324324" PMx_abs="27.760847" NOx_abs="573.904527" fuel_abs="661.981965" electricity_abs="0"/>
    </tripinfo>
    <tripinfo id="sveh18" depart="72.00" departLane="319611362_0" departPos="4.85" departSpeed="22.22" departDelay="0.00" arrival="590.00" arrivalLane="319615436_1" arrivalPos="125.64" arrivalSpeed="21.83" duration="518.00" routeLength="11178.14" waitingTime="0.00" waitingCount="0" stopTime="0.00" timeLoss="14.66" rerouteNo="0" devices="tripinfo_sveh18 emissions_sveh18" vType="SCar" speedFactor="0.94" vaporized="">
        <emissions CO_abs="11333.718473" CO2_abs="1511982.718349" HC_abs="88.310885" PMx_abs="26.936121" NOx_abs="559.448620" fuel_abs="649.932394" electricity_abs="0"/>
    </tripinfo>
    <tripinfo id="sveh71" depart="423.00" departLane="27_0" departPos="4.85" departSpeed="18.91" departDelay="0.00" arrival="590.00" arrivalLane="389783908_0" arrivalPos="273.35" arrivalSpeed="21.50" duration="167.00" routeLength="3248.08" waitingTime="0.00" waitingCount="0" stopTime="0.00" timeLoss="6.35" rerouteNo="0" devices="tripinfo_sveh71 emissions_sveh71" vType="SCar" speedFactor="0.97" vaporized="">
        <emissions CO_abs="4366.321485" CO2_abs="490203.257190" HC_abs="31.701622" PMx_abs="8.832560" NOx_abs="187.111337" fuel_abs="210.715927" electricity_abs="0"/>
    </tripinfo>
    <tripinfo id="sveh38" depart="165.00" departLane="248846659#1.206_0" departPos="4.85" departSpeed="13.11" departDelay="0.00" arrival="594.00" arrivalLane="77477309_0" arrivalPos="222.43" arrivalSpeed="18.51" duration="429.00" routeLength="6518.69" waitingTime="8.00" waitingCount="1" stopTime="0.00" timeLoss="43.36" rerouteNo="0" devices="tripinfo_sveh38 emissions_sveh38" vType="SCar" speedFactor="1.18" vaporized="">
        <emissions CO_abs="11831.327822" CO2_abs="1155787.165714" HC_abs="80.520827" PMx_abs="19.598621" NOx_abs="450.027704" fuel_abs="496.821273" electricity_abs="0"/>
    </tripinfo>
    <tripinfo id="sveh44" depart="191.00" departLane="27_0" departPos="4.85" departSpeed="20.17" departDelay="0.00" arrival="601.00" arrivalLane="-248846659#1_0" arrivalPos="144.53" arrivalSpeed="11.36" duration="410.00" routeLength="5825.70" waitingTime="0.00" waitingCount="0" stopTime="0.00" timeLoss="24.90" rerouteNo="0" devices="tripinfo_sveh44 emissions_sveh44" vType="SCar" speedFactor="1.04" vaporized="">
        <emissions CO_abs="7638.587391" CO2_abs="918428.655063" HC_abs="55.966438" PMx_abs="13.849977" NOx_abs="348.486649" fuel_abs="394.792427" electricity_abs="0"/>
    </tripinfo>
    <tripinfo id="sveh85" depart="535.00" departLane="27_0" departPos="4.85" departSpeed="19.47" departDelay="0.00" arrival="604.00" arrivalLane="462392869_0" arrivalPos="125.48" arrivalSpeed="21.31" duration="69.00" routeLength="996.02" waitingTime="0.00" waitingCount="0" stopTime="0.00" timeLoss="6.65" rerouteNo="0" devices="tripinfo_sveh85 emissions_sveh85" vType="SCar" speedFactor="1.00" vaporized="">
        <emissions CO_abs="2552.180254" CO2_abs="221531.807733" HC_abs="16.861219" PMx_abs="3.954756" NOx_abs="88.711673" fuel_abs="95.226469" electricity_abs="0"/>
    </tripinfo>
    <tripinfo id="sveh25" depart="103.00" departLane="319615443_0" departPos="4.85" departSpeed="22.22" departDelay="0.00" arrival="617.00" arrivalLane="319611370_1" arrivalPos="380.09" arrivalSpeed="21.98" duration="514.00" routeLength="11083.48" waitingTime="0.00" waitingCount="0" stopTime="0.00" timeLoss="14.88" rerouteNo="0" devices="tripinfo_sveh25 emissions_sveh25" vType="SCar" speedFactor="0.83" vaporized="">
        <emissions CO_abs="12055.848715" CO2_abs="1565751.685359" HC_abs="92.928662" PMx_abs="28.093105" NOx_abs="581.972511" fuel_abs="673.045052" electricity_abs="0"/>
    </tripinfo>
    <tripinfo id="sveh74" depart="450.00" departLane="389783911.154_0" departPos="4.85" departSpeed="22.22" departDelay="0.00" arrival="624.00" arrivalLane="462392869_1" arrivalPos="125.48" arrivalSpeed="21.33" duration="174.00" routeLength="3746.53" waitingTime="0.00" waitingCount="0" stopTime="0.00" timeLoss="4.97" rerouteNo="0" devices="tripinfo_sveh74 emissions_sveh74" vType="SCar" speedFactor="0.98" vaporized="">
        <emissions CO_abs="3647.931485" CO2_abs="520175.716133" HC_abs="29.254185" PMx_abs="9.108393" NOx_abs="190.650254" fuel_abs="223.599925" electricity_abs="0"/>
    </tripinfo>
    <tripinfo id="sveh15" depart="62.00" departLane="319611362_0" departPos="4.85" departSpeed="22.22" departDelay="0.00" arrival="642.00" arrivalLane="95223234_0" arrivalPos="261.08" arrivalSpeed="12.59" duration="580.00" routeLength="11795.50" waitingTime="0.00" waitingCount="0" stopTime="0.00" timeLoss="21.89" rerouteNo="0" devices="tripinfo_sveh15 emissions_sveh15" vType="SCar" speedFactor="0.99" vaporized="">
        <emissions CO_abs="13877.449003" CO2_abs="1682447.849579" HC_abs="103.637673" PMx_abs="30.029924" NOx_abs="632.821139" fuel_abs="723.207498" electricity_abs="0"/>
    </tripinfo>
    <tripinfo id="sveh69" depart="408.00" departLane="27_0" departPos="4.85" departSpeed="19.89" departDelay="0.00" arrival="659.00" arrivalLane="319615436_0" arrivalPos="125.64" arrivalSpeed="20.96" duration="251.00" routeLength="4465.50" waitingTime="0.00" waitingCount="0" stopTime="0.00" timeLoss="11.26" rerouteNo="0" devices="tripinfo_sveh69 emissions_sveh69" vType="SCar" speedFactor="1.02" vaporized="">
        <emissions CO_abs="6053.655402" CO2_abs="712931.310360" HC_abs="44.586735" PMx_abs="12.288576" NOx_abs="271.318792" fuel_abs="306.456816" electricity_abs="0"/>
    </tripinfo>
    <tripinfo id="sveh36" depart="152.00" departLane="319615443_0" departPos="4.85" departSpeed="22.22" departDelay="0.00" arrival="667.00" arrivalLane="319611370_1" arrivalPos="380.09" arrivalSpeed="20.96" duration="515.00" routeLength="11083.48" waitingTime="0.00" waitingCount="0" stopTime="0.00" timeLoss="15.47" rerouteNo="0" devices="tripinfo_sveh36 emissions_sveh36" vType="SCar" speedFactor="1.02" vaporized="">
        <emissions CO_abs="12199.559967" CO2_abs="1517506.847203" HC_abs="92.443425" PMx_abs="27.555225" NOx_abs="568.047396" fuel_abs="652.306548" electricity_abs="0"/>
    </tripinfo>
    <tripinfo id="sveh3" depart="22.00" departLane="516175821_0" departPos="4.85" departSpeed="22.22" departDelay="0.00" arrival="668.00" arrivalLane="462392869_1" arrivalPos="125.48" arrivalSpeed="21.25" duration="646.00" routeLength="13909.04" waitingTime="0.00" waitingCount="0" stopTime="0.00" timeLoss="19.43" rerouteNo="0" devices="tripinfo_sveh3 emissions_sveh3" vType="SCar" speedFactor="1.01" vaporized="">
        <emissions CO_abs="14248.509328" CO2_abs="1896540.249089" HC_abs="110.849235" PMx_abs="33.780368" NOx_abs="702.359474" fuel_abs="815.236091" electricity_abs="0"/>
    </tripinfo>
    <tripinfo id="sveh87" depart="549.00" departLane="516175821_0" departPos="4.85" departSpeed="22.22" departDelay="0.00" arrival="670.00" arrivalLane="2_0" arrivalPos="142.18" arrivalSpeed="12.78" duration="121.00" routeLength="1876.02" waitingTime="0.00" waitingCount="0" stopTime="0.00" timeLoss="10.54" rerouteNo="0" devices="tripinfo_sveh87 emissions_sveh87" vType="SCar" speedFactor="1.01" vaporized="">
        <emissions CO_abs="3369.527980" CO2_abs="318051.920054" HC_abs="22.906387" PMx_abs="5.612651" NOx_abs="125.071188" fuel_abs="136.716130" electricity_abs="0"/>
    </tripinfo>
    <tripinfo id="sveh93" depart="562.00" departLane="516175821_0" departPos="4.85" departSpeed="22.22" departDelay="0.00" arrival="674.00" arrivalLane="2_0" arrivalPos="142.18" arrivalSpeed="14.25" duration="112.00" routeLength="1876.02" waitingTime="0.00" waitingCount="0" stopTime="0.00" timeLoss="8.23" rerouteNo="0" devices="tripinfo_sveh93 emissions_sveh93" vType="SCar" speedFactor="1.09" vaporized="">
        <emissions CO_abs="3253.819011" CO2_abs="324973.857514" HC_abs="22.505530" PMx_abs="5.774346" NOx_abs="127.565993" fuel_abs="139.691375" electricity_abs="0"/>
    </tripinfo>
    <tripinfo id="sveh1" depart="1.00" departLane="516175821_0" departPos="4.85" departSpeed="22.22" departDelay="0.00" arrival="683.00" arrivalLane="389783908_0" arrivalPos="273.35" arrivalSpeed="22.02" duration="682.00" routeLength="14621.90" waitingTime="0.00" waitingCount="0" stopTime="0.00" timeLoss="19.46" rerouteNo="0" devices="tripinfo_sveh1 emissions_sveh1" vType="SCar" speedFactor="1.06" vaporized="">
        <emissions CO_abs="17202.579096" CO2_abs="2071195.834404" HC_abs="128.487658" PMx_abs="37.849071" NOx_abs="779.783661" fuel_abs="890.311799" electricity_abs="0"/>
    </tripinfo>
    <tripinfo id="sveh43" depart="183.00" departLane="319615443_0" departPos="4.85" departSpeed="22.22" departDelay="0.00" arrival="698.00" arrivalLane="319611370_1" arrivalPos="380.09" arrivalSpeed="21.90" duration="515.00" routeLength="11083.48" waitingTime="0.00" waitingCount="0" stopTime="0.00" timeLoss="15.64" rerouteNo="0" devices="tripinfo_sveh43 emissions_sveh43" vType="SCar" speedFactor="1.09" vaporized="">
        <emissions CO_abs="11743.989592" CO2_abs="1544057.751026" HC_abs="91.036258" PMx_abs="27.615114" NOx_abs="573.037675" fuel_abs="663.719877" electricity_abs="0"/>
    </tripinfo>
    <tripinfo id="sveh2" depart="16.00" departLane="462392872_0" departPos="4.85" departSpeed="22.22" departDelay="0.00" arrival="701.00" arrivalLane="245327988#1_0" arrivalPos="180.33" arrivalSpeed="22.11" duration="685.00" routeLength="14544.77" waitingTime="0.00" waitingCount="0" stopTime="0.00" timeLoss="21.72" rerouteNo="0" devices="tripinfo_sveh2 emissions_sveh2" vType="SCar" speedFactor="0.94" vaporized="">
        <emissions CO_abs="16686.958874" CO2_abs="2060142.185551" HC_abs="125.987028" PMx_abs="37.302533" NOx_abs="772.907537" fuel_abs="885.560589" electricity_abs="0"/>
    </tripinfo>
    <tripinfo id="sveh86" depart="537.00" departLane="462392872_0" departPos="4.85" departSpeed="22.22" departDelay="0.00" arrival="703.00" arrivalLane="389783908_0" arrivalPos="273.35" arrivalSpeed="22.12" duration="166.00" routeLength="3556.47" waitingTime="0.00" waitingCount="0" stopTime="0.00" timeLoss="4.96" rerouteNo="0" devices="tripinfo_sveh86 emissions_sveh86" vType="SCar" speedFactor="1.04" vaporized="">
        <emissions CO_abs="4049.221547" CO2_abs="502875.585071" HC_abs="30.693939" PMx_abs="9.139565" NOx_abs="188.347490" fuel_abs="216.163128" electricity_abs="0"/>
    </tripinfo>
    <tripinfo id="sveh14" depart="59.00" departLane="516175821_0" departPos="4.85" departSpeed="22.22" departDelay="0.00" arrival="704.00" arrivalLane="462392869_1" arrivalPos="125.48" arrivalSpeed="21.77" duration="645.00" routeLength="13909.04" waitingTime="0.00" waitingCount="0" stopTime="0.00" timeLoss="18.54" rerouteNo="0" devices="tripinfo_sveh14 emissions_sveh14" vType="SCar" speedFactor="1.12" vaporized="">
        <emissions CO_abs="15213.996176" CO2_abs="1903308.560992" HC_abs="115.546515" PMx_abs="34.512718" NOx_abs="711.611845" fuel_abs="818.145053" electricity_abs="0"/>
    </tripinfo>
    <tripinfo id="sveh88" depart="550.00" departLane="462392872_0" departPos="4.85" departSpeed="22.22" departDelay="0.00" arrival="715.00" arrivalLane="389783908_0" arrivalPos="273.35" arrivalSpeed="21.98" duration="165.00" routeLength="3556.47" waitingTime="0.00" waitingCount="0" stopTime="0.00" timeLoss="4.80" rerouteNo="0" devices="tripinfo_sveh88 emissions_sveh88" vType="SCar" speedFactor="1.02" vaporized="">
        <emissions CO_abs="3743.323679" CO2_abs="506093.011332" HC_abs="29.327554" PMx_abs="8.981456" NOx_abs="186.945132" fuel_abs="217.546317" electricity_abs="0"/>
    </tripinfo>
    <tripinfo id="sveh89" depart="552.00" departLane="462392872_0" departPos="4.85" departSpeed="22.22" departDelay="0.00" arrival="717.00" arrivalLane="389783908_0" arrivalPos="273.35" arrivalSpeed="21.52" duration="165.00" routeLength="3556.47" waitingTime="0.00" waitingCount="0" stopTime="0.00" timeLoss="4.88" rerouteNo="0" devices="tripinfo_sveh89 emissions_sveh89" vType="SCar" speedFactor="1.02" vaporized="">
        <emissions CO_abs="3717.764034" CO2_abs="464582.011659" HC_abs="28.243376" PMx_abs="8.428595" NOx_abs="173.805660" fuel_abs="199.702491" electricity_abs="0"/>
    </tripinfo>
    <tripinfo id="sveh17" depart="69.00" departLane="516175821_0" departPos="4.85" departSpeed="22.22" departDelay="0.00" arrival="718.00" arrivalLane="462392869_1" arrivalPos="125.48" arrivalSpeed="21.88" duration="649.00" routeLength="13909.04" waitingTime="0.00" waitingCount="0" stopTime="0.00" timeLoss="19.20" rerouteNo="0" devices="tripinfo_sveh17 emissions_sveh17" vType="SCar" speedFactor="0.88" vaporized="">
        <emissions CO_abs="15820.291335" CO2_abs="1965825.255621" HC_abs="119.553479" PMx_abs="35.607556" NOx_abs="736.459833" fuel_abs="845.018039" electricity_abs="0"/>
    </tripinfo>
    <tripinfo id="sveh46" depart="215.00" departLane="319615443_0" departPos="4.85" departSpeed="22.22" departDelay="0.00" arrival="730.00" arrivalLane="319611370_1" arrivalPos="380.09" arrivalSpeed="21.42" duration="515.00" routeLength="11083.48" waitingTime="0.00" waitingCount="0" stopTime="0.00" timeLoss="15.24" rerouteNo="0" devices="tripinfo_sveh46 emissions_sveh46" vType="SCar" speedFactor="1.09" vaporized="">
        <emissions CO_abs="12038.020858" CO2_abs="1553854.457123" HC_abs="92.559393" PMx_abs="27.922748" NOx_abs="578.197011" fuel_abs="667.930937" electricity_abs="0"/>
    </tripinfo>
    <tripinfo id="sveh48" depart="226.00" departLane="319615443_0" departPos="4.85" departSpeed="22.22" departDelay="0.00" arrival="741.00" arrivalLane="319611370_1" arrivalPos="380.09" arrivalSpeed="21.93" duration="515.00" routeLength="11083.48" waitingTime="0.00" waitingCount="0" stopTime="0.00" timeLoss="15.67" rerouteNo="0" devices="tripinfo_sveh48 emissions_sveh48" vType="SCar" speedFactor="0.90" vaporized="">