<?xml version="1.0" encoding="UTF-8"?>

<!-- generated on ter 01 set 2020 21:23:11 by Eclipse SUMO GUI Version 1.6.0
<configuration xmlns:xsi="http://www.w3.org/2001/XMLSchema-instance" xsi:noNamespaceSchemaLocation="http://sumo.dlr.de/xsd/sumoConfiguration.xsd">

    <input>
        <net-file value="../dataSets/Angeja_Estarreja/angeja_estarreja.net.xml"/>
        <route-files value="../results/angeja_estarreja/cost_co-length/solution1/angeja_estarreja.rou.xml"/>
        <additional-files value="moreOutputInfo.xml"/>
    </input>

    <output>
        <emission-output.precision value="6"/>
        <tripinfo-output value="../results/angeja_estarreja/cost_co-length/solution1/angeja_estarreja-tripinfo"/>
    </output>

    <processing>
        <collision.action value="warn"/>
        <time-to-teleport value="-1"/>
    </processing>

    <emissions>
        <device.emissions.probability value="1"/>
    </emissions>

    <gui_only>
        <gui-settings-file value="gui-settings.xml"/>
        <quit-on-end value="true"/>
        <start value="true"/>
    </gui_only>

</configuration>
-->

<meandata xmlns:xsi="http://www.w3.org/2001/XMLSchema-instance" xsi:noNamespaceSchemaLocation="http://sumo.dlr.de/xsd/meandata_file.xsd">
    <interval begin="0.00" end="19079.00" id="emissions-detector">
        <edge id=":10_0" sampledSeconds="384.52" CO_abs="40624.211467" CO2_abs="2217371.364531" HC_abs="237.655094" PMx_abs="43.886045" NOx_abs="949.015415" fuel_abs="953.150237" electricity_abs="0"
            CO_normed="438.270286" CO2_normed="23921.891594" HC_normed="2.563918" PMx_normed="0.473460" NOx_normed="10.238359" fuel_normed="10.282967" electricity_normed="0"
            traveltime="1.92" CO_perVeh="203.035083" CO2_perVeh="11082.164112" HC_perVeh="1.187773" PMx_perVeh="0.219337" NOx_perVeh="4.743069" fuel_perVeh="4.763734" electricity_perVeh="0"/>
        <edge id=":10_1" sampledSeconds="0.00" CO_abs="0" CO2_abs="0" HC_abs="0" PMx_abs="0" NOx_abs="0" fuel_abs="0" electricity_abs="0"
            CO_normed="0" CO2_normed="0" HC_normed="0" PMx_normed="0" NOx_normed="0" fuel_normed="0" electricity_normed="0"/>
        <edge id=":100_0" sampledSeconds="0.00" CO_abs="0" CO2_abs="0" HC_abs="0" PMx_abs="0" NOx_abs="0" fuel_abs="0" electricity_abs="0"
            CO_normed="0" CO2_normed="0" HC_normed="0" PMx_normed="0" NOx_normed="0" fuel_normed="0" electricity_normed="0"/>
        <edge id=":100_1" sampledSeconds="911.62" CO_abs="21926.083771" CO2_abs="2732791.009134" HC_abs="166.288847" PMx_abs="49.598185" NOx_abs="1022.623546" fuel_abs="1174.701456" electricity_abs="0"
            CO_normed="139.959871" CO2_normed="17444.112676" HC_normed="1.061465" PMx_normed="0.316598" NOx_normed="6.527671" fuel_normed="7.498424" electricity_normed="0"
            traveltime="1.37" CO_perVeh="32.967815" CO2_perVeh="4108.994026" HC_perVeh="0.250030" PMx_perVeh="0.074575" NOx_perVeh="1.537605" fuel_perVeh="1.766268" electricity_perVeh="0"/>
        <edge id=":101_0" sampledSeconds="437.98" CO_abs="11191.711835" CO2_abs="1381264.028568" HC_abs="84.542156" PMx_abs="25.140651" NOx_abs="517.609731" fuel_abs="593.741978" electricity_abs="0"
            CO_normed="258.476673" CO2_normed="31900.797341" HC_normed="1.952532" PMx_normed="0.580633" NOx_normed="11.954386" fuel_normed="13.712688" electricity_normed="0"
            traveltime="0.38" CO_perVeh="9.668207" CO2_perVeh="1193.235387" HC_perVeh="0.073034" PMx_perVeh="0.021718" NOx_perVeh="0.447149" fuel_perVeh="0.512917" electricity_perVeh="0"/>
        <edge id=":102_0" sampledSeconds="341.12" CO_abs="8754.845677" CO2_abs="1063972.743398" HC_abs="65.754053" PMx_abs="19.452777" NOx_abs="399.771148" fuel_abs="457.352957" electricity_abs="0"
            CO_normed="203.943735" CO2_normed="24785.197067" HC_normed="1.531738" PMx_normed="0.453152" NOx_normed="9.312651" fuel_normed="10.654017" electricity_normed="0"
            traveltime="0.38" CO_perVeh="9.631097" CO2_perVeh="1170.463221" HC_perVeh="0.072335" PMx_perVeh="0.021400" NOx_perVeh="0.439783" fuel_perVeh="0.503128" electricity_perVeh="0"/>
        <edge id=":103_0" sampledSeconds="434.58" CO_abs="10564.716848" CO2_abs="1286628.967795" HC_abs="79.433543" PMx_abs="23.510321" NOx_abs="483.358651" fuel_abs="553.062634" electricity_abs="0"
            CO_normed="247.633202" CO2_normed="30158.125037" HC_normed="1.861894" PMx_normed="0.551074" NOx_normed="11.329755" fuel_normed="12.963591" electricity_normed="0"
            traveltime="0.37" CO_perVeh="9.076798" CO2_perVeh="1105.422130" HC_perVeh="0.068246" PMx_perVeh="0.020199" NOx_perVeh="0.415283" fuel_perVeh="0.475170" electricity_perVeh="0"/>
        <edge id=":104_0" sampledSeconds="340.74" CO_abs="9147.389205" CO2_abs="1103175.278627" HC_abs="68.463139" PMx_abs="20.207466" NOx_abs="415.024872" fuel_abs="474.204291" electricity_abs="0"
            CO_normed="213.351416" CO2_normed="25730.184016" HC_normed="1.596817" PMx_normed="0.471314" NOx_normed="9.679936" fuel_normed="11.060222" electricity_normed="0"
            traveltime="0.37" CO_perVeh="10.058334" CO2_perVeh="1213.035182" HC_perVeh="0.075281" PMx_perVeh="0.022220" NOx_perVeh="0.456355" fuel_perVeh="0.521428" electricity_perVeh="0"/>
        <edge id=":105_0" sampledSeconds="168.65" CO_abs="3841.735333" CO2_abs="500741.564854" HC_abs="29.605747" PMx_abs="8.968397" NOx_abs="185.931245" fuel_abs="215.245914" electricity_abs="0"
            CO_normed="3294.971434" CO2_normed="429474.966164" HC_normed="25.392194" PMx_normed="7.691995" NOx_normed="159.469117" fuel_normed="184.611660" electricity_normed="0"
            traveltime="0.01" CO_perVeh="0.232318" CO2_perVeh="30.280905" HC_perVeh="0.001790" PMx_perVeh="0.000542" NOx_perVeh="0.011244" fuel_perVeh="0.013016" electricity_perVeh="0"/>
        <edge id=":106_0" sampledSeconds="134.17" CO_abs="3718.422014" CO2_abs="446310.479118" HC_abs="27.799146" PMx_abs="8.189843" NOx_abs="168.063915" fuel_abs="191.848328" electricity_abs="0"
            CO_normed="2263.309136" CO2_normed="271657.864807" HC_normed="16.920635" PMx_normed="4.984950" NOx_normed="102.296241" fuel_normed="116.773210" electricity_normed="0"
            traveltime="0.01" CO_perVeh="0.397571" CO2_perVeh="47.719253" HC_perVeh="0.002972" PMx_perVeh="0.000876" NOx_perVeh="0.017969" fuel_perVeh="0.020512" electricity_perVeh="0"/>
        <edge id=":107_0" sampledSeconds="438.74" CO_abs="10737.847618" CO2_abs="1347557.061567" HC_abs="81.583041" PMx_abs="24.387712" NOx_abs="503.858305" fuel_abs="579.252971" electricity_abs="0"
            CO_normed="247.994513" CO2_normed="31122.322624" HC_normed="1.884190" PMx_normed="0.563243" NOx_normed="11.636792" fuel_normed="13.378059" electricity_normed="0"
            traveltime="0.38" CO_perVeh="9.276106" CO2_perVeh="1164.114305" HC_perVeh="0.070477" PMx_perVeh="0.021068" NOx_perVeh="0.435268" fuel_perVeh="0.500399" electricity_perVeh="0"/>
        <edge id=":108_0" sampledSeconds="93.90" CO_abs="7805.347988" CO2_abs="567136.102597" HC_abs="49.180463" PMx_abs="11.376297" NOx_abs="239.170561" fuel_abs="243.784846" electricity_abs="0"
            CO_normed="122.425965" CO2_normed="8895.463045" HC_normed="0.771390" PMx_normed="0.178436" NOx_normed="3.751362" fuel_normed="3.823737" electricity_normed="0"
            traveltime="0.86" CO_perVeh="71.221030" CO2_perVeh="5174.915647" HC_perVeh="0.448754" PMx_perVeh="0.103805" NOx_perVeh="2.182346" fuel_perVeh="2.224450" electricity_perVeh="0"/>
        <edge id=":108_1" sampledSeconds="403.21" CO_abs="9877.738725" CO2_abs="1234028.399321" HC_abs="74.922302" PMx_abs="22.366700" NOx_abs="461.663783" fuel_abs="530.452191" electricity_abs="0"
            CO_normed="144.482323" CO2_normed="18050.213240" HC_normed="1.095893" PMx_normed="0.327159" NOx_normed="6.752786" fuel_normed="7.758959" electricity_normed="0"
            traveltime="0.60" CO_perVeh="14.673626" CO2_perVeh="1833.179754" HC_perVeh="0.111299" PMx_perVeh="0.033226" NOx_perVeh="0.685813" fuel_perVeh="0.788000" electricity_perVeh="0"/>
        <edge id=":109_0" sampledSeconds="306.51" CO_abs="190.308574" CO2_abs="31800.850361" HC_abs="1.590136" PMx_abs="0.436886" NOx_abs="11.402296" fuel_abs="13.669839" electricity_abs="0"
            CO_normed="2.861288" CO2_normed="478.125493" HC_normed="0.023908" PMx_normed="0.006569" NOx_normed="0.171433" fuel_normed="0.205526" electricity_normed="0"
            traveltime="0.85" CO_perVeh="0.528951" CO2_perVeh="88.388517" HC_perVeh="0.004420" PMx_perVeh="0.001214" NOx_perVeh="0.031692" fuel_perVeh="0.037994" electricity_perVeh="0"/>
        <edge id=":109_1" sampledSeconds="523.67" CO_abs="12485.828287" CO2_abs="1596195.423047" HC_abs="95.625680" PMx_abs="28.770123" NOx_abs="594.564901" fuel_abs="686.131343" electricity_abs="0"
            CO_normed="122.450111" CO2_normed="15654.092157" HC_normed="0.937813" PMx_normed="0.282152" NOx_normed="5.830974" fuel_normed="6.728978" electricity_normed="0"
            traveltime="0.89" CO_perVeh="21.260428" CO2_perVeh="2717.945299" HC_perVeh="0.162828" PMx_perVeh="0.048989" NOx_perVeh="1.012404" fuel_perVeh="1.168320" electricity_perVeh="0"/>
        <edge id=":11_0" sampledSeconds="268.89" CO_abs="16041.382637" CO2_abs="1161410.281996" HC_abs="100.460295" PMx_abs="20.790547" NOx_abs="476.610358" fuel_abs="499.238628" electricity_abs="0"
            CO_normed="165.853951" CO2_normed="12007.972662" HC_normed="1.038672" PMx_normed="0.214956" NOx_normed="4.927737" fuel_normed="5.161693" electricity_normed="0"
            traveltime="1.59" CO_perVeh="94.988719" CO2_perVeh="6877.267244" HC_perVeh="0.594874" PMx_perVeh="0.123111" NOx_perVeh="2.822238" fuel_perVeh="2.956231" electricity_perVeh="0"/>
        <edge id=":11_1" sampledSeconds="50.20" CO_abs="982.688889" CO2_abs="87601.089088" HC_abs="6.467420" PMx_abs="1.125265" NOx_abs="32.886065" fuel_abs="37.656315" electricity_abs="0"
            CO_normed="10.417007" CO2_normed="928.616500" HC_normed="0.068558" PMx_normed="0.011928" NOx_normed="0.348609" fuel_normed="0.399176" electricity_normed="0"
            traveltime="1.66" CO_perVeh="32.513430" CO2_perVeh="2898.386153" HC_perVeh="0.213982" PMx_perVeh="0.037231" NOx_perVeh="1.088075" fuel_perVeh="1.245904" electricity_perVeh="0"/>
        <edge id=":110_0" sampledSeconds="95.17" CO_abs="0" CO2_abs="0" HC_abs="0" PMx_abs="0" NOx_abs="0" fuel_abs="0" electricity_abs="0"
            CO_normed="0" CO2_normed="0" HC_normed="0" PMx_normed="0" NOx_normed="0" fuel_normed="0" electricity_normed="0"
            traveltime="0.93" CO_perVeh="0" CO2_perVeh="0" HC_perVeh="0" PMx_perVeh="0" NOx_perVeh="0" fuel_perVeh="0" electricity_perVeh="0"/>
        <edge id=":110_1" sampledSeconds="443.92" CO_abs="9815.325975" CO2_abs="1264138.579742" HC_abs="75.361165" PMx_abs="22.730459" NOx_abs="470.348779" fuel_abs="543.395340" electricity_abs="0"
            CO_normed="125.989481" CO2_normed="16226.477190" HC_normed="0.967336" PMx_normed="0.291768" NOx_normed="6.037395" fuel_normed="6.975020" electricity_normed="0"
            traveltime="0.68" CO_perVeh="15.077778" CO2_perVeh="1941.902013" HC_perVeh="0.115766" PMx_perVeh="0.034917" NOx_perVeh="0.722525" fuel_perVeh="0.834735" electricity_perVeh="0"/>
        <edge id=":111_0" sampledSeconds="340.46" CO_abs="8242.814395" CO2_abs="1027976.561202" HC_abs="62.520006" PMx_abs="18.656498" NOx_abs="384.517926" fuel_abs="441.879963" electricity_abs="0"
            CO_normed="190.370810" CO2_normed="23741.494220" HC_normed="1.443922" PMx_normed="0.430879" NOx_normed="8.880582" fuel_normed="10.205379" electricity_normed="0"
            traveltime="0.38" CO_perVeh="9.160648" CO2_perVeh="1142.441339" HC_perVeh="0.069482" PMx_perVeh="0.020734" NOx_perVeh="0.427334" fuel_perVeh="0.491083" electricity_perVeh="0"/>
        <edge id=":114_0" sampledSeconds="107.45" CO_abs="10210.638711" CO2_abs="738319.046764" HC_abs="64.289830" PMx_abs="14.954181" NOx_abs="312.188409" fuel_abs="317.368090" electricity_abs="0"
            CO_normed="135.678633" CO2_normed="9810.759298" HC_normed="0.854281" PMx_normed="0.198711" NOx_normed="4.148349" fuel_normed="4.217177" electricity_normed="0"
            traveltime="0.99" CO_perVeh="94.459800" CO2_perVeh="6830.274904" HC_perVeh="0.594753" PMx_perVeh="0.138343" NOx_perVeh="2.888091" fuel_perVeh="2.936009" electricity_perVeh="0"/>
        <edge id=":114_1" sampledSeconds="415.81" CO_abs="10026.280836" CO2_abs="1262377.931622" HC_abs="76.343183" PMx_abs="22.849061" NOx_abs="471.493109" fuel_abs="542.638404" electricity_abs="0"
            CO_normed="132.389801" CO2_normed="16668.789330" HC_normed="1.008057" PMx_normed="0.301705" NOx_normed="6.225726" fuel_normed="7.165148" electricity_normed="0"
            traveltime="0.66" CO_perVeh="15.976608" CO2_perVeh="2011.565134" HC_perVeh="0.121651" PMx_perVeh="0.036409" NOx_perVeh="0.751312" fuel_perVeh="0.864680" electricity_perVeh="0"/>
        <edge id=":115_0" sampledSeconds="80.16" CO_abs="179.293509" CO2_abs="22410.289265" HC_abs="1.336421" PMx_abs="0.315962" NOx_abs="8.420799" fuel_abs="9.633229" electricity_abs="0"
            CO_normed="4.051585" CO2_normed="506.416538" HC_normed="0.030200" PMx_normed="0.007140" NOx_normed="0.190289" fuel_normed="0.217687" electricity_normed="0"
            traveltime="0.63" CO_perVeh="1.410895" CO2_perVeh="176.350877" HC_perVeh="0.010517" PMx_perVeh="0.002486" NOx_perVeh="0.066265" fuel_perVeh="0.075806" electricity_perVeh="0"/>
        <edge id=":115_1" sampledSeconds="72.61" CO_abs="841.776490" CO2_abs="152613.445926" HC_abs="7.208054" PMx_abs="2.120210" NOx_abs="55.482842" fuel_abs="65.601880" electricity_abs="0"
            CO_normed="16.987602" CO2_normed="3079.839470" HC_normed="0.145463" PMx_normed="0.042787" NOx_normed="1.119680" fuel_normed="1.323889" electricity_normed="0"
            traveltime="0.59" CO_perVeh="6.891349" CO2_perVeh="1249.396480" HC_perVeh="0.059010" PMx_perVeh="0.017357" NOx_perVeh="0.454220" fuel_perVeh="0.537061" electricity_perVeh="0"/>
        <edge id=":116_0" sampledSeconds="74.86" CO_abs="168.673130" CO2_abs="20970.255044" HC_abs="1.248514" PMx_abs="0.286759" NOx_abs="7.841440" fuel_abs="9.014231" electricity_abs="0"
            CO_normed="4.254918" CO2_normed="528.991882" HC_normed="0.031495" PMx_normed="0.007234" NOx_normed="0.197807" fuel_normed="0.227391" electricity_normed="0"
            traveltime="0.57" CO_perVeh="1.273609" CO2_perVeh="158.341164" HC_perVeh="0.009427" PMx_perVeh="0.002165" NOx_perVeh="0.059209" fuel_perVeh="0.068064" electricity_perVeh="0"/>
        <edge id=":117_0" sampledSeconds="240.10" CO_abs="14540.669662" CO2_abs="1195456.137187" HC_abs="94.630746" PMx_abs="22.106206" NOx_abs="489.284848" fuel_abs="513.871256" electricity_abs="0"
            CO_normed="328.582799" CO2_normed="27014.321442" HC_normed="2.138418" PMx_normed="0.499545" NOx_normed="11.056615" fuel_normed="11.612206" electricity_normed="0"
            traveltime="0.60" CO_perVeh="36.445483" CO2_perVeh="2996.352779" HC_perVeh="0.237187" PMx_perVeh="0.055408" NOx_perVeh="1.226369" fuel_perVeh="1.287993" electricity_perVeh="0"/>
        <edge id=":117_1" sampledSeconds="76.17" CO_abs="4114.956509" CO2_abs="348008.719925" HC_abs="26.972094" PMx_abs="6.296950" NOx_abs="141.415460" fuel_abs="149.592960" electricity_abs="0"
            CO_normed="87.635167" CO2_normed="7411.451943" HC_normed="0.574418" PMx_normed="0.134105" NOx_normed="3.011689" fuel_normed="3.185843" electricity_normed="0"
            traveltime="0.64" CO_perVeh="34.789655" CO2_perVeh="2942.219013" HC_perVeh="0.228034" PMx_perVeh="0.053237" NOx_perVeh="1.195589" fuel_perVeh="1.264725" electricity_perVeh="0"/>
        <edge id=":118_0" sampledSeconds="897.75" CO_abs="13547.462685" CO2_abs="2079742.032126" HC_abs="108.387664" PMx_abs="30.848985" NOx_abs="771.609777" fuel_abs="893.989177" electricity_abs="0"
            CO_normed="41.104020" CO2_normed="6310.093654" HC_normed="0.328856" PMx_normed="0.093598" NOx_normed="2.341122" fuel_normed="2.712430" electricity_normed="0"
            traveltime="3.92" CO_perVeh="59.089894" CO2_perVeh="9071.199419" HC_perVeh="0.472754" PMx_perVeh="0.134554" NOx_perVeh="3.365526" fuel_perVeh="3.899308" electricity_perVeh="0"/>
        <edge id=":118_4" sampledSeconds="282.62" CO_abs="4025.685333" CO2_abs="608337.550456" HC_abs="32.061629" PMx_abs="9.049753" NOx_abs="226.050393" fuel_abs="261.497433" electricity_abs="0"
            CO_normed="12.237846" CO2_normed="1849.310230" HC_normed="0.097465" PMx_normed="0.027511" NOx_normed="0.687180" fuel_normed="0.794937" electricity_normed="0"
            traveltime="3.92" CO_perVeh="55.813634" CO2_perVeh="8434.223321" HC_perVeh="0.444515" PMx_perVeh="0.125469" NOx_perVeh="3.134049" fuel_perVeh="3.625500" electricity_perVeh="0"/>
        <edge id=":118_5" sampledSeconds="238.70" CO_abs="4332.098734" CO2_abs="577975.595630" HC_abs="32.875055" PMx_abs="9.161837" NOx_abs="219.075201" fuel_abs="248.445678" electricity_abs="0"
            CO_normed="13.300032" CO2_normed="1774.450293" HC_normed="0.100930" PMx_normed="0.028128" NOx_normed="0.672586" fuel_normed="0.762756" electricity_normed="0"
            traveltime="3.82" CO_perVeh="69.332893" CO2_perVeh="9250.186217" HC_perVeh="0.526147" PMx_perVeh="0.146630" NOx_perVeh="3.506180" fuel_perVeh="3.976238" electricity_perVeh="0"/>
        <edge id=":119_0" sampledSeconds="138.95" CO_abs="1920.937146" CO2_abs="303866.079970" HC_abs="15.571330" PMx_abs="4.461109" NOx_abs="112.421723" fuel_abs="130.618621" electricity_abs="0"
            CO_normed="41.188633" CO2_normed="6515.480418" HC_normed="0.333880" PMx_normed="0.095655" NOx_normed="2.410541" fuel_normed="2.800718" electricity_normed="0"
            traveltime="0.56" CO_perVeh="7.700901" CO2_perVeh="1218.177533" HC_perVeh="0.062424" PMx_perVeh="0.017884" NOx_perVeh="0.450691" fuel_perVeh="0.523641" electricity_perVeh="0"/>
        <edge id=":12_0" sampledSeconds="587.35" CO_abs="54818.902861" CO2_abs="3118933.566800" HC_abs="323.788316" PMx_abs="61.635722" NOx_abs="1332.380936" fuel_abs="1340.690451" electricity_abs="0"
            CO_normed="513.591427" CO2_normed="29220.897505" HC_normed="3.033532" PMx_normed="0.577457" NOx_normed="12.482910" fuel_normed="12.560761" electricity_normed="0"
            traveltime="2.10" CO_perVeh="196.318533" CO2_perVeh="11169.586202" HC_perVeh="1.159557" PMx_perVeh="0.220731" NOx_perVeh="4.771549" fuel_perVeh="4.801307" electricity_perVeh="0"/>
        <edge id=":12_1" sampledSeconds="56.93" CO_abs="864.739544" CO2_abs="81474.060515" HC_abs="5.787342" PMx_abs="1.015116" NOx_abs="30.320309" fuel_abs="35.022556" electricity_abs="0"
            CO_normed="8.093599" CO2_normed="762.562995" HC_normed="0.054167" PMx_normed="0.009501" NOx_normed="0.283785" fuel_normed="0.327796" electricity_normed="0"
            traveltime="1.92" CO_perVeh="29.160225" CO2_perVeh="2747.419142" HC_perVeh="0.195157" PMx_perVeh="0.034231" NOx_perVeh="1.022443" fuel_perVeh="1.181010" electricity_perVeh="0"/>
        <edge id=":120_0" sampledSeconds="39.08" CO_abs="469.667195" CO2_abs="80131.125714" HC_abs="3.935579" PMx_abs="1.152843" NOx_abs="29.381285" fuel_abs="34.444852" electricity_abs="0"
            CO_normed="369.254569" CO2_normed="62999.469873" HC_normed="3.094171" PMx_normed="0.906371" NOx_normed="23.099705" fuel_normed="27.080705" electricity_normed="0"
            traveltime="0.02" CO_perVeh="0.180714" CO2_perVeh="30.832016" HC_perVeh="0.001514" PMx_perVeh="0.000444" NOx_perVeh="0.011305" fuel_perVeh="0.013253" electricity_perVeh="0"/>
        <edge id=":121_0" sampledSeconds="374.44" CO_abs="53310.189163" CO2_abs="1426981.816076" HC_abs="276.251107" PMx_abs="30.805438" NOx_abs="631.101288" fuel_abs="613.415534" electricity_abs="0"
            CO_normed="30481.980185" CO2_normed="815927.163750" HC_normed="157.956310" PMx_normed="17.614095" NOx_normed="360.854412" fuel_normed="350.741958" electricity_normed="0"
            traveltime="0.11" CO_perVeh="16.369956" CO2_perVeh="438.183211" HC_perVeh="0.084828" PMx_perVeh="0.009459" NOx_perVeh="0.193792" fuel_perVeh="0.188361" electricity_perVeh="0"/>
        <edge id=":122_0" sampledSeconds="134.00" CO_abs="1089.504643" CO2_abs="105340.099487" HC_abs="7.441746" PMx_abs="1.905479" NOx_abs="42.116260" fuel_abs="45.280803" electricity_abs="0"
            CO_normed="23.988062" CO2_normed="2319.315311" HC_normed="0.163848" PMx_normed="0.041954" NOx_normed="0.927291" fuel_normed="0.996966" electricity_normed="0"
            traveltime="0.54" CO_perVeh="4.360804" CO2_perVeh="421.629712" HC_perVeh="0.029786" PMx_perVeh="0.007627" NOx_perVeh="0.168573" fuel_perVeh="0.181239" electricity_perVeh="0"/>
        <edge id=":123_0" sampledSeconds="305.75" CO_abs="39271.797384" CO2_abs="2434437.150260" HC_abs="237.327935" PMx_abs="50.095999" NOx_abs="1044.853937" fuel_abs="1046.450751" electricity_abs="0"
            CO_normed="149.760741" CO2_normed="9283.586080" HC_normed="0.905036" PMx_normed="0.191038" NOx_normed="3.984490" fuel_normed="3.990580" electricity_normed="0"
            traveltime="4.16" CO_perVeh="534.805743" CO2_perVeh="33152.314271" HC_perVeh="3.231946" PMx_perVeh="0.682210" NOx_perVeh="14.228885" fuel_perVeh="14.250630" electricity_perVeh="0"/>
        <edge id=":123_1" sampledSeconds="0.00" CO_abs="0" CO2_abs="0" HC_abs="0" PMx_abs="0" NOx_abs="0" fuel_abs="0" electricity_abs="0"
            CO_normed="0" CO2_normed="0" HC_normed="0" PMx_normed="0" NOx_normed="0" fuel_normed="0" electricity_normed="0"/>
        <edge id=":123_2" sampledSeconds="263.96" CO_abs="34721.004903" CO2_abs="2145148.881214" HC_abs="209.644754" PMx_abs="44.153250" NOx_abs="920.723313" fuel_abs="922.099330" electricity_abs="0"
            CO_normed="133.676318" CO2_normed="8258.850971" HC_normed="0.807135" PMx_normed="0.169991" NOx_normed="3.544797" fuel_normed="3.550094" electricity_normed="0"
            traveltime="4.15" CO_perVeh="545.744962" CO2_perVeh="33717.462884" HC_perVeh="3.295197" PMx_perVeh="0.694001" NOx_perVeh="14.471935" fuel_perVeh="14.493563" electricity_perVeh="0"/>
        <edge id=":123_3" sampledSeconds="469.66" CO_abs="23604.202330" CO2_abs="2149385.434479" HC_abs="158.468084" PMx_abs="40.681626" NOx_abs="867.749107" fuel_abs="923.919456" electricity_abs="0"
            CO_normed="92.982391" CO2_normed="8466.924377" HC_normed="0.624242" PMx_normed="0.160254" NOx_normed="3.418264" fuel_normed="3.639532" electricity_normed="0"
            traveltime="2.81" CO_perVeh="141.280713" CO2_perVeh="12864.942559" HC_perVeh="0.948496" PMx_perVeh="0.243496" NOx_perVeh="5.193830" fuel_perVeh="5.530032" electricity_perVeh="0"/>
        <edge id=":123_5" sampledSeconds="0.00" CO_abs="0" CO2_abs="0" HC_abs="0" PMx_abs="0" NOx_abs="0" fuel_abs="0" electricity_abs="0"
            CO_normed="0" CO2_normed="0" HC_normed="0" PMx_normed="0" NOx_normed="0" fuel_normed="0" electricity_normed="0"/>
        <edge id=":123_6" sampledSeconds="194.41" CO_abs="9568.147580" CO2_abs="877694.317847" HC_abs="64.395116" PMx_abs="16.541102" NOx_abs="353.974054" fuel_abs="377.279447" electricity_abs="0"
            CO_normed="36.406644" CO2_normed="3339.612449" HC_normed="0.245022" PMx_normed="0.062939" NOx_normed="1.346865" fuel_normed="1.435542" electricity_normed="0"
            traveltime="2.91" CO_perVeh="143.143788" CO2_perVeh="13130.701419" HC_perVeh="0.963380" PMx_perVeh="0.247462" NOx_perVeh="5.295611" fuel_perVeh="5.644270" electricity_perVeh="0"/>
        <edge id=":124_0" sampledSeconds="119.24" CO_abs="4067.981311" CO2_abs="366392.503356" HC_abs="27.100468" PMx_abs="6.938528" NOx_abs="148.082573" fuel_abs="157.494859" electricity_abs="0"
            CO_normed="95.233731" CO2_normed="8577.454640" HC_normed="0.634437" PMx_normed="0.162435" NOx_normed="3.466696" fuel_normed="3.687043" electricity_normed="0"
            traveltime="0.46" CO_perVeh="15.807324" CO2_perVeh="1423.724628" HC_perVeh="0.105307" PMx_perVeh="0.026962" NOx_perVeh="0.575418" fuel_perVeh="0.611992" electricity_perVeh="0"/>
        <edge id=":125_0" sampledSeconds="141.26" CO_abs="5187.150352" CO2_abs="532545.234078" HC_abs="36.133444" PMx_abs="9.851082" NOx_abs="209.441193" fuel_abs="228.916266" electricity_abs="0"
            CO_normed="326.252970" CO2_normed="33495.166460" HC_normed="2.272663" PMx_normed="0.619597" NOx_normed="13.173092" fuel_normed="14.398004" electricity_normed="0"
            traveltime="0.16" CO_perVeh="5.940623" CO2_perVeh="609.901452" HC_perVeh="0.041382" PMx_perVeh="0.011282" NOx_perVeh="0.239864" fuel_perVeh="0.262168" electricity_perVeh="0"/>
        <edge id=":125_3" sampledSeconds="0.00" CO_abs="0" CO2_abs="0" HC_abs="0" PMx_abs="0" NOx_abs="0" fuel_abs="0" electricity_abs="0"
            CO_normed="0" CO2_normed="0" HC_normed="0" PMx_normed="0" NOx_normed="0" fuel_normed="0" electricity_normed="0"/>
        <edge id=":126_0" sampledSeconds="26.06" CO_abs="99.441896" CO2_abs="6593.820838" HC_abs="0.608478" PMx_abs="0.120565" NOx_abs="2.738052" fuel_abs="2.834392" electricity_abs="0"
            CO_normed="3.274626" CO2_normed="217.134790" HC_normed="0.020037" PMx_normed="0.003970" NOx_normed="0.090164" fuel_normed="0.093337" electricity_normed="0"
            traveltime="0.57" CO_perVeh="2.161929" CO2_perVeh="143.353799" HC_perVeh="0.013229" PMx_perVeh="0.002621" NOx_perVeh="0.059527" fuel_perVeh="0.061621" electricity_perVeh="0"/>
        <edge id=":126_1" sampledSeconds="80.77" CO_abs="1275.798942" CO2_abs="204297.724030" HC_abs="10.433502" PMx_abs="3.241342" NOx_abs="75.253143" fuel_abs="87.818385" electricity_abs="0"
            CO_normed="37.380341" CO2_normed="5985.832416" HC_normed="0.305697" PMx_normed="0.094970" NOx_normed="2.204884" fuel_normed="2.573040" electricity_normed="0"
            traveltime="0.35" CO_perVeh="5.520629" CO2_perVeh="884.035831" HC_perVeh="0.045148" PMx_perVeh="0.014026" NOx_perVeh="0.325635" fuel_perVeh="0.380007" electricity_perVeh="0"/>
        <edge id=":127_0" sampledSeconds="234.91" CO_abs="4758.802058" CO2_abs="661172.405185" HC_abs="36.664822" PMx_abs="10.967230" NOx_abs="247.280664" fuel_abs="284.207956" electricity_abs="0"
            CO_normed="110.040961" CO2_normed="15288.731494" HC_normed="0.847825" PMx_normed="0.253603" NOx_normed="5.718036" fuel_normed="6.571931" electricity_normed="0"
            traveltime="0.44" CO_perVeh="8.899113" CO2_perVeh="1236.413717" HC_perVeh="0.068564" PMx_perVeh="0.020509" NOx_perVeh="0.462423" fuel_perVeh="0.531478" electricity_perVeh="0"/>
        <edge id=":128_0" sampledSeconds="230.68" CO_abs="489.148852" CO2_abs="56865.845090" HC_abs="3.556517" PMx_abs="0.923709" NOx_abs="21.854004" fuel_abs="24.444076" electricity_abs="0"
            CO_normed="7.559138" CO2_normed="878.785184" HC_normed="0.054961" PMx_normed="0.014275" NOx_normed="0.337724" fuel_normed="0.377750" electricity_normed="0"
            traveltime="0.76" CO_perVeh="1.608013" CO2_perVeh="186.939028" HC_perVeh="0.011692" PMx_perVeh="0.003037" NOx_perVeh="0.071842" fuel_perVeh="0.080357" electricity_perVeh="0"/>
        <edge id=":128_1" sampledSeconds="143.13" CO_abs="177.113505" CO2_abs="24060.088866" HC_abs="1.355416" PMx_abs="0.319374" NOx_abs="8.904463" fuel_abs="10.342424" electricity_abs="0"
            CO_normed="2.827360" CO2_normed="384.084378" HC_normed="0.021637" PMx_normed="0.005098" NOx_normed="0.142147" fuel_normed="0.165102" electricity_normed="0"
            traveltime="0.86" CO_perVeh="1.061695" CO2_perVeh="144.226556" HC_perVeh="0.008125" PMx_perVeh="0.001914" NOx_perVeh="0.053377" fuel_perVeh="0.061997" electricity_perVeh="0"/>
        <edge id=":129_0" sampledSeconds="104.63" CO_abs="5907.134180" CO2_abs="531464.407001" HC_abs="39.571427" PMx_abs="10.015476" NOx_abs="215.362572" fuel_abs="228.451522" electricity_abs="0"
            CO_normed="137.606424" CO2_normed="12380.439389" HC_normed="0.921815" PMx_normed="0.233310" NOx_normed="5.016861" fuel_normed="5.321768" electricity_normed="0"
            traveltime="0.50" CO_perVeh="27.996716" CO2_perVeh="2518.862349" HC_perVeh="0.187548" PMx_perVeh="0.047468" NOx_perVeh="1.020706" fuel_perVeh="1.082740" electricity_perVeh="0"/>
        <edge id=":13_0" sampledSeconds="59.17" CO_abs="5326.010495" CO2_abs="380606.015942" HC_abs="33.345320" PMx_abs="7.358044" NOx_abs="159.413410" fuel_abs="163.604857" electricity_abs="0"
            CO_normed="37.653065" CO2_normed="2690.753833" HC_normed="0.235740" PMx_normed="0.052019" NOx_normed="1.126998" fuel_normed="1.156630" electricity_normed="0"
            traveltime="2.09" CO_perVeh="188.389552" CO2_perVeh="13462.646530" HC_perVeh="1.179478" PMx_perVeh="0.260266" NOx_perVeh="5.638709" fuel_perVeh="5.786967" electricity_perVeh="0"/>
        <edge id=":13_1" sampledSeconds="533.25" CO_abs="14087.549441" CO2_abs="1072202.020220" HC_abs="88.783631" PMx_abs="15.565037" NOx_abs="416.555457" fuel_abs="460.896891" electricity_abs="0"
            CO_normed="140.346754" CO2_normed="10681.777791" HC_normed="0.884504" PMx_normed="0.155066" NOx_normed="4.149920" fuel_normed="4.591670" electricity_normed="0"
            traveltime="1.86" CO_perVeh="49.182985" CO2_perVeh="3743.312227" HC_perVeh="0.309965" PMx_perVeh="0.054341" NOx_perVeh="1.454294" fuel_perVeh="1.609101" electricity_perVeh="0"/>
        <edge id=":132_0" sampledSeconds="41.06" CO_abs="488.542946" CO2_abs="86494.539468" HC_abs="4.118570" PMx_abs="1.215838" NOx_abs="31.532515" fuel_abs="37.180224" electricity_abs="0"
            CO_normed="921.827457" CO2_normed="163205.798042" HC_normed="7.771293" PMx_normed="2.294154" NOx_normed="59.498430" fuel_normed="70.155042" electricity_normed="0"
            traveltime="6.364933e-03" CO_perVeh="0.075737" CO2_perVeh="13.408967" HC_perVeh="0.000638" PMx_perVeh="0.000188" NOx_perVeh="0.004888" fuel_perVeh="0.005764" electricity_perVeh="0"/>
        <edge id=":133_0" sampledSeconds="44.99" CO_abs="659.044318" CO2_abs="88784.814999" HC_abs="5.021034" PMx_abs="1.172055" NOx_abs="32.790686" fuel_abs="38.164889" electricity_abs="0"