<?xml version="1.0" encoding="UTF-8"?>

<!-- generated on Mon Nov  9 23:46:18 2020 by Eclipse SUMO sumo Version 1.7.0
<configuration xmlns:xsi="http://www.w3.org/2001/XMLSchema-instance" xsi:noNamespaceSchemaLocation="http://sumo.dlr.de/xsd/sumoConfiguration.xsd">

    <input>
        <net-file value="../dataSets/Porto/6AM7AM_Routing_SaoBento/Porto.net.xml"/>
        <route-files value="../results/Porto/6AM7AM_Routing_SaoBento/cost_PMx-length/solution17/Porto.rou.xml"/>
        <additional-files value="moreOutputInfo.xml"/>
    </input>

    <output>
        <emission-output.precision value="6"/>
        <tripinfo-output value="../results/Porto/6AM7AM_Routing_SaoBento/cost_PMx-length/solution17/Porto-tripinfo"/>
    </output>

    <processing>
        <collision.action value="warn"/>
        <time-to-teleport value="-1"/>
    </processing>

    <emissions>
        <device.emissions.probability value="1"/>
    </emissions>

    <gui_only>
        <quit-on-end value="true"/>
        <start value="true"/>
    </gui_only>

</configuration>
-->

<meandata xmlns:xsi="http://www.w3.org/2001/XMLSchema-instance" xsi:noNamespaceSchemaLocation="http://sumo.dlr.de/xsd/meandata_file.xsd">
    <interval begin="0.00" end="4699.00" id="emissions-detector">
        <edge id=":1092997347_0" sampledSeconds="266.27" CO_abs="34007.693485" CO2_abs="1350771.942820" HC_abs="186.771688" PMx_abs="27.551269" NOx_abs="586.287692" fuel_abs="580.643708" electricity_abs="0"
            CO_normed="59213.612445" CO2_normed="2351940.932381" HC_normed="325.203658" PMx_normed="47.971797" NOx_normed="1020.834070" fuel_normed="1011.006863" electricity_normed="0"
            traveltime="0.07" CO_perVeh="9.547476" CO2_perVeh="379.221901" HC_perVeh="0.052435" PMx_perVeh="0.007735" NOx_perVeh="0.164597" fuel_perVeh="0.163013" electricity_perVeh="0"/>
        <edge id=":1103427051_0" sampledSeconds="10.89" CO_abs="943.955725" CO2_abs="53916.646510" HC_abs="5.579042" PMx_abs="1.058231" NOx_abs="22.995635" fuel_abs="23.176369" electricity_abs="0"
            CO_normed="2493.737192" CO2_normed="142436.708790" HC_normed="14.738685" PMx_normed="2.795629" NOx_normed="60.749746" fuel_normed="61.227207" electricity_normed="0"
            traveltime="0.03" CO_perVeh="2.586424" CO2_perVeh="147.730796" HC_perVeh="0.015286" PMx_perVeh="0.002900" NOx_perVeh="0.063008" fuel_perVeh="0.063503" electricity_perVeh="0"/>
        <edge id=":1105984386_0" sampledSeconds="23.18" CO_abs="486.345155" CO2_abs="39025.431999" HC_abs="3.099127" PMx_abs="0.497927" NOx_abs="14.698784" fuel_abs="16.775561" electricity_abs="0"
            CO_normed="38.372705" CO2_normed="3079.112417" HC_normed="0.244522" PMx_normed="0.039287" NOx_normed="1.159736" fuel_normed="1.323594" electricity_normed="0"
            traveltime="0.97" CO_perVeh="20.411529" CO2_perVeh="1637.867154" HC_perVeh="0.130068" PMx_perVeh="0.020898" NOx_perVeh="0.616897" fuel_perVeh="0.704057" electricity_perVeh="0"/>
        <edge id=":1105984390_0" sampledSeconds="22.51" CO_abs="0" CO2_abs="0" HC_abs="0" PMx_abs="0" NOx_abs="0" fuel_abs="0" electricity_abs="0"
            CO_normed="0" CO2_normed="0" HC_normed="0" PMx_normed="0" NOx_normed="0" fuel_normed="0" electricity_normed="0"
            traveltime="1.02" CO_perVeh="0" CO2_perVeh="0" HC_perVeh="0" PMx_perVeh="0" NOx_perVeh="0" fuel_perVeh="0" electricity_perVeh="0"/>
        <edge id=":1105984390_1" sampledSeconds="644.82" CO_abs="15834.675696" CO2_abs="1959451.613626" HC_abs="118.970999" PMx_abs="35.149325" NOx_abs="738.548281" fuel_abs="842.278124" electricity_abs="0"
            CO_normed="923.935178" CO2_normed="114331.755846" HC_normed="6.941821" PMx_normed="2.050923" NOx_normed="43.093446" fuel_normed="49.145963" electricity_normed="0"
            traveltime="0.64" CO_perVeh="15.607084" CO2_perVeh="1931.288475" HC_perVeh="0.117261" PMx_perVeh="0.034644" NOx_perVeh="0.727933" fuel_perVeh="0.830172" electricity_perVeh="0"/>
        <edge id=":1105984395_0" sampledSeconds="8.97" CO_abs="134.537335" CO2_abs="10837.004679" HC_abs="0.855941" PMx_abs="0.126289" NOx_abs="4.005081" fuel_abs="4.658437" electricity_abs="0"
            CO_normed="112.034569" CO2_normed="9024.403167" HC_normed="0.712776" PMx_normed="0.105165" NOx_normed="3.335190" fuel_normed="3.879265" electricity_normed="0"
            traveltime="0.09" CO_perVeh="1.364356" CO2_perVeh="109.899077" HC_perVeh="0.008680" PMx_perVeh="0.001281" NOx_perVeh="0.040616" fuel_perVeh="0.047242" electricity_perVeh="0"/>
        <edge id=":1105984398_0" sampledSeconds="23.42" CO_abs="1525.055248" CO2_abs="105497.854214" HC_abs="9.437954" PMx_abs="1.924005" NOx_abs="43.647448" fuel_abs="45.348827" electricity_abs="0"
            CO_normed="96.639869" CO2_normed="6685.199642" HC_normed="0.598065" PMx_normed="0.121921" NOx_normed="2.765856" fuel_normed="2.873669" electricity_normed="0"
            traveltime="1.10" CO_perVeh="71.709550" CO2_perVeh="4960.609564" HC_perVeh="0.443782" PMx_perVeh="0.090469" NOx_perVeh="2.052345" fuel_perVeh="2.132345" electricity_perVeh="0"/>
        <edge id=":1105984398_1" sampledSeconds="452.51" CO_abs="8467.458548" CO2_abs="997613.633365" HC_abs="61.488543" PMx_abs="14.222132" NOx_abs="376.785827" fuel_abs="428.831653" electricity_abs="0"
            CO_normed="519.382959" CO2_normed="61192.330414" HC_normed="3.771628" PMx_normed="0.872367" NOx_normed="23.111555" fuel_normed="26.303979" electricity_normed="0"
            traveltime="0.95" CO_perVeh="17.867778" CO2_perVeh="2105.134451" HC_perVeh="0.129751" PMx_perVeh="0.030011" NOx_perVeh="0.795082" fuel_perVeh="0.904908" electricity_perVeh="0"/>
        <edge id=":1106006327_0" sampledSeconds="38.62" CO_abs="5210.742699" CO2_abs="168900.521504" HC_abs="27.702201" PMx_abs="3.523583" NOx_abs="73.932093" fuel_abs="72.604376" electricity_abs="0"
            CO_normed="450.570716" CO2_normed="14604.756629" HC_normed="2.395398" PMx_normed="0.304683" NOx_normed="6.392877" fuel_normed="6.278070" electricity_normed="0"
            traveltime="2.10" CO_perVeh="282.679282" CO2_perVeh="9162.739533" HC_perVeh="1.502826" PMx_perVeh="0.191152" NOx_perVeh="4.010766" fuel_perVeh="3.938739" electricity_perVeh="0"/>
        <edge id=":1106006327_1" sampledSeconds="159.97" CO_abs="21616.617778" CO2_abs="726468.204649" HC_abs="115.551147" PMx_abs="15.142122" NOx_abs="317.864668" fuel_abs="312.282400" electricity_abs="0"
            CO_normed="1630.013087" CO2_normed="54779.739045" HC_normed="8.713199" PMx_normed="1.141800" NOx_normed="23.968762" fuel_normed="23.547828" electricity_normed="0"
            traveltime="2.27" CO_perVeh="306.875750" CO2_perVeh="10313.152469" HC_perVeh="1.640397" PMx_perVeh="0.214962" NOx_perVeh="4.512499" fuel_perVeh="4.433251" electricity_perVeh="0"/>
        <edge id=":1106006327_2" sampledSeconds="0.00" CO_abs="0" CO2_abs="0" HC_abs="0" PMx_abs="0" NOx_abs="0" fuel_abs="0" electricity_abs="0"
            CO_normed="0" CO2_normed="0" HC_normed="0" PMx_normed="0" NOx_normed="0" fuel_normed="0" electricity_normed="0"/>
        <edge id=":1106006327_3" sampledSeconds="0.00" CO_abs="0" CO2_abs="0" HC_abs="0" PMx_abs="0" NOx_abs="0" fuel_abs="0" electricity_abs="0"
            CO_normed="0" CO2_normed="0" HC_normed="0" PMx_normed="0" NOx_normed="0" fuel_normed="0" electricity_normed="0"/>
        <edge id=":1107381198_0" sampledSeconds="0.00" CO_abs="0" CO2_abs="0" HC_abs="0" PMx_abs="0" NOx_abs="0" fuel_abs="0" electricity_abs="0"
            CO_normed="0" CO2_normed="0" HC_normed="0" PMx_normed="0" NOx_normed="0" fuel_normed="0" electricity_normed="0"/>
        <edge id=":1107381198_1" sampledSeconds="35.25" CO_abs="1268.431489" CO2_abs="53168.869613" HC_abs="7.000476" PMx_abs="0.910051" NOx_abs="21.960925" fuel_abs="22.855410" electricity_abs="0"
            CO_normed="105.972879" CO2_normed="4442.067435" HC_normed="0.584865" PMx_normed="0.076032" NOx_normed="1.834756" fuel_normed="1.909487" electricity_normed="0"
            traveltime="1.45" CO_perVeh="52.224842" CO2_perVeh="2189.109799" HC_perVeh="0.288229" PMx_perVeh="0.037469" NOx_perVeh="0.904192" fuel_perVeh="0.941021" electricity_perVeh="0"/>
        <edge id=":1110338277_0" sampledSeconds="96.84" CO_abs="1636.668981" CO2_abs="193484.766146" HC_abs="11.869911" PMx_abs="2.676366" NOx_abs="72.653734" fuel_abs="83.170975" electricity_abs="0"
            CO_normed="4478.162780" CO2_normed="529402.272615" HC_normed="32.477790" PMx_normed="7.322924" NOx_normed="198.791113" fuel_normed="227.567803" electricity_normed="0"
            traveltime="0.02" CO_perVeh="0.368857" CO2_perVeh="43.605749" HC_perVeh="0.002675" PMx_perVeh="0.000603" NOx_perVeh="0.016374" fuel_perVeh="0.018744" electricity_perVeh="0"/>
        <edge id=":1110338293_0" sampledSeconds="123.84" CO_abs="6076.379147" CO2_abs="420165.942114" HC_abs="37.539981" PMx_abs="7.354478" NOx_abs="171.880619" fuel_abs="180.611085" electricity_abs="0"
            CO_normed="15517.461111" CO2_normed="1072992.403782" HC_normed="95.867157" PMx_normed="18.781386" NOx_normed="438.937524" fuel_normed="461.232821" electricity_normed="0"
            traveltime="0.03" CO_perVeh="1.393718" CO2_perVeh="96.372019" HC_perVeh="0.008610" PMx_perVeh="0.001687" NOx_perVeh="0.039424" fuel_perVeh="0.041426" electricity_perVeh="0"/>
        <edge id=":1110338295_0" sampledSeconds="0.00" CO_abs="0" CO2_abs="0" HC_abs="0" PMx_abs="0" NOx_abs="0" fuel_abs="0" electricity_abs="0"
            CO_normed="0" CO2_normed="0" HC_normed="0" PMx_normed="0" NOx_normed="0" fuel_normed="0" electricity_normed="0"/>
        <edge id=":1110673403_0" sampledSeconds="144.25" CO_abs="2019.104660" CO2_abs="255390.009916" HC_abs="15.002225" PMx_abs="3.489143" NOx_abs="95.225923" fuel_abs="109.781421" electricity_abs="0"
            CO_normed="5156.257910" CO2_normed="652198.365394" HC_normed="38.311706" PMx_normed="8.910345" NOx_normed="243.181757" fuel_normed="280.352640" electricity_normed="0"
            traveltime="0.02" CO_perVeh="0.324183" CO2_perVeh="41.004854" HC_perVeh="0.002409" PMx_perVeh="0.000560" NOx_perVeh="0.015289" fuel_perVeh="0.017626" electricity_perVeh="0"/>
        <edge id=":1110673412_0" sampledSeconds="252.07" CO_abs="45352.909989" CO2_abs="3085445.445233" HC_abs="282.040627" PMx_abs="67.904360" NOx_abs="1326.890885" fuel_abs="1326.280963" electricity_abs="0"
            CO_normed="119813.075387" CO2_normed="8151113.298383" HC_normed="745.093421" PMx_normed="179.389374" NOx_normed="3505.373253" fuel_normed="3503.761966" electricity_normed="0"
            traveltime="0.02" CO_perVeh="2.792804" CO2_perVeh="189.999781" HC_perVeh="0.017368" PMx_perVeh="0.004182" NOx_perVeh="0.081709" fuel_perVeh="0.081672" electricity_perVeh="0"/>
        <edge id=":1110673414_0" sampledSeconds="0.00" CO_abs="0" CO2_abs="0" HC_abs="0" PMx_abs="0" NOx_abs="0" fuel_abs="0" electricity_abs="0"
            CO_normed="0" CO2_normed="0" HC_normed="0" PMx_normed="0" NOx_normed="0" fuel_normed="0" electricity_normed="0"/>
        <edge id=":1110673414_1" sampledSeconds="14.01" CO_abs="928.443540" CO2_abs="35815.149362" HC_abs="5.065104" PMx_abs="0.690046" NOx_abs="15.298403" fuel_abs="15.395607" electricity_abs="0"
            CO_normed="78.770718" CO2_normed="3038.617762" HC_normed="0.429732" PMx_normed="0.058545" NOx_normed="1.297942" fuel_normed="1.306189" electricity_normed="0"
            traveltime="1.53" CO_perVeh="101.401127" CO2_perVeh="3911.596501" HC_perVeh="0.553192" PMx_perVeh="0.075364" NOx_perVeh="1.670834" fuel_perVeh="1.681451" electricity_perVeh="0"/>
        <edge id=":1110673417_0" sampledSeconds="30.03" CO_abs="539.468159" CO2_abs="58069.090293" HC_abs="3.777664" PMx_abs="0.827801" NOx_abs="22.050514" fuel_abs="24.961457" electricity_abs="0"
            CO_normed="1476.062819" CO2_normed="158885.420193" HC_normed="10.336236" PMx_normed="2.264983" NOx_normed="60.333391" fuel_normed="68.298152" electricity_normed="0"
            traveltime="0.02" CO_perVeh="0.400400" CO2_perVeh="43.099656" HC_perVeh="0.002804" PMx_perVeh="0.000614" NOx_perVeh="0.016366" fuel_perVeh="0.018527" electricity_perVeh="0"/>
        <edge id=":1110673446_0" sampledSeconds="334.05" CO_abs="3590.032307" CO2_abs="282513.918693" HC_abs="23.054330" PMx_abs="5.221538" NOx_abs="116.027899" fuel_abs="121.439749" electricity_abs="0"
            CO_normed="9167.990568" CO2_normed="721465.636161" HC_normed="58.874646" PMx_normed="13.334425" NOx_normed="296.304489" fuel_normed="310.124917" electricity_normed="0"
            traveltime="0.02" CO_perVeh="0.245097" CO2_perVeh="19.287666" HC_perVeh="0.001574" PMx_perVeh="0.000356" NOx_perVeh="0.007921" fuel_perVeh="0.008291" electricity_perVeh="0"/>
        <edge id=":1110673451_0" sampledSeconds="37.57" CO_abs="582.779799" CO2_abs="41796.341321" HC_abs="3.610173" PMx_abs="0.595432" NOx_abs="16.208366" fuel_abs="17.966622" electricity_abs="0"
            CO_normed="1653.627862" CO2_normed="118596.414333" HC_normed="10.243804" PMx_normed="1.689527" NOx_normed="45.990967" fuel_normed="50.979987" electricity_normed="0"
            traveltime="0.03" CO_perVeh="0.417934" CO2_perVeh="29.973770" HC_perVeh="0.002589" PMx_perVeh="0.000427" NOx_perVeh="0.011624" fuel_perVeh="0.012885" electricity_perVeh="0"/>
        <edge id=":1110673464_0" sampledSeconds="324.21" CO_abs="424.449543" CO2_abs="37708.267932" HC_abs="2.780521" PMx_abs="0.433220" NOx_abs="13.830839" fuel_abs="16.209403" electricity_abs="0"
            CO_normed="23.029708" CO2_normed="2045.968501" HC_normed="0.150865" PMx_normed="0.023506" NOx_normed="0.750431" fuel_normed="0.879487" electricity_normed="0"
            traveltime="1.17" CO_perVeh="1.534330" CO2_perVeh="136.310463" HC_perVeh="0.010051" PMx_perVeh="0.001566" NOx_perVeh="0.049997" fuel_perVeh="0.058595" electricity_perVeh="0"/>
        <edge id=":1110673464_1" sampledSeconds="709.61" CO_abs="14596.749719" CO2_abs="1983223.233319" HC_abs="113.863684" PMx_abs="34.631148" NOx_abs="737.211295" fuel_abs="852.497113" electricity_abs="0"
            CO_normed="776.049166" CO2_normed="105439.825001" HC_normed="6.053664" PMx_normed="1.841196" NOx_normed="39.194493" fuel_normed="45.323766" electricity_normed="0"
            traveltime="0.70" CO_perVeh="14.403073" CO2_perVeh="1956.908876" HC_perVeh="0.112353" PMx_perVeh="0.034172" NOx_perVeh="0.727430" fuel_perVeh="0.841186" electricity_perVeh="0"/>
        <edge id=":1110673479_0" sampledSeconds="134.12" CO_abs="6409.001039" CO2_abs="450951.541730" HC_abs="39.754692" PMx_abs="7.744076" NOx_abs="183.363656" fuel_abs="193.844624" electricity_abs="0"
            CO_normed="16366.889226" CO2_normed="1151610.662005" HC_normed="101.522942" PMx_normed="19.776316" NOx_normed="468.262157" fuel_normed="495.027770" electricity_normed="0"
            traveltime="0.03" CO_perVeh="1.350116" CO2_perVeh="94.997165" HC_perVeh="0.008375" PMx_perVeh="0.001631" NOx_perVeh="0.038627" fuel_perVeh="0.040835" electricity_perVeh="0"/>
        <edge id=":1110673511_0" sampledSeconds="11.87" CO_abs="189.745397" CO2_abs="22090.882087" HC_abs="1.372989" PMx_abs="0.300394" NOx_abs="8.261772" fuel_abs="9.495954" electricity_abs="0"
            CO_normed="484.559431" CO2_normed="56414.255170" HC_normed="3.506250" PMx_normed="0.767128" NOx_normed="21.098376" fuel_normed="24.250148" electricity_normed="0"
            traveltime="0.02" CO_perVeh="0.375733" CO2_perVeh="43.744321" HC_perVeh="0.002719" PMx_perVeh="0.000595" NOx_perVeh="0.016360" fuel_perVeh="0.018804" electricity_perVeh="0"/>
        <edge id=":1110673517_0" sampledSeconds="17.26" CO_abs="632.430200" CO2_abs="45765.913634" HC_abs="3.953842" PMx_abs="0.787576" NOx_abs="18.596742" fuel_abs="19.672777" electricity_abs="0"
            CO_normed="1615.059033" CO2_normed="116874.008004" HC_normed="10.097065" PMx_normed="2.011260" NOx_normed="47.491147" fuel_normed="50.239057" electricity_normed="0"
            traveltime="0.03" CO_perVeh="1.015408" CO2_perVeh="73.480193" HC_perVeh="0.006348" PMx_perVeh="0.001265" NOx_perVeh="0.029858" fuel_perVeh="0.031586" electricity_perVeh="0"/>
        <edge id=":1110673534_0" sampledSeconds="475.82" CO_abs="2833.442009" CO2_abs="248439.433286" HC_abs="18.585968" PMx_abs="3.371436" NOx_abs="94.426878" fuel_abs="106.794255" electricity_abs="0"
            CO_normed="140.229837" CO2_normed="12295.512320" HC_normed="0.919838" PMx_normed="0.166856" NOx_normed="4.673279" fuel_normed="5.285353" electricity_normed="0"
            traveltime="1.43" CO_perVeh="8.536039" CO2_perVeh="748.449665" HC_perVeh="0.055992" PMx_perVeh="0.010157" NOx_perVeh="0.284471" fuel_perVeh="0.321729" electricity_perVeh="0"/>
        <edge id=":1110673534_1" sampledSeconds="184.04" CO_abs="2774.057142" CO2_abs="358305.955513" HC_abs="20.793691" PMx_abs="4.760568" NOx_abs="132.723966" fuel_abs="154.020820" electricity_abs="0"
            CO_normed="133.496351" CO2_normed="17242.809064" HC_normed="1.000658" PMx_normed="0.229093" NOx_normed="6.387094" fuel_normed="7.411966" electricity_normed="0"
            traveltime="1.22" CO_perVeh="18.418744" CO2_perVeh="2379.022910" HC_perVeh="0.138063" PMx_perVeh="0.031608" NOx_perVeh="0.881239" fuel_perVeh="1.022643" electricity_perVeh="0"/>
        <edge id=":1110673549_0" sampledSeconds="60.13" CO_abs="29.658838" CO2_abs="9242.828486" HC_abs="0.328558" PMx_abs="0.090478" NOx_abs="3.133649" fuel_abs="3.973127" electricity_abs="0"
            CO_normed="1.421918" CO2_normed="443.123901" HC_normed="0.015752" PMx_normed="0.004338" NOx_normed="0.150235" fuel_normed="0.190481" electricity_normed="0"
            traveltime="1.25" CO_perVeh="0.617917" CO2_perVeh="192.566458" HC_perVeh="0.006845" PMx_perVeh="0.001885" NOx_perVeh="0.065287" fuel_perVeh="0.082777" electricity_perVeh="0"/>
        <edge id=":1110673549_1" sampledSeconds="639.20" CO_abs="12580.653457" CO2_abs="1745308.924625" HC_abs="98.918811" PMx_abs="30.211979" NOx_abs="647.314310" fuel_abs="750.228761" electricity_abs="0"
            CO_normed="583.431955" CO2_normed="80939.277285" HC_normed="4.587392" PMx_normed="1.401090" NOx_normed="30.019415" fuel_normed="34.792106" electricity_normed="0"
            traveltime="0.80" CO_perVeh="15.842832" CO2_perVeh="2197.869643" HC_perVeh="0.124569" PMx_perVeh="0.038046" NOx_perVeh="0.815164" fuel_perVeh="0.944764" electricity_perVeh="0"/>
        <edge id=":1110673556_0" sampledSeconds="417.65" CO_abs="52586.035481" CO2_abs="2639292.092848" HC_abs="302.249258" PMx_abs="53.490108" NOx_abs="1138.283320" fuel_abs="1134.517009" electricity_abs="0"
            CO_normed="1869.477366" CO2_normed="93829.032432" HC_normed="10.745213" PMx_normed="1.901618" NOx_normed="40.466920" fuel_normed="40.333025" electricity_normed="0"
            traveltime="2.59" CO_perVeh="326.429618" CO2_perVeh="16383.496130" HC_perVeh="1.876223" PMx_perVeh="0.332042" NOx_perVeh="7.065933" fuel_perVeh="7.042553" electricity_perVeh="0"/>
        <edge id=":1110673556_2" sampledSeconds="249.63" CO_abs="23709.713189" CO2_abs="1015631.824153" HC_abs="131.768518" PMx_abs="19.389385" NOx_abs="431.810144" fuel_abs="436.580639" electricity_abs="0"
            CO_normed="881.343822" CO2_normed="37753.338735" HC_normed="4.898135" PMx_normed="0.720747" NOx_normed="16.051363" fuel_normed="16.228693" electricity_normed="0"
            traveltime="3.03" CO_perVeh="287.594278" CO2_perVeh="12319.419403" HC_perVeh="1.598327" PMx_perVeh="0.235190" NOx_perVeh="5.237774" fuel_perVeh="5.295639" electricity_perVeh="0"/>
        <edge id=":1110673556_3" sampledSeconds="418.23" CO_abs="35882.403816" CO2_abs="1273725.135986" HC_abs="192.994523" PMx_abs="24.124339" NOx_abs="542.076853" fuel_abs="547.530289" electricity_abs="0"
            CO_normed="3034.243201" CO2_normed="107707.160688" HC_normed="16.319763" PMx_normed="2.039972" NOx_normed="45.838429" fuel_normed="46.299575" electricity_normed="0"
            traveltime="1.74" CO_perVeh="148.990632" CO2_perVeh="5288.751378" HC_perVeh="0.801350" PMx_perVeh="0.100169" NOx_perVeh="2.250807" fuel_perVeh="2.273451" electricity_perVeh="0"/>
        <edge id=":1110673556_4" sampledSeconds="195.51" CO_abs="20252.600278" CO2_abs="803336.138849" HC_abs="111.062670" PMx_abs="15.680444" NOx_abs="344.314974" fuel_abs="345.323677" electricity_abs="0"
            CO_normed="1046.252951" CO2_normed="41500.488545" HC_normed="5.737517" PMx_normed="0.810055" NOx_normed="17.787373" fuel_normed="17.839483" electricity_normed="0"
            traveltime="2.43" CO_perVeh="251.466085" CO2_perVeh="9974.610207" HC_perVeh="1.379008" PMx_perVeh="0.194696" NOx_perVeh="4.275181" fuel_perVeh="4.287706" electricity_perVeh="0"/>
        <edge id=":1110673556_5" sampledSeconds="25.32" CO_abs="2331.417121" CO2_abs="92175.662477" HC_abs="12.777044" PMx_abs="1.795794" NOx_abs="39.497015" fuel_abs="39.622825" electricity_abs="0"
            CO_normed="167.870896" CO2_normed="6636.998132" HC_normed="0.919996" PMx_normed="0.129304" NOx_normed="2.843935" fuel_normed="2.852994" electricity_normed="0"
            traveltime="1.75" CO_perVeh="161.184394" CO2_perVeh="6372.638393" HC_perVeh="0.883351" PMx_perVeh="0.124154" NOx_perVeh="2.730658" fuel_perVeh="2.739356" electricity_perVeh="0"/>
        <edge id=":1110673556_6" sampledSeconds="489.19" CO_abs="58737.718155" CO2_abs="2867274.708360" HC_abs="335.622682" PMx_abs="58.056084" NOx_abs="1236.460102" fuel_abs="1232.518270" electricity_abs="0"
            CO_normed="2140.826219" CO2_normed="104504.176649" HC_normed="12.232512" PMx_normed="2.115983" NOx_normed="45.065527" fuel_normed="44.921858" electricity_normed="0"
            traveltime="2.63" CO_perVeh="315.443185" CO2_perVeh="15398.321456" HC_perVeh="1.802417" PMx_perVeh="0.311783" NOx_perVeh="6.640246" fuel_perVeh="6.619077" electricity_perVeh="0"/>
        <edge id=":1110673561_0" sampledSeconds="100.19" CO_abs="9786.386839" CO2_abs="707206.843902" HC_abs="61.583011" PMx_abs="14.275331" NOx_abs="298.715665" fuel_abs="303.994517" electricity_abs="0"
            CO_normed="448.150096" CO2_normed="32385.273539" HC_normed="2.820084" PMx_normed="0.653713" NOx_normed="13.679150" fuel_normed="13.920886" electricity_normed="0"
            traveltime="1.18" CO_perVeh="115.488863" CO2_perVeh="8345.727173" HC_perVeh="0.726739" PMx_perVeh="0.168463" NOx_perVeh="3.525135" fuel_perVeh="3.587430" electricity_perVeh="0"/>
        <edge id=":1110673561_1" sampledSeconds="1315.51" CO_abs="123452.388302" CO2_abs="8514881.533002" HC_abs="768.247069" PMx_abs="178.435319" NOx_abs="3644.098319" fuel_abs="3660.136039" electricity_abs="0"
            CO_normed="5511.620013" CO2_normed="380152.965130" HC_normed="34.298939" PMx_normed="7.966372" NOx_normed="162.693371" fuel_normed="163.409387" electricity_normed="0"
            traveltime="1.19" CO_perVeh="111.975351" CO2_perVeh="7723.275835" HC_perVeh="0.696825" PMx_perVeh="0.161847" NOx_perVeh="3.305316" fuel_perVeh="3.319863" electricity_perVeh="0"/>
        <edge id=":1110673562_0" sampledSeconds="103.91" CO_abs="2516.883822" CO2_abs="203406.676178" HC_abs="16.086183" PMx_abs="2.662254" NOx_abs="76.936296" fuel_abs="87.436751" electricity_abs="0"
            CO_normed="7141.615441" CO2_normed="577163.016749" HC_normed="45.644275" PMx_normed="7.554100" NOx_normed="218.305445" fuel_normed="248.100309" electricity_normed="0"
            traveltime="0.03" CO_perVeh="0.641565" CO2_perVeh="51.849288" HC_perVeh="0.004100" PMx_perVeh="0.000679" NOx_perVeh="0.019611" fuel_perVeh="0.022288" electricity_perVeh="0"/>
        <edge id=":1110673564_0" sampledSeconds="28.89" CO_abs="400.700021" CO2_abs="51260.631878" HC_abs="3.003459" PMx_abs="0.677253" NOx_abs="18.997365" fuel_abs="22.034820" electricity_abs="0"
            CO_normed="3069.844810" CO2_normed="392718.184208" HC_normed="23.010115" PMx_normed="5.188577" NOx_normed="145.542699" fuel_normed="168.813266" electricity_normed="0"
            traveltime="7.941918e-03" CO_perVeh="0.110158" CO2_perVeh="14.092270" HC_perVeh="0.000826" PMx_perVeh="0.000186" NOx_perVeh="0.005223" fuel_perVeh="0.006058" electricity_perVeh="0"/>
        <edge id=":1110673588_0" sampledSeconds="11.64" CO_abs="152.532931" CO2_abs="20744.938923" HC_abs="1.168087" PMx_abs="0.265698" NOx_abs="7.613065" fuel_abs="8.917395" electricity_abs="0"
            CO_normed="467.434392" CO2_normed="63572.487869" HC_normed="3.579581" PMx_normed="0.814227" NOx_normed="23.330098" fuel_normed="27.327196" electricity_normed="0"
            traveltime="0.02" CO_perVeh="0.254222" CO2_perVeh="34.574898" HC_perVeh="0.001947" PMx_perVeh="0.000443" NOx_perVeh="0.012688" fuel_perVeh="0.014862" electricity_perVeh="0"/>
        <edge id=":1110673601_0" sampledSeconds="29.96" CO_abs="413.681186" CO2_abs="48161.428717" HC_abs="2.980606" PMx_abs="0.658510" NOx_abs="18.054487" fuel_abs="20.702591" electricity_abs="0"
            CO_normed="1131.891489" CO2_normed="131776.626774" HC_normed="8.155370" PMx_normed="1.801780" NOx_normed="49.399684" fuel_normed="56.645279" electricity_normed="0"
            traveltime="0.02" CO_perVeh="0.307040" CO2_perVeh="35.746057" HC_perVeh="0.002212" PMx_perVeh="0.000489" NOx_perVeh="0.013400" fuel_perVeh="0.015366" electricity_perVeh="0"/>
        <edge id=":1110673617_0" sampledSeconds="238.38" CO_abs="5959.912162" CO2_abs="730322.541360" HC_abs="44.619884" PMx_abs="13.126962" NOx_abs="275.910324" fuel_abs="313.932033" electricity_abs="0"
            CO_normed="15220.035315" CO2_normed="1865050.116263" HC_normed="113.947352" PMx_normed="33.522781" NOx_normed="704.601807" fuel_normed="801.699170" electricity_normed="0"
            traveltime="0.01" CO_perVeh="0.365174" CO2_perVeh="44.748100" HC_perVeh="0.002734" PMx_perVeh="0.000804" NOx_perVeh="0.016905" fuel_perVeh="0.019235" electricity_perVeh="0"/>
        <edge id=":1110673621_0" sampledSeconds="25.75" CO_abs="733.414466" CO2_abs="71776.435756" HC_abs="4.999535" PMx_abs="1.108942" NOx_abs="27.886129" fuel_abs="30.853588" electricity_abs="0"
            CO_normed="2247.535288" CO2_normed="219957.581375" HC_normed="15.320984" PMx_normed="3.398333" NOx_normed="85.456536" fuel_normed="94.550259" electricity_normed="0"
            traveltime="0.02" CO_perVeh="0.555617" CO2_perVeh="54.376088" HC_perVeh="0.003788" PMx_perVeh="0.000840" NOx_perVeh="0.021126" fuel_perVeh="0.023374" electricity_perVeh="0"/>
        <edge id=":1110673630_0" sampledSeconds="53.95" CO_abs="175.644317" CO2_abs="21554.095085" HC_abs="1.283270" PMx_abs="0.222019" NOx_abs="7.623262" fuel_abs="9.265310" electricity_abs="0"
            CO_normed="9.598053" CO2_normed="1177.819761" HC_normed="0.070124" PMx_normed="0.012132" NOx_normed="0.416572" fuel_normed="0.506301" electricity_normed="0"
            traveltime="1.26" CO_perVeh="4.099849" CO2_perVeh="503.110704" HC_perVeh="0.029954" PMx_perVeh="0.005182" NOx_perVeh="0.177940" fuel_perVeh="0.216269" electricity_perVeh="0"/>
        <edge id=":1110673630_1" sampledSeconds="7.50" CO_abs="6.155151" CO2_abs="473.353935" HC_abs="0.039105" PMx_abs="0.007893" NOx_abs="0.190342" fuel_abs="0.203474" electricity_abs="0"
            CO_normed="0.410051" CO2_normed="31.534446" HC_normed="0.002605" PMx_normed="0.000526" NOx_normed="0.012680" fuel_normed="0.013555" electricity_normed="0"
            traveltime="1.06" CO_perVeh="0.871191" CO2_perVeh="66.997788" HC_perVeh="0.005535" PMx_perVeh="0.001117" NOx_perVeh="0.026941" fuel_perVeh="0.028799" electricity_perVeh="0"/>
        <edge id=":1110673650_0" sampledSeconds="143.46" CO_abs="2199.368421" CO2_abs="278741.363842" HC_abs="16.348064" PMx_abs="3.782000" NOx_abs="103.789679" fuel_abs="119.819220" electricity_abs="0"
            CO_normed="5616.603755" CO2_normed="711831.531411" HC_normed="41.748621" PMx_normed="9.658226" NOx_normed="265.051318" fuel_normed="305.986515" electricity_normed="0"
            traveltime="0.02" CO_perVeh="0.353123" CO2_perVeh="44.753765" HC_perVeh="0.002625" PMx_perVeh="0.000607" NOx_perVeh="0.016664" fuel_perVeh="0.019238" electricity_perVeh="0"/>
        <edge id=":1110673655_0" sampledSeconds="45.16" CO_abs="801.414014" CO2_abs="78778.286401" HC_abs="5.473239" PMx_abs="1.193197" NOx_abs="30.459368" fuel_abs="33.863415" electricity_abs="0"
            CO_normed="2046.598887" CO2_normed="201178.854396" HC_normed="13.977201" PMx_normed="3.047108" NOx_normed="77.785150" fuel_normed="86.478182" electricity_normed="0"
            traveltime="0.02" CO_perVeh="0.428908" CO2_perVeh="42.161245" HC_perVeh="0.002929" PMx_perVeh="0.000639" NOx_perVeh="0.016302" fuel_perVeh="0.018123" electricity_perVeh="0"/>
        <edge id=":1110673663_0" sampledSeconds="109.34" CO_abs="1537.096377" CO2_abs="192940.936036" HC_abs="11.394694" PMx_abs="2.602675" NOx_abs="71.778066" fuel_abs="82.937250" electricity_abs="0"
            CO_normed="71.892611" CO2_normed="9024.175639" HC_normed="0.532949" PMx_normed="0.121732" NOx_normed="3.357182" fuel_normed="3.879116" electricity_normed="0"
            traveltime="1.28" CO_perVeh="18.053922" CO2_perVeh="2266.182315" HC_perVeh="0.133836" PMx_perVeh="0.030570" NOx_perVeh="0.843067" fuel_perVeh="0.974137" electricity_perVeh="0"/>
        <edge id=":1110673663_1" sampledSeconds="155.33" CO_abs="2277.435717" CO2_abs="289730.609536" HC_abs="17.015074" PMx_abs="3.933026" NOx_abs="107.908269" fuel_abs="124.543035" electricity_abs="0"
            CO_normed="106.649760" CO2_normed="13567.759492" HC_normed="0.796797" PMx_normed="0.184179" NOx_normed="5.053223" fuel_normed="5.832211" electricity_normed="0"
            traveltime="1.26" CO_perVeh="18.419824" CO2_perVeh="2343.331462" HC_perVeh="0.137617" PMx_perVeh="0.031810" NOx_perVeh="0.872758" fuel_perVeh="1.007300" electricity_perVeh="0"/>
        <edge id=":1110673666_0" sampledSeconds="192.31" CO_abs="4073.347647" CO2_abs="325825.075568" HC_abs="25.980692" PMx_abs="4.396474" NOx_abs="124.150697" fuel_abs="140.059568" electricity_abs="0"
            CO_normed="255.165571" CO2_normed="20410.568593" HC_normed="1.627501" PMx_normed="0.275407" NOx_normed="7.777137" fuel_normed="8.773712" electricity_normed="0"