<?xml version="1.0" encoding="UTF-8"?>

<!-- generated on ter 01 set 2020 19:00:10 by Eclipse SUMO GUI Version 1.6.0
<configuration xmlns:xsi="http://www.w3.org/2001/XMLSchema-instance" xsi:noNamespaceSchemaLocation="http://sumo.dlr.de/xsd/sumoConfiguration.xsd">

    <input>
        <net-file value="../dataSets/Angeja_Estarreja/angeja_estarreja.net.xml"/>
        <route-files value="../results/angeja_estarreja/length-ttime/solution17/angeja_estarreja.rou.xml"/>
        <additional-files value="moreOutputInfo.xml"/>
    </input>

    <output>
        <emission-output.precision value="6"/>
        <tripinfo-output value="../results/angeja_estarreja/length-ttime/solution17/angeja_estarreja-tripinfo"/>
    </output>

    <processing>
        <collision.action value="warn"/>
        <time-to-teleport value="-1"/>
    </processing>

    <emissions>
        <device.emissions.probability value="1"/>
    </emissions>

    <gui_only>
        <gui-settings-file value="gui-settings.xml"/>
        <quit-on-end value="true"/>
        <start value="true"/>
    </gui_only>

</configuration>
-->

<meandata xmlns:xsi="http://www.w3.org/2001/XMLSchema-instance" xsi:noNamespaceSchemaLocation="http://sumo.dlr.de/xsd/meandata_file.xsd">
    <interval begin="0.00" end="19079.00" id="emissions-detector">
        <edge id=":10_0" sampledSeconds="386.38" CO_abs="40455.340842" CO2_abs="2214890.616399" HC_abs="236.783931" PMx_abs="43.585424" NOx_abs="946.231125" fuel_abs="952.084161" electricity_abs="0"
            CO_normed="436.448442" CO2_normed="23895.128288" HC_normed="2.554520" PMx_normed="0.470217" NOx_normed="10.208321" fuel_normed="10.271466" electricity_normed="0"
            traveltime="1.92" CO_perVeh="200.797411" CO2_perVeh="10993.463217" HC_perVeh="1.175261" PMx_perVeh="0.216333" NOx_perVeh="4.696556" fuel_perVeh="4.725607" electricity_perVeh="0"/>
        <edge id=":10_1" sampledSeconds="0.00" CO_abs="0" CO2_abs="0" HC_abs="0" PMx_abs="0" NOx_abs="0" fuel_abs="0" electricity_abs="0"
            CO_normed="0" CO2_normed="0" HC_normed="0" PMx_normed="0" NOx_normed="0" fuel_normed="0" electricity_normed="0"/>
        <edge id=":100_0" sampledSeconds="0.00" CO_abs="0" CO2_abs="0" HC_abs="0" PMx_abs="0" NOx_abs="0" fuel_abs="0" electricity_abs="0"
            CO_normed="0" CO2_normed="0" HC_normed="0" PMx_normed="0" NOx_normed="0" fuel_normed="0" electricity_normed="0"/>
        <edge id=":100_1" sampledSeconds="911.40" CO_abs="21582.056540" CO2_abs="2736646.951503" HC_abs="164.760026" PMx_abs="49.422242" NOx_abs="1021.157490" fuel_abs="1176.359134" electricity_abs="0"
            CO_normed="137.763856" CO2_normed="17468.726154" HC_normed="1.051706" PMx_normed="0.315475" NOx_normed="6.518313" fuel_normed="7.509005" electricity_normed="0"
            traveltime="1.37" CO_perVeh="32.450558" CO2_perVeh="4114.794117" HC_perVeh="0.247731" PMx_perVeh="0.074311" NOx_perVeh="1.535402" fuel_perVeh="1.768761" electricity_perVeh="0"/>
        <edge id=":101_0" sampledSeconds="438.42" CO_abs="10509.708955" CO2_abs="1325373.416740" HC_abs="80.081244" PMx_abs="23.974812" NOx_abs="495.037605" fuel_abs="569.717274" electricity_abs="0"
            CO_normed="242.725568" CO2_normed="30609.983243" HC_normed="1.849506" PMx_normed="0.553707" NOx_normed="11.433074" fuel_normed="13.157829" electricity_normed="0"
            traveltime="0.38" CO_perVeh="9.079074" CO2_perVeh="1144.956813" HC_perVeh="0.069180" PMx_perVeh="0.020711" NOx_perVeh="0.427651" fuel_perVeh="0.492164" electricity_perVeh="0"/>
        <edge id=":102_0" sampledSeconds="340.91" CO_abs="8129.720265" CO2_abs="1054960.999460" HC_abs="62.635795" PMx_abs="18.934905" NOx_abs="392.049657" fuel_abs="453.479499" electricity_abs="0"
            CO_normed="189.381467" CO2_normed="24575.268899" HC_normed="1.459098" PMx_normed="0.441088" NOx_normed="9.132779" fuel_normed="10.563784" electricity_normed="0"
            traveltime="0.38" CO_perVeh="8.943404" CO2_perVeh="1160.549514" HC_perVeh="0.068905" PMx_perVeh="0.020830" NOx_perVeh="0.431289" fuel_perVeh="0.498867" electricity_perVeh="0"/>
        <edge id=":103_0" sampledSeconds="434.72" CO_abs="9964.703935" CO2_abs="1259126.429199" HC_abs="75.995466" PMx_abs="22.767023" NOx_abs="470.109387" fuel_abs="541.240742" electricity_abs="0"
            CO_normed="233.569113" CO2_normed="29513.475322" HC_normed="1.781307" PMx_normed="0.533651" NOx_normed="11.019197" fuel_normed="12.686490" electricity_normed="0"
            traveltime="0.37" CO_perVeh="8.561290" CO2_perVeh="1081.793007" HC_perVeh="0.065292" PMx_perVeh="0.019561" NOx_perVeh="0.403900" fuel_perVeh="0.465013" electricity_perVeh="0"/>
        <edge id=":104_0" sampledSeconds="341.18" CO_abs="8580.488827" CO2_abs="1056036.405587" HC_abs="64.771694" PMx_abs="19.235426" NOx_abs="396.084110" fuel_abs="453.941535" electricity_abs="0"
            CO_normed="200.129173" CO2_normed="24630.728743" HC_normed="1.510719" PMx_normed="0.448642" NOx_normed="9.238167" fuel_normed="10.587619" electricity_normed="0"
            traveltime="0.38" CO_perVeh="9.434990" CO2_perVeh="1161.203380" HC_perVeh="0.071222" PMx_perVeh="0.021151" NOx_perVeh="0.435529" fuel_perVeh="0.499148" electricity_perVeh="0"/>
        <edge id=":105_0" sampledSeconds="168.76" CO_abs="3937.430386" CO2_abs="502500.571087" HC_abs="30.115833" PMx_abs="9.055528" NOx_abs="187.283250" fuel_abs="216.001985" electricity_abs="0"
            CO_normed="3377.046965" CO2_normed="430983.626909" HC_normed="25.829684" PMx_normed="7.766726" NOx_normed="160.628701" fuel_normed="185.260126" electricity_normed="0"
            traveltime="0.01" CO_perVeh="0.238105" CO2_perVeh="30.387276" HC_perVeh="0.001821" PMx_perVeh="0.000548" NOx_perVeh="0.011325" fuel_perVeh="0.013062" electricity_perVeh="0"/>
        <edge id=":106_0" sampledSeconds="134.48" CO_abs="3246.610471" CO2_abs="412801.435827" HC_abs="24.824047" PMx_abs="7.451988" NOx_abs="153.957220" fuel_abs="177.444428" electricity_abs="0"
            CO_normed="1976.129420" CO2_normed="251261.760351" HC_normed="15.109767" PMx_normed="4.535836" NOx_normed="93.709854" fuel_normed="108.005921" electricity_normed="0"
            traveltime="0.01" CO_perVeh="0.347126" CO2_perVeh="44.136486" HC_perVeh="0.002654" PMx_perVeh="0.000797" NOx_perVeh="0.016461" fuel_perVeh="0.018972" electricity_perVeh="0"/>
        <edge id=":107_0" sampledSeconds="438.59" CO_abs="11163.098835" CO2_abs="1341777.046380" HC_abs="83.462088" PMx_abs="24.597262" NOx_abs="505.299072" fuel_abs="576.768179" electricity_abs="0"
            CO_normed="257.815846" CO2_normed="30988.831062" HC_normed="1.927587" PMx_normed="0.568083" NOx_normed="11.670067" fuel_normed="13.320672" electricity_normed="0"
            traveltime="0.38" CO_perVeh="9.643468" CO2_perVeh="1159.121123" HC_perVeh="0.072100" PMx_perVeh="0.021249" NOx_perVeh="0.436513" fuel_perVeh="0.498253" electricity_perVeh="0"/>
        <edge id=":108_0" sampledSeconds="94.25" CO_abs="8085.689370" CO2_abs="585761.078948" HC_abs="50.879369" PMx_abs="11.772574" NOx_abs="247.133238" fuel_abs="251.790822" electricity_abs="0"
            CO_normed="126.823086" CO2_normed="9187.593608" HC_normed="0.798037" PMx_normed="0.184651" NOx_normed="3.876256" fuel_normed="3.949309" electricity_normed="0"
            traveltime="0.86" CO_perVeh="73.353156" CO2_perVeh="5314.008729" HC_perVeh="0.461576" PMx_perVeh="0.106800" NOx_perVeh="2.241986" fuel_perVeh="2.284240" electricity_perVeh="0"/>
        <edge id=":108_1" sampledSeconds="403.17" CO_abs="9514.569801" CO2_abs="1220964.326075" HC_abs="72.940882" PMx_abs="21.970070" NOx_abs="454.675761" fuel_abs="524.836678" electricity_abs="0"
            CO_normed="139.170228" CO2_normed="17859.124196" HC_normed="1.066911" PMx_normed="0.321358" NOx_normed="6.650572" fuel_normed="7.676820" electricity_normed="0"
            traveltime="0.60" CO_perVeh="14.134129" CO2_perVeh="1813.772750" HC_perVeh="0.108355" PMx_perVeh="0.032637" NOx_perVeh="0.675432" fuel_perVeh="0.779658" electricity_perVeh="0"/>
        <edge id=":109_0" sampledSeconds="306.71" CO_abs="164.825394" CO2_abs="27070.552413" HC_abs="1.374617" PMx_abs="0.344163" NOx_abs="9.772701" fuel_abs="11.636507" electricity_abs="0"
            CO_normed="2.478148" CO2_normed="407.005507" HC_normed="0.020667" PMx_normed="0.005174" NOx_normed="0.146932" fuel_normed="0.174955" electricity_normed="0"
            traveltime="0.85" CO_perVeh="0.458122" CO2_perVeh="75.240944" HC_perVeh="0.003821" PMx_perVeh="0.000957" NOx_perVeh="0.027163" fuel_perVeh="0.032343" electricity_perVeh="0"/>
        <edge id=":109_1" sampledSeconds="524.75" CO_abs="12414.500625" CO2_abs="1554464.537777" HC_abs="94.280990" PMx_abs="28.164046" NOx_abs="581.324920" fuel_abs="668.192998" electricity_abs="0"
            CO_normed="121.750591" CO2_normed="15244.832041" HC_normed="0.924626" PMx_normed="0.276208" NOx_normed="5.701128" fuel_normed="6.553054" electricity_normed="0"
            traveltime="0.89" CO_perVeh="21.138938" CO2_perVeh="2646.882920" HC_perVeh="0.160538" PMx_perVeh="0.047957" NOx_perVeh="0.989858" fuel_perVeh="1.137774" electricity_perVeh="0"/>
        <edge id=":11_0" sampledSeconds="270.82" CO_abs="16516.243004" CO2_abs="1209274.188399" HC_abs="103.718394" PMx_abs="21.401961" NOx_abs="494.456937" fuel_abs="519.813431" electricity_abs="0"
            CO_normed="170.763595" CO2_normed="12502.843845" HC_normed="1.072358" PMx_normed="0.221278" NOx_normed="5.112255" fuel_normed="5.374419" electricity_normed="0"
            traveltime="1.59" CO_perVeh="97.076486" CO2_perVeh="7107.675103" HC_perVeh="0.609619" PMx_perVeh="0.125793" NOx_perVeh="2.906239" fuel_perVeh="3.055275" electricity_perVeh="0"/>
        <edge id=":11_1" sampledSeconds="51.62" CO_abs="1050.799901" CO2_abs="89037.846074" HC_abs="6.820640" PMx_abs="1.209402" NOx_abs="33.895395" fuel_abs="38.273861" electricity_abs="0"
            CO_normed="11.139018" CO2_normed="943.846861" HC_normed="0.072302" PMx_normed="0.012820" NOx_normed="0.359309" fuel_normed="0.405723" electricity_normed="0"
            traveltime="1.70" CO_perVeh="34.561010" CO2_perVeh="2928.471850" HC_perVeh="0.224332" PMx_perVeh="0.039777" NOx_perVeh="1.114826" fuel_perVeh="1.258835" electricity_perVeh="0"/>
        <edge id=":110_0" sampledSeconds="94.92" CO_abs="1.281594" CO2_abs="81.712022" HC_abs="0.007743" PMx_abs="0.001395" NOx_abs="0.033362" fuel_abs="0.035125" electricity_abs="0"
            CO_normed="0.016620" CO2_normed="1.059668" HC_normed="0.000100" PMx_normed="0.000018" NOx_normed="0.000433" fuel_normed="0.000456" electricity_normed="0"
            traveltime="0.93" CO_perVeh="0.012548" CO2_perVeh="0.800020" HC_perVeh="0.000076" PMx_perVeh="0.000014" NOx_perVeh="0.000327" fuel_perVeh="0.000344" electricity_perVeh="0"/>
        <edge id=":110_1" sampledSeconds="443.76" CO_abs="10256.497044" CO2_abs="1287044.985707" HC_abs="78.022751" PMx_abs="23.320512" NOx_abs="481.075181" fuel_abs="553.241616" electricity_abs="0"
            CO_normed="131.652350" CO2_normed="16520.503715" HC_normed="1.001500" PMx_normed="0.299342" NOx_normed="6.175079" fuel_normed="7.101407" electricity_normed="0"
            traveltime="0.68" CO_perVeh="15.755553" CO2_perVeh="1977.098528" HC_perVeh="0.119855" PMx_perVeh="0.035824" NOx_perVeh="0.739005" fuel_perVeh="0.849864" electricity_perVeh="0"/>
        <edge id=":111_0" sampledSeconds="340.99" CO_abs="8593.457472" CO2_abs="1065660.386339" HC_abs="65.011533" PMx_abs="19.362645" NOx_abs="399.082066" fuel_abs="458.078481" electricity_abs="0"
            CO_normed="198.469040" CO2_normed="24611.815928" HC_normed="1.501465" PMx_normed="0.447187" NOx_normed="9.216946" fuel_normed="10.579490" electricity_normed="0"
            traveltime="0.38" CO_perVeh="9.550379" CO2_perVeh="1184.326626" HC_perVeh="0.072251" PMx_perVeh="0.021519" NOx_perVeh="0.443522" fuel_perVeh="0.509088" electricity_perVeh="0"/>
        <edge id=":114_0" sampledSeconds="107.51" CO_abs="10686.600380" CO2_abs="754002.283577" HC_abs="66.854343" PMx_abs="15.528159" NOx_abs="320.861658" fuel_abs="324.109351" electricity_abs="0"
            CO_normed="142.003196" CO2_normed="10019.157635" HC_normed="0.888358" PMx_normed="0.206338" NOx_normed="4.263599" fuel_normed="4.306754" electricity_normed="0"
            traveltime="0.99" CO_perVeh="98.862976" CO2_perVeh="6975.362342" HC_perVeh="0.618477" PMx_perVeh="0.143653" NOx_perVeh="2.968328" fuel_perVeh="2.998373" electricity_perVeh="0"/>
        <edge id=":114_1" sampledSeconds="415.85" CO_abs="10606.831799" CO2_abs="1284952.513916" HC_abs="79.561840" PMx_abs="23.513815" NOx_abs="483.033193" fuel_abs="552.341985" electricity_abs="0"
            CO_normed="140.055557" CO2_normed="16966.870393" HC_normed="1.050557" PMx_normed="0.310483" NOx_normed="6.378105" fuel_normed="7.293277" electricity_normed="0"
            traveltime="0.66" CO_perVeh="16.901687" CO2_perVeh="2047.535574" HC_perVeh="0.126780" PMx_perVeh="0.037469" NOx_perVeh="0.769700" fuel_perVeh="0.880141" electricity_perVeh="0"/>
        <edge id=":115_0" sampledSeconds="80.30" CO_abs="123.839980" CO2_abs="15481.513533" HC_abs="0.919855" PMx_abs="0.205393" NOx_abs="5.756949" fuel_abs="6.654861" electricity_abs="0"
            CO_normed="2.798474" CO2_normed="349.843520" HC_normed="0.020786" PMx_normed="0.004641" NOx_normed="0.130093" fuel_normed="0.150383" electricity_normed="0"
            traveltime="0.63" CO_perVeh="0.974521" CO2_perVeh="121.827008" HC_perVeh="0.007239" PMx_perVeh="0.001616" NOx_perVeh="0.045303" fuel_perVeh="0.052368" electricity_perVeh="0"/>
        <edge id=":115_1" sampledSeconds="72.17" CO_abs="1048.862191" CO2_abs="171754.201524" HC_abs="8.585100" PMx_abs="2.481232" NOx_abs="63.210300" fuel_abs="73.829583" electricity_abs="0"
            CO_normed="21.166727" CO2_normed="3466.112477" HC_normed="0.173253" PMx_normed="0.050073" NOx_normed="1.275625" fuel_normed="1.489929" electricity_normed="0"
            traveltime="0.59" CO_perVeh="8.586692" CO2_perVeh="1406.095600" HC_perVeh="0.070283" PMx_perVeh="0.020313" NOx_perVeh="0.517482" fuel_perVeh="0.604419" electricity_perVeh="0"/>
        <edge id=":116_0" sampledSeconds="74.77" CO_abs="39.855412" CO2_abs="6118.197639" HC_abs="0.316813" PMx_abs="0.069977" NOx_abs="2.191748" fuel_abs="2.629969" electricity_abs="0"
            CO_normed="1.005385" CO2_normed="154.336553" HC_normed="0.007992" PMx_normed="0.001765" NOx_normed="0.055289" fuel_normed="0.066343" electricity_normed="0"
            traveltime="0.56" CO_perVeh="0.300938" CO2_perVeh="46.196984" HC_perVeh="0.002392" PMx_perVeh="0.000528" NOx_perVeh="0.016549" fuel_perVeh="0.019858" electricity_perVeh="0"/>
        <edge id=":117_0" sampledSeconds="239.27" CO_abs="14180.632525" CO2_abs="1168710.761470" HC_abs="92.389331" PMx_abs="21.587645" NOx_abs="478.089844" fuel_abs="502.374680" electricity_abs="0"
            CO_normed="320.446860" CO2_normed="26409.942783" HC_normed="2.087768" PMx_normed="0.487827" NOx_normed="10.803636" fuel_normed="11.352412" electricity_normed="0"
            traveltime="0.60" CO_perVeh="35.723372" CO2_perVeh="2944.176814" HC_perVeh="0.232744" PMx_perVeh="0.054383" NOx_perVeh="1.204388" fuel_perVeh="1.265565" electricity_perVeh="0"/>
        <edge id=":117_1" sampledSeconds="76.35" CO_abs="4690.172274" CO2_abs="369449.599608" HC_abs="30.170511" PMx_abs="7.029752" NOx_abs="152.755758" fuel_abs="158.809120" electricity_abs="0"
            CO_normed="99.885389" CO2_normed="7868.072827" HC_normed="0.642534" PMx_normed="0.149711" NOx_normed="3.253200" fuel_normed="3.382117" electricity_normed="0"
            traveltime="0.65" CO_perVeh="39.652782" CO2_perVeh="3123.489654" HC_perVeh="0.255075" PMx_perVeh="0.059433" NOx_perVeh="1.291464" fuel_perVeh="1.342642" electricity_perVeh="0"/>
        <edge id=":118_0" sampledSeconds="898.23" CO_abs="13629.114929" CO2_abs="2069243.354535" HC_abs="108.596077" PMx_abs="30.882885" NOx_abs="768.835256" fuel_abs="889.476116" electricity_abs="0"
            CO_normed="41.351759" CO2_normed="6278.239877" HC_normed="0.329489" PMx_normed="0.093701" NOx_normed="2.332704" fuel_normed="2.698737" electricity_normed="0"
            traveltime="3.92" CO_perVeh="59.446096" CO2_perVeh="9025.416451" HC_perVeh="0.473663" PMx_perVeh="0.134702" NOx_perVeh="3.353428" fuel_perVeh="3.879627" electricity_perVeh="0"/>
        <edge id=":118_4" sampledSeconds="282.60" CO_abs="4055.845388" CO2_abs="657860.143347" HC_abs="33.220100" PMx_abs="9.487608" NOx_abs="241.890637" fuel_abs="282.785265" electricity_abs="0"
            CO_normed="12.329530" CO2_normed="1999.855988" HC_normed="0.100987" PMx_normed="0.028842" NOx_normed="0.735333" fuel_normed="0.859651" electricity_normed="0"
            traveltime="3.92" CO_perVeh="56.231784" CO2_perVeh="9120.823397" HC_perVeh="0.460576" PMx_perVeh="0.131540" NOx_perVeh="3.353664" fuel_perVeh="3.920643" electricity_perVeh="0"/>
        <edge id=":118_5" sampledSeconds="238.85" CO_abs="3824.951422" CO2_abs="574653.506490" HC_abs="30.472870" PMx_abs="8.704529" NOx_abs="214.393974" fuel_abs="247.017957" electricity_abs="0"
            CO_normed="11.743032" CO2_normed="1764.251104" HC_normed="0.093555" PMx_normed="0.026724" NOx_normed="0.658214" fuel_normed="0.758373" electricity_normed="0"
            traveltime="3.82" CO_perVeh="61.216275" CO2_perVeh="9197.017981" HC_perVeh="0.487702" PMx_perVeh="0.139311" NOx_perVeh="3.431259" fuel_perVeh="3.953389" electricity_perVeh="0"/>
        <edge id=":119_0" sampledSeconds="139.14" CO_abs="1956.368394" CO2_abs="296190.107895" HC_abs="15.670566" PMx_abs="4.435985" NOx_abs="110.345502" fuel_abs="127.318995" electricity_abs="0"
            CO_normed="41.948348" CO2_normed="6350.892631" HC_normed="0.336007" PMx_normed="0.095116" NOx_normed="2.366022" fuel_normed="2.729967" electricity_normed="0"
            traveltime="0.56" CO_perVeh="7.842942" CO2_perVeh="1187.405107" HC_perVeh="0.062822" PMx_perVeh="0.017784" NOx_perVeh="0.442367" fuel_perVeh="0.510413" electricity_perVeh="0"/>
        <edge id=":12_0" sampledSeconds="592.50" CO_abs="55170.650857" CO2_abs="3122187.094476" HC_abs="325.409155" PMx_abs="61.452685" NOx_abs="1332.270986" fuel_abs="1342.089617" electricity_abs="0"
            CO_normed="516.886910" CO2_normed="29251.379398" HC_normed="3.048718" PMx_normed="0.575743" NOx_normed="12.481880" fuel_normed="12.573869" electricity_normed="0"
            traveltime="2.12" CO_perVeh="197.360738" CO2_perVeh="11168.930233" HC_perVeh="1.164079" PMx_perVeh="0.219833" NOx_perVeh="4.765903" fuel_perVeh="4.801027" electricity_perVeh="0"/>
        <edge id=":12_1" sampledSeconds="56.16" CO_abs="1233.481831" CO2_abs="106099.173346" HC_abs="8.047292" PMx_abs="1.461346" NOx_abs="40.505048" fuel_abs="45.607808" electricity_abs="0"
            CO_normed="11.544872" CO2_normed="993.043711" HC_normed="0.075319" PMx_normed="0.013678" NOx_normed="0.379110" fuel_normed="0.426870" electricity_normed="0"
            traveltime="1.89" CO_perVeh="41.594731" CO2_perVeh="3577.812349" HC_perVeh="0.271366" PMx_perVeh="0.049279" NOx_perVeh="1.365887" fuel_perVeh="1.537959" electricity_perVeh="0"/>
        <edge id=":120_0" sampledSeconds="39.09" CO_abs="400.979993" CO2_abs="82353.114022" HC_abs="3.622118" PMx_abs="1.100405" NOx_abs="29.527498" fuel_abs="35.400051" electricity_abs="0"
            CO_normed="315.252366" CO2_normed="64746.407586" HC_normed="2.847727" PMx_normed="0.865143" NOx_normed="23.214658" fuel_normed="27.831688" electricity_normed="0"
            traveltime="0.02" CO_perVeh="0.154285" CO2_perVeh="31.686970" HC_perVeh="0.001394" PMx_perVeh="0.000423" NOx_perVeh="0.011361" fuel_perVeh="0.013621" electricity_perVeh="0"/>
        <edge id=":121_0" sampledSeconds="378.18" CO_abs="53797.092731" CO2_abs="1434015.032060" HC_abs="278.626672" PMx_abs="30.956448" NOx_abs="634.184106" fuel_abs="616.439092" electricity_abs="0"
            CO_normed="30760.384467" CO2_normed="819948.652956" HC_normed="159.314623" PMx_normed="17.700441" NOx_normed="362.617122" fuel_normed="352.470784" electricity_normed="0"
            traveltime="0.12" CO_perVeh="16.459977" CO2_perVeh="438.757062" HC_perVeh="0.085250" PMx_perVeh="0.009472" NOx_perVeh="0.194038" fuel_perVeh="0.188608" electricity_perVeh="0"/>
        <edge id=":122_0" sampledSeconds="135.41" CO_abs="887.070370" CO2_abs="97035.873043" HC_abs="6.297552" PMx_abs="1.665380" NOx_abs="37.923357" fuel_abs="41.711267" electricity_abs="0"
            CO_normed="19.530985" CO2_normed="2136.477820" HC_normed="0.138656" PMx_normed="0.036667" NOx_normed="0.834974" fuel_normed="0.918374" electricity_normed="0"
            traveltime="0.54" CO_perVeh="3.528564" CO2_perVeh="385.986612" HC_perVeh="0.025050" PMx_perVeh="0.006625" NOx_perVeh="0.150850" fuel_perVeh="0.165918" electricity_perVeh="0"/>
        <edge id=":123_0" sampledSeconds="309.28" CO_abs="39708.275548" CO2_abs="2444787.991294" HC_abs="239.531340" PMx_abs="50.249487" NOx_abs="1049.113286" fuel_abs="1050.900392" electricity_abs="0"
            CO_normed="151.425225" CO2_normed="9323.058417" HC_normed="0.913439" PMx_normed="0.191624" NOx_normed="4.000733" fuel_normed="4.007548" electricity_normed="0"
            traveltime="4.21" CO_perVeh="540.749729" CO2_perVeh="33293.272658" HC_perVeh="3.261952" PMx_perVeh="0.684301" NOx_perVeh="14.286889" fuel_perVeh="14.311226" electricity_perVeh="0"/>
        <edge id=":123_1" sampledSeconds="0.00" CO_abs="0" CO2_abs="0" HC_abs="0" PMx_abs="0" NOx_abs="0" fuel_abs="0" electricity_abs="0"
            CO_normed="0" CO2_normed="0" HC_normed="0" PMx_normed="0" NOx_normed="0" fuel_normed="0" electricity_normed="0"/>
        <edge id=":123_2" sampledSeconds="271.51" CO_abs="35267.807493" CO2_abs="2152564.831182" HC_abs="212.239830" PMx_abs="44.153740" NOx_abs="923.854433" fuel_abs="925.287598" electricity_abs="0"
            CO_normed="135.781516" CO2_normed="8287.402475" HC_normed="0.817126" PMx_normed="0.169992" NOx_normed="3.556852" fuel_normed="3.562369" electricity_normed="0"
            traveltime="4.27" CO_perVeh="554.339608" CO2_perVeh="33834.026829" HC_perVeh="3.335987" PMx_perVeh="0.694009" NOx_perVeh="14.521149" fuel_perVeh="14.543676" electricity_perVeh="0"/>
        <edge id=":123_3" sampledSeconds="468.60" CO_abs="23823.872934" CO2_abs="2199546.017029" HC_abs="160.685985" PMx_abs="41.341855" NOx_abs="885.739635" fuel_abs="945.481338" electricity_abs="0"
            CO_normed="93.847724" CO2_normed="8664.518467" HC_normed="0.632979" PMx_normed="0.162855" NOx_normed="3.489132" fuel_normed="3.724469" electricity_normed="0"
            traveltime="2.80" CO_perVeh="142.595749" CO2_perVeh="13165.194111" HC_perVeh="0.961772" PMx_perVeh="0.247448" NOx_perVeh="5.301519" fuel_perVeh="5.659097" electricity_perVeh="0"/>
        <edge id=":123_5" sampledSeconds="0.00" CO_abs="0" CO2_abs="0" HC_abs="0" PMx_abs="0" NOx_abs="0" fuel_abs="0" electricity_abs="0"
            CO_normed="0" CO2_normed="0" HC_normed="0" PMx_normed="0" NOx_normed="0" fuel_normed="0" electricity_normed="0"/>
        <edge id=":123_6" sampledSeconds="194.86" CO_abs="9199.286587" CO2_abs="845038.402636" HC_abs="61.965857" PMx_abs="15.934758" NOx_abs="340.851108" fuel_abs="363.242188" electricity_abs="0"
            CO_normed="35.003134" CO2_normed="3215.357228" HC_normed="0.235779" PMx_normed="0.060631" NOx_normed="1.296933" fuel_normed="1.382131" electricity_normed="0"
            traveltime="2.92" CO_perVeh="137.625461" CO2_perVeh="12642.154252" HC_perVeh="0.927037" PMx_perVeh="0.238391" NOx_perVeh="5.099286" fuel_perVeh="5.434266" electricity_perVeh="0"/>
        <edge id=":124_0" sampledSeconds="118.96" CO_abs="4161.658364" CO2_abs="362064.544470" HC_abs="27.474822" PMx_abs="6.980953" NOx_abs="147.327193" fuel_abs="155.634391" electricity_abs="0"
            CO_normed="97.426764" CO2_normed="8476.134688" HC_normed="0.643201" PMx_normed="0.163428" NOx_normed="3.449012" fuel_normed="3.643489" electricity_normed="0"
            traveltime="0.46" CO_perVeh="16.193320" CO2_perVeh="1408.819869" HC_perVeh="0.106907" PMx_perVeh="0.027163" NOx_perVeh="0.573261" fuel_perVeh="0.605585" electricity_perVeh="0"/>
        <edge id=":125_0" sampledSeconds="141.29" CO_abs="5935.169152" CO2_abs="580775.452095" HC_abs="40.856187" PMx_abs="10.934110" NOx_abs="230.705014" fuel_abs="249.648047" electricity_abs="0"
            CO_normed="373.300644" CO2_normed="36528.672494" HC_normed="2.569706" PMx_normed="0.687716" NOx_normed="14.510510" fuel_normed="15.701958" electricity_normed="0"
            traveltime="0.16" CO_perVeh="6.797292" CO2_perVeh="665.136994" HC_perVeh="0.046791" PMx_perVeh="0.012522" NOx_perVeh="0.264216" fuel_perVeh="0.285911" electricity_perVeh="0"/>
        <edge id=":125_3" sampledSeconds="0.00" CO_abs="0" CO2_abs="0" HC_abs="0" PMx_abs="0" NOx_abs="0" fuel_abs="0" electricity_abs="0"
            CO_normed="0" CO2_normed="0" HC_normed="0" PMx_normed="0" NOx_normed="0" fuel_normed="0" electricity_normed="0"/>
        <edge id=":126_0" sampledSeconds="26.71" CO_abs="105.613100" CO2_abs="8470.227051" HC_abs="0.673257" PMx_abs="0.110131" NOx_abs="3.205867" fuel_abs="3.641028" electricity_abs="0"
            CO_normed="3.477844" CO2_normed="278.924924" HC_normed="0.022170" PMx_normed="0.003627" NOx_normed="0.105569" fuel_normed="0.119899" electricity_normed="0"
            traveltime="0.57" CO_perVeh="2.254929" CO2_perVeh="180.846493" HC_perVeh="0.014375" PMx_perVeh="0.002351" NOx_perVeh="0.068448" fuel_perVeh="0.077739" electricity_perVeh="0"/>
        <edge id=":126_1" sampledSeconds="80.66" CO_abs="1592.033443" CO2_abs="228613.254346" HC_abs="12.473306" PMx_abs="3.752406" NOx_abs="85.380209" fuel_abs="98.270454" electricity_abs="0"
            CO_normed="46.645872" CO2_normed="6698.266635" HC_normed="0.365462" PMx_normed="0.109944" NOx_normed="2.501602" fuel_normed="2.879281" electricity_normed="0"
            traveltime="0.35" CO_perVeh="6.889002" CO2_perVeh="989.248831" HC_perVeh="0.053974" PMx_perVeh="0.016237" NOx_perVeh="0.369455" fuel_perVeh="0.425233" electricity_perVeh="0"/>
        <edge id=":127_0" sampledSeconds="234.73" CO_abs="4868.707990" CO2_abs="631043.143267" HC_abs="36.702400" PMx_abs="10.764153" NOx_abs="238.553227" fuel_abs="271.256552" electricity_abs="0"
            CO_normed="112.582389" CO2_normed="14592.032430" HC_normed="0.848694" PMx_normed="0.248907" NOx_normed="5.516226" fuel_normed="6.272447" electricity_normed="0"
            traveltime="0.44" CO_perVeh="9.104602" CO2_perVeh="1180.065920" HC_perVeh="0.068634" PMx_perVeh="0.020129" NOx_perVeh="0.446100" fuel_perVeh="0.507256" electricity_perVeh="0"/>
        <edge id=":128_0" sampledSeconds="229.97" CO_abs="526.092416" CO2_abs="57059.491473" HC_abs="3.728387" PMx_abs="0.975856" NOx_abs="22.277752" fuel_abs="24.527266" electricity_abs="0"
            CO_normed="8.130051" CO2_normed="881.777729" HC_normed="0.057617" PMx_normed="0.015081" NOx_normed="0.344273" fuel_normed="0.379036" electricity_normed="0"
            traveltime="0.76" CO_perVeh="1.729459" CO2_perVeh="187.575552" HC_perVeh="0.012257" PMx_perVeh="0.003208" NOx_perVeh="0.073235" fuel_perVeh="0.080630" electricity_perVeh="0"/>
        <edge id=":128_1" sampledSeconds="142.67" CO_abs="167.287182" CO2_abs="24045.109956" HC_abs="1.311396" PMx_abs="0.302806" NOx_abs="8.794422" fuel_abs="10.336003" electricity_abs="0"
            CO_normed="2.670497" CO2_normed="383.845261" HC_normed="0.020935" PMx_normed="0.004834" NOx_normed="0.140390" fuel_normed="0.164999" electricity_normed="0"
            traveltime="0.86" CO_perVeh="1.002792" CO2_perVeh="144.136766" HC_perVeh="0.007861" PMx_perVeh="0.001815" NOx_perVeh="0.052718" fuel_perVeh="0.061958" electricity_perVeh="0"/>
        <edge id=":129_0" sampledSeconds="105.05" CO_abs="5560.636606" CO2_abs="505296.474627" HC_abs="37.127684" PMx_abs="9.398272" NOx_abs="203.889386" fuel_abs="217.203268" electricity_abs="0"
            CO_normed="129.534779" CO2_normed="11770.858585" HC_normed="0.864888" PMx_normed="0.218932" NOx_normed="4.749594" fuel_normed="5.059740" electricity_normed="0"
            traveltime="0.50" CO_perVeh="26.354499" CO2_perVeh="2394.840083" HC_perVeh="0.175966" PMx_perVeh="0.044543" NOx_perVeh="0.966329" fuel_perVeh="1.029429" electricity_perVeh="0"/>
        <edge id=":13_0" sampledSeconds="59.78" CO_abs="5173.887366" CO2_abs="368062.372878" HC_abs="32.357054" PMx_abs="7.142756" NOx_abs="154.363086" fuel_abs="158.212903" electricity_abs="0"
            CO_normed="36.577607" CO2_normed="2602.074584" HC_normed="0.228753" PMx_normed="0.050497" NOx_normed="1.091294" fuel_normed="1.118511" electricity_normed="0"
            traveltime="2.11" CO_perVeh="183.008712" CO2_perVeh="13018.957713" HC_perVeh="1.144521" PMx_perVeh="0.252651" NOx_perVeh="5.460070" fuel_perVeh="5.596245" electricity_perVeh="0"/>
        <edge id=":13_1" sampledSeconds="533.28" CO_abs="14374.745258" CO2_abs="1083073.270461" HC_abs="90.399154" PMx_abs="16.056645" NOx_abs="423.067883" fuel_abs="465.569607" electricity_abs="0"
            CO_normed="143.207933" CO2_normed="10790.082269" HC_normed="0.900599" PMx_normed="0.159964" NOx_normed="4.214800" fuel_normed="4.638222" electricity_normed="0"
            traveltime="1.86" CO_perVeh="50.216313" CO2_perVeh="3783.576361" HC_perVeh="0.315798" PMx_perVeh="0.056092" NOx_perVeh="1.477933" fuel_perVeh="1.626407" electricity_perVeh="0"/>
        <edge id=":132_0" sampledSeconds="41.19" CO_abs="429.892882" CO2_abs="72185.339898" HC_abs="3.553175" PMx_abs="1.032666" NOx_abs="26.482266" fuel_abs="31.029313" electricity_abs="0"
            CO_normed="811.161159" CO2_normed="136205.893198" HC_normed="6.704455" PMx_normed="1.948529" NOx_normed="49.969158" fuel_normed="58.548941" electricity_normed="0"
            traveltime="6.385921e-03" CO_perVeh="0.066646" CO2_perVeh="11.190818" HC_perVeh="0.000551" PMx_perVeh="0.000160" NOx_perVeh="0.004106" fuel_perVeh="0.004810" electricity_perVeh="0"/>