<?xml version="1.0" encoding="UTF-8"?>

<!-- generated on Sat Oct 31 22:42:53 2020 by Eclipse SUMO sumo Version 1.7.0
<configuration xmlns:xsi="http://www.w3.org/2001/XMLSchema-instance" xsi:noNamespaceSchemaLocation="http://sumo.dlr.de/xsd/sumoConfiguration.xsd">

    <input>
        <net-file value="../dataSets/Angeja_Estarreja/angeja_estarreja.net.xml"/>
        <route-files value="../results/angeja_estarreja/length-ttime/solution17/angeja_estarreja.rou.xml"/>
        <additional-files value="moreOutputInfo.xml"/>
    </input>

    <output>
        <emission-output.precision value="6"/>
        <tripinfo-output value="../results/angeja_estarreja/length-ttime/solution17/angeja_estarreja-tripinfo"/>
    </output>

    <processing>
        <collision.action value="warn"/>
        <time-to-teleport value="-1"/>
    </processing>

    <emissions>
        <device.emissions.probability value="1"/>
    </emissions>

    <gui_only>
        <quit-on-end value="true"/>
        <start value="true"/>
    </gui_only>

</configuration>
-->

<tripinfos xmlns:xsi="http://www.w3.org/2001/XMLSchema-instance" xsi:noNamespaceSchemaLocation="http://sumo.dlr.de/xsd/tripinfo_file.xsd">
    <tripinfo id="sveh22" depart="88.00" departLane="1_0" departPos="4.85" departSpeed="14.03" departDelay="0.00" arrival="141.00" arrivalLane="77477309_0" arrivalPos="222.43" arrivalSpeed="16.35" duration="53.00" routeLength="718.95" waitingTime="0.00" waitingCount="0" stopTime="0.00" timeLoss="3.15" rerouteNo="0" devices="tripinfo_sveh22 emissions_sveh22" vType="SCar" speedFactor="1.01" vaporized="">
        <emissions CO_abs="1111.363947" CO2_abs="121865.435267" HC_abs="7.834184" PMx_abs="1.861954" NOx_abs="46.773941" fuel_abs="52.384637" electricity_abs="0"/>
    </tripinfo>
    <tripinfo id="sveh24" depart="94.00" departLane="100_0" departPos="4.85" departSpeed="14.83" departDelay="0.00" arrival="145.00" arrivalLane="2_0" arrivalPos="142.18" arrivalSpeed="12.30" duration="51.00" routeLength="613.33" waitingTime="0.00" waitingCount="0" stopTime="0.00" timeLoss="3.55" rerouteNo="0" devices="tripinfo_sveh24 emissions_sveh24" vType="SCar" speedFactor="0.89" vaporized="">
        <emissions CO_abs="1106.536685" CO2_abs="102919.656223" HC_abs="7.431666" PMx_abs="1.563456" NOx_abs="39.945710" fuel_abs="44.240790" electricity_abs="0"/>
    </tripinfo>
    <tripinfo id="sveh7" depart="41.00" departLane="389783911.154_0" departPos="4.85" departSpeed="22.22" departDelay="0.00" arrival="215.00" arrivalLane="462392869_1" arrivalPos="125.48" arrivalSpeed="22.18" duration="174.00" routeLength="3746.53" waitingTime="0.00" waitingCount="0" stopTime="0.00" timeLoss="4.84" rerouteNo="0" devices="tripinfo_sveh7 emissions_sveh7" vType="SCar" speedFactor="1.05" vaporized="">
        <emissions CO_abs="4264.944013" CO2_abs="534868.000776" HC_abs="32.406679" PMx_abs="9.689871" NOx_abs="199.856941" fuel_abs="229.915229" electricity_abs="0"/>
    </tripinfo>
    <tripinfo id="sveh8" depart="42.00" departLane="389783911.154_0" departPos="4.85" departSpeed="20.72" departDelay="0.00" arrival="216.00" arrivalLane="462392869_2" arrivalPos="125.48" arrivalSpeed="22.11" duration="174.00" routeLength="3746.53" waitingTime="0.00" waitingCount="0" stopTime="0.00" timeLoss="5.03" rerouteNo="0" devices="tripinfo_sveh8 emissions_sveh8" vType="SCar" speedFactor="0.89" vaporized="">
        <emissions CO_abs="4728.803221" CO2_abs="542844.620829" HC_abs="34.755574" PMx_abs="10.093061" NOx_abs="205.940438" fuel_abs="233.343816" electricity_abs="0"/>
    </tripinfo>
    <tripinfo id="sveh12" depart="55.00" departLane="462392872_0" departPos="4.85" departSpeed="22.22" departDelay="0.00" arrival="220.00" arrivalLane="389783908_0" arrivalPos="273.35" arrivalSpeed="21.68" duration="165.00" routeLength="3556.47" waitingTime="0.00" waitingCount="0" stopTime="0.00" timeLoss="4.53" rerouteNo="0" devices="tripinfo_sveh12 emissions_sveh12" vType="SCar" speedFactor="1.03" vaporized="">
        <emissions CO_abs="3792.548055" CO2_abs="475147.653792" HC_abs="28.809019" PMx_abs="8.611539" NOx_abs="177.565901" fuel_abs="204.244189" electricity_abs="0"/>
    </tripinfo>
    <tripinfo id="sveh32" depart="147.00" departLane="1_0" departPos="4.85" departSpeed="16.28" departDelay="0.00" arrival="238.00" arrivalLane="245327988#1_0" arrivalPos="180.33" arrivalSpeed="21.29" duration="91.00" routeLength="1550.83" waitingTime="0.00" waitingCount="0" stopTime="0.00" timeLoss="11.68" rerouteNo="0" devices="tripinfo_sveh32 emissions_sveh32" vType="SCar" speedFactor="1.17" vaporized="">
        <emissions CO_abs="4848.442628" CO2_abs="384629.833497" HC_abs="31.340115" PMx_abs="7.624850" NOx_abs="157.659709" fuel_abs="165.334240" electricity_abs="0"/>
    </tripinfo>
    <tripinfo id="sveh27" depart="125.00" departLane="462392872_0" departPos="4.85" departSpeed="22.22" departDelay="0.00" arrival="290.00" arrivalLane="389783908_0" arrivalPos="273.35" arrivalSpeed="21.18" duration="165.00" routeLength="3556.47" waitingTime="0.00" waitingCount="0" stopTime="0.00" timeLoss="4.94" rerouteNo="0" devices="tripinfo_sveh27 emissions_sveh27" vType="SCar" speedFactor="0.92" vaporized="">
        <emissions CO_abs="3416.665020" CO2_abs="464401.867196" HC_abs="26.817957" PMx_abs="8.225425" NOx_abs="171.468063" fuel_abs="199.625199" electricity_abs="0"/>
    </tripinfo>
    <tripinfo id="sveh13" depart="58.00" departLane="462392872_0" departPos="4.85" departSpeed="22.22" departDelay="0.00" arrival="307.00" arrivalLane="319615436_0" arrivalPos="125.64" arrivalSpeed="22.12" duration="249.00" routeLength="4773.89" waitingTime="0.00" waitingCount="0" stopTime="0.00" timeLoss="9.90" rerouteNo="0" devices="tripinfo_sveh13 emissions_sveh13" vType="SCar" speedFactor="1.05" vaporized="">
        <emissions CO_abs="6180.729633" CO2_abs="754188.336624" HC_abs="46.006977" PMx_abs="13.175687" NOx_abs="284.847188" fuel_abs="324.191180" electricity_abs="0"/>
    </tripinfo>
    <tripinfo id="sveh35" depart="151.00" departLane="462392872_0" departPos="4.85" departSpeed="22.22" departDelay="0.00" arrival="317.00" arrivalLane="389783908_0" arrivalPos="273.35" arrivalSpeed="21.17" duration="166.00" routeLength="3556.47" waitingTime="0.00" waitingCount="0" stopTime="0.00" timeLoss="5.24" rerouteNo="0" devices="tripinfo_sveh35 emissions_sveh35" vType="SCar" speedFactor="0.99" vaporized="">
        <emissions CO_abs="3819.110274" CO2_abs="513161.045673" HC_abs="29.804105" PMx_abs="9.110237" NOx_abs="189.818894" fuel_abs="220.584526" electricity_abs="0"/>
    </tripinfo>
    <tripinfo id="sveh54" depart="264.00" departLane="24443879.82_0" departPos="4.85" departSpeed="16.72" departDelay="0.00" arrival="332.00" arrivalLane="319615436_0" arrivalPos="125.64" arrivalSpeed="21.85" duration="68.00" routeLength="1041.49" waitingTime="0.00" waitingCount="0" stopTime="0.00" timeLoss="4.50" rerouteNo="0" devices="tripinfo_sveh54 emissions_sveh54" vType="SCar" speedFactor="1.00" vaporized="">
        <emissions CO_abs="1991.531633" CO2_abs="204634.751701" HC_abs="13.906575" PMx_abs="3.543266" NOx_abs="80.412684" fuel_abs="87.963131" electricity_abs="0"/>
    </tripinfo>
    <tripinfo id="sveh19" depart="77.00" departLane="319615443_0" departPos="4.85" departSpeed="22.22" departDelay="0.00" arrival="359.00" arrivalLane="462392869_1" arrivalPos="125.48" arrivalSpeed="21.40" duration="282.00" routeLength="5127.13" waitingTime="1.00" waitingCount="1" stopTime="0.00" timeLoss="17.85" rerouteNo="0" devices="tripinfo_sveh19 emissions_sveh19" vType="SCar" speedFactor="0.94" vaporized="">
        <emissions CO_abs="7111.370599" CO2_abs="800767.036183" HC_abs="51.512111" PMx_abs="13.895791" NOx_abs="304.324363" fuel_abs="344.213638" electricity_abs="0"/>
    </tripinfo>
    <tripinfo id="sveh29" depart="136.00" departLane="319615443_0" departPos="4.85" departSpeed="22.22" departDelay="0.00" arrival="401.00" arrivalLane="462392869_2" arrivalPos="125.48" arrivalSpeed="21.14" duration="265.00" routeLength="5127.13" waitingTime="1.00" waitingCount="1" stopTime="0.00" timeLoss="17.45" rerouteNo="0" devices="tripinfo_sveh29 emissions_sveh29" vType="SCar" speedFactor="1.13" vaporized="">
        <emissions CO_abs="8096.396167" CO2_abs="827557.229386" HC_abs="56.878176" PMx_abs="15.418197" NOx_abs="321.444962" fuel_abs="355.728557" electricity_abs="0"/>
    </tripinfo>
    <tripinfo id="sveh49" depart="226.00" departLane="389783911.154_0" departPos="4.85" departSpeed="22.22" departDelay="0.00" arrival="401.00" arrivalLane="462392869_1" arrivalPos="125.48" arrivalSpeed="21.01" duration="175.00" routeLength="3746.53" waitingTime="0.00" waitingCount="0" stopTime="0.00" timeLoss="5.60" rerouteNo="0" devices="tripinfo_sveh49 emissions_sveh49" vType="SCar" speedFactor="0.88" vaporized="">
        <emissions CO_abs="3984.613152" CO2_abs="524835.445230" HC_abs="30.840603" PMx_abs="9.367555" NOx_abs="194.727578" fuel_abs="225.602780" electricity_abs="0"/>
    </tripinfo>
    <tripinfo id="sveh51" depart="239.00" departLane="27_0" departPos="4.85" departSpeed="16.62" departDelay="0.00" arrival="413.00" arrivalLane="389783908_0" arrivalPos="273.35" arrivalSpeed="21.37" duration="174.00" routeLength="3248.08" waitingTime="0.00" waitingCount="0" stopTime="0.00" timeLoss="7.65" rerouteNo="0" devices="tripinfo_sveh51 emissions_sveh51" vType="SCar" speedFactor="0.85" vaporized="">
        <emissions CO_abs="4720.716225" CO2_abs="503796.134322" HC_abs="33.639699" PMx_abs="9.008744" NOx_abs="192.894621" fuel_abs="216.559085" electricity_abs="0"/>
    </tripinfo>
    <tripinfo id="sveh72" depart="435.00" departLane="1_0" departPos="4.85" departSpeed="14.66" departDelay="0.00" arrival="487.00" arrivalLane="77477309_0" arrivalPos="222.43" arrivalSpeed="17.56" duration="52.00" routeLength="718.95" waitingTime="0.00" waitingCount="0" stopTime="0.00" timeLoss="4.38" rerouteNo="0" devices="tripinfo_sveh72 emissions_sveh72" vType="SCar" speedFactor="1.06" vaporized="">
        <emissions CO_abs="1450.904925" CO2_abs="147133.443631" HC_abs="10.017611" PMx_abs="2.381186" NOx_abs="57.251463" fuel_abs="63.246158" electricity_abs="0"/>
    </tripinfo>
    <tripinfo id="sveh58" depart="321.00" departLane="389783911.154_0" departPos="4.85" departSpeed="22.22" departDelay="0.00" arrival="495.00" arrivalLane="462392869_1" arrivalPos="125.48" arrivalSpeed="21.68" duration="174.00" routeLength="3746.53" waitingTime="0.00" waitingCount="0" stopTime="0.00" timeLoss="5.12" rerouteNo="0" devices="tripinfo_sveh58 emissions_sveh58" vType="SCar" speedFactor="1.02" vaporized="">
        <emissions CO_abs="4221.497268" CO2_abs="550977.926866" HC_abs="32.558369" PMx_abs="9.864247" NOx_abs="204.599819" fuel_abs="236.840228" electricity_abs="0"/>
    </tripinfo>
    <tripinfo id="sveh21" depart="86.00" departLane="248846659#1.206_0" departPos="4.85" departSpeed="11.31" departDelay="0.00" arrival="499.00" arrivalLane="188949094#1_0" arrivalPos="37.15" arrivalSpeed="15.96" duration="413.00" routeLength="5895.24" waitingTime="1.00" waitingCount="1" stopTime="0.00" timeLoss="31.82" rerouteNo="0" devices="tripinfo_sveh21 emissions_sveh21" vType="SCar" speedFactor="1.02" vaporized="">
        <emissions CO_abs="9568.920066" CO2_abs="989358.967311" HC_abs="66.650854" PMx_abs="16.057048" NOx_abs="383.555926" fuel_abs="425.281618" electricity_abs="0"/>
    </tripinfo>
    <tripinfo id="sveh20" depart="80.00" departLane="248846659#1.206_0" departPos="4.85" departSpeed="12.87" departDelay="0.00" arrival="505.00" arrivalLane="77477309_0" arrivalPos="222.43" arrivalSpeed="19.24" duration="425.00" routeLength="6518.69" waitingTime="0.00" waitingCount="0" stopTime="0.00" timeLoss="31.90" rerouteNo="0" devices="tripinfo_sveh20 emissions_sveh20" vType="SCar" speedFactor="1.16" vaporized="">
        <emissions CO_abs="11684.682431" CO2_abs="1189108.496775" HC_abs="80.816932" PMx_abs="20.184675" NOx_abs="464.145145" fuel_abs="511.144106" electricity_abs="0"/>
    </tripinfo>
    <tripinfo id="sveh23" depart="92.00" departLane="27_0" departPos="4.85" departSpeed="18.95" departDelay="0.00" arrival="528.00" arrivalLane="-248846659#1_0" arrivalPos="144.53" arrivalSpeed="10.17" duration="436.00" routeLength="5825.70" waitingTime="0.00" waitingCount="0" stopTime="0.00" timeLoss="24.98" rerouteNo="0" devices="tripinfo_sveh23 emissions_sveh23" vType="SCar" speedFactor="0.98" vaporized="">
        <emissions CO_abs="8182.188598" CO2_abs="943475.863583" HC_abs="58.948988" PMx_abs="13.823790" NOx_abs="357.714078" fuel_abs="405.559801" electricity_abs="0"/>
    </tripinfo>
    <tripinfo id="sveh50" depart="237.00" departLane="319615443_0" departPos="4.85" departSpeed="22.22" departDelay="0.00" arrival="532.00" arrivalLane="462392869_1" arrivalPos="125.48" arrivalSpeed="21.43" duration="295.00" routeLength="5127.13" waitingTime="1.00" waitingCount="1" stopTime="0.00" timeLoss="20.27" rerouteNo="0" devices="tripinfo_sveh50 emissions_sveh50" vType="SCar" speedFactor="0.85" vaporized="">
        <emissions CO_abs="7081.027383" CO2_abs="793086.197066" HC_abs="51.197743" PMx_abs="13.620689" NOx_abs="300.365600" fuel_abs="340.912260" electricity_abs="0"/>
    </tripinfo>
    <tripinfo id="sveh39" depart="170.00" departLane="248846659#1.206_0" departPos="4.85" departSpeed="12.25" departDelay="0.00" arrival="545.00" arrivalLane="188949094#1_0" arrivalPos="37.15" arrivalSpeed="16.66" duration="375.00" routeLength="5895.24" waitingTime="0.00" waitingCount="0" stopTime="0.00" timeLoss="22.32" rerouteNo="0" devices="tripinfo_sveh39 emissions_sveh39" vType="SCar" speedFactor="1.10" vaporized="">
        <emissions CO_abs="8635.729713" CO2_abs="987200.780791" HC_abs="62.341213" PMx_abs="16.199433" NOx_abs="379.239692" fuel_abs="424.353312" electricity_abs="0"/>
    </tripinfo>
    <tripinfo id="sveh6" depart="31.00" departLane="319611362_0" departPos="4.85" departSpeed="22.22" departDelay="0.00" arrival="549.00" arrivalLane="319615436_1" arrivalPos="125.64" arrivalSpeed="21.17" duration="518.00" routeLength="11178.14" waitingTime="0.00" waitingCount="0" stopTime="0.00" timeLoss="14.76" rerouteNo="0" devices="tripinfo_sveh6 emissions_sveh6" vType="SCar" speedFactor="1.03" vaporized="">
        <emissions CO_abs="12097.612656" CO2_abs="1557166.413283" HC_abs="92.972734" PMx_abs="28.019631" NOx_abs="579.591044" fuel_abs="669.354586" electricity_abs="0"/>
    </tripinfo>
    <tripinfo id="sveh31" depart="141.00" departLane="248846659#1.206_0" departPos="4.85" departSpeed="13.09" departDelay="0.00" arrival="557.00" arrivalLane="77477309_0" arrivalPos="222.43" arrivalSpeed="19.55" duration="416.00" routeLength="6518.69" waitingTime="0.00" waitingCount="0" stopTime="0.00" timeLoss="29.85" rerouteNo="0" devices="tripinfo_sveh31 emissions_sveh31" vType="SCar" speedFactor="1.18" vaporized="">
        <emissions CO_abs="10340.979955" CO2_abs="1142522.236153" HC_abs="73.299359" PMx_abs="18.748287" NOx_abs="439.332163" fuel_abs="491.119210" electricity_abs="0"/>
    </tripinfo>
    <tripinfo id="sveh9" depart="45.00" departLane="319615443_0" departPos="4.85" departSpeed="22.22" departDelay="0.00" arrival="560.00" arrivalLane="319611370_1" arrivalPos="380.09" arrivalSpeed="21.16" duration="515.00" routeLength="11083.48" waitingTime="0.00" waitingCount="0" stopTime="0.00" timeLoss="15.32" rerouteNo="0" devices="tripinfo_sveh9 emissions_sveh9" vType="SCar" speedFactor="0.94" vaporized="">
        <emissions CO_abs="12204.331576" CO2_abs="1557497.777234" HC_abs="93.333378" PMx_abs="28.063542" NOx_abs="580.540889" fuel_abs="669.496970" electricity_abs="0"/>
    </tripinfo>
    <tripinfo id="sveh10" depart="52.00" departLane="319611362_0" departPos="4.85" departSpeed="22.22" departDelay="0.00" arrival="571.00" arrivalLane="319615436_1" arrivalPos="125.64" arrivalSpeed="22.06" duration="519.00" routeLength="11178.14" waitingTime="0.00" waitingCount="0" stopTime="0.00" timeLoss="15.09" rerouteNo="0" devices="tripinfo_sveh10 emissions_sveh10" vType="SCar" speedFactor="0.86" vaporized="">
        <emissions CO_abs="11832.654698" CO2_abs="1510025.487109" HC_abs="90.505126" PMx_abs="27.214622" NOx_abs="562.761391" fuel_abs="649.090813" electricity_abs="0"/>
    </tripinfo>
    <tripinfo id="sveh71" depart="423.00" departLane="27_0" departPos="4.85" departSpeed="18.91" departDelay="0.00" arrival="590.00" arrivalLane="389783908_0" arrivalPos="273.35" arrivalSpeed="21.16" duration="167.00" routeLength="3248.08" waitingTime="0.00" waitingCount="0" stopTime="0.00" timeLoss="6.68" rerouteNo="0" devices="tripinfo_sveh71 emissions_sveh71" vType="SCar" speedFactor="0.97" vaporized="">
        <emissions CO_abs="4137.342832" CO2_abs="473199.293152" HC_abs="30.208950" PMx_abs="8.443324" NOx_abs="179.845928" fuel_abs="203.406781" electricity_abs="0"/>
    </tripinfo>
    <tripinfo id="sveh18" depart="72.00" departLane="319611362_0" departPos="4.85" departSpeed="22.22" departDelay="0.00" arrival="591.00" arrivalLane="319615436_1" arrivalPos="125.64" arrivalSpeed="21.49" duration="519.00" routeLength="11178.14" waitingTime="0.00" waitingCount="0" stopTime="0.00" timeLoss="15.42" rerouteNo="0" devices="tripinfo_sveh18 emissions_sveh18" vType="SCar" speedFactor="0.94" vaporized="">
        <emissions CO_abs="11831.529062" CO2_abs="1532931.353743" HC_abs="91.125802" PMx_abs="27.521555" NOx_abs="570.078887" fuel_abs="658.937073" electricity_abs="0"/>
    </tripinfo>
    <tripinfo id="sveh38" depart="165.00" departLane="248846659#1.206_0" departPos="4.85" departSpeed="13.11" departDelay="0.00" arrival="593.00" arrivalLane="77477309_0" arrivalPos="222.43" arrivalSpeed="19.16" duration="428.00" routeLength="6518.69" waitingTime="8.00" waitingCount="1" stopTime="0.00" timeLoss="42.06" rerouteNo="0" devices="tripinfo_sveh38 emissions_sveh38" vType="SCar" speedFactor="1.18" vaporized="">
        <emissions CO_abs="11752.510786" CO2_abs="1153021.597575" HC_abs="80.164483" PMx_abs="19.595949" NOx_abs="449.186820" fuel_abs="495.632383" electricity_abs="0"/>
    </tripinfo>
    <tripinfo id="sveh44" depart="191.00" departLane="27_0" departPos="4.85" departSpeed="20.17" departDelay="0.00" arrival="602.00" arrivalLane="-248846659#1_0" arrivalPos="144.53" arrivalSpeed="10.47" duration="411.00" routeLength="5825.70" waitingTime="0.00" waitingCount="0" stopTime="0.00" timeLoss="25.21" rerouteNo="0" devices="tripinfo_sveh44 emissions_sveh44" vType="SCar" speedFactor="1.04" vaporized="">
        <emissions CO_abs="7753.472970" CO2_abs="883010.367750" HC_abs="55.590502" PMx_abs="13.582713" NOx_abs="337.595005" fuel_abs="379.567486" electricity_abs="0"/>
    </tripinfo>
    <tripinfo id="sveh85" depart="535.00" departLane="27_0" departPos="4.85" departSpeed="19.47" departDelay="0.00" arrival="604.00" arrivalLane="462392869_0" arrivalPos="125.48" arrivalSpeed="22.05" duration="69.00" routeLength="996.02" waitingTime="0.00" waitingCount="0" stopTime="0.00" timeLoss="7.16" rerouteNo="0" devices="tripinfo_sveh85 emissions_sveh85" vType="SCar" speedFactor="1.00" vaporized="">
        <emissions CO_abs="2735.631159" CO2_abs="224351.579953" HC_abs="17.781086" PMx_abs="4.139251" NOx_abs="90.742302" fuel_abs="96.438481" electricity_abs="0"/>
    </tripinfo>
    <tripinfo id="sveh25" depart="103.00" departLane="319615443_0" departPos="4.85" departSpeed="22.22" departDelay="0.00" arrival="618.00" arrivalLane="319611370_1" arrivalPos="380.09" arrivalSpeed="21.98" duration="515.00" routeLength="11083.48" waitingTime="0.00" waitingCount="0" stopTime="0.00" timeLoss="15.34" rerouteNo="0" devices="tripinfo_sveh25 emissions_sveh25" vType="SCar" speedFactor="0.83" vaporized="">
        <emissions CO_abs="12618.857118" CO2_abs="1585605.540658" HC_abs="95.982634" PMx_abs="28.707633" NOx_abs="592.522118" fuel_abs="681.579116" electricity_abs="0"/>
    </tripinfo>
    <tripinfo id="sveh74" depart="450.00" departLane="389783911.154_0" departPos="4.85" departSpeed="22.22" departDelay="0.00" arrival="624.00" arrivalLane="462392869_1" arrivalPos="125.48" arrivalSpeed="21.33" duration="174.00" routeLength="3746.53" waitingTime="0.00" waitingCount="0" stopTime="0.00" timeLoss="4.79" rerouteNo="0" devices="tripinfo_sveh74 emissions_sveh74" vType="SCar" speedFactor="0.98" vaporized="">
        <emissions CO_abs="3812.602209" CO2_abs="523917.787663" HC_abs="30.052801" PMx_abs="9.256397" NOx_abs="192.972129" fuel_abs="225.208412" electricity_abs="0"/>
    </tripinfo>
    <tripinfo id="sveh15" depart="62.00" departLane="319611362_0" departPos="4.85" departSpeed="22.22" departDelay="0.00" arrival="642.00" arrivalLane="95223234_0" arrivalPos="261.08" arrivalSpeed="12.73" duration="580.00" routeLength="11795.50" waitingTime="0.00" waitingCount="0" stopTime="0.00" timeLoss="21.67" rerouteNo="0" devices="tripinfo_sveh15 emissions_sveh15" vType="SCar" speedFactor="0.99" vaporized="">
        <emissions CO_abs="13904.892058" CO2_abs="1711084.737939" HC_abs="104.570873" PMx_abs="30.447841" NOx_abs="642.037519" fuel_abs="735.517274" electricity_abs="0"/>
    </tripinfo>
    <tripinfo id="sveh69" depart="408.00" departLane="27_0" departPos="4.85" departSpeed="19.89" departDelay="0.00" arrival="659.00" arrivalLane="319615436_0" arrivalPos="125.64" arrivalSpeed="21.80" duration="251.00" routeLength="4465.50" waitingTime="0.00" waitingCount="0" stopTime="0.00" timeLoss="11.39" rerouteNo="0" devices="tripinfo_sveh69 emissions_sveh69" vType="SCar" speedFactor="1.02" vaporized="">
        <emissions CO_abs="6458.716945" CO2_abs="711993.609858" HC_abs="46.338572" PMx_abs="12.505085" NOx_abs="274.014651" fuel_abs="306.053563" electricity_abs="0"/>
    </tripinfo>
    <tripinfo id="sveh36" depart="152.00" departLane="319615443_0" departPos="4.85" departSpeed="22.22" departDelay="0.00" arrival="667.00" arrivalLane="319611370_1" arrivalPos="380.09" arrivalSpeed="20.96" duration="515.00" routeLength="11083.48" waitingTime="0.00" waitingCount="0" stopTime="0.00" timeLoss="15.33" rerouteNo="0" devices="tripinfo_sveh36 emissions_sveh36" vType="SCar" speedFactor="1.02" vaporized="">
        <emissions CO_abs="11302.031563" CO2_abs="1507276.274792" HC_abs="88.078744" PMx_abs="26.851189" NOx_abs="557.976802" fuel_abs="647.909291" electricity_abs="0"/>
    </tripinfo>
    <tripinfo id="sveh3" depart="22.00" departLane="516175821_0" departPos="4.85" departSpeed="22.22" departDelay="0.00" arrival="668.00" arrivalLane="462392869_1" arrivalPos="125.48" arrivalSpeed="21.58" duration="646.00" routeLength="13909.04" waitingTime="0.00" waitingCount="0" stopTime="0.00" timeLoss="19.22" rerouteNo="0" devices="tripinfo_sveh3 emissions_sveh3" vType="SCar" speedFactor="1.01" vaporized="">
        <emissions CO_abs="14391.301919" CO2_abs="1904142.953847" HC_abs="111.758878" PMx_abs="33.983066" NOx_abs="705.878164" fuel_abs="818.504103" electricity_abs="0"/>
    </tripinfo>
    <tripinfo id="sveh87" depart="549.00" departLane="516175821_0" departPos="4.85" departSpeed="22.22" departDelay="0.00" arrival="669.00" arrivalLane="2_0" arrivalPos="142.18" arrivalSpeed="12.78" duration="120.00" routeLength="1876.02" waitingTime="0.00" waitingCount="0" stopTime="0.00" timeLoss="10.13" rerouteNo="0" devices="tripinfo_sveh87 emissions_sveh87" vType="SCar" speedFactor="1.01" vaporized="">
        <emissions CO_abs="3159.557539" CO2_abs="312417.762695" HC_abs="21.724008" PMx_abs="5.400453" NOx_abs="121.874688" fuel_abs="134.294316" electricity_abs="0"/>
    </tripinfo>
    <tripinfo id="sveh93" depart="562.00" departLane="516175821_0" departPos="4.85" departSpeed="22.22" departDelay="0.00" arrival="676.00" arrivalLane="2_0" arrivalPos="142.18" arrivalSpeed="14.81" duration="114.00" routeLength="1876.02" waitingTime="0.00" waitingCount="0" stopTime="0.00" timeLoss="10.34" rerouteNo="0" devices="tripinfo_sveh93 emissions_sveh93" vType="SCar" speedFactor="1.09" vaporized="">
        <emissions CO_abs="3776.776510" CO2_abs="348439.728353" HC_abs="25.426859" PMx_abs="6.335194" NOx_abs="138.014813" fuel_abs="149.778266" electricity_abs="0"/>
    </tripinfo>
    <tripinfo id="sveh1" depart="1.00" departLane="516175821_0" departPos="4.85" departSpeed="22.22" departDelay="0.00" arrival="683.00" arrivalLane="389783908_0" arrivalPos="273.35" arrivalSpeed="22.12" duration="682.00" routeLength="14621.90" waitingTime="0.00" waitingCount="0" stopTime="0.00" timeLoss="19.30" rerouteNo="0" devices="tripinfo_sveh1 emissions_sveh1" vType="SCar" speedFactor="1.06" vaporized="">
        <emissions CO_abs="17293.426784" CO2_abs="2061346.477751" HC_abs="128.681082" PMx_abs="37.788023" NOx_abs="777.362710" fuel_abs="886.077927" electricity_abs="0"/>
    </tripinfo>
    <tripinfo id="sveh43" depart="183.00" departLane="319615443_0" departPos="4.85" departSpeed="22.22" departDelay="0.00" arrival="698.00" arrivalLane="319611370_1" arrivalPos="380.09" arrivalSpeed="21.90" duration="515.00" routeLength="11083.48" waitingTime="0.00" waitingCount="0" stopTime="0.00" timeLoss="15.29" rerouteNo="0" devices="tripinfo_sveh43 emissions_sveh43" vType="SCar" speedFactor="1.09" vaporized="">
        <emissions CO_abs="12758.577500" CO2_abs="1553264.909984" HC_abs="95.986644" PMx_abs="28.394523" NOx_abs="583.704318" fuel_abs="667.677154" electricity_abs="0"/>
    </tripinfo>
    <tripinfo id="sveh2" depart="16.00" departLane="462392872_0" departPos="4.85" departSpeed="22.22" departDelay="0.00" arrival="701.00" arrivalLane="245327988#1_0" arrivalPos="180.33" arrivalSpeed="21.31" duration="685.00" routeLength="14544.77" waitingTime="0.00" waitingCount="0" stopTime="0.00" timeLoss="21.48" rerouteNo="0" devices="tripinfo_sveh2 emissions_sveh2" vType="SCar" speedFactor="0.94" vaporized="">
        <emissions CO_abs="16329.210825" CO2_abs="2031837.308578" HC_abs="123.680202" PMx_abs="36.708096" NOx_abs="761.320224" fuel_abs="873.393685" electricity_abs="0"/>
    </tripinfo>
    <tripinfo id="sveh86" depart="537.00" departLane="462392872_0" departPos="4.85" departSpeed="22.22" departDelay="0.00" arrival="702.00" arrivalLane="389783908_0" arrivalPos="273.35" arrivalSpeed="21.04" duration="165.00" routeLength="3556.47" waitingTime="0.00" waitingCount="0" stopTime="0.00" timeLoss="4.94" rerouteNo="0" devices="tripinfo_sveh86 emissions_sveh86" vType="SCar" speedFactor="1.04" vaporized="">
        <emissions CO_abs="3677.124769" CO2_abs="487890.206785" HC_abs="28.561119" PMx_abs="8.696101" NOx_abs="180.756618" fuel_abs="209.721727" electricity_abs="0"/>
    </tripinfo>
    <tripinfo id="sveh14" depart="59.00" departLane="516175821_0" departPos="4.85" departSpeed="22.22" departDelay="0.00" arrival="704.00" arrivalLane="462392869_1" arrivalPos="125.48" arrivalSpeed="21.69" duration="645.00" routeLength="13909.04" waitingTime="0.00" waitingCount="0" stopTime="0.00" timeLoss="18.76" rerouteNo="0" devices="tripinfo_sveh14 emissions_sveh14" vType="SCar" speedFactor="1.12" vaporized="">
        <emissions CO_abs="14855.025244" CO2_abs="1889771.809166" HC_abs="113.572497" PMx_abs="34.103081" NOx_abs="704.760507" fuel_abs="812.326337" electricity_abs="0"/>
    </tripinfo>
    <tripinfo id="sveh88" depart="550.00" departLane="462392872_0" departPos="4.85" departSpeed="22.22" departDelay="0.00" arrival="716.00" arrivalLane="389783908_0" arrivalPos="273.35" arrivalSpeed="21.31" duration="166.00" routeLength="3556.47" waitingTime="0.00" waitingCount="0" stopTime="0.00" timeLoss="5.01" rerouteNo="0" devices="tripinfo_sveh88 emissions_sveh88" vType="SCar" speedFactor="1.02" vaporized="">
        <emissions CO_abs="3674.623323" CO2_abs="495517.188485" HC_abs="28.766431" PMx_abs="8.798460" NOx_abs="183.185657" fuel_abs="213.000244" electricity_abs="0"/>
    </tripinfo>
    <tripinfo id="sveh89" depart="552.00" departLane="462392872_0" departPos="4.85" departSpeed="22.22" departDelay="0.00" arrival="717.00" arrivalLane="389783908_0" arrivalPos="273.35" arrivalSpeed="21.85" duration="165.00" routeLength="3556.47" waitingTime="0.00" waitingCount="0" stopTime="0.00" timeLoss="4.74" rerouteNo="0" devices="tripinfo_sveh89 emissions_sveh89" vType="SCar" speedFactor="1.02" vaporized="">
        <emissions CO_abs="4042.019796" CO2_abs="502489.912522" HC_abs="30.651608" PMx_abs="9.131832" NOx_abs="188.125602" fuel_abs="215.997350" electricity_abs="0"/>
    </tripinfo>
    <tripinfo id="sveh17" depart="69.00" departLane="516175821_0" departPos="4.85" departSpeed="22.22" departDelay="0.00" arrival="718.00" arrivalLane="462392869_1" arrivalPos="125.48" arrivalSpeed="21.84" duration="649.00" routeLength="13909.04" waitingTime="0.00" waitingCount="0" stopTime="0.00" timeLoss="19.34" rerouteNo="0" devices="tripinfo_sveh17 emissions_sveh17" vType="SCar" speedFactor="0.88" vaporized="">
        <emissions CO_abs="16664.030540" CO2_abs="1994481.423166" HC_abs="124.324800" PMx_abs="36.561127" NOx_abs="752.044880" fuel_abs="857.335696" electricity_abs="0"/>
    </tripinfo>
    <tripinfo id="sveh46" depart="215.00" departLane="319615443_0" departPos="4.85" departSpeed="22.22" departDelay="0.00" arrival="730.00" arrivalLane="319611370_1" arrivalPos="380.09" arrivalSpeed="21.42" duration="515.00" routeLength="11083.48" waitingTime="0.00" waitingCount="0" stopTime="0.00" timeLoss="15.73" rerouteNo="0" devices="tripinfo_sveh46 emissions_sveh46" vType="SCar" speedFactor="1.09" vaporized="">
        <emissions CO_abs="11517.473122" CO2_abs="1535571.510368" HC_abs="89.673280" PMx_abs="27.338946" NOx_abs="568.558493" fuel_abs="660.072114" electricity_abs="0"/>
    </tripinfo>
    <tripinfo id="sveh48" depart="226.00" departLane="319615443_0" departPos="4.85" departSpeed="22.22" departDelay="0.00" arrival="741.00" arrivalLane="319611370_1" arrivalPos="380.09" arrivalSpeed="21.93" duration="515.00" routeLength="11083.48" waitingTime="0.00" waitingCount="0" stopTime="0.00" timeLoss="15.23" rerouteNo="0" devices="tripinfo_sveh48 emissions_sveh48" vType="SCar" speedFactor="0.90" vaporized="">