<?xml version="1.0" encoding="UTF-8"?>

<!-- generated on Tue Nov 10 01:44:11 2020 by Eclipse SUMO sumo Version 1.7.0
<configuration xmlns:xsi="http://www.w3.org/2001/XMLSchema-instance" xsi:noNamespaceSchemaLocation="http://sumo.dlr.de/xsd/sumoConfiguration.xsd">

    <input>
        <net-file value="../dataSets/Porto/6AM7AM_Routing_SaoBento/Porto.net.xml"/>
        <route-files value="../results/Porto/6AM7AM_Routing_SaoBento/cost_PMx-cost_co2/solution13/Porto.rou.xml"/>
        <additional-files value="moreOutputInfo.xml"/>
    </input>

    <output>
        <emission-output.precision value="6"/>
        <tripinfo-output value="../results/Porto/6AM7AM_Routing_SaoBento/cost_PMx-cost_co2/solution13/Porto-tripinfo"/>
    </output>

    <processing>
        <collision.action value="warn"/>
        <time-to-teleport value="-1"/>
    </processing>

    <emissions>
        <device.emissions.probability value="1"/>
    </emissions>

    <gui_only>
        <quit-on-end value="true"/>
        <start value="true"/>
    </gui_only>

</configuration>
-->

<meandata xmlns:xsi="http://www.w3.org/2001/XMLSchema-instance" xsi:noNamespaceSchemaLocation="http://sumo.dlr.de/xsd/meandata_file.xsd">
    <interval begin="0.00" end="4698.00" id="emissions-detector">
        <edge id=":1092997347_0" sampledSeconds="285.29" CO_abs="36727.499318" CO2_abs="1454513.495985" HC_abs="201.618978" PMx_abs="29.745765" NOx_abs="631.857320" fuel_abs="625.238089" electricity_abs="0"
            CO_normed="63962.903723" CO2_normed="2533113.019827" HC_normed="351.130229" PMx_normed="51.803841" NOx_normed="1100.413306" fuel_normed="1088.885560" electricity_normed="0"
            traveltime="0.08" CO_perVeh="9.678597" CO2_perVeh="383.299992" HC_perVeh="0.053132" PMx_perVeh="0.007839" NOx_perVeh="0.166510" fuel_perVeh="0.164766" electricity_perVeh="0"/>
        <edge id=":1103427051_0" sampledSeconds="10.95" CO_abs="813.140124" CO2_abs="45698.173495" HC_abs="4.787854" PMx_abs="0.898683" NOx_abs="19.517471" fuel_abs="19.643620" electricity_abs="0"
            CO_normed="2148.606486" CO2_normed="120750.887820" HC_normed="12.651219" PMx_normed="2.374642" NOx_normed="51.572125" fuel_normed="51.905455" electricity_normed="0"
            traveltime="0.03" CO_perVeh="2.227992" CO2_perVeh="125.212305" HC_perVeh="0.013119" PMx_perVeh="0.002462" NOx_perVeh="0.053478" fuel_perVeh="0.053823" electricity_perVeh="0"/>
        <edge id=":1105984386_0" sampledSeconds="22.77" CO_abs="430.525199" CO2_abs="36170.928880" HC_abs="2.786466" PMx_abs="0.488092" NOx_abs="13.764548" fuel_abs="15.548463" electricity_abs="0"
            CO_normed="33.975733" CO2_normed="2854.499164" HC_normed="0.219899" PMx_normed="0.038519" NOx_normed="1.086256" fuel_normed="1.227037" electricity_normed="0"
            traveltime="0.96" CO_perVeh="18.068809" CO2_perVeh="1518.065869" HC_perVeh="0.116946" PMx_perVeh="0.020485" NOx_perVeh="0.577687" fuel_perVeh="0.652557" electricity_perVeh="0"/>
        <edge id=":1105984390_0" sampledSeconds="23.55" CO_abs="8.976778" CO2_abs="1261.819439" HC_abs="0.068607" PMx_abs="0.009927" NOx_abs="0.427739" fuel_abs="0.542413" electricity_abs="0"
            CO_normed="0.547672" CO2_normed="76.983396" HC_normed="0.004186" PMx_normed="0.000606" NOx_normed="0.026096" fuel_normed="0.033093" electricity_normed="0"
            traveltime="1.07" CO_perVeh="0.407092" CO2_perVeh="57.222892" HC_perVeh="0.003111" PMx_perVeh="0.000450" NOx_perVeh="0.019398" fuel_perVeh="0.024598" electricity_perVeh="0"/>
        <edge id=":1105984390_1" sampledSeconds="645.13" CO_abs="14336.804634" CO2_abs="1876910.181742" HC_abs="110.186359" PMx_abs="33.118948" NOx_abs="701.516004" fuel_abs="806.797745" electricity_abs="0"
            CO_normed="836.714181" CO2_normed="109538.869002" HC_normed="6.430616" PMx_normed="1.932864" NOx_normed="40.941368" fuel_normed="47.085744" electricity_normed="0"
            traveltime="0.64" CO_perVeh="14.124140" CO2_perVeh="1849.069134" HC_perVeh="0.108552" PMx_perVeh="0.032628" NOx_perVeh="0.691110" fuel_perVeh="0.794830" electricity_perVeh="0"/>
        <edge id=":1105984395_0" sampledSeconds="8.93" CO_abs="243.528008" CO2_abs="18269.752988" HC_abs="1.529224" PMx_abs="0.269167" NOx_abs="7.131291" fuel_abs="7.853434" electricity_abs="0"
            CO_normed="202.838587" CO2_normed="15217.185564" HC_normed="1.273717" PMx_normed="0.224194" NOx_normed="5.939773" fuel_normed="6.541258" electricity_normed="0"
            traveltime="0.09" CO_perVeh="2.469640" CO2_perVeh="185.275273" HC_perVeh="0.015508" PMx_perVeh="0.002730" NOx_perVeh="0.072319" fuel_perVeh="0.079642" electricity_perVeh="0"/>
        <edge id=":1105984398_0" sampledSeconds="23.39" CO_abs="1505.427477" CO2_abs="104902.760680" HC_abs="9.330192" PMx_abs="1.888568" NOx_abs="43.236745" fuel_abs="45.093051" electricity_abs="0"
            CO_normed="95.416400" CO2_normed="6648.904651" HC_normed="0.591362" PMx_normed="0.119700" NOx_normed="2.740414" fuel_normed="2.858070" electricity_normed="0"
            traveltime="1.10" CO_perVeh="70.800645" CO2_perVeh="4933.604038" HC_perVeh="0.438801" PMx_perVeh="0.088820" NOx_perVeh="2.033435" fuel_perVeh="2.120738" electricity_perVeh="0"/>
        <edge id=":1105984398_1" sampledSeconds="451.86" CO_abs="8559.837782" CO2_abs="968999.838740" HC_abs="61.349556" PMx_abs="14.159465" NOx_abs="368.628811" fuel_abs="416.531524" electricity_abs="0"
            CO_normed="525.161142" CO2_normed="59449.848844" HC_normed="3.763903" PMx_normed="0.868708" NOx_normed="22.616028" fuel_normed="25.554944" electricity_normed="0"
            traveltime="0.96" CO_perVeh="18.095882" CO2_perVeh="2048.509279" HC_perVeh="0.129696" PMx_perVeh="0.029934" NOx_perVeh="0.779298" fuel_perVeh="0.880566" electricity_perVeh="0"/>
        <edge id=":1106006327_0" sampledSeconds="225.42" CO_abs="30278.171661" CO2_abs="979537.736522" HC_abs="160.915731" PMx_abs="20.398180" NOx_abs="428.564509" fuel_abs="421.068824" electricity_abs="0"
            CO_normed="2618.697981" CO2_normed="84718.242609" HC_normed="13.917277" PMx_normed="1.764197" NOx_normed="37.065680" fuel_normed="36.417393" electricity_normed="0"
            traveltime="2.10" CO_perVeh="281.583500" CO2_perVeh="9109.587851" HC_perVeh="1.496498" PMx_perVeh="0.189701" NOx_perVeh="3.985600" fuel_perVeh="3.915891" electricity_perVeh="0"/>
        <edge id=":1106006327_1" sampledSeconds="164.33" CO_abs="21958.746008" CO2_abs="721675.646594" HC_abs="116.971196" PMx_abs="14.991276" NOx_abs="315.453709" fuel_abs="310.222744" electricity_abs="0"
            CO_normed="1656.163907" CO2_normed="54429.936841" HC_normed="8.822156" PMx_normed="1.130666" NOx_normed="23.792026" fuel_normed="23.397498" electricity_normed="0"
            traveltime="2.33" CO_perVeh="311.732701" CO2_perVeh="10245.115931" HC_perVeh="1.660557" PMx_perVeh="0.212820" NOx_perVeh="4.478272" fuel_perVeh="4.404012" electricity_perVeh="0"/>
        <edge id=":1106006327_2" sampledSeconds="0.00" CO_abs="0" CO2_abs="0" HC_abs="0" PMx_abs="0" NOx_abs="0" fuel_abs="0" electricity_abs="0"
            CO_normed="0" CO2_normed="0" HC_normed="0" PMx_normed="0" NOx_normed="0" fuel_normed="0" electricity_normed="0"/>
        <edge id=":1106006327_3" sampledSeconds="0.00" CO_abs="0" CO2_abs="0" HC_abs="0" PMx_abs="0" NOx_abs="0" fuel_abs="0" electricity_abs="0"
            CO_normed="0" CO2_normed="0" HC_normed="0" PMx_normed="0" NOx_normed="0" fuel_normed="0" electricity_normed="0"/>
        <edge id=":1107381198_0" sampledSeconds="0.00" CO_abs="0" CO2_abs="0" HC_abs="0" PMx_abs="0" NOx_abs="0" fuel_abs="0" electricity_abs="0"
            CO_normed="0" CO2_normed="0" HC_normed="0" PMx_normed="0" NOx_normed="0" fuel_normed="0" electricity_normed="0"/>
        <edge id=":1107381198_1" sampledSeconds="36.18" CO_abs="1538.895799" CO2_abs="63627.383653" HC_abs="8.474527" PMx_abs="1.100834" NOx_abs="26.359170" fuel_abs="27.351154" electricity_abs="0"
            CO_normed="128.596565" CO2_normed="5316.970101" HC_normed="0.708167" PMx_normed="0.091990" NOx_normed="2.202682" fuel_normed="2.285577" electricity_normed="0"
            traveltime="1.49" CO_perVeh="63.360607" CO2_perVeh="2619.715823" HC_perVeh="0.348920" PMx_perVeh="0.045324" NOx_perVeh="1.085280" fuel_perVeh="1.126123" electricity_perVeh="0"/>
        <edge id=":1110338277_0" sampledSeconds="96.54" CO_abs="1576.396224" CO2_abs="198896.649469" HC_abs="11.737461" PMx_abs="2.637156" NOx_abs="73.833294" fuel_abs="85.497419" electricity_abs="0"
            CO_normed="4314.165912" CO2_normed="544325.805882" HC_normed="32.122226" PMx_normed="7.217176" NOx_normed="202.061559" fuel_normed="233.983084" electricity_normed="0"
            traveltime="0.02" CO_perVeh="0.356220" CO2_perVeh="44.944873" HC_perVeh="0.002652" PMx_perVeh="0.000596" NOx_perVeh="0.016684" fuel_perVeh="0.019320" electricity_perVeh="0"/>
        <edge id=":1110338293_0" sampledSeconds="123.55" CO_abs="6413.178421" CO2_abs="440313.846201" HC_abs="39.563083" PMx_abs="7.798328" NOx_abs="180.716054" fuel_abs="189.271693" electricity_abs="0"
            CO_normed="16381.043222" CO2_normed="1124684.153770" HC_normed="101.055128" PMx_normed="19.919102" NOx_normed="461.599117" fuel_normed="483.452601" electricity_normed="0"
            traveltime="0.03" CO_perVeh="1.470969" CO2_perVeh="100.993275" HC_perVeh="0.009074" PMx_perVeh="0.001789" NOx_perVeh="0.041450" fuel_perVeh="0.043413" electricity_perVeh="0"/>
        <edge id=":1110338295_0" sampledSeconds="0.00" CO_abs="0" CO2_abs="0" HC_abs="0" PMx_abs="0" NOx_abs="0" fuel_abs="0" electricity_abs="0"
            CO_normed="0" CO2_normed="0" HC_normed="0" PMx_normed="0" NOx_normed="0" fuel_normed="0" electricity_normed="0"/>
        <edge id=":1110673403_0" sampledSeconds="143.49" CO_abs="2378.916156" CO2_abs="297744.211045" HC_abs="17.623743" PMx_abs="4.083632" NOx_abs="111.214138" fuel_abs="127.987702" electricity_abs="0"
            CO_normed="6076.414193" CO2_normed="760521.611866" HC_normed="45.015947" PMx_normed="10.430733" NOx_normed="284.071872" fuel_normed="326.916224" electricity_normed="0"
            traveltime="0.02" CO_perVeh="0.381951" CO2_perVeh="47.804797" HC_perVeh="0.002830" PMx_perVeh="0.000656" NOx_perVeh="0.017856" fuel_perVeh="0.020549" electricity_perVeh="0"/>
        <edge id=":1110673412_0" sampledSeconds="253.14" CO_abs="44483.688160" CO2_abs="3043848.552183" HC_abs="277.027209" PMx_abs="66.784960" NOx_abs="1307.309706" fuel_abs="1308.400637" electricity_abs="0"
            CO_normed="117541.784014" CO2_normed="8042934.475316" HC_normed="732.004781" PMx_normed="176.469705" NOx_normed="3454.378929" fuel_normed="3457.261558" electricity_normed="0"
            traveltime="0.02" CO_perVeh="2.735695" CO2_perVeh="187.193116" HC_perVeh="0.017037" PMx_perVeh="0.004107" NOx_perVeh="0.080398" fuel_perVeh="0.080465" electricity_perVeh="0"/>
        <edge id=":1110673414_0" sampledSeconds="0.00" CO_abs="0" CO2_abs="0" HC_abs="0" PMx_abs="0" NOx_abs="0" fuel_abs="0" electricity_abs="0"
            CO_normed="0" CO2_normed="0" HC_normed="0" PMx_normed="0" NOx_normed="0" fuel_normed="0" electricity_normed="0"/>
        <edge id=":1110673414_1" sampledSeconds="183.38" CO_abs="12053.022491" CO2_abs="456960.706954" HC_abs="65.480439" PMx_abs="8.393637" NOx_abs="192.681778" fuel_abs="196.431278" electricity_abs="0"
            CO_normed="1022.816452" CO2_normed="38777.570462" HC_normed="5.556654" PMx_normed="0.712282" NOx_normed="16.350927" fuel_normed="16.669109" electricity_normed="0"
            traveltime="1.60" CO_perVeh="105.310879" CO2_perVeh="3992.602984" HC_perVeh="0.572122" PMx_perVeh="0.073338" NOx_perVeh="1.683519" fuel_perVeh="1.716279" electricity_perVeh="0"/>
        <edge id=":1110673417_0" sampledSeconds="29.95" CO_abs="483.618481" CO2_abs="55632.759760" HC_abs="3.466815" PMx_abs="0.777511" NOx_abs="20.946171" fuel_abs="23.914184" electricity_abs="0"
            CO_normed="1323.531694" CO2_normed="152251.668747" HC_normed="9.487725" PMx_normed="2.127836" NOx_normed="57.323948" fuel_normed="65.446591" electricity_normed="0"
            traveltime="0.02" CO_perVeh="0.358948" CO2_perVeh="41.291379" HC_perVeh="0.002573" PMx_perVeh="0.000577" NOx_perVeh="0.015547" fuel_perVeh="0.017749" electricity_perVeh="0"/>
        <edge id=":1110673446_0" sampledSeconds="333.70" CO_abs="3218.454402" CO2_abs="267419.860318" HC_abs="20.983724" PMx_abs="4.871639" NOx_abs="109.012265" fuel_abs="114.951495" electricity_abs="0"
            CO_normed="8220.828613" CO2_normed="683064.777312" HC_normed="53.598274" PMx_normed="12.443522" NOx_normed="278.447676" fuel_normed="293.618124" electricity_normed="0"
            traveltime="0.02" CO_perVeh="0.219780" CO2_perVeh="18.261429" HC_perVeh="0.001433" PMx_perVeh="0.000333" NOx_perVeh="0.007444" fuel_perVeh="0.007850" electricity_perVeh="0"/>
        <edge id=":1110673451_0" sampledSeconds="37.53" CO_abs="486.240974" CO2_abs="36478.263635" HC_abs="3.046094" PMx_abs="0.499778" NOx_abs="13.993377" fuel_abs="15.680601" electricity_abs="0"
            CO_normed="1379.994251" CO2_normed="103528.490522" HC_normed="8.645079" PMx_normed="1.418415" NOx_normed="39.714422" fuel_normed="44.502911" electricity_normed="0"
            traveltime="0.03" CO_perVeh="0.348699" CO2_perVeh="26.159711" HC_perVeh="0.002184" PMx_perVeh="0.000358" NOx_perVeh="0.010035" fuel_perVeh="0.011245" electricity_perVeh="0"/>
        <edge id=":1110673464_0" sampledSeconds="328.36" CO_abs="1106.737426" CO2_abs="77358.792715" HC_abs="6.826545" PMx_abs="1.191863" NOx_abs="30.563793" fuel_abs="33.253425" electricity_abs="0"
            CO_normed="60.061944" CO2_normed="4198.213057" HC_normed="0.370472" PMx_normed="0.064682" NOx_normed="1.658678" fuel_normed="1.804642" electricity_normed="0"
            traveltime="1.19" CO_perVeh="4.000710" CO2_perVeh="279.641829" HC_perVeh="0.024677" PMx_perVeh="0.004308" NOx_perVeh="0.110484" fuel_perVeh="0.120207" electricity_perVeh="0"/>
        <edge id=":1110673464_1" sampledSeconds="709.52" CO_abs="16220.935269" CO2_abs="2085717.775863" HC_abs="123.667896" PMx_abs="36.943446" NOx_abs="782.018521" fuel_abs="896.554424" electricity_abs="0"
            CO_normed="862.584001" CO2_normed="110912.641863" HC_normed="6.576313" PMx_normed="1.964549" NOx_normed="41.585559" fuel_normed="47.676258" electricity_normed="0"
            traveltime="0.70" CO_perVeh="16.003221" CO2_perVeh="2057.723673" HC_perVeh="0.122008" PMx_perVeh="0.036448" NOx_perVeh="0.771522" fuel_perVeh="0.884521" electricity_perVeh="0"/>
        <edge id=":1110673479_0" sampledSeconds="133.53" CO_abs="6658.278868" CO2_abs="468450.143150" HC_abs="41.310324" PMx_abs="8.097575" NOx_abs="190.812606" fuel_abs="201.366439" electricity_abs="0"
            CO_normed="17007.098003" CO2_normed="1196552.089782" HC_normed="105.518069" PMx_normed="20.683461" NOx_normed="487.388521" fuel_normed="514.345948" electricity_normed="0"
            traveltime="0.03" CO_perVeh="1.402635" CO2_perVeh="98.683871" HC_perVeh="0.008702" PMx_perVeh="0.001706" NOx_perVeh="0.040197" fuel_perVeh="0.042420" electricity_perVeh="0"/>
        <edge id=":1110673511_0" sampledSeconds="11.71" CO_abs="227.117222" CO2_abs="24897.261034" HC_abs="1.611849" PMx_abs="0.359387" NOx_abs="9.464786" fuel_abs="10.702277" electricity_abs="0"
            CO_normed="580.120618" CO2_normed="63594.536485" HC_normed="4.117112" PMx_normed="0.917975" NOx_normed="24.175697" fuel_normed="27.336596" electricity_normed="0"
            traveltime="0.02" CO_perVeh="0.449761" CO2_perVeh="49.304146" HC_perVeh="0.003192" PMx_perVeh="0.000712" NOx_perVeh="0.018743" fuel_perVeh="0.021194" electricity_perVeh="0"/>
        <edge id=":1110673517_0" sampledSeconds="16.94" CO_abs="877.061594" CO2_abs="60762.094419" HC_abs="5.427920" PMx_abs="1.096228" NOx_abs="25.044326" fuel_abs="26.118936" electricity_abs="0"
            CO_normed="2240.259499" CO2_normed="155203.306306" HC_normed="13.864419" PMx_normed="2.800071" NOx_normed="63.970181" fuel_normed="66.715034" electricity_normed="0"
            traveltime="0.03" CO_perVeh="1.408180" CO2_perVeh="97.557551" HC_perVeh="0.008715" PMx_perVeh="0.001760" NOx_perVeh="0.040210" fuel_perVeh="0.041936" electricity_perVeh="0"/>
        <edge id=":1110673534_0" sampledSeconds="474.19" CO_abs="2836.515191" CO2_abs="249572.276318" HC_abs="18.610008" PMx_abs="3.297223" NOx_abs="94.270239" fuel_abs="107.281349" electricity_abs="0"
            CO_normed="140.411813" CO2_normed="12354.206952" HC_normed="0.921224" PMx_normed="0.163218" NOx_normed="4.666520" fuel_normed="5.310590" electricity_normed="0"
            traveltime="1.43" CO_perVeh="8.545294" CO2_perVeh="751.862211" HC_perVeh="0.056065" PMx_perVeh="0.009933" NOx_perVeh="0.283999" fuel_perVeh="0.323196" electricity_perVeh="0"/>
        <edge id=":1110673534_1" sampledSeconds="184.46" CO_abs="2781.811094" CO2_abs="333343.637726" HC_abs="20.284606" PMx_abs="4.690816" NOx_abs="125.405685" fuel_abs="143.290303" electricity_abs="0"
            CO_normed="133.897991" CO2_normed="16044.958400" HC_normed="0.976367" PMx_normed="0.225785" NOx_normed="6.036200" fuel_normed="6.897048" electricity_normed="0"
            traveltime="1.22" CO_perVeh="18.470227" CO2_perVeh="2213.282082" HC_perVeh="0.134683" PMx_perVeh="0.031145" NOx_perVeh="0.832649" fuel_perVeh="0.951396" electricity_perVeh="0"/>
        <edge id=":1110673549_0" sampledSeconds="60.92" CO_abs="26.929323" CO2_abs="1870.669967" HC_abs="0.164680" PMx_abs="0.022979" NOx_abs="0.702920" fuel_abs="0.804134" electricity_abs="0"
            CO_normed="1.291333" CO2_normed="89.703603" HC_normed="0.007897" PMx_normed="0.001102" NOx_normed="0.033707" fuel_normed="0.038560" electricity_normed="0"
            traveltime="1.27" CO_perVeh="0.561050" CO2_perVeh="38.973815" HC_perVeh="0.003431" PMx_perVeh="0.000479" NOx_perVeh="0.014645" fuel_perVeh="0.016753" electricity_perVeh="0"/>
        <edge id=":1110673549_1" sampledSeconds="638.33" CO_abs="14394.511990" CO2_abs="1875554.829272" HC_abs="110.487041" PMx_abs="33.097422" NOx_abs="701.905867" fuel_abs="806.215120" electricity_abs="0"
            CO_normed="667.692336" CO2_normed="86997.988240" HC_normed="5.124964" PMx_normed="1.535231" NOx_normed="32.558045" fuel_normed="37.396451" electricity_normed="0"
            traveltime="0.80" CO_perVeh="18.121258" CO2_perVeh="2361.136893" HC_perVeh="0.139092" PMx_perVeh="0.041666" NOx_perVeh="0.883630" fuel_perVeh="1.014945" electricity_perVeh="0"/>
        <edge id=":1110673556_0" sampledSeconds="412.16" CO_abs="50882.752502" CO2_abs="2570394.727891" HC_abs="292.857502" PMx_abs="52.048124" NOx_abs="1108.130569" fuel_abs="1104.900827" electricity_abs="0"
            CO_normed="1809.309278" CO2_normed="91399.124477" HC_normed="10.413544" PMx_normed="1.850748" NOx_normed="39.403350" fuel_normed="39.288506" electricity_normed="0"
            traveltime="2.56" CO_perVeh="315.855768" CO2_perVeh="15955.779922" HC_perVeh="1.817919" PMx_perVeh="0.323090" NOx_perVeh="6.878744" fuel_perVeh="6.858695" electricity_perVeh="0"/>
        <edge id=":1110673556_2" sampledSeconds="248.85" CO_abs="24736.804050" CO2_abs="1063820.180189" HC_abs="137.623615" PMx_abs="20.547334" NOx_abs="453.849290" fuel_abs="457.294491" electricity_abs="0"
            CO_normed="919.718845" CO2_normed="39553.026567" HC_normed="5.116871" PMx_normed="0.763954" NOx_normed="16.874199" fuel_normed="17.002292" electricity_normed="0"
            traveltime="3.02" CO_perVeh="300.052693" CO2_perVeh="12903.934927" HC_perVeh="1.669348" PMx_perVeh="0.249235" NOx_perVeh="5.505105" fuel_perVeh="5.546895" electricity_perVeh="0"/>
        <edge id=":1110673556_3" sampledSeconds="422.37" CO_abs="35956.212087" CO2_abs="1297283.282228" HC_abs="193.938353" PMx_abs="24.782032" NOx_abs="553.379948" fuel_abs="557.656301" electricity_abs="0"
            CO_normed="3041.131671" CO2_normed="109722.605552" HC_normed="16.403065" PMx_normed="2.096033" NOx_normed="46.804187" fuel_normed="47.165876" electricity_normed="0"
            traveltime="1.71" CO_perVeh="145.610750" CO2_perVeh="5253.567614" HC_perVeh="0.785386" PMx_perVeh="0.100359" NOx_perVeh="2.241006" fuel_perVeh="2.258323" electricity_perVeh="0"/>
        <edge id=":1110673556_4" sampledSeconds="180.08" CO_abs="18674.649028" CO2_abs="753292.830768" HC_abs="102.719772" PMx_abs="14.736782" NOx_abs="323.079619" fuel_abs="323.811640" electricity_abs="0"
            CO_normed="964.941058" CO2_normed="38923.525667" HC_normed="5.307651" PMx_normed="0.761467" NOx_normed="16.693904" fuel_normed="16.731728" electricity_normed="0"
            traveltime="2.39" CO_perVeh="248.145301" CO2_perVeh="10009.616580" HC_perVeh="1.364921" PMx_perVeh="0.195820" NOx_perVeh="4.293023" fuel_perVeh="4.302750" electricity_perVeh="0"/>
        <edge id=":1110673556_5" sampledSeconds="24.84" CO_abs="2172.241554" CO2_abs="87808.635156" HC_abs="11.942697" PMx_abs="1.665674" NOx_abs="37.332241" fuel_abs="37.745633" electricity_abs="0"
            CO_normed="156.442943" CO2_normed="6323.901359" HC_normed="0.860103" PMx_normed="0.119960" NOx_normed="2.688635" fuel_normed="2.718408" electricity_normed="0"
            traveltime="1.72" CO_perVeh="150.179663" CO2_perVeh="6070.720455" HC_perVeh="0.825668" PMx_perVeh="0.115158" NOx_perVeh="2.580994" fuel_perVeh="2.609575" electricity_perVeh="0"/>
        <edge id=":1110673556_6" sampledSeconds="306.92" CO_abs="36508.447132" CO2_abs="1875690.602766" HC_abs="210.872571" PMx_abs="37.821738" NOx_abs="806.894554" fuel_abs="806.277543" electricity_abs="0"
            CO_normed="1330.914441" CO2_normed="68378.249606" HC_normed="7.687354" PMx_normed="1.378790" NOx_normed="29.415319" fuel_normed="29.392826" electricity_normed="0"
            traveltime="2.43" CO_perVeh="289.117533" CO2_perVeh="14853.960717" HC_perVeh="1.669941" PMx_perVeh="0.299518" NOx_perVeh="6.389956" fuel_perVeh="6.385070" electricity_perVeh="0"/>
        <edge id=":1110673561_0" sampledSeconds="102.14" CO_abs="9218.558962" CO2_abs="665685.203618" HC_abs="57.995625" PMx_abs="13.415945" NOx_abs="281.072503" fuel_abs="286.146378" electricity_abs="0"
            CO_normed="422.237290" CO2_normed="30490.352917" HC_normed="2.656371" PMx_normed="0.614490" NOx_normed="12.873953" fuel_normed="13.106351" electricity_normed="0"
            traveltime="1.21" CO_perVeh="108.789022" CO2_perVeh="7855.809440" HC_perVeh="0.684411" PMx_perVeh="0.158323" NOx_perVeh="3.316961" fuel_perVeh="3.376838" electricity_perVeh="0"/>
        <edge id=":1110673561_1" sampledSeconds="1318.57" CO_abs="119820.367895" CO2_abs="8312577.505519" HC_abs="746.687297" PMx_abs="173.642342" NOx_abs="3553.200467" fuel_abs="3573.175631" electricity_abs="0"
            CO_normed="5350.604538" CO2_normed="371199.952912" HC_normed="33.343483" PMx_normed="7.754036" NOx_normed="158.668938" fuel_normed="159.560933" electricity_normed="0"
            traveltime="1.19" CO_perVeh="108.578038" CO2_perVeh="7532.637154" HC_perVeh="0.676628" PMx_perVeh="0.157350" NOx_perVeh="3.219816" fuel_perVeh="3.237917" electricity_perVeh="0"/>
        <edge id=":1110673562_0" sampledSeconds="104.17" CO_abs="2242.887119" CO2_abs="181908.816693" HC_abs="14.359007" PMx_abs="2.432700" NOx_abs="69.139283" fuel_abs="78.195557" electricity_abs="0"
            CO_normed="6365.509064" CO2_normed="516273.071359" HC_normed="40.752113" PMx_normed="6.904214" NOx_normed="196.223310" fuel_normed="221.925805" electricity_normed="0"
            traveltime="0.03" CO_perVeh="0.571722" CO2_perVeh="46.369385" HC_perVeh="0.003660" PMx_perVeh="0.000620" NOx_perVeh="0.017624" fuel_perVeh="0.019932" electricity_perVeh="0"/>
        <edge id=":1110673564_0" sampledSeconds="28.90" CO_abs="521.981625" CO2_abs="60222.873080" HC_abs="3.761924" PMx_abs="0.821923" NOx_abs="22.593320" fuel_abs="25.887309" electricity_abs="0"
            CO_normed="3999.859193" CO2_normed="461477.954635" HC_normed="28.827005" PMx_normed="6.298260" NOx_normed="173.128888" fuel_normed="198.370183" electricity_normed="0"
            traveltime="7.945147e-03" CO_perVeh="0.143500" CO2_perVeh="16.556116" HC_perVeh="0.001034" PMx_perVeh="0.000226" NOx_perVeh="0.006211" fuel_perVeh="0.007117" electricity_perVeh="0"/>
        <edge id=":1110673588_0" sampledSeconds="11.74" CO_abs="140.066887" CO2_abs="16984.827797" HC_abs="1.029307" PMx_abs="0.229743" NOx_abs="6.332925" fuel_abs="7.301071" electricity_abs="0"
            CO_normed="429.323792" CO2_normed="52060.774857" HC_normed="3.154963" PMx_normed="0.704192" NOx_normed="19.411265" fuel_normed="22.378762" electricity_normed="0"
            traveltime="0.02" CO_perVeh="0.233445" CO2_perVeh="28.308046" HC_perVeh="0.001716" PMx_perVeh="0.000383" NOx_perVeh="0.010555" fuel_perVeh="0.012168" electricity_perVeh="0"/>
        <edge id=":1110673601_0" sampledSeconds="29.77" CO_abs="591.281410" CO2_abs="67474.271730" HC_abs="4.255063" PMx_abs="0.952182" NOx_abs="25.471595" fuel_abs="29.004347" electricity_abs="0"
            CO_normed="1618.175726" CO2_normed="184658.652793" HC_normed="11.644946" PMx_normed="2.605861" NOx_normed="69.708799" fuel_normed="79.376975" electricity_normed="0"
            traveltime="0.02" CO_perVeh="0.438857" CO2_perVeh="50.080308" HC_perVeh="0.003158" PMx_perVeh="0.000707" NOx_perVeh="0.018905" fuel_perVeh="0.021527" electricity_perVeh="0"/>
        <edge id=":1110673617_0" sampledSeconds="238.21" CO_abs="6205.660535" CO2_abs="742021.990456" HC_abs="46.120581" PMx_abs="13.441509" NOx_abs="281.639333" fuel_abs="318.961009" electricity_abs="0"
            CO_normed="15850.984763" CO2_normed="1895330.754677" HC_normed="117.804804" PMx_normed="34.333357" NOx_normed="719.385269" fuel_normed="814.715221" electricity_normed="0"
            traveltime="0.01" CO_perVeh="0.380514" CO2_perVeh="45.498755" HC_perVeh="0.002828" PMx_perVeh="0.000824" NOx_perVeh="0.017269" fuel_perVeh="0.019558" electricity_perVeh="0"/>
        <edge id=":1110673621_0" sampledSeconds="25.90" CO_abs="367.829460" CO2_abs="48432.442190" HC_abs="2.781051" PMx_abs="0.621212" NOx_abs="17.807388" fuel_abs="20.819120" electricity_abs="0"
            CO_normed="1127.446622" CO2_normed="148451.930083" HC_normed="8.524294" PMx_normed="1.904099" NOx_normed="54.582034" fuel_normed="63.813393" electricity_normed="0"
            traveltime="0.02" CO_perVeh="0.278659" CO2_perVeh="36.691244" HC_perVeh="0.002107" PMx_perVeh="0.000471" NOx_perVeh="0.013490" fuel_perVeh="0.015772" electricity_perVeh="0"/>
        <edge id=":1110673630_0" sampledSeconds="53.78" CO_abs="166.010440" CO2_abs="16282.294654" HC_abs="1.122144" PMx_abs="0.212048" NOx_abs="6.086057" fuel_abs="6.999113" electricity_abs="0"
            CO_normed="9.073542" CO2_normed="889.932535" HC_normed="0.061332" PMx_normed="0.011590" NOx_normed="0.332642" fuel_normed="0.382547" electricity_normed="0"
            traveltime="1.26" CO_perVeh="3.874977" CO2_perVeh="380.057557" HC_perVeh="0.026193" PMx_perVeh="0.004950" NOx_perVeh="0.142059" fuel_perVeh="0.163372" electricity_perVeh="0"/>
        <edge id=":1110673630_1" sampledSeconds="7.33" CO_abs="10.909103" CO2_abs="836.485057" HC_abs="0.069278" PMx_abs="0.014100" NOx_abs="0.337359" fuel_abs="0.359569" electricity_abs="0"
            CO_normed="0.726910" CO2_normed="55.737802" HC_normed="0.004616" PMx_normed="0.000940" NOx_normed="0.022479" fuel_normed="0.023959" electricity_normed="0"
            traveltime="1.04" CO_perVeh="1.544058" CO2_perVeh="118.394808" HC_perVeh="0.009806" PMx_perVeh="0.001996" NOx_perVeh="0.047749" fuel_perVeh="0.050893" electricity_perVeh="0"/>
        <edge id=":1110673650_0" sampledSeconds="143.78" CO_abs="2088.488805" CO2_abs="267986.697128" HC_abs="15.603457" PMx_abs="3.603371" NOx_abs="99.567526" fuel_abs="115.196270" electricity_abs="0"
            CO_normed="5334.581877" CO2_normed="684512.636343" HC_normed="39.855574" PMx_normed="9.204012" NOx_normed="254.323183" fuel_normed="294.243346" electricity_normed="0"
            traveltime="0.02" CO_perVeh="0.335321" CO2_perVeh="43.027032" HC_perVeh="0.002505" PMx_perVeh="0.000579" NOx_perVeh="0.015986" fuel_perVeh="0.018496" electricity_perVeh="0"/>
        <edge id=":1110673655_0" sampledSeconds="44.80" CO_abs="863.522610" CO2_abs="89982.283875" HC_abs="5.973932" PMx_abs="1.333892" NOx_abs="34.497677" fuel_abs="38.679538" electricity_abs="0"
            CO_normed="2205.677164" CO2_normed="229839.805554" HC_normed="15.259085" PMx_normed="3.407133" NOx_normed="88.116671" fuel_normed="98.798308" electricity_normed="0"
            traveltime="0.02" CO_perVeh="0.462148" CO2_perVeh="48.157497" HC_perVeh="0.003197" PMx_perVeh="0.000714" NOx_perVeh="0.018463" fuel_perVeh="0.020701" electricity_perVeh="0"/>
        <edge id=":1110673663_0" sampledSeconds="107.94" CO_abs="1891.990837" CO2_abs="228323.882562" HC_abs="13.876279" PMx_abs="3.141368" NOx_abs="85.517838" fuel_abs="98.146861" electricity_abs="0"
            CO_normed="88.510464" CO2_normed="10681.369325" HC_normed="0.649155" PMx_normed="0.146958" NOx_normed="4.000666" fuel_normed="4.591473" electricity_normed="0"
            traveltime="1.27" CO_perVeh="22.222325" CO2_perVeh="2681.771714" HC_perVeh="0.162983" PMx_perVeh="0.036897" NOx_perVeh="1.004447" fuel_perVeh="1.152781" electricity_perVeh="0"/>
        <edge id=":1110673663_1" sampledSeconds="153.92" CO_abs="2519.011246" CO2_abs="326507.361751" HC_abs="18.816039" PMx_abs="4.416490" NOx_abs="121.278182" fuel_abs="140.351798" electricity_abs="0"
            CO_normed="117.987581" CO2_normed="15293.228122" HC_normed="0.881322" PMx_normed="0.206863" NOx_normed="5.680530" fuel_normed="6.573916" electricity_normed="0"
            traveltime="1.24" CO_perVeh="20.373251" CO2_perVeh="2640.725210" HC_perVeh="0.152180" PMx_perVeh="0.035720" NOx_perVeh="0.980873" fuel_perVeh="1.135137" electricity_perVeh="0"/>
        <edge id=":1110673666_0" sampledSeconds="191.60" CO_abs="4059.757042" CO2_abs="329015.243366" HC_abs="26.010284" PMx_abs="4.522648" NOx_abs="125.835337" fuel_abs="141.430731" electricity_abs="0"