<?xml version="1.0" encoding="UTF-8"?>

<!-- generated on Tue Nov 10 12:58:16 2020 by Eclipse SUMO sumo Version 1.7.0
<configuration xmlns:xsi="http://www.w3.org/2001/XMLSchema-instance" xsi:noNamespaceSchemaLocation="http://sumo.dlr.de/xsd/sumoConfiguration.xsd">

    <input>
        <net-file value="../dataSets/Porto/8AM9AM_Routing_SaoBento/Porto.net.xml"/>
        <route-files value="../results/Porto/8AM9AM_Routing_SaoBento/inputdata/cost_hc-length/solution4/Porto.rou.xml"/>
        <additional-files value="moreOutputInfo.xml"/>
    </input>

    <output>
        <emission-output.precision value="6"/>
        <tripinfo-output value="../results/Porto/8AM9AM_Routing_SaoBento/inputdata/cost_hc-length/solution4/Porto-tripinfo"/>
    </output>

    <processing>
        <collision.action value="warn"/>
        <time-to-teleport value="-1"/>
    </processing>

    <emissions>
        <device.emissions.probability value="1"/>
    </emissions>

    <gui_only>
        <quit-on-end value="true"/>
        <start value="true"/>
    </gui_only>

</configuration>
-->

<meandata xmlns:xsi="http://www.w3.org/2001/XMLSchema-instance" xsi:noNamespaceSchemaLocation="http://sumo.dlr.de/xsd/meandata_file.xsd">
    <interval begin="0.00" end="8472.00" id="emissions-detector">
        <edge id=":1092997347_0" sampledSeconds="589.20" CO_abs="70477.489640" CO2_abs="3032294.866972" HC_abs="392.648189" PMx_abs="61.243258" NOx_abs="1311.186715" fuel_abs="1303.460263" electricity_abs="0"
            CO_normed="68063.504031" CO2_normed="2928433.106141" HC_normed="379.199255" PMx_normed="59.145562" NOx_normed="1266.276122" fuel_normed="1258.814316" electricity_normed="0"
            traveltime="0.07" CO_perVeh="8.074675" CO2_perVeh="347.412986" HC_perVeh="0.044986" PMx_perVeh="0.007017" NOx_perVeh="0.150224" fuel_perVeh="0.149339" electricity_perVeh="0"/>
        <edge id=":1103427051_0" sampledSeconds="19.43" CO_abs="1702.934971" CO2_abs="96322.806098" HC_abs="10.041256" PMx_abs="1.888067" NOx_abs="41.074816" fuel_abs="41.404908" electricity_abs="0"
            CO_normed="2495.264683" CO2_normed="141139.209873" HC_normed="14.713182" PMx_normed="2.766534" NOx_normed="60.185820" fuel_normed="60.669495" electricity_normed="0"
            traveltime="0.03" CO_perVeh="2.648279" CO2_perVeh="149.794154" HC_perVeh="0.015615" PMx_perVeh="0.002936" NOx_perVeh="0.063877" fuel_perVeh="0.064390" electricity_perVeh="0"/>
        <edge id=":1105984386_0" sampledSeconds="10.63" CO_abs="204.620605" CO2_abs="14881.016961" HC_abs="1.268132" PMx_abs="0.189346" NOx_abs="5.615776" fuel_abs="6.396804" electricity_abs="0"
            CO_normed="8.954610" CO2_normed="651.223307" HC_normed="0.055496" PMx_normed="0.008286" NOx_normed="0.245758" fuel_normed="0.279937" electricity_normed="0"
            traveltime="1.02" CO_perVeh="19.629185" CO2_perVeh="1427.530870" HC_perVeh="0.121651" PMx_perVeh="0.018164" NOx_perVeh="0.538719" fuel_perVeh="0.613643" electricity_perVeh="0"/>
        <edge id=":1105984390_0" sampledSeconds="10.58" CO_abs="0" CO2_abs="0" HC_abs="0" PMx_abs="0" NOx_abs="0" fuel_abs="0" electricity_abs="0"
            CO_normed="0" CO2_normed="0" HC_normed="0" PMx_normed="0" NOx_normed="0" fuel_normed="0" electricity_normed="0"
            traveltime="1.10" CO_perVeh="0" CO2_perVeh="0" HC_perVeh="0" PMx_perVeh="0" NOx_perVeh="0" fuel_perVeh="0" electricity_perVeh="0"/>
        <edge id=":1105984390_1" sampledSeconds="2399.68" CO_abs="60959.467077" CO2_abs="7405094.963873" HC_abs="454.410340" PMx_abs="132.790515" NOx_abs="2807.878056" fuel_abs="3183.108977" electricity_abs="0"
            CO_normed="1972.845108" CO2_normed="239652.773762" HC_normed="14.706185" PMx_normed="4.297530" NOx_normed="90.871997" fuel_normed="103.015680" electricity_normed="0"
            traveltime="0.65" CO_perVeh="16.457515" CO2_perVeh="1999.188380" HC_perVeh="0.122679" PMx_perVeh="0.035850" NOx_perVeh="0.758056" fuel_perVeh="0.859359" electricity_perVeh="0"/>
        <edge id=":1105984395_0" sampledSeconds="4.11" CO_abs="146.941778" CO2_abs="10082.395886" HC_abs="0.902735" PMx_abs="0.160367" NOx_abs="4.026504" fuel_abs="4.334009" electricity_abs="0"
            CO_normed="67.869401" CO2_normed="4656.852392" HC_normed="0.416955" PMx_normed="0.074070" NOx_normed="1.859760" fuel_normed="2.001790" electricity_normed="0"
            traveltime="0.10" CO_perVeh="3.406058" CO2_perVeh="233.706329" HC_perVeh="0.020925" PMx_perVeh="0.003717" NOx_perVeh="0.093333" fuel_perVeh="0.100461" electricity_perVeh="0"/>
        <edge id=":1105984398_0" sampledSeconds="10.35" CO_abs="745.946390" CO2_abs="48529.607651" HC_abs="4.544424" PMx_abs="0.900629" NOx_abs="20.242637" fuel_abs="20.860723" electricity_abs="0"
            CO_normed="26.217898" CO2_normed="1705.677941" HC_normed="0.159724" PMx_normed="0.031655" NOx_normed="0.711471" fuel_normed="0.733195" electricity_normed="0"
            traveltime="1.14" CO_perVeh="82.455319" CO2_perVeh="5364.359094" HC_perVeh="0.502331" PMx_perVeh="0.099554" NOx_perVeh="2.237578" fuel_perVeh="2.305900" electricity_perVeh="0"/>
        <edge id=":1105984398_1" sampledSeconds="647.51" CO_abs="12063.508160" CO2_abs="1418590.886091" HC_abs="87.438914" PMx_abs="20.385682" NOx_abs="536.540768" fuel_abs="609.791637" electricity_abs="0"
            CO_normed="410.419264" CO2_normed="48262.662915" HC_normed="2.974808" PMx_normed="0.693553" NOx_normed="18.253949" fuel_normed="20.746058" electricity_normed="0"
            traveltime="0.95" CO_perVeh="17.727085" CO2_perVeh="2084.591094" HC_perVeh="0.128490" PMx_perVeh="0.029956" NOx_perVeh="0.788436" fuel_perVeh="0.896077" electricity_perVeh="0"/>
        <edge id=":1106006327_0" sampledSeconds="706.55" CO_abs="95506.810808" CO2_abs="3095398.538354" HC_abs="507.756524" PMx_abs="64.659241" NOx_abs="1355.466732" fuel_abs="1330.602527" electricity_abs="0"
            CO_normed="4580.545221" CO2_normed="148456.564102" HC_normed="24.352208" PMx_normed="3.101083" NOx_normed="65.008732" fuel_normed="63.816235" electricity_normed="0"
            traveltime="2.10" CO_perVeh="283.900283" CO2_perVeh="9201.275939" HC_perVeh="1.509340" PMx_perVeh="0.192204" NOx_perVeh="4.029214" fuel_perVeh="3.955304" electricity_perVeh="0"/>
        <edge id=":1106006327_1" sampledSeconds="678.86" CO_abs="91912.103091" CO2_abs="3084776.116641" HC_abs="491.223539" PMx_abs="64.349668" NOx_abs="1350.080651" fuel_abs="1326.033679" electricity_abs="0"
            CO_normed="3844.107722" CO2_normed="129016.868210" HC_normed="20.544805" PMx_normed="2.691344" NOx_normed="56.465419" fuel_normed="55.459685" electricity_normed="0"
            traveltime="2.28" CO_perVeh="308.526683" CO2_perVeh="10354.846764" HC_perVeh="1.648919" PMx_perVeh="0.216006" NOx_perVeh="4.531894" fuel_perVeh="4.451174" electricity_perVeh="0"/>
        <edge id=":1106006327_2" sampledSeconds="0.00" CO_abs="0" CO2_abs="0" HC_abs="0" PMx_abs="0" NOx_abs="0" fuel_abs="0" electricity_abs="0"
            CO_normed="0" CO2_normed="0" HC_normed="0" PMx_normed="0" NOx_normed="0" fuel_normed="0" electricity_normed="0"/>
        <edge id=":1106006327_3" sampledSeconds="0.00" CO_abs="0" CO2_abs="0" HC_abs="0" PMx_abs="0" NOx_abs="0" fuel_abs="0" electricity_abs="0"
            CO_normed="0" CO2_normed="0" HC_normed="0" PMx_normed="0" NOx_normed="0" fuel_normed="0" electricity_normed="0"/>
        <edge id=":1107381198_0" sampledSeconds="0.00" CO_abs="0" CO2_abs="0" HC_abs="0" PMx_abs="0" NOx_abs="0" fuel_abs="0" electricity_abs="0"
            CO_normed="0" CO2_normed="0" HC_normed="0" PMx_normed="0" NOx_normed="0" fuel_normed="0" electricity_normed="0"/>
        <edge id=":1107381198_1" sampledSeconds="103.79" CO_abs="4339.849329" CO2_abs="173335.630608" HC_abs="23.770970" PMx_abs="3.091612" NOx_abs="72.460191" fuel_abs="74.510815" electricity_abs="0"
            CO_normed="201.104538" CO2_normed="8032.210154" HC_normed="1.101524" PMx_normed="0.143262" NOx_normed="3.357737" fuel_normed="3.452761" electricity_normed="0"
            traveltime="1.55" CO_perVeh="64.975866" CO2_perVeh="2595.166753" HC_perVeh="0.355897" PMx_perVeh="0.046287" NOx_perVeh="1.084868" fuel_perVeh="1.115570" electricity_perVeh="0"/>
        <edge id=":1110338277_0" sampledSeconds="160.30" CO_abs="2508.883404" CO2_abs="309758.307706" HC_abs="18.485928" PMx_abs="4.250991" NOx_abs="115.808413" fuel_abs="133.152072" electricity_abs="0"
            CO_normed="3807.492014" CO2_normed="470090.511492" HC_normed="28.054322" PMx_normed="6.451322" NOx_normed="175.751336" fuel_normed="202.072144" electricity_normed="0"
            traveltime="0.02" CO_perVeh="0.339804" CO2_perVeh="41.953789" HC_perVeh="0.002504" PMx_perVeh="0.000576" NOx_perVeh="0.015685" fuel_perVeh="0.018034" electricity_perVeh="0"/>
        <edge id=":1110338293_0" sampledSeconds="6405.21" CO_abs="583529.084994" CO2_abs="10268342.729322" HC_abs="2897.157890" PMx_abs="244.159154" NOx_abs="4636.827781" fuel_abs="4414.186184" electricity_abs="0"
            CO_normed="826528.449000" CO2_normed="14544394.800740" HC_normed="4103.623074" PMx_normed="345.834495" NOx_normed="6567.744733" fuel_normed="6252.388362" electricity_normed="0"
            traveltime="0.43" CO_perVeh="39.017290" CO2_perVeh="686.586005" HC_perVeh="0.193717" PMx_perVeh="0.016326" NOx_perVeh="0.310038" fuel_perVeh="0.295152" electricity_perVeh="0"/>
        <edge id=":1110338295_0" sampledSeconds="0.00" CO_abs="0" CO2_abs="0" HC_abs="0" PMx_abs="0" NOx_abs="0" fuel_abs="0" electricity_abs="0"
            CO_normed="0" CO2_normed="0" HC_normed="0" PMx_normed="0" NOx_normed="0" fuel_normed="0" electricity_normed="0"/>
        <edge id=":1110673403_0" sampledSeconds="200.43" CO_abs="3115.122544" CO2_abs="387273.819607" HC_abs="23.092389" PMx_abs="5.316822" NOx_abs="144.764935" fuel_abs="166.472728" electricity_abs="0"
            CO_normed="4412.354878" CO2_normed="548546.486696" HC_normed="32.708767" PMx_normed="7.530909" NOx_normed="205.049482" fuel_normed="235.797065" electricity_normed="0"
            traveltime="0.02" CO_perVeh="0.360033" CO2_perVeh="44.759466" HC_perVeh="0.002669" PMx_perVeh="0.000614" NOx_perVeh="0.016731" fuel_perVeh="0.019240" electricity_perVeh="0"/>
        <edge id=":1110673412_0" sampledSeconds="940.59" CO_abs="166663.839835" CO2_abs="11387615.910637" HC_abs="1037.554016" PMx_abs="250.090583" NOx_abs="4892.196469" fuel_abs="4894.975310" electricity_abs="0"
            CO_normed="244208.029454" CO2_normed="16685966.460834" HC_normed="1520.299916" PMx_normed="366.450986" NOx_normed="7168.403539" fuel_normed="7172.475301" electricity_normed="0"
            traveltime="0.02" CO_perVeh="2.752004" CO2_perVeh="188.035803" HC_perVeh="0.017132" PMx_perVeh="0.004130" NOx_perVeh="0.080781" fuel_perVeh="0.080827" electricity_perVeh="0"/>
        <edge id=":1110673414_0" sampledSeconds="0.00" CO_abs="0" CO2_abs="0" HC_abs="0" PMx_abs="0" NOx_abs="0" fuel_abs="0" electricity_abs="0"
            CO_normed="0" CO2_normed="0" HC_normed="0" PMx_normed="0" NOx_normed="0" fuel_normed="0" electricity_normed="0"/>
        <edge id=":1110673414_1" sampledSeconds="238.76" CO_abs="16195.543593" CO2_abs="636485.442208" HC_abs="88.554313" PMx_abs="11.835739" NOx_abs="269.202932" fuel_abs="273.601909" electricity_abs="0"
            CO_normed="762.121709" CO2_normed="29951.410417" HC_normed="4.167144" PMx_normed="0.556960" NOx_normed="12.668016" fuel_normed="12.875020" electricity_normed="0"
            traveltime="1.55" CO_perVeh="105.078215" CO2_perVeh="4129.577622" HC_perVeh="0.574549" PMx_perVeh="0.076791" NOx_perVeh="1.746614" fuel_perVeh="1.775155" electricity_perVeh="0"/>
        <edge id=":1110673417_0" sampledSeconds="29.18" CO_abs="548.524961" CO2_abs="62742.740839" HC_abs="3.933263" PMx_abs="0.868868" NOx_abs="23.596176" fuel_abs="26.970481" electricity_abs="0"
            CO_normed="832.443789" CO2_normed="95218.647570" HC_normed="5.969137" PMx_normed="1.318597" NOx_normed="35.809656" fuel_normed="40.930515" electricity_normed="0"
            traveltime="0.02" CO_perVeh="0.418284" CO2_perVeh="47.845243" HC_perVeh="0.002999" PMx_perVeh="0.000663" NOx_perVeh="0.017994" fuel_perVeh="0.020567" electricity_perVeh="0"/>
        <edge id=":1110673446_0" sampledSeconds="1314.92" CO_abs="13765.450613" CO2_abs="1118966.665973" HC_abs="89.075196" PMx_abs="20.383838" NOx_abs="456.815173" fuel_abs="480.992465" electricity_abs="0"
            CO_normed="19497.805401" CO2_normed="1584938.620359" HC_normed="126.168833" PMx_normed="28.872291" NOx_normed="647.046988" fuel_normed="681.292444" electricity_normed="0"
            traveltime="0.02" CO_perVeh="0.238681" CO2_perVeh="19.401943" HC_perVeh="0.001544" PMx_perVeh="0.000353" NOx_perVeh="0.007921" fuel_perVeh="0.008340" electricity_perVeh="0"/>
        <edge id=":1110673451_0" sampledSeconds="36.88" CO_abs="335.406984" CO2_abs="22204.249567" HC_abs="2.030886" PMx_abs="0.298752" NOx_abs="8.519767" fuel_abs="9.544790" electricity_abs="0"
            CO_normed="527.867460" CO2_normed="34945.309359" HC_normed="3.196232" PMx_normed="0.470179" NOx_normed="13.408510" fuel_normed="15.021703" electricity_normed="0"
            traveltime="0.03" CO_perVeh="0.247121" CO2_perVeh="16.359623" HC_perVeh="0.001496" PMx_perVeh="0.000220" NOx_perVeh="0.006277" fuel_perVeh="0.007032" electricity_perVeh="0"/>
        <edge id=":1110673464_0" sampledSeconds="1036.90" CO_abs="3681.515245" CO2_abs="263023.337617" HC_abs="22.772725" PMx_abs="3.695137" NOx_abs="101.646606" fuel_abs="113.063598" electricity_abs="0"
            CO_normed="110.792015" CO2_normed="7915.459686" HC_normed="0.685325" PMx_normed="0.111202" NOx_normed="3.058967" fuel_normed="3.402551" electricity_normed="0"
            traveltime="1.23" CO_perVeh="4.365762" CO2_perVeh="311.908867" HC_perVeh="0.027005" PMx_perVeh="0.004382" NOx_perVeh="0.120539" fuel_perVeh="0.134078" electricity_perVeh="0"/>
        <edge id=":1110673464_1" sampledSeconds="2603.26" CO_abs="63519.712433" CO2_abs="7782093.970680" HC_abs="474.483753" PMx_abs="138.766453" NOx_abs="2949.049337" fuel_abs="3345.163786" electricity_abs="0"
            CO_normed="1873.100570" CO2_normed="229482.220523" HC_normed="13.991811" PMx_normed="4.092014" NOx_normed="86.963020" fuel_normed="98.643838" electricity_normed="0"
            traveltime="0.72" CO_perVeh="17.513633" CO2_perVeh="2145.676247" HC_perVeh="0.130824" PMx_perVeh="0.038261" NOx_perVeh="0.813111" fuel_perVeh="0.922327" electricity_perVeh="0"/>
        <edge id=":1110673479_0" sampledSeconds="134.82" CO_abs="6023.126283" CO2_abs="420716.458837" HC_abs="37.280586" PMx_abs="7.192347" NOx_abs="170.901545" fuel_abs="180.847948" electricity_abs="0"
            CO_normed="8531.340344" CO2_normed="595915.664075" HC_normed="52.805363" PMx_normed="10.187461" NOx_normed="242.070177" fuel_normed="256.158567" electricity_normed="0"
            traveltime="0.03" CO_perVeh="1.273343" CO2_perVeh="88.943263" HC_perVeh="0.007881" PMx_perVeh="0.001521" NOx_perVeh="0.036130" fuel_perVeh="0.038233" electricity_perVeh="0"/>
        <edge id=":1110673511_0" sampledSeconds="63.39" CO_abs="1236.776911" CO2_abs="129171.572463" HC_abs="8.600911" PMx_abs="1.865381" NOx_abs="49.245840" fuel_abs="55.525415" electricity_abs="0"
            CO_normed="1751.808655" CO2_normed="182962.567228" HC_normed="12.182593" PMx_normed="2.642182" NOx_normed="69.753314" fuel_normed="78.647897" electricity_normed="0"
            traveltime="0.02" CO_perVeh="0.474012" CO2_perVeh="49.506831" HC_perVeh="0.003296" PMx_perVeh="0.000715" NOx_perVeh="0.018874" fuel_perVeh="0.021281" electricity_perVeh="0"/>
        <edge id=":1110673517_0" sampledSeconds="182.40" CO_abs="8696.980105" CO2_abs="614163.917519" HC_abs="54.032270" PMx_abs="10.703571" NOx_abs="250.607943" fuel_abs="264.002335" electricity_abs="0"
            CO_normed="12318.668704" CO2_normed="869920.563058" HC_normed="76.532960" PMx_normed="15.160865" NOx_normed="354.968758" fuel_normed="373.940984" electricity_normed="0"
            traveltime="0.03" CO_perVeh="1.331578" CO2_perVeh="94.033467" HC_perVeh="0.008273" PMx_perVeh="0.001639" NOx_perVeh="0.038370" fuel_perVeh="0.040421" electricity_perVeh="0"/>
        <edge id=":1110673534_0" sampledSeconds="659.98" CO_abs="4244.958781" CO2_abs="343359.333686" HC_abs="27.205636" PMx_abs="4.842223" NOx_abs="132.069929" fuel_abs="147.596517" electricity_abs="0"
            CO_normed="116.524990" CO2_normed="9425.284211" HC_normed="0.746800" PMx_normed="0.132920" NOx_normed="3.625347" fuel_normed="4.051555" electricity_normed="0"
            traveltime="1.45" CO_perVeh="9.334043" CO2_perVeh="754.996926" HC_perVeh="0.059821" PMx_perVeh="0.010647" NOx_perVeh="0.290402" fuel_perVeh="0.324543" electricity_perVeh="0"/>
        <edge id=":1110673534_1" sampledSeconds="264.20" CO_abs="3692.901141" CO2_abs="453988.818587" HC_abs="27.147260" PMx_abs="6.145085" NOx_abs="169.304018" fuel_abs="195.150835" electricity_abs="0"
            CO_normed="98.569186" CO2_normed="12117.656766" HC_normed="0.724602" PMx_normed="0.164022" NOx_normed="4.518983" fuel_normed="5.208875" electricity_normed="0"
            traveltime="1.23" CO_perVeh="17.134135" CO2_perVeh="2106.394225" HC_perVeh="0.125956" PMx_perVeh="0.028512" NOx_perVeh="0.785528" fuel_perVeh="0.905451" electricity_perVeh="0"/>
        <edge id=":1110673549_0" sampledSeconds="651.54" CO_abs="1672.393028" CO2_abs="156311.322952" HC_abs="11.219021" PMx_abs="2.304657" NOx_abs="59.846441" fuel_abs="67.191735" electricity_abs="0"
            CO_normed="44.471126" CO2_normed="4156.523282" HC_normed="0.298329" PMx_normed="0.061284" NOx_normed="1.591395" fuel_normed="1.786716" electricity_normed="0"
            traveltime="1.29" CO_perVeh="3.322646" CO2_perVeh="310.553327" HC_perVeh="0.022290" PMx_perVeh="0.004579" NOx_perVeh="0.118901" fuel_perVeh="0.133494" electricity_perVeh="0"/>
        <edge id=":1110673549_1" sampledSeconds="3197.01" CO_abs="70785.402881" CO2_abs="9260974.368355" HC_abs="543.471588" PMx_abs="163.026737" NOx_abs="3464.516096" fuel_abs="3980.868827" electricity_abs="0"
            CO_normed="1820.749582" CO2_normed="238211.757275" HC_normed="13.979233" PMx_normed="4.193391" NOx_normed="89.114648" fuel_normed="102.396327" electricity_normed="0"
            traveltime="0.81" CO_perVeh="17.857814" CO2_perVeh="2336.368137" HC_perVeh="0.137108" PMx_perVeh="0.041129" NOx_perVeh="0.874032" fuel_perVeh="1.004298" electricity_perVeh="0"/>
        <edge id=":1110673556_0" sampledSeconds="459.26" CO_abs="56201.500561" CO2_abs="2733292.040610" HC_abs="320.844123" PMx_abs="55.205008" NOx_abs="1178.572343" fuel_abs="1174.925183" electricity_abs="0"
            CO_normed="1108.197562" CO2_normed="53895.848786" HC_normed="6.326498" PMx_normed="1.088548" NOx_normed="23.239433" fuel_normed="23.167517" electricity_normed="0"
            traveltime="2.71" CO_perVeh="331.302442" CO2_perVeh="16112.493770" HC_perVeh="1.891345" PMx_perVeh="0.325428" NOx_perVeh="6.947571" fuel_perVeh="6.926071" electricity_perVeh="0"/>
        <edge id=":1110673556_2" sampledSeconds="176.02" CO_abs="17539.614583" CO2_abs="748169.156886" HC_abs="97.443459" PMx_abs="14.505060" NOx_abs="319.576982" fuel_abs="321.608555" electricity_abs="0"
            CO_normed="361.625134" CO2_normed="15425.468471" HC_normed="2.009052" PMx_normed="0.299060" NOx_normed="6.588917" fuel_normed="6.630803" electricity_normed="0"
            traveltime="3.04" CO_perVeh="303.284999" CO2_perVeh="12936.913823" HC_perVeh="1.684937" PMx_perVeh="0.250813" NOx_perVeh="5.525943" fuel_perVeh="5.561071" electricity_perVeh="0"/>
        <edge id=":1110673556_3" sampledSeconds="350.46" CO_abs="35525.571666" CO2_abs="1229559.966718" HC_abs="190.512090" PMx_abs="24.297829" NOx_abs="529.728906" fuel_abs="528.544438" electricity_abs="0"
            CO_normed="1666.208828" CO2_normed="57668.422355" HC_normed="8.935336" PMx_normed="1.139609" NOx_normed="24.845173" fuel_normed="24.789620" electricity_normed="0"
            traveltime="1.82" CO_perVeh="184.971598" CO2_perVeh="6401.970793" HC_perVeh="0.991943" PMx_perVeh="0.126512" NOx_perVeh="2.758149" fuel_perVeh="2.751981" electricity_perVeh="0"/>
        <edge id=":1110673556_4" sampledSeconds="79.98" CO_abs="9611.273962" CO2_abs="365923.130457" HC_abs="52.378804" PMx_abs="7.369437" NOx_abs="158.364297" fuel_abs="157.296425" electricity_abs="0"
            CO_normed="275.395195" CO2_normed="10484.923480" HC_normed="1.500828" PMx_normed="0.211159" NOx_normed="4.537668" fuel_normed="4.507069" electricity_normed="0"
            traveltime="2.63" CO_perVeh="316.505735" CO2_perVeh="12050.095538" HC_perVeh="1.724869" PMx_perVeh="0.242681" NOx_perVeh="5.215043" fuel_perVeh="5.179877" electricity_perVeh="0"/>
        <edge id=":1110673556_5" sampledSeconds="22.99" CO_abs="1242.834232" CO2_abs="55047.422280" HC_abs="6.935836" PMx_abs="0.974384" NOx_abs="22.925934" fuel_abs="23.662826" electricity_abs="0"
            CO_normed="49.635012" CO2_normed="2198.426309" HC_normed="0.276996" PMx_normed="0.038914" NOx_normed="0.915592" fuel_normed="0.945021" electricity_normed="0"
            traveltime="1.59" CO_perVeh="85.924342" CO2_perVeh="3805.747713" HC_perVeh="0.479515" PMx_perVeh="0.067365" NOx_perVeh="1.585003" fuel_perVeh="1.635948" electricity_perVeh="0"/>
        <edge id=":1110673556_6" sampledSeconds="207.77" CO_abs="24827.242635" CO2_abs="1282971.032622" HC_abs="143.562488" PMx_abs="25.762329" NOx_abs="551.207222" fuel_abs="551.493306" electricity_abs="0"
            CO_normed="501.894378" CO2_normed="25935.862364" HC_normed="2.902183" PMx_normed="0.520798" NOx_normed="11.142913" fuel_normed="11.148696" electricity_normed="0"
            traveltime="2.42" CO_perVeh="289.300205" CO2_perVeh="14949.859253" HC_perVeh="1.672866" PMx_perVeh="0.300196" NOx_perVeh="6.422959" fuel_perVeh="6.426293" electricity_perVeh="0"/>
        <edge id=":1110673561_0" sampledSeconds="102.75" CO_abs="10326.255749" CO2_abs="724009.113032" HC_abs="64.477861" PMx_abs="14.822866" NOx_abs="307.842439" fuel_abs="311.216887" electricity_abs="0"
            CO_normed="262.278982" CO2_normed="18389.276605" HC_normed="1.637688" PMx_normed="0.376489" NOx_normed="7.818962" fuel_normed="7.904670" electricity_normed="0"
            traveltime="1.21" CO_perVeh="121.859840" CO2_perVeh="8544.010257" HC_perVeh="0.760901" PMx_perVeh="0.174924" NOx_perVeh="3.632840" fuel_perVeh="3.672661" electricity_perVeh="0"/>
        <edge id=":1110673561_1" sampledSeconds="5189.11" CO_abs="479389.139487" CO2_abs="33270188.109585" HC_abs="2987.288913" PMx_abs="694.187094" NOx_abs="14215.508011" fuel_abs="14301.248230" electricity_abs="0"
            CO_normed="11871.004266" CO2_normed="823862.103785" HC_normed="73.973556" PMx_normed="17.189997" NOx_normed="352.015393" fuel_normed="354.138558" electricity_normed="0"
            traveltime="1.19" CO_perVeh="110.237782" CO2_perVeh="7650.635882" HC_perVeh="0.686941" PMx_perVeh="0.159632" NOx_perVeh="3.268923" fuel_perVeh="3.288639" electricity_perVeh="0"/>
        <edge id=":1110673562_0" sampledSeconds="302.39" CO_abs="6696.003137" CO2_abs="512019.170496" HC_abs="42.165051" PMx_abs="6.960615" NOx_abs="195.849608" fuel_abs="220.097320" electricity_abs="0"
            CO_normed="10538.248563" CO2_normed="805821.798074" HC_normed="66.359853" PMx_normed="10.954699" NOx_normed="308.230419" fuel_normed="346.391753" electricity_normed="0"
            traveltime="0.03" CO_perVeh="0.600239" CO2_perVeh="45.898133" HC_perVeh="0.003780" PMx_perVeh="0.000624" NOx_perVeh="0.017556" fuel_perVeh="0.019730" electricity_perVeh="0"/>
        <edge id=":1110673564_0" sampledSeconds="27.92" CO_abs="464.272765" CO2_abs="54642.160440" HC_abs="3.363294" PMx_abs="0.766622" NOx_abs="20.566722" fuel_abs="23.488357" electricity_abs="0"
            CO_normed="1972.830447" CO2_normed="232190.483456" HC_normed="14.291618" PMx_normed="3.257601" NOx_normed="87.394001" fuel_normed="99.808884" electricity_normed="0"
            traveltime="7.887228e-03" CO_perVeh="0.131132" CO2_perVeh="15.433459" HC_perVeh="0.000950" PMx_perVeh="0.000217" NOx_perVeh="0.005809" fuel_perVeh="0.006634" electricity_perVeh="0"/>
        <edge id=":1110673588_0" sampledSeconds="63.30" CO_abs="1143.803524" CO2_abs="124797.250239" HC_abs="8.072536" PMx_abs="1.737885" NOx_abs="47.112600" fuel_abs="53.645139" electricity_abs="0"
            CO_normed="1944.141967" CO2_normed="212119.972078" HC_normed="13.721024" PMx_normed="2.953912" NOx_normed="80.078074" fuel_normed="91.181540" electricity_normed="0"
            traveltime="0.02" CO_perVeh="0.368969" CO2_perVeh="40.257177" HC_perVeh="0.002604" PMx_perVeh="0.000561" NOx_perVeh="0.015198" fuel_perVeh="0.017305" electricity_perVeh="0"/>
        <edge id=":1110673601_0" sampledSeconds="28.89" CO_abs="617.594711" CO2_abs="69320.121154" HC_abs="4.410089" PMx_abs="0.972707" NOx_abs="26.142552" fuel_abs="29.797815" electricity_abs="0"
            CO_normed="937.264332" CO2_normed="105200.507619" HC_normed="6.692769" PMx_normed="1.476184" NOx_normed="39.674047" fuel_normed="45.221289" electricity_normed="0"
            traveltime="0.02" CO_perVeh="0.470946" CO2_perVeh="52.859920" HC_perVeh="0.003363" PMx_perVeh="0.000742" NOx_perVeh="0.019935" fuel_perVeh="0.022722" electricity_perVeh="0"/>
        <edge id=":1110673617_0" sampledSeconds="851.53" CO_abs="32168.645407" CO2_abs="3292943.180031" HC_abs="225.401773" PMx_abs="61.915005" NOx_abs="1288.379124" fuel_abs="1415.482260" electricity_abs="0"
            CO_normed="45564.653551" CO2_normed="4664225.467466" HC_normed="319.265967" PMx_normed="87.698308" NOx_normed="1824.899608" fuel_normed="2004.932379" electricity_normed="0"
            traveltime="0.02" CO_perVeh="0.570575" CO2_perVeh="58.406855" HC_perVeh="0.003998" PMx_perVeh="0.001098" NOx_perVeh="0.022852" fuel_perVeh="0.025106" electricity_perVeh="0"/>
        <edge id=":1110673621_0" sampledSeconds="26.44" CO_abs="593.472643" CO2_abs="60909.802502" HC_abs="4.111370" PMx_abs="0.906496" NOx_abs="23.408141" fuel_abs="26.182524" electricity_abs="0"
            CO_normed="1008.735371" CO2_normed="103529.409352" HC_normed="6.988163" PMx_normed="1.540786" NOx_normed="39.787209" fuel_normed="44.502874" electricity_normed="0"
            traveltime="0.02" CO_perVeh="0.449600" CO2_perVeh="46.143790" HC_perVeh="0.003115" PMx_perVeh="0.000687" NOx_perVeh="0.017733" fuel_perVeh="0.019835" electricity_perVeh="0"/>
        <edge id=":1110673630_0" sampledSeconds="285.73" CO_abs="1321.926813" CO2_abs="118201.000714" HC_abs="8.715211" PMx_abs="1.551574" NOx_abs="44.558568" fuel_abs="50.809981" electricity_abs="0"
            CO_normed="40.065997" CO2_normed="3582.528825" HC_normed="0.264147" PMx_normed="0.047026" NOx_normed="1.350516" fuel_normed="1.539989" electricity_normed="0"
            traveltime="1.29" CO_perVeh="5.948179" CO2_perVeh="531.860569" HC_perVeh="0.039215" PMx_perVeh="0.006982" NOx_perVeh="0.200497" fuel_perVeh="0.228626" electricity_perVeh="0"/>
        <edge id=":1110673630_1" sampledSeconds="337.11" CO_abs="1262.812451" CO2_abs="105014.281970" HC_abs="8.139294" PMx_abs="1.380398" NOx_abs="39.724112" fuel_abs="45.141587" electricity_abs="0"
            CO_normed="46.661379" CO2_normed="3880.315875" HC_normed="0.300750" PMx_normed="0.051006" NOx_normed="1.467820" fuel_normed="1.667998" electricity_normed="0"
            traveltime="1.07" CO_perVeh="4.025608" CO2_perVeh="334.765699" HC_perVeh="0.025947" PMx_perVeh="0.004400" NOx_perVeh="0.126633" fuel_perVeh="0.143903" electricity_perVeh="0"/>
        <edge id=":1110673650_0" sampledSeconds="199.91" CO_abs="2757.851074" CO2_abs="356807.562553" HC_abs="20.664823" PMx_abs="4.825223" NOx_abs="132.672892" fuel_abs="153.376587" electricity_abs="0"
            CO_normed="3906.304637" CO2_normed="505393.148092" HC_normed="29.270287" PMx_normed="6.834593" NOx_normed="187.921944" fuel_normed="217.247291" electricity_normed="0"
            traveltime="0.02" CO_perVeh="0.318996" CO2_perVeh="41.271392" HC_perVeh="0.002390" PMx_perVeh="0.000558" NOx_perVeh="0.015346" fuel_perVeh="0.017741" electricity_perVeh="0"/>
        <edge id=":1110673655_0" sampledSeconds="20.98" CO_abs="296.242437" CO2_abs="32071.609146" HC_abs="2.088105" PMx_abs="0.441000" NOx_abs="12.091339" fuel_abs="13.786258" electricity_abs="0"
            CO_normed="419.606851" CO2_normed="45427.208422" HC_normed="2.957656" PMx_normed="0.624647" NOx_normed="17.126543" fuel_normed="19.527278" electricity_normed="0"
            traveltime="0.02" CO_perVeh="0.338434" CO2_perVeh="36.639310" HC_perVeh="0.002385" PMx_perVeh="0.000504" NOx_perVeh="0.013813" fuel_perVeh="0.015750" electricity_perVeh="0"/>
        <edge id=":1110673663_0" sampledSeconds="112.65" CO_abs="1928.807979" CO2_abs="220066.257833" HC_abs="13.771472" PMx_abs="2.981390" NOx_abs="82.381517" fuel_abs="94.597376" electricity_abs="0"
            CO_normed="50.037045" CO2_normed="5708.948361" HC_normed="0.357259" PMx_normed="0.077343" NOx_normed="2.137137" fuel_normed="2.454041" electricity_normed="0"
            traveltime="1.32" CO_perVeh="22.654760" CO2_perVeh="2584.782016" HC_perVeh="0.161752" PMx_perVeh="0.035018" NOx_perVeh="0.967610" fuel_perVeh="1.111091" electricity_perVeh="0"/>
        <edge id=":1110673663_1" sampledSeconds="170.31" CO_abs="2754.736180" CO2_abs="337369.536040" HC_abs="20.276569" PMx_abs="4.656013" NOx_abs="126.301653" fuel_abs="145.020964" electricity_abs="0"
            CO_normed="71.550598" CO2_normed="8762.723704" HC_normed="0.526657" PMx_normed="0.120934" NOx_normed="3.280517" fuel_normed="3.766726" electricity_normed="0"
            traveltime="1.27" CO_perVeh="20.619442" CO2_perVeh="2525.240599" HC_perVeh="0.151772" PMx_perVeh="0.034851" NOx_perVeh="0.945379" fuel_perVeh="1.085495" electricity_perVeh="0"/>
        <edge id=":1110673666_0" sampledSeconds="273.86" CO_abs="6416.752221" CO2_abs="499187.462872" HC_abs="40.630295" PMx_abs="6.907676" NOx_abs="191.558120" fuel_abs="214.581199" electricity_abs="0"