<?xml version="1.0" encoding="UTF-8"?>

<!-- generated on Tue Nov 10 02:33:28 2020 by Eclipse SUMO sumo Version 1.7.0
<configuration xmlns:xsi="http://www.w3.org/2001/XMLSchema-instance" xsi:noNamespaceSchemaLocation="http://sumo.dlr.de/xsd/sumoConfiguration.xsd">

    <input>
        <net-file value="../dataSets/Porto/6AM7AM_Routing_SaoBento/Porto.net.xml"/>
        <route-files value="../results/Porto/6AM7AM_Routing_SaoBento/cost_PMx-cost_nox/solution9/Porto.rou.xml"/>
        <additional-files value="moreOutputInfo.xml"/>
    </input>

    <output>
        <emission-output.precision value="6"/>
        <tripinfo-output value="../results/Porto/6AM7AM_Routing_SaoBento/cost_PMx-cost_nox/solution9/Porto-tripinfo"/>
    </output>

    <processing>
        <collision.action value="warn"/>
        <time-to-teleport value="-1"/>
    </processing>

    <emissions>
        <device.emissions.probability value="1"/>
    </emissions>

    <gui_only>
        <quit-on-end value="true"/>
        <start value="true"/>
    </gui_only>

</configuration>
-->

<meandata xmlns:xsi="http://www.w3.org/2001/XMLSchema-instance" xsi:noNamespaceSchemaLocation="http://sumo.dlr.de/xsd/meandata_file.xsd">
    <interval begin="0.00" end="4700.00" id="emissions-detector">
        <edge id=":1092997347_0" sampledSeconds="284.65" CO_abs="36664.975229" CO2_abs="1455194.648322" HC_abs="201.349143" PMx_abs="29.741228" NOx_abs="632.041035" fuel_abs="625.530849" electricity_abs="0"
            CO_normed="63826.842758" CO2_normed="2533220.857813" HC_normed="350.511080" PMx_normed="51.773899" NOx_normed="1100.264857" fuel_normed="1088.931845" electricity_normed="0"
            traveltime="0.07" CO_perVeh="9.653448" CO2_perVeh="383.135305" HC_perVeh="0.053013" PMx_perVeh="0.007831" NOx_perVeh="0.166409" fuel_perVeh="0.164695" electricity_perVeh="0"/>
        <edge id=":1103427051_0" sampledSeconds="10.84" CO_abs="840.345968" CO2_abs="48694.576268" HC_abs="4.978543" PMx_abs="0.928633" NOx_abs="20.580707" fuel_abs="20.931665" electricity_abs="0"
            CO_normed="2219.549146" CO2_normed="128613.701076" HC_normed="13.149491" PMx_normed="2.452737" NOx_normed="54.358434" fuel_normed="55.285396" electricity_normed="0"
            traveltime="0.03" CO_perVeh="2.302535" CO2_perVeh="133.422403" HC_perVeh="0.013641" PMx_perVeh="0.002544" NOx_perVeh="0.056391" fuel_perVeh="0.057352" electricity_perVeh="0"/>
        <edge id=":1105984386_0" sampledSeconds="22.87" CO_abs="405.483448" CO2_abs="34896.983095" HC_abs="2.627709" PMx_abs="0.388069" NOx_abs="12.741584" fuel_abs="15.000962" electricity_abs="0"
            CO_normed="31.985898" CO2_normed="2752.791357" HC_normed="0.207283" PMx_normed="0.030612" NOx_normed="1.005099" fuel_normed="1.183326" electricity_normed="0"
            traveltime="0.96" CO_perVeh="17.017826" CO2_perVeh="1464.599351" HC_perVeh="0.110283" PMx_perVeh="0.016287" NOx_perVeh="0.534754" fuel_perVeh="0.629579" electricity_perVeh="0"/>
        <edge id=":1105984390_0" sampledSeconds="23.02" CO_abs="0" CO2_abs="0" HC_abs="0" PMx_abs="0" NOx_abs="0" fuel_abs="0" electricity_abs="0"
            CO_normed="0" CO2_normed="0" HC_normed="0" PMx_normed="0" NOx_normed="0" fuel_normed="0" electricity_normed="0"
            traveltime="1.04" CO_perVeh="0" CO2_perVeh="0" HC_perVeh="0" PMx_perVeh="0" NOx_perVeh="0" fuel_perVeh="0" electricity_perVeh="0"/>
        <edge id=":1105984390_1" sampledSeconds="646.90" CO_abs="15303.895753" CO2_abs="1934369.453148" HC_abs="115.997870" PMx_abs="34.459755" NOx_abs="727.275802" fuel_abs="831.496585" electricity_abs="0"
            CO_normed="892.774784" CO2_normed="112844.226010" HC_normed="6.766903" PMx_normed="2.010259" NOx_normed="42.426681" fuel_normed="48.506550" electricity_normed="0"
            traveltime="0.64" CO_perVeh="15.056980" CO2_perVeh="1903.159937" HC_perVeh="0.114126" PMx_perVeh="0.033904" NOx_perVeh="0.715542" fuel_perVeh="0.818081" electricity_perVeh="0"/>
        <edge id=":1105984395_0" sampledSeconds="9.11" CO_abs="188.055830" CO2_abs="15801.955997" HC_abs="1.217725" PMx_abs="0.216071" NOx_abs="6.032972" fuel_abs="6.792636" electricity_abs="0"
            CO_normed="156.568221" CO2_normed="13156.115076" HC_normed="1.013832" PMx_normed="0.179893" NOx_normed="5.022826" fuel_normed="5.655294" electricity_normed="0"
            traveltime="0.09" CO_perVeh="1.907092" CO2_perVeh="160.249113" HC_perVeh="0.012349" PMx_perVeh="0.002191" NOx_perVeh="0.061181" fuel_perVeh="0.068885" electricity_perVeh="0"/>
        <edge id=":1105984398_0" sampledSeconds="23.41" CO_abs="1509.288343" CO2_abs="105801.784636" HC_abs="9.366665" PMx_abs="1.889913" NOx_abs="43.493805" fuel_abs="45.479518" electricity_abs="0"
            CO_normed="95.620401" CO2_normed="6703.032657" HC_normed="0.593422" PMx_normed="0.119735" NOx_normed="2.755534" fuel_normed="2.881338" electricity_normed="0"
            traveltime="1.11" CO_perVeh="71.503727" CO2_perVeh="5012.443108" HC_perVeh="0.443753" PMx_perVeh="0.089536" NOx_perVeh="2.060553" fuel_perVeh="2.154628" electricity_perVeh="0"/>
        <edge id=":1105984398_1" sampledSeconds="452.49" CO_abs="7872.676696" CO2_abs="932127.640031" HC_abs="57.284190" PMx_abs="13.274694" NOx_abs="351.873268" fuel_abs="400.682009" electricity_abs="0"
            CO_normed="482.797065" CO2_normed="57163.339252" HC_normed="3.512991" PMx_normed="0.814079" NOx_normed="21.578859" fuel_normed="24.572087" electricity_normed="0"
            traveltime="0.95" CO_perVeh="16.581479" CO2_perVeh="1963.252868" HC_perVeh="0.120652" PMx_perVeh="0.027959" NOx_perVeh="0.741118" fuel_perVeh="0.843919" electricity_perVeh="0"/>
        <edge id=":1106006327_0" sampledSeconds="225.46" CO_abs="30326.500505" CO2_abs="982806.409236" HC_abs="161.224151" PMx_abs="20.514234" NOx_abs="430.265829" fuel_abs="422.473797" electricity_abs="0"
            CO_normed="2621.761727" CO2_normed="84964.772904" HC_normed="13.938018" PMx_normed="1.773480" NOx_normed="37.196988" fuel_normed="36.523358" electricity_normed="0"
            traveltime="2.10" CO_perVeh="282.032953" CO2_perVeh="9139.986130" HC_perVeh="1.499366" PMx_perVeh="0.190780" NOx_perVeh="4.001423" fuel_perVeh="3.928958" electricity_perVeh="0"/>
        <edge id=":1106006327_1" sampledSeconds="163.13" CO_abs="21999.224478" CO2_abs="728973.161071" HC_abs="117.342784" PMx_abs="15.192401" NOx_abs="318.934729" fuel_abs="313.359458" electricity_abs="0"
            CO_normed="1658.510808" CO2_normed="54956.931225" HC_normed="8.846415" PMx_normed="1.145348" NOx_normed="24.044334" fuel_normed="23.624017" electricity_normed="0"
            traveltime="2.32" CO_perVeh="312.307345" CO2_perVeh="10348.713554" HC_perVeh="1.665832" PMx_perVeh="0.215676" NOx_perVeh="4.527690" fuel_perVeh="4.448541" electricity_perVeh="0"/>
        <edge id=":1106006327_2" sampledSeconds="0.00" CO_abs="0" CO2_abs="0" HC_abs="0" PMx_abs="0" NOx_abs="0" fuel_abs="0" electricity_abs="0"
            CO_normed="0" CO2_normed="0" HC_normed="0" PMx_normed="0" NOx_normed="0" fuel_normed="0" electricity_normed="0"/>
        <edge id=":1106006327_3" sampledSeconds="0.00" CO_abs="0" CO2_abs="0" HC_abs="0" PMx_abs="0" NOx_abs="0" fuel_abs="0" electricity_abs="0"
            CO_normed="0" CO2_normed="0" HC_normed="0" PMx_normed="0" NOx_normed="0" fuel_normed="0" electricity_normed="0"/>
        <edge id=":1107381198_0" sampledSeconds="0.00" CO_abs="0" CO2_abs="0" HC_abs="0" PMx_abs="0" NOx_abs="0" fuel_abs="0" electricity_abs="0"
            CO_normed="0" CO2_normed="0" HC_normed="0" PMx_normed="0" NOx_normed="0" fuel_normed="0" electricity_normed="0"/>
        <edge id=":1107381198_1" sampledSeconds="35.93" CO_abs="1483.835615" CO2_abs="60117.890999" HC_abs="8.141542" PMx_abs="1.038785" NOx_abs="24.908278" fuel_abs="25.842574" electricity_abs="0"
            CO_normed="123.942741" CO2_normed="5021.564482" HC_normed="0.680052" PMx_normed="0.086768" NOx_normed="2.080554" fuel_normed="2.158595" electricity_normed="0"
            traveltime="1.48" CO_perVeh="61.093627" CO2_perVeh="2475.220279" HC_perVeh="0.335210" PMx_perVeh="0.042770" NOx_perVeh="1.025543" fuel_perVeh="1.064010" electricity_perVeh="0"/>
        <edge id=":1110338277_0" sampledSeconds="97.23" CO_abs="1388.819936" CO2_abs="169263.748803" HC_abs="10.198511" PMx_abs="2.277903" NOx_abs="63.113541" fuel_abs="72.759445" electricity_abs="0"
            CO_normed="3799.203472" CO2_normed="463031.531681" HC_normed="27.898661" PMx_normed="6.231345" NOx_normed="172.651023" fuel_normed="199.037995" electricity_normed="0"
            traveltime="0.02" CO_perVeh="0.312996" CO2_perVeh="38.146707" HC_perVeh="0.002298" PMx_perVeh="0.000513" NOx_perVeh="0.014224" fuel_perVeh="0.016398" electricity_perVeh="0"/>
        <edge id=":1110338293_0" sampledSeconds="123.49" CO_abs="6447.359707" CO2_abs="442117.139418" HC_abs="39.760812" PMx_abs="7.831974" NOx_abs="181.495926" fuel_abs="190.046851" electricity_abs="0"
            CO_normed="16461.343934" CO2_normed="1128809.717664" HC_normed="101.516967" PMx_normed="19.996529" NOx_normed="463.393852" fuel_normed="485.226003" electricity_normed="0"
            traveltime="0.03" CO_perVeh="1.478809" CO2_perVeh="101.406890" HC_perVeh="0.009120" PMx_perVeh="0.001796" NOx_perVeh="0.041629" fuel_perVeh="0.043590" electricity_perVeh="0"/>
        <edge id=":1110338295_0" sampledSeconds="0.00" CO_abs="0" CO2_abs="0" HC_abs="0" PMx_abs="0" NOx_abs="0" fuel_abs="0" electricity_abs="0"
            CO_normed="0" CO2_normed="0" HC_normed="0" PMx_normed="0" NOx_normed="0" fuel_normed="0" electricity_normed="0"/>
        <edge id=":1110673403_0" sampledSeconds="143.97" CO_abs="2145.374260" CO2_abs="265885.189364" HC_abs="15.808503" PMx_abs="3.681620" NOx_abs="99.557821" fuel_abs="114.292806" electricity_abs="0"
            CO_normed="5477.551301" CO2_normed="678855.802632" HC_normed="40.362136" PMx_normed="9.399880" NOx_normed="254.190181" fuel_normed="291.811421" electricity_normed="0"
            traveltime="0.02" CO_perVeh="0.344454" CO2_perVeh="42.689621" HC_perVeh="0.002538" PMx_perVeh="0.000591" NOx_perVeh="0.015985" fuel_perVeh="0.018350" electricity_perVeh="0"/>
        <edge id=":1110673412_0" sampledSeconds="252.43" CO_abs="44576.069117" CO2_abs="3050640.062606" HC_abs="277.607757" PMx_abs="66.941094" NOx_abs="1310.169060" fuel_abs="1311.319965" electricity_abs="0"
            CO_normed="117735.765826" CO2_normed="8057449.908571" HC_normed="733.226651" PMx_normed="176.806998" NOx_normed="3460.461201" fuel_normed="3463.501008" electricity_normed="0"
            traveltime="0.02" CO_perVeh="2.744165" CO2_perVeh="187.801652" HC_perVeh="0.017090" PMx_perVeh="0.004121" NOx_perVeh="0.080656" fuel_perVeh="0.080727" electricity_perVeh="0"/>
        <edge id=":1110673414_0" sampledSeconds="0.00" CO_abs="0" CO2_abs="0" HC_abs="0" PMx_abs="0" NOx_abs="0" fuel_abs="0" electricity_abs="0"
            CO_normed="0" CO2_normed="0" HC_normed="0" PMx_normed="0" NOx_normed="0" fuel_normed="0" electricity_normed="0"/>
        <edge id=":1110673414_1" sampledSeconds="183.59" CO_abs="12553.033395" CO2_abs="466647.197792" HC_abs="67.982728" PMx_abs="8.614440" NOx_abs="197.038852" fuel_abs="200.595303" electricity_abs="0"
            CO_normed="1064.793954" CO2_normed="39582.712755" HC_normed="5.766542" PMx_normed="0.730708" NOx_normed="16.713552" fuel_normed="17.015223" electricity_normed="0"
            traveltime="1.60" CO_perVeh="109.679624" CO2_perVeh="4077.236764" HC_perVeh="0.593986" PMx_perVeh="0.075267" NOx_perVeh="1.721588" fuel_perVeh="1.752661" electricity_perVeh="0"/>
        <edge id=":1110673417_0" sampledSeconds="29.79" CO_abs="550.555175" CO2_abs="65458.635854" HC_abs="4.012260" PMx_abs="0.884971" NOx_abs="24.456933" fuel_abs="28.137949" electricity_abs="0"
            CO_normed="1506.077986" CO2_normed="179066.177108" HC_normed="10.975787" PMx_normed="2.420894" NOx_normed="66.903465" fuel_normed="76.973112" electricity_normed="0"
            traveltime="0.02" CO_perVeh="0.408629" CO2_perVeh="48.584276" HC_perVeh="0.002978" PMx_perVeh="0.000657" NOx_perVeh="0.018152" fuel_perVeh="0.020884" electricity_perVeh="0"/>
        <edge id=":1110673446_0" sampledSeconds="333.62" CO_abs="3590.460112" CO2_abs="289456.222976" HC_abs="23.234035" PMx_abs="5.378492" NOx_abs="118.794115" fuel_abs="124.423836" electricity_abs="0"
            CO_normed="9167.132201" CO2_normed="739037.165045" HC_normed="59.320940" PMx_normed="13.732321" NOx_normed="303.304123" fuel_normed="317.677878" electricity_normed="0"
            traveltime="0.02" CO_perVeh="0.244885" CO2_perVeh="19.742158" HC_perVeh="0.001585" PMx_perVeh="0.000367" NOx_perVeh="0.008102" fuel_perVeh="0.008486" electricity_perVeh="0"/>
        <edge id=":1110673451_0" sampledSeconds="37.59" CO_abs="187.859511" CO2_abs="14711.077060" HC_abs="1.189598" PMx_abs="0.192715" NOx_abs="5.579362" fuel_abs="6.323733" electricity_abs="0"
            CO_normed="532.934784" CO2_normed="41733.551943" HC_normed="3.374747" PMx_normed="0.546709" NOx_normed="15.827978" fuel_normed="17.939667" electricity_normed="0"
            traveltime="0.03" CO_perVeh="0.134720" CO2_perVeh="10.549776" HC_perVeh="0.000853" PMx_perVeh="0.000138" NOx_perVeh="0.004001" fuel_perVeh="0.004535" electricity_perVeh="0"/>
        <edge id=":1110673464_0" sampledSeconds="324.65" CO_abs="684.226343" CO2_abs="53444.506749" HC_abs="4.327033" PMx_abs="0.684625" NOx_abs="20.143197" fuel_abs="22.973789" electricity_abs="0"
            CO_normed="37.116732" CO2_normed="2899.165576" HC_normed="0.234725" PMx_normed="0.037138" NOx_normed="1.092693" fuel_normed="1.246243" electricity_normed="0"
            traveltime="1.17" CO_perVeh="2.473388" CO2_perVeh="193.194841" HC_perVeh="0.015642" PMx_perVeh="0.002475" NOx_perVeh="0.072815" fuel_perVeh="0.083047" electricity_perVeh="0"/>
        <edge id=":1110673464_1" sampledSeconds="708.61" CO_abs="16066.367030" CO2_abs="2106026.537098" HC_abs="123.470517" PMx_abs="37.115737" NOx_abs="787.408641" fuel_abs="905.284360" electricity_abs="0"
            CO_normed="854.000935" CO2_normed="111944.948596" HC_normed="6.563023" PMx_normed="1.972871" NOx_normed="41.854373" fuel_normed="48.120007" electricity_normed="0"
            traveltime="0.70" CO_perVeh="15.868168" CO2_perVeh="2080.046003" HC_perVeh="0.121947" PMx_perVeh="0.036658" NOx_perVeh="0.777695" fuel_perVeh="0.894117" electricity_perVeh="0"/>
        <edge id=":1110673479_0" sampledSeconds="132.40" CO_abs="7221.380082" CO2_abs="495648.894827" HC_abs="44.555640" PMx_abs="8.835120" NOx_abs="203.827906" fuel_abs="213.057726" electricity_abs="0"
            CO_normed="18437.566167" CO2_normed="1265486.539983" HC_normed="113.759081" PMx_normed="22.557753" NOx_normed="520.411675" fuel_normed="543.977172" electricity_normed="0"
            traveltime="0.03" CO_perVeh="1.521268" CO2_perVeh="104.414198" HC_perVeh="0.009386" PMx_perVeh="0.001861" NOx_perVeh="0.042939" fuel_perVeh="0.044883" electricity_perVeh="0"/>
        <edge id=":1110673511_0" sampledSeconds="11.66" CO_abs="272.105140" CO2_abs="27713.205724" HC_abs="1.884242" PMx_abs="0.425689" NOx_abs="10.729277" fuel_abs="11.912707" electricity_abs="0"
            CO_normed="694.736528" CO2_normed="70757.120997" HC_normed="4.810830" PMx_normed="1.086867" NOx_normed="27.393900" fuel_normed="30.415422" electricity_normed="0"
            traveltime="0.02" CO_perVeh="0.538822" CO2_perVeh="54.877635" HC_perVeh="0.003731" PMx_perVeh="0.000843" NOx_perVeh="0.021246" fuel_perVeh="0.023590" electricity_perVeh="0"/>
        <edge id=":1110673517_0" sampledSeconds="17.04" CO_abs="782.118020" CO2_abs="57833.843481" HC_abs="4.916916" PMx_abs="0.980730" NOx_abs="23.371602" fuel_abs="24.860267" electricity_abs="0"
            CO_normed="1996.897073" CO2_normed="147660.876973" HC_normed="12.553829" PMx_normed="2.503990" NOx_normed="59.672176" fuel_normed="63.473023" electricity_normed="0"
            traveltime="0.03" CO_perVeh="1.255742" CO2_perVeh="92.856051" HC_perVeh="0.007894" PMx_perVeh="0.001575" NOx_perVeh="0.037525" fuel_perVeh="0.039915" electricity_perVeh="0"/>
        <edge id=":1110673534_0" sampledSeconds="474.66" CO_abs="2592.656496" CO2_abs="243237.763445" HC_abs="17.341109" PMx_abs="3.116212" NOx_abs="90.996317" fuel_abs="104.558417" electricity_abs="0"
            CO_normed="128.285824" CO2_normed="12035.515262" HC_normed="0.858046" PMx_normed="0.154192" NOx_normed="4.502539" fuel_normed="5.173598" electricity_normed="0"
            traveltime="1.43" CO_perVeh="7.810635" CO2_perVeh="732.777892" HC_perVeh="0.052242" PMx_perVeh="0.009388" NOx_perVeh="0.274135" fuel_perVeh="0.314993" electricity_perVeh="0"/>
        <edge id=":1110673534_1" sampledSeconds="184.98" CO_abs="2727.535288" CO2_abs="347974.505228" HC_abs="20.266352" PMx_abs="4.716473" NOx_abs="129.483163" fuel_abs="149.579629" electricity_abs="0"
            CO_normed="131.229646" CO2_normed="16742.064295" HC_normed="0.975073" PMx_normed="0.226923" NOx_normed="6.229811" fuel_normed="7.196710" electricity_normed="0"
            traveltime="1.23" CO_perVeh="18.109855" CO2_perVeh="2310.425789" HC_perVeh="0.134561" PMx_perVeh="0.031316" NOx_perVeh="0.859722" fuel_perVeh="0.993155" electricity_perVeh="0"/>
        <edge id=":1110673549_0" sampledSeconds="60.01" CO_abs="4.777940" CO2_abs="629.602843" HC_abs="0.035329" PMx_abs="0.003684" NOx_abs="0.205893" fuel_abs="0.270647" electricity_abs="0"
            CO_normed="0.229017" CO2_normed="30.178284" HC_normed="0.001693" PMx_normed="0.000177" NOx_normed="0.009869" fuel_normed="0.012973" electricity_normed="0"
            traveltime="1.25" CO_perVeh="0.099544" CO2_perVeh="13.117239" HC_perVeh="0.000736" PMx_perVeh="0.000077" NOx_perVeh="0.004290" fuel_perVeh="0.005639" electricity_perVeh="0"/>
        <edge id=":1110673549_1" sampledSeconds="638.54" CO_abs="13335.019937" CO2_abs="1821443.618828" HC_abs="103.958253" PMx_abs="31.662267" NOx_abs="676.575166" fuel_abs="782.955509" electricity_abs="0"
            CO_normed="618.284372" CO2_normed="84452.076500" HC_normed="4.820073" PMx_normed="1.468036" NOx_normed="31.369721" fuel_normed="36.302095" electricity_normed="0"
            traveltime="0.80" CO_perVeh="16.786148" CO2_perVeh="2292.836684" HC_perVeh="0.130863" PMx_perVeh="0.039857" NOx_perVeh="0.851674" fuel_perVeh="0.985586" electricity_perVeh="0"/>
        <edge id=":1110673556_0" sampledSeconds="415.22" CO_abs="50734.094041" CO2_abs="2548926.376431" HC_abs="291.631049" PMx_abs="51.451187" NOx_abs="1097.757067" fuel_abs="1095.673009" electricity_abs="0"
            CO_normed="1803.255552" CO2_normed="90597.175842" HC_normed="10.365521" PMx_normed="1.828743" NOx_normed="39.017875" fuel_normed="38.943800" electricity_normed="0"
            traveltime="2.58" CO_perVeh="314.933047" CO2_perVeh="15822.518669" HC_perVeh="1.810306" PMx_perVeh="0.319384" NOx_perVeh="6.814352" fuel_perVeh="6.801415" electricity_perVeh="0"/>
        <edge id=":1110673556_2" sampledSeconds="251.11" CO_abs="24390.505979" CO2_abs="1040414.402040" HC_abs="135.486620" PMx_abs="20.078233" NOx_abs="443.825584" fuel_abs="447.233455" electricity_abs="0"
            CO_normed="906.457530" CO2_normed="38666.334741" HC_normed="5.035273" PMx_normed="0.746195" NOx_normed="16.494494" fuel_normed="16.621145" electricity_normed="0"
            traveltime="3.05" CO_perVeh="295.852164" CO2_perVeh="12620.027324" HC_perVeh="1.643427" PMx_perVeh="0.243545" NOx_perVeh="5.383519" fuel_perVeh="5.424856" electricity_perVeh="0"/>
        <edge id=":1110673556_3" sampledSeconds="365.44" CO_abs="31787.429874" CO2_abs="1128915.397344" HC_abs="171.043308" PMx_abs="21.691888" NOx_abs="482.413458" fuel_abs="485.281119" electricity_abs="0"
            CO_normed="2687.397199" CO2_normed="95441.628633" HC_normed="14.460474" PMx_normed="1.833892" NOx_normed="40.784567" fuel_normed="41.027007" electricity_normed="0"
            traveltime="1.75" CO_perVeh="152.219176" CO2_perVeh="5405.991374" HC_perVeh="0.819068" PMx_perVeh="0.103875" NOx_perVeh="2.310114" fuel_perVeh="2.323846" electricity_perVeh="0"/>
        <edge id=":1110673556_4" sampledSeconds="180.09" CO_abs="18762.979201" CO2_abs="753465.583131" HC_abs="103.143841" PMx_abs="14.843369" NOx_abs="323.790097" fuel_abs="323.885817" electricity_abs="0"
            CO_normed="969.092626" CO2_normed="38915.884984" HC_normed="5.327296" PMx_normed="0.766648" NOx_normed="16.723495" fuel_normed="16.728439" electricity_normed="0"
            traveltime="2.39" CO_perVeh="249.319017" CO2_perVeh="10011.912082" HC_perVeh="1.370556" PMx_perVeh="0.197236" NOx_perVeh="4.302463" fuel_perVeh="4.303735" electricity_perVeh="0"/>
        <edge id=":1110673556_5" sampledSeconds="23.32" CO_abs="1677.500328" CO2_abs="72020.649870" HC_abs="9.318536" PMx_abs="1.334678" NOx_abs="30.391461" fuel_abs="30.958933" electricity_abs="0"
            CO_normed="120.760702" CO2_normed="5184.657245" HC_normed="0.670827" PMx_normed="0.096081" NOx_normed="2.187835" fuel_normed="2.228687" electricity_normed="0"
            traveltime="1.61" CO_perVeh="115.975331" CO2_perVeh="4979.205423" HC_perVeh="0.644244" PMx_perVeh="0.092274" NOx_perVeh="2.101138" fuel_perVeh="2.140371" electricity_perVeh="0"/>
        <edge id=":1110673556_6" sampledSeconds="313.23" CO_abs="37983.642136" CO2_abs="1923011.815936" HC_abs="218.696830" PMx_abs="38.789351" NOx_abs="827.647151" fuel_abs="826.619289" electricity_abs="0"
            CO_normed="1384.103404" CO2_normed="70073.511928" HC_normed="7.969194" PMx_normed="1.413463" NOx_normed="30.159015" fuel_normed="30.121560" electricity_normed="0"
            traveltime="2.48" CO_perVeh="300.799891" CO2_perVeh="15228.706659" HC_perVeh="1.731903" PMx_perVeh="0.307180" NOx_perVeh="6.554300" fuel_perVeh="6.546160" electricity_perVeh="0"/>
        <edge id=":1110673561_0" sampledSeconds="99.98" CO_abs="9722.637072" CO2_abs="698276.621870" HC_abs="61.086746" PMx_abs="14.126897" NOx_abs="295.271481" fuel_abs="300.155831" electricity_abs="0"
            CO_normed="445.136059" CO2_normed="31969.526506" HC_normed="2.796763" PMx_normed="0.646778" NOx_normed="13.518553" fuel_normed="13.742175" electricity_normed="0"
            traveltime="1.18" CO_perVeh="114.736554" CO2_perVeh="8240.341885" HC_perVeh="0.720883" PMx_perVeh="0.166711" NOx_perVeh="3.484490" fuel_perVeh="3.542130" electricity_perVeh="0"/>
        <edge id=":1110673561_1" sampledSeconds="1315.30" CO_abs="121487.823797" CO2_abs="8425311.764588" HC_abs="757.063549" PMx_abs="176.121560" NOx_abs="3601.890479" fuel_abs="3621.634528" electricity_abs="0"
            CO_normed="5422.756605" CO2_normed="376074.026094" HC_normed="33.792451" PMx_normed="7.861400" NOx_normed="160.774757" fuel_normed="161.656057" electricity_normed="0"
            traveltime="1.19" CO_perVeh="110.120069" CO2_perVeh="7636.945675" HC_perVeh="0.686224" PMx_perVeh="0.159642" NOx_perVeh="3.264857" fuel_perVeh="3.282754" electricity_perVeh="0"/>
        <edge id=":1110673562_0" sampledSeconds="104.06" CO_abs="2062.256919" CO2_abs="168632.269112" HC_abs="13.225229" PMx_abs="2.207284" NOx_abs="63.777180" fuel_abs="72.488543" electricity_abs="0"
            CO_normed="5850.374239" CO2_normed="478389.415920" HC_normed="37.518381" PMx_normed="6.261798" NOx_normed="180.928171" fuel_normed="205.641257" electricity_normed="0"
            traveltime="0.03" CO_perVeh="0.525679" CO2_perVeh="42.985133" HC_perVeh="0.003371" PMx_perVeh="0.000563" NOx_perVeh="0.016257" fuel_perVeh="0.018478" electricity_perVeh="0"/>
        <edge id=":1110673564_0" sampledSeconds="28.68" CO_abs="624.519330" CO2_abs="70087.538906" HC_abs="4.456636" PMx_abs="0.990945" NOx_abs="26.517486" fuel_abs="30.127679" electricity_abs="0"
            CO_normed="4783.552317" CO2_normed="536840.723539" HC_normed="34.135939" PMx_normed="7.590214" NOx_normed="203.112656" fuel_normed="230.765204" electricity_normed="0"
            traveltime="7.885844e-03" CO_perVeh="0.171689" CO2_perVeh="19.268052" HC_perVeh="0.001225" PMx_perVeh="0.000272" NOx_perVeh="0.007290" fuel_perVeh="0.008283" electricity_perVeh="0"/>
        <edge id=":1110673588_0" sampledSeconds="11.70" CO_abs="137.145652" CO2_abs="16106.112316" HC_abs="0.996144" PMx_abs="0.219111" NOx_abs="6.020702" fuel_abs="6.923349" electricity_abs="0"
            CO_normed="420.190933" CO2_normed="49346.386671" HC_normed="3.052017" PMx_normed="0.671318" NOx_normed="18.446406" fuel_normed="21.211963" electricity_normed="0"
            traveltime="0.02" CO_perVeh="0.228576" CO2_perVeh="26.843521" HC_perVeh="0.001660" PMx_perVeh="0.000365" NOx_perVeh="0.010035" fuel_perVeh="0.011539" electricity_perVeh="0"/>
        <edge id=":1110673601_0" sampledSeconds="29.61" CO_abs="409.424274" CO2_abs="50523.191678" HC_abs="3.027629" PMx_abs="0.681654" NOx_abs="18.821170" fuel_abs="21.717816" electricity_abs="0"
            CO_normed="1120.005613" CO2_normed="138209.338936" HC_normed="8.282268" PMx_normed="1.864706" NOx_normed="51.486484" fuel_normed="59.410438" electricity_normed="0"
            traveltime="0.02" CO_perVeh="0.303880" CO2_perVeh="37.498989" HC_perVeh="0.002247" PMx_perVeh="0.000506" NOx_perVeh="0.013969" fuel_perVeh="0.016119" electricity_perVeh="0"/>
        <edge id=":1110673617_0" sampledSeconds="238.48" CO_abs="5993.357618" CO2_abs="724183.768395" HC_abs="44.695864" PMx_abs="13.079720" NOx_abs="274.372242" fuel_abs="311.293206" electricity_abs="0"
            CO_normed="15302.189662" CO2_normed="1848979.834199" HC_normed="114.117100" PMx_normed="33.395030" NOx_normed="700.524872" fuel_normed="794.791165" electricity_normed="0"
            traveltime="0.01" CO_perVeh="0.367412" CO2_perVeh="44.394754" HC_perVeh="0.002740" PMx_perVeh="0.000802" NOx_perVeh="0.016820" fuel_perVeh="0.019083" electricity_perVeh="0"/>
        <edge id=":1110673621_0" sampledSeconds="25.58" CO_abs="656.085571" CO2_abs="68399.462595" HC_abs="4.571350" PMx_abs="1.034563" NOx_abs="26.335998" fuel_abs="29.401981" electricity_abs="0"
            CO_normed="2010.134516" CO2_normed="209564.310929" HC_normed="14.005840" PMx_normed="3.169725" NOx_normed="80.689014" fuel_normed="90.082665" electricity_normed="0"
            traveltime="0.02" CO_perVeh="0.497035" CO2_perVeh="51.817775" HC_perVeh="0.003463" PMx_perVeh="0.000784" NOx_perVeh="0.019952" fuel_perVeh="0.022274" electricity_perVeh="0"/>
        <edge id=":1110673630_0" sampledSeconds="54.18" CO_abs="345.962385" CO2_abs="31557.624949" HC_abs="2.302178" PMx_abs="0.448035" NOx_abs="12.090330" fuel_abs="13.565332" electricity_abs="0"
            CO_normed="18.901032" CO2_normed="1724.093997" HC_normed="0.125775" PMx_normed="0.024478" NOx_normed="0.660533" fuel_normed="0.741117" electricity_normed="0"
            traveltime="1.26" CO_perVeh="8.075374" CO2_perVeh="736.610785" HC_perVeh="0.053737" PMx_perVeh="0.010458" NOx_perVeh="0.282210" fuel_perVeh="0.316639" electricity_perVeh="0"/>
        <edge id=":1110673630_1" sampledSeconds="7.44" CO_abs="36.450587" CO2_abs="2352.554878" HC_abs="0.220165" PMx_abs="0.036280" NOx_abs="0.934892" fuel_abs="1.011270" electricity_abs="0"
            CO_normed="2.427791" CO2_normed="156.691907" HC_normed="0.014664" PMx_normed="0.002416" NOx_normed="0.062268" fuel_normed="0.067356" electricity_normed="0"
            traveltime="1.05" CO_perVeh="5.159160" CO2_perVeh="332.976998" HC_perVeh="0.031162" PMx_perVeh="0.005135" NOx_perVeh="0.132323" fuel_perVeh="0.143134" electricity_perVeh="0"/>
        <edge id=":1110673650_0" sampledSeconds="143.24" CO_abs="2200.272866" CO2_abs="273628.755427" HC_abs="16.268908" PMx_abs="3.711608" NOx_abs="102.026213" fuel_abs="117.621552" electricity_abs="0"
            CO_normed="5617.717955" CO2_normed="698626.609602" HC_normed="41.537637" PMx_normed="9.476446" NOx_normed="260.492458" fuel_normed="300.310346" electricity_normed="0"
            traveltime="0.02" CO_perVeh="0.353701" CO2_perVeh="43.986702" HC_perVeh="0.002615" PMx_perVeh="0.000597" NOx_perVeh="0.016401" fuel_perVeh="0.018908" electricity_perVeh="0"/>
        <edge id=":1110673655_0" sampledSeconds="45.03" CO_abs="702.156469" CO2_abs="79572.001138" HC_abs="5.014529" PMx_abs="1.098529" NOx_abs="29.929274" fuel_abs="34.204684" electricity_abs="0"
            CO_normed="1792.739921" CO2_normed="203162.556096" HC_normed="12.803054" PMx_normed="2.804755" NOx_normed="76.415168" fuel_normed="87.331107" electricity_normed="0"
            traveltime="0.02" CO_perVeh="0.375786" CO2_perVeh="42.586032" HC_perVeh="0.002684" PMx_perVeh="0.000588" NOx_perVeh="0.016018" fuel_perVeh="0.018306" electricity_perVeh="0"/>
        <edge id=":1110673663_0" sampledSeconds="109.38" CO_abs="1400.530451" CO2_abs="168924.941324" HC_abs="10.240604" PMx_abs="2.278311" NOx_abs="63.027856" fuel_abs="72.613809" electricity_abs="0"
            CO_normed="65.491253" CO2_normed="7899.225687" HC_normed="0.478869" PMx_normed="0.106538" NOx_normed="2.947293" fuel_normed="3.395549" electricity_normed="0"
            traveltime="1.28" CO_perVeh="16.449891" CO2_perVeh="1984.103127" HC_perVeh="0.120281" PMx_perVeh="0.026760" NOx_perVeh="0.740292" fuel_perVeh="0.852883" electricity_perVeh="0"/>
        <edge id=":1110673663_1" sampledSeconds="155.16" CO_abs="2589.578344" CO2_abs="320394.578617" HC_abs="19.128240" PMx_abs="4.431810" NOx_abs="119.875456" fuel_abs="137.724118" electricity_abs="0"
            CO_normed="121.241248" CO2_normed="15000.526492" HC_normed="0.895563" PMx_normed="0.207493" NOx_normed="5.612439" fuel_normed="6.448094" electricity_normed="0"
            traveltime="1.25" CO_perVeh="20.905131" CO2_perVeh="2586.479209" HC_perVeh="0.154418" PMx_perVeh="0.035777" NOx_perVeh="0.967730" fuel_perVeh="1.111818" electricity_perVeh="0"/>
        <edge id=":1110673666_0" sampledSeconds="191.30" CO_abs="4096.030191" CO2_abs="323372.220394" HC_abs="26.023983" PMx_abs="4.356921" NOx_abs="123.251253" fuel_abs="139.005228" electricity_abs="0"