<?xml version="1.0" encoding="UTF-8"?>

<!-- generated on Tue Nov 10 00:10:30 2020 by Eclipse SUMO sumo Version 1.7.0
<configuration xmlns:xsi="http://www.w3.org/2001/XMLSchema-instance" xsi:noNamespaceSchemaLocation="http://sumo.dlr.de/xsd/sumoConfiguration.xsd">

    <input>
        <net-file value="../dataSets/Porto/6AM7AM_Routing_SaoBento/Porto.net.xml"/>
        <route-files value="../results/Porto/6AM7AM_Routing_SaoBento/cost_hc-length/solution14/Porto.rou.xml"/>
        <additional-files value="moreOutputInfo.xml"/>
    </input>

    <output>
        <emission-output.precision value="6"/>
        <tripinfo-output value="../results/Porto/6AM7AM_Routing_SaoBento/cost_hc-length/solution14/Porto-tripinfo"/>
    </output>

    <processing>
        <collision.action value="warn"/>
        <time-to-teleport value="-1"/>
    </processing>

    <emissions>
        <device.emissions.probability value="1"/>
    </emissions>

    <gui_only>
        <quit-on-end value="true"/>
        <start value="true"/>
    </gui_only>

</configuration>
-->

<meandata xmlns:xsi="http://www.w3.org/2001/XMLSchema-instance" xsi:noNamespaceSchemaLocation="http://sumo.dlr.de/xsd/meandata_file.xsd">
    <interval begin="0.00" end="4699.00" id="emissions-detector">
        <edge id=":1092997347_0" sampledSeconds="266.74" CO_abs="34743.144748" CO2_abs="1379107.449179" HC_abs="190.821653" PMx_abs="28.289640" NOx_abs="599.539126" fuel_abs="592.823810" electricity_abs="0"
            CO_normed="60494.167566" CO2_normed="2401278.229916" HC_normed="332.255388" PMx_normed="49.257436" NOx_normed="1043.907241" fuel_normed="1032.214647" electricity_normed="0"
            traveltime="0.08" CO_perVeh="9.771203" CO2_perVeh="387.861791" HC_perVeh="0.053667" PMx_perVeh="0.007956" NOx_perVeh="0.168615" fuel_perVeh="0.166726" electricity_perVeh="0"/>
        <edge id=":1103427051_0" sampledSeconds="10.93" CO_abs="848.223376" CO2_abs="48751.230315" HC_abs="5.015214" PMx_abs="0.928192" NOx_abs="20.597099" fuel_abs="20.956026" electricity_abs="0"
            CO_normed="2240.831984" CO2_normed="128790.739874" HC_normed="13.249167" PMx_normed="2.452094" NOx_normed="54.413307" fuel_normed="55.361519" electricity_normed="0"
            traveltime="0.03" CO_perVeh="2.324119" CO2_perVeh="133.577634" HC_perVeh="0.013742" PMx_perVeh="0.002543" NOx_perVeh="0.056436" fuel_perVeh="0.057419" electricity_perVeh="0"/>
        <edge id=":1105984386_0" sampledSeconds="22.62" CO_abs="458.225899" CO2_abs="38169.586429" HC_abs="2.951514" PMx_abs="0.481238" NOx_abs="14.312303" fuel_abs="16.407662" electricity_abs="0"
            CO_normed="36.154092" CO2_normed="3011.586074" HC_normed="0.232875" PMx_normed="0.037970" NOx_normed="1.129243" fuel_normed="1.294567" electricity_normed="0"
            traveltime="0.95" CO_perVeh="19.231386" CO2_perVeh="1601.947978" HC_perVeh="0.123873" PMx_perVeh="0.020197" NOx_perVeh="0.600676" fuel_perVeh="0.688617" electricity_perVeh="0"/>
        <edge id=":1105984390_0" sampledSeconds="23.41" CO_abs="35.728160" CO2_abs="3330.569358" HC_abs="0.236346" PMx_abs="0.031638" NOx_abs="1.178685" fuel_abs="1.431698" electricity_abs="0"
            CO_normed="2.179305" CO2_normed="203.154244" HC_normed="0.014416" PMx_normed="0.001930" NOx_normed="0.071896" fuel_normed="0.087329" electricity_normed="0"
            traveltime="1.06" CO_perVeh="1.620255" CO2_perVeh="151.039685" HC_perVeh="0.010718" PMx_perVeh="0.001435" NOx_perVeh="0.053453" fuel_perVeh="0.064927" electricity_perVeh="0"/>
        <edge id=":1105984390_1" sampledSeconds="645.99" CO_abs="13644.910537" CO2_abs="1822856.905567" HC_abs="105.665758" PMx_abs="32.005852" NOx_abs="678.783513" fuel_abs="783.562863" electricity_abs="0"
            CO_normed="796.164891" CO2_normed="106361.611188" HC_normed="6.165476" PMx_normed="1.867505" NOx_normed="39.606240" fuel_normed="45.719995" electricity_normed="0"
            traveltime="0.64" CO_perVeh="13.431364" CO2_perVeh="1794.328706" HC_perVeh="0.104012" PMx_perVeh="0.031505" NOx_perVeh="0.668160" fuel_perVeh="0.771300" electricity_perVeh="0"/>
        <edge id=":1105984395_0" sampledSeconds="9.11" CO_abs="147.305190" CO2_abs="11211.783845" HC_abs="0.926088" PMx_abs="0.150938" NOx_abs="4.279362" fuel_abs="4.819517" electricity_abs="0"
            CO_normed="122.666868" CO2_normed="9336.496628" HC_normed="0.771190" PMx_normed="0.125692" NOx_normed="3.563594" fuel_normed="4.013403" electricity_normed="0"
            traveltime="0.09" CO_perVeh="1.493836" CO2_perVeh="113.699748" HC_perVeh="0.009392" PMx_perVeh="0.001531" NOx_perVeh="0.043397" fuel_perVeh="0.048875" electricity_perVeh="0"/>
        <edge id=":1105984398_0" sampledSeconds="23.34" CO_abs="1523.809688" CO2_abs="104924.892816" HC_abs="9.415410" PMx_abs="1.898517" NOx_abs="43.327264" fuel_abs="45.102564" electricity_abs="0"
            CO_normed="96.560940" CO2_normed="6648.892161" HC_normed="0.596637" PMx_normed="0.120305" NOx_normed="2.745567" fuel_normed="2.858064" electricity_normed="0"
            traveltime="1.11" CO_perVeh="72.401054" CO2_perVeh="4985.316012" HC_perVeh="0.447356" PMx_perVeh="0.090205" NOx_perVeh="2.058616" fuel_perVeh="2.142967" electricity_perVeh="0"/>
        <edge id=":1105984398_1" sampledSeconds="452.68" CO_abs="8105.355033" CO2_abs="925123.161049" HC_abs="58.223348" PMx_abs="13.520524" NOx_abs="351.871884" fuel_abs="397.670759" electricity_abs="0"
            CO_normed="497.171998" CO2_normed="56745.858569" HC_normed="3.571345" PMx_normed="0.829331" NOx_normed="21.583366" fuel_normed="24.392610" electricity_normed="0"
            traveltime="0.96" CO_perVeh="17.114061" CO2_perVeh="1953.352356" HC_perVeh="0.122936" PMx_perVeh="0.028548" NOx_perVeh="0.742960" fuel_perVeh="0.839662" electricity_perVeh="0"/>
        <edge id=":1106006327_0" sampledSeconds="39.03" CO_abs="5280.019842" CO2_abs="170100.402492" HC_abs="28.045915" PMx_abs="3.553475" NOx_abs="74.484014" fuel_abs="73.120184" electricity_abs="0"
            CO_normed="456.561082" CO2_normed="14708.509831" HC_normed="2.425118" PMx_normed="0.307268" NOx_normed="6.440601" fuel_normed="6.322671" electricity_normed="0"
            traveltime="2.12" CO_perVeh="286.437520" CO2_perVeh="9227.832268" HC_perVeh="1.521472" PMx_perVeh="0.192774" NOx_perVeh="4.040708" fuel_perVeh="3.966721" electricity_perVeh="0"/>
        <edge id=":1106006327_1" sampledSeconds="160.45" CO_abs="21756.423882" CO2_abs="730616.578668" HC_abs="116.289293" PMx_abs="15.249900" NOx_abs="319.806389" fuel_abs="314.065618" electricity_abs="0"
            CO_normed="1640.555244" CO2_normed="55092.549495" HC_normed="8.768859" PMx_normed="1.149927" NOx_normed="24.115179" fuel_normed="23.682293" electricity_normed="0"
            traveltime="2.28" CO_perVeh="308.860478" CO2_perVeh="10372.043985" HC_perVeh="1.650876" PMx_perVeh="0.216492" NOx_perVeh="4.540064" fuel_perVeh="4.458566" electricity_perVeh="0"/>
        <edge id=":1106006327_2" sampledSeconds="0.00" CO_abs="0" CO2_abs="0" HC_abs="0" PMx_abs="0" NOx_abs="0" fuel_abs="0" electricity_abs="0"
            CO_normed="0" CO2_normed="0" HC_normed="0" PMx_normed="0" NOx_normed="0" fuel_normed="0" electricity_normed="0"/>
        <edge id=":1106006327_3" sampledSeconds="0.00" CO_abs="0" CO2_abs="0" HC_abs="0" PMx_abs="0" NOx_abs="0" fuel_abs="0" electricity_abs="0"
            CO_normed="0" CO2_normed="0" HC_normed="0" PMx_normed="0" NOx_normed="0" fuel_normed="0" electricity_normed="0"/>
        <edge id=":1107381198_0" sampledSeconds="0.00" CO_abs="0" CO2_abs="0" HC_abs="0" PMx_abs="0" NOx_abs="0" fuel_abs="0" electricity_abs="0"
            CO_normed="0" CO2_normed="0" HC_normed="0" PMx_normed="0" NOx_normed="0" fuel_normed="0" electricity_normed="0"/>
        <edge id=":1107381198_1" sampledSeconds="36.17" CO_abs="1508.727142" CO2_abs="58906.920142" HC_abs="8.215285" PMx_abs="0.966456" NOx_abs="24.081751" fuel_abs="25.322145" electricity_abs="0"
            CO_normed="126.048715" CO2_normed="4921.460876" HC_normed="0.686357" PMx_normed="0.080744" NOx_normed="2.011943" fuel_normed="2.115574" electricity_normed="0"
            traveltime="1.49" CO_perVeh="62.118480" CO2_perVeh="2425.361250" HC_perVeh="0.338246" PMx_perVeh="0.039792" NOx_perVeh="0.991512" fuel_perVeh="1.042583" electricity_perVeh="0"/>
        <edge id=":1110338277_0" sampledSeconds="97.12" CO_abs="1341.777301" CO2_abs="167395.350677" HC_abs="9.939144" PMx_abs="2.248912" NOx_abs="62.328083" fuel_abs="71.956283" electricity_abs="0"
            CO_normed="3671.296540" CO2_normed="458017.862795" HC_normed="27.194935" PMx_normed="6.153347" NOx_normed="170.538641" fuel_normed="196.882785" electricity_normed="0"
            traveltime="0.02" CO_perVeh="0.302394" CO2_perVeh="37.725629" HC_perVeh="0.002240" PMx_perVeh="0.000507" NOx_perVeh="0.014047" fuel_perVeh="0.016217" electricity_perVeh="0"/>
        <edge id=":1110338293_0" sampledSeconds="123.75" CO_abs="5991.263411" CO2_abs="410746.950440" HC_abs="36.935781" PMx_abs="7.227237" NOx_abs="168.339207" fuel_abs="176.562249" electricity_abs="0"
            CO_normed="15300.098090" CO2_normed="1048938.796613" HC_normed="94.324191" PMx_normed="18.456448" NOx_normed="429.893697" fuel_normed="450.893166" electricity_normed="0"
            traveltime="0.03" CO_perVeh="1.374196" CO2_perVeh="94.211618" HC_perVeh="0.008472" PMx_perVeh="0.001658" NOx_perVeh="0.038611" fuel_perVeh="0.040497" electricity_perVeh="0"/>
        <edge id=":1110338295_0" sampledSeconds="0.00" CO_abs="0" CO2_abs="0" HC_abs="0" PMx_abs="0" NOx_abs="0" fuel_abs="0" electricity_abs="0"
            CO_normed="0" CO2_normed="0" HC_normed="0" PMx_normed="0" NOx_normed="0" fuel_normed="0" electricity_normed="0"/>
        <edge id=":1110673403_0" sampledSeconds="143.52" CO_abs="2221.232423" CO2_abs="283264.527966" HC_abs="16.536491" PMx_abs="3.812302" NOx_abs="105.298085" fuel_abs="121.763570" electricity_abs="0"
            CO_normed="5672.438619" CO2_normed="723382.493211" HC_normed="42.229813" PMx_normed="9.735608" NOx_normed="268.903387" fuel_normed="310.951870" electricity_normed="0"
            traveltime="0.02" CO_perVeh="0.356634" CO2_perVeh="45.479988" HC_perVeh="0.002655" PMx_perVeh="0.000612" NOx_perVeh="0.016906" fuel_perVeh="0.019550" electricity_perVeh="0"/>
        <edge id=":1110673412_0" sampledSeconds="253.53" CO_abs="44679.194591" CO2_abs="3049621.284674" HC_abs="278.076603" PMx_abs="66.995351" NOx_abs="1310.565604" fuel_abs="1310.881994" electricity_abs="0"
            CO_normed="118033.257646" CO2_normed="8056473.222348" HC_normed="734.621286" PMx_normed="176.987960" NOx_normed="3462.245212" fuel_normed="3463.081052" electricity_normed="0"
            traveltime="0.02" CO_perVeh="2.746636" CO2_perVeh="187.474303" HC_perVeh="0.017095" PMx_perVeh="0.004119" NOx_perVeh="0.080567" fuel_perVeh="0.080586" electricity_perVeh="0"/>
        <edge id=":1110673414_0" sampledSeconds="0.00" CO_abs="0" CO2_abs="0" HC_abs="0" PMx_abs="0" NOx_abs="0" fuel_abs="0" electricity_abs="0"
            CO_normed="0" CO2_normed="0" HC_normed="0" PMx_normed="0" NOx_normed="0" fuel_normed="0" electricity_normed="0"/>
        <edge id=":1110673414_1" sampledSeconds="13.82" CO_abs="1032.714872" CO2_abs="39833.753051" HC_abs="5.625272" PMx_abs="0.723276" NOx_abs="16.733627" fuel_abs="17.123123" electricity_abs="0"
            CO_normed="87.617274" CO2_normed="3379.562886" HC_normed="0.477258" PMx_normed="0.061364" NOx_normed="1.419709" fuel_normed="1.452755" electricity_normed="0"
            traveltime="1.51" CO_perVeh="112.789251" CO2_perVeh="4350.493348" HC_perVeh="0.614371" PMx_perVeh="0.078993" NOx_perVeh="1.827584" fuel_perVeh="1.870123" electricity_perVeh="0"/>
        <edge id=":1110673417_0" sampledSeconds="29.63" CO_abs="499.164008" CO2_abs="54749.567099" HC_abs="3.549353" PMx_abs="0.822575" NOx_abs="20.987457" fuel_abs="23.534473" electricity_abs="0"
            CO_normed="1365.784838" CO2_normed="149802.725167" HC_normed="9.711541" PMx_normed="2.250684" NOx_normed="57.424715" fuel_normed="64.393718" electricity_normed="0"
            traveltime="0.02" CO_perVeh="0.370486" CO2_perVeh="40.635862" HC_perVeh="0.002634" PMx_perVeh="0.000611" NOx_perVeh="0.015577" fuel_perVeh="0.017468" electricity_perVeh="0"/>
        <edge id=":1110673446_0" sampledSeconds="333.62" CO_abs="3017.127148" CO2_abs="239708.036674" HC_abs="19.401943" PMx_abs="4.439165" NOx_abs="98.321547" fuel_abs="103.039442" electricity_abs="0"
            CO_normed="7704.942706" CO2_normed="612150.764010" HC_normed="49.547417" PMx_normed="11.336450" NOx_normed="251.087160" fuel_normed="263.135413" electricity_normed="0"
            traveltime="0.02" CO_perVeh="0.205992" CO2_perVeh="16.365877" HC_perVeh="0.001325" PMx_perVeh="0.000303" NOx_perVeh="0.006713" fuel_perVeh="0.007035" electricity_perVeh="0"/>
        <edge id=":1110673451_0" sampledSeconds="37.10" CO_abs="418.447895" CO2_abs="28526.614691" HC_abs="2.564623" PMx_abs="0.445008" NOx_abs="11.339210" fuel_abs="12.262438" electricity_abs="0"
            CO_normed="1187.338851" CO2_normed="80943.788581" HC_normed="7.277076" PMx_normed="1.262702" NOx_normed="32.174816" fuel_normed="34.794462" electricity_normed="0"
            traveltime="0.03" CO_perVeh="0.300082" CO2_perVeh="20.457333" HC_perVeh="0.001839" PMx_perVeh="0.000319" NOx_perVeh="0.008132" fuel_perVeh="0.008794" electricity_perVeh="0"/>
        <edge id=":1110673464_0" sampledSeconds="321.13" CO_abs="545.365045" CO2_abs="41890.458883" HC_abs="3.438219" PMx_abs="0.566847" NOx_abs="15.995287" fuel_abs="18.007098" electricity_abs="0"
            CO_normed="29.590320" CO2_normed="2272.885075" HC_normed="0.186550" PMx_normed="0.030756" NOx_normed="0.867869" fuel_normed="0.977026" electricity_normed="0"
            traveltime="1.16" CO_perVeh="1.971423" CO2_perVeh="151.428482" HC_perVeh="0.012429" PMx_perVeh="0.002049" NOx_perVeh="0.057821" fuel_perVeh="0.065093" electricity_perVeh="0"/>
        <edge id=":1110673464_1" sampledSeconds="709.62" CO_abs="16049.950315" CO2_abs="2055033.999181" HC_abs="122.310993" PMx_abs="36.491314" NOx_abs="770.968381" fuel_abs="883.364834" electricity_abs="0"
            CO_normed="853.309867" CO2_normed="109257.708161" HC_normed="6.502773" PMx_normed="1.940093" NOx_normed="40.989219" fuel_normed="46.964876" electricity_normed="0"
            traveltime="0.70" CO_perVeh="15.838261" CO2_perVeh="2027.929262" HC_perVeh="0.120698" PMx_perVeh="0.036010" NOx_perVeh="0.760800" fuel_perVeh="0.871714" electricity_perVeh="0"/>
        <edge id=":1110673479_0" sampledSeconds="133.53" CO_abs="6862.568146" CO2_abs="470165.754101" HC_abs="42.311621" PMx_abs="8.333246" NOx_abs="193.069877" fuel_abs="202.103721" electricity_abs="0"
            CO_normed="17525.179346" CO2_normed="1200678.665505" HC_normed="108.052660" PMx_normed="21.280901" NOx_normed="493.049270" fuel_normed="516.119314" electricity_normed="0"
            traveltime="0.03" CO_perVeh="1.445664" CO2_perVeh="99.044819" HC_perVeh="0.008913" PMx_perVeh="0.001755" NOx_perVeh="0.040672" fuel_perVeh="0.042575" electricity_perVeh="0"/>
        <edge id=":1110673511_0" sampledSeconds="11.75" CO_abs="160.349372" CO2_abs="21006.259144" HC_abs="1.210864" PMx_abs="0.266699" NOx_abs="7.713231" fuel_abs="9.029733" electricity_abs="0"
            CO_normed="409.489778" CO2_normed="53644.415774" HC_normed="3.092225" PMx_normed="0.681079" NOx_normed="19.697547" fuel_normed="23.059544" electricity_normed="0"
            traveltime="0.02" CO_perVeh="0.317524" CO2_perVeh="41.596553" HC_perVeh="0.002398" PMx_perVeh="0.000528" NOx_perVeh="0.015274" fuel_perVeh="0.017881" electricity_perVeh="0"/>
        <edge id=":1110673517_0" sampledSeconds="16.88" CO_abs="771.272563" CO2_abs="54440.317259" HC_abs="4.798692" PMx_abs="0.986750" NOx_abs="22.443576" fuel_abs="23.401467" electricity_abs="0"
            CO_normed="1969.625614" CO2_normed="139026.134733" HC_normed="12.254586" PMx_normed="2.519898" NOx_normed="57.314943" fuel_normed="59.761141" electricity_normed="0"
            traveltime="0.03" CO_perVeh="1.238329" CO2_perVeh="87.407520" HC_perVeh="0.007705" PMx_perVeh="0.001584" NOx_perVeh="0.036035" fuel_perVeh="0.037573" electricity_perVeh="0"/>
        <edge id=":1110673534_0" sampledSeconds="475.48" CO_abs="3041.147786" CO2_abs="266250.064531" HC_abs="19.921364" PMx_abs="3.515680" NOx_abs="100.565273" fuel_abs="114.450492" electricity_abs="0"
            CO_normed="150.509400" CO2_normed="13176.978008" HC_normed="0.985928" PMx_normed="0.173994" NOx_normed="4.977074" fuel_normed="5.664268" electricity_normed="0"
            traveltime="1.43" CO_perVeh="9.161759" CO2_perVeh="802.104732" HC_perVeh="0.060015" PMx_perVeh="0.010591" NOx_perVeh="0.302963" fuel_perVeh="0.344793" electricity_perVeh="0"/>
        <edge id=":1110673534_1" sampledSeconds="183.85" CO_abs="2901.479946" CO2_abs="373324.076468" HC_abs="21.720838" PMx_abs="5.052291" NOx_abs="138.859285" fuel_abs="160.476354" electricity_abs="0"
            CO_normed="139.628337" CO2_normed="17965.528260" HC_normed="1.045275" PMx_normed="0.243132" NOx_normed="6.682345" fuel_normed="7.722627" electricity_normed="0"
            traveltime="1.22" CO_perVeh="19.264785" CO2_perVeh="2478.737842" HC_perVeh="0.144219" PMx_perVeh="0.033545" NOx_perVeh="0.921976" fuel_perVeh="1.065505" electricity_perVeh="0"/>
        <edge id=":1110673549_0" sampledSeconds="59.52" CO_abs="37.446490" CO2_abs="5073.586495" HC_abs="0.284412" PMx_abs="0.051987" NOx_abs="1.790746" fuel_abs="2.180945" electricity_abs="0"
            CO_normed="1.795277" CO2_normed="243.240199" HC_normed="0.013635" PMx_normed="0.002492" NOx_normed="0.085853" fuel_normed="0.104560" electricity_normed="0"
            traveltime="1.24" CO_perVeh="0.780166" CO2_perVeh="105.703853" HC_perVeh="0.005925" PMx_perVeh="0.001083" NOx_perVeh="0.037309" fuel_perVeh="0.045438" electricity_perVeh="0"/>
        <edge id=":1110673549_1" sampledSeconds="639.10" CO_abs="13013.361876" CO2_abs="1795065.343404" HC_abs="101.884863" PMx_abs="31.134986" NOx_abs="665.549348" fuel_abs="771.616771" electricity_abs="0"
            CO_normed="603.498951" CO2_normed="83246.747624" HC_normed="4.724944" PMx_normed="1.443895" NOx_normed="30.865071" fuel_normed="35.783982" electricity_normed="0"
            traveltime="0.80" CO_perVeh="16.387918" CO2_perVeh="2260.552204" HC_perVeh="0.128305" PMx_perVeh="0.039209" NOx_perVeh="0.838136" fuel_perVeh="0.971708" electricity_perVeh="0"/>
        <edge id=":1110673556_0" sampledSeconds="417.50" CO_abs="51732.649528" CO2_abs="2591996.330609" HC_abs="297.216037" PMx_abs="52.430054" NOx_abs="1117.207954" fuel_abs="1114.186849" electricity_abs="0"
            CO_normed="1839.138784" CO2_normed="92147.628687" HC_normed="10.566278" PMx_normed="1.863932" NOx_normed="39.717673" fuel_normed="39.610271" electricity_normed="0"
            traveltime="2.59" CO_perVeh="321.131063" CO2_perVeh="16089.849327" HC_perVeh="1.844972" PMx_perVeh="0.325460" NOx_perVeh="6.935082" fuel_perVeh="6.916329" electricity_perVeh="0"/>
        <edge id=":1110673556_2" sampledSeconds="247.62" CO_abs="23798.481345" CO2_abs="1031452.619037" HC_abs="132.566042" PMx_abs="19.768416" NOx_abs="439.097574" fuel_abs="443.381019" electricity_abs="0"
            CO_normed="884.643535" CO2_normed="38341.433568" HC_normed="4.927780" PMx_normed="0.734837" NOx_normed="16.322253" fuel_normed="16.481478" electricity_normed="0"
            traveltime="3.00" CO_perVeh="288.671018" CO2_perVeh="12511.322613" HC_perVeh="1.608001" PMx_perVeh="0.239787" NOx_perVeh="5.326169" fuel_perVeh="5.378127" electricity_perVeh="0"/>
        <edge id=":1110673556_3" sampledSeconds="417.75" CO_abs="35800.562250" CO2_abs="1269858.055357" HC_abs="192.563185" PMx_abs="24.214061" NOx_abs="541.444774" fuel_abs="545.867744" electricity_abs="0"
            CO_normed="3027.322616" CO2_normed="107380.157426" HC_normed="16.283289" PMx_normed="2.047559" NOx_normed="45.784980" fuel_normed="46.158989" electricity_normed="0"
            traveltime="1.75" CO_perVeh="149.597630" CO2_perVeh="5306.278558" HC_perVeh="0.804652" PMx_perVeh="0.101182" NOx_perVeh="2.262502" fuel_perVeh="2.280984" electricity_perVeh="0"/>
        <edge id=":1110673556_4" sampledSeconds="197.00" CO_abs="20527.250365" CO2_abs="821889.583632" HC_abs="112.741917" PMx_abs="15.978424" NOx_abs="351.857444" fuel_abs="353.299030" electricity_abs="0"
            CO_normed="1060.441424" CO2_normed="42458.962820" HC_normed="5.824268" PMx_normed="0.825448" NOx_normed="18.177018" fuel_normed="18.251491" electricity_normed="0"
            traveltime="2.41" CO_perVeh="250.765365" CO2_perVeh="10040.382323" HC_perVeh="1.377280" PMx_perVeh="0.195196" NOx_perVeh="4.298367" fuel_perVeh="4.315978" electricity_perVeh="0"/>
        <edge id=":1110673556_5" sampledSeconds="24.63" CO_abs="2216.404834" CO2_abs="89170.132857" HC_abs="12.183278" PMx_abs="1.732916" NOx_abs="38.178243" fuel_abs="38.330835" electricity_abs="0"
            CO_normed="159.589574" CO2_normed="6420.588573" HC_normed="0.877242" PMx_normed="0.124777" NOx_normed="2.748979" fuel_normed="2.759966" electricity_normed="0"
            traveltime="1.70" CO_perVeh="153.232927" CO2_perVeh="6164.848691" HC_perVeh="0.842301" PMx_perVeh="0.119807" NOx_perVeh="2.639483" fuel_perVeh="2.650033" electricity_perVeh="0"/>
        <edge id=":1110673556_6" sampledSeconds="498.93" CO_abs="59052.004028" CO2_abs="2847500.930235" HC_abs="336.488108" PMx_abs="57.303554" NOx_abs="1226.032446" fuel_abs="1224.019487" electricity_abs="0"
            CO_normed="2152.281064" CO2_normed="103783.477514" HC_normed="12.264054" PMx_normed="2.088555" NOx_normed="44.685468" fuel_normed="44.612101" electricity_normed="0"
            traveltime="2.68" CO_perVeh="316.890592" CO2_perVeh="15280.535699" HC_perVeh="1.805695" PMx_perVeh="0.307508" NOx_perVeh="6.579254" fuel_perVeh="6.568452" electricity_perVeh="0"/>
        <edge id=":1110673561_0" sampledSeconds="100.17" CO_abs="10500.085014" CO2_abs="741878.449860" HC_abs="65.678412" PMx_abs="15.162455" NOx_abs="314.885293" fuel_abs="318.898067" electricity_abs="0"
            CO_normed="480.832628" CO2_normed="33972.997771" HC_normed="3.007625" PMx_normed="0.694338" NOx_normed="14.419609" fuel_normed="14.603367" electricity_normed="0"
            traveltime="1.18" CO_perVeh="123.911195" CO2_perVeh="8754.885775" HC_perVeh="0.775069" PMx_perVeh="0.178932" NOx_perVeh="3.715952" fuel_perVeh="3.763307" electricity_perVeh="0"/>
        <edge id=":1110673561_1" sampledSeconds="1315.11" CO_abs="120633.189704" CO2_abs="8341439.850709" HC_abs="751.088975" PMx_abs="174.570774" NOx_abs="3567.758444" fuel_abs="3585.581980" electricity_abs="0"
            CO_normed="5385.754879" CO2_normed="372409.537398" HC_normed="33.532904" PMx_normed="7.793837" NOx_normed="159.285123" fuel_normed="160.080867" electricity_normed="0"
            traveltime="1.19" CO_perVeh="109.464024" CO2_perVeh="7569.123980" HC_perVeh="0.681547" PMx_perVeh="0.158408" NOx_perVeh="3.237427" fuel_perVeh="3.253601" electricity_perVeh="0"/>
        <edge id=":1110673562_0" sampledSeconds="104.51" CO_abs="2087.579482" CO2_abs="169510.664771" HC_abs="13.356919" PMx_abs="2.196822" NOx_abs="63.955914" fuel_abs="72.866179" electricity_abs="0"
            CO_normed="5923.471609" CO2_normed="480983.655447" HC_normed="37.900033" PMx_normed="6.233445" NOx_normed="181.473829" fuel_normed="206.756555" electricity_normed="0"
            traveltime="0.03" CO_perVeh="0.532134" CO2_perVeh="43.209040" HC_perVeh="0.003405" PMx_perVeh="0.000560" NOx_perVeh="0.016303" fuel_perVeh="0.018574" electricity_perVeh="0"/>
        <edge id=":1110673564_0" sampledSeconds="28.63" CO_abs="455.936288" CO2_abs="50584.196500" HC_abs="3.243085" PMx_abs="0.719751" NOx_abs="19.163019" fuel_abs="21.744013" electricity_abs="0"
            CO_normed="3493.021147" CO2_normed="387535.874439" HC_normed="24.845938" PMx_normed="5.514162" NOx_normed="146.811807" fuel_normed="166.585329" electricity_normed="0"
            traveltime="7.872089e-03" CO_perVeh="0.125343" CO2_perVeh="13.906308" HC_perVeh="0.000892" PMx_perVeh="0.000198" NOx_perVeh="0.005268" fuel_perVeh="0.005978" electricity_perVeh="0"/>
        <edge id=":1110673588_0" sampledSeconds="11.67" CO_abs="172.963486" CO2_abs="21672.406022" HC_abs="1.283529" PMx_abs="0.293986" NOx_abs="8.077740" fuel_abs="9.316060" electricity_abs="0"
            CO_normed="530.043457" CO2_normed="66414.693918" HC_normed="3.933352" PMx_normed="0.900916" NOx_normed="24.754087" fuel_normed="28.548896" electricity_normed="0"
            traveltime="0.02" CO_perVeh="0.288272" CO2_perVeh="36.120677" HC_perVeh="0.002139" PMx_perVeh="0.000490" NOx_perVeh="0.013463" fuel_perVeh="0.015527" electricity_perVeh="0"/>
        <edge id=":1110673601_0" sampledSeconds="29.59" CO_abs="498.706122" CO2_abs="54254.703258" HC_abs="3.527843" PMx_abs="0.775469" NOx_abs="20.591664" fuel_abs="23.321811" electricity_abs="0"
            CO_normed="1364.531998" CO2_normed="148448.706207" HC_normed="9.652687" PMx_normed="2.121796" NOx_normed="56.341768" fuel_normed="63.811845" electricity_normed="0"
            traveltime="0.02" CO_perVeh="0.370156" CO2_perVeh="40.269643" HC_perVeh="0.002618" PMx_perVeh="0.000576" NOx_perVeh="0.015284" fuel_perVeh="0.017310" electricity_perVeh="0"/>
        <edge id=":1110673617_0" sampledSeconds="238.48" CO_abs="5888.865139" CO2_abs="712983.340213" HC_abs="43.848620" PMx_abs="12.835683" NOx_abs="269.924748" fuel_abs="306.478688" electricity_abs="0"
            CO_normed="15038.600057" CO2_normed="1820770.394246" HC_normed="111.977749" PMx_normed="32.778930" NOx_normed="689.316233" fuel_normed="782.665302" electricity_normed="0"
            traveltime="0.01" CO_perVeh="0.360743" CO2_perVeh="43.676270" HC_perVeh="0.002686" PMx_perVeh="0.000786" NOx_perVeh="0.016535" fuel_perVeh="0.018774" electricity_perVeh="0"/>
        <edge id=":1110673621_0" sampledSeconds="25.93" CO_abs="582.229306" CO2_abs="56916.096959" HC_abs="3.973001" PMx_abs="0.910731" NOx_abs="22.273970" fuel_abs="24.465727" electricity_abs="0"
            CO_normed="1784.231114" CO2_normed="174418.343522" HC_normed="12.175188" PMx_normed="2.790919" NOx_normed="68.258177" fuel_normed="74.974776" electricity_normed="0"
            traveltime="0.02" CO_perVeh="0.441083" CO2_perVeh="43.118255" HC_perVeh="0.003010" PMx_perVeh="0.000690" NOx_perVeh="0.016874" fuel_perVeh="0.018535" electricity_perVeh="0"/>
        <edge id=":1110673630_0" sampledSeconds="54.70" CO_abs="191.266169" CO2_abs="16091.562771" HC_abs="1.240575" PMx_abs="0.227509" NOx_abs="6.181366" fuel_abs="6.917116" electricity_abs="0"
            CO_normed="10.451706" CO2_normed="879.320637" HC_normed="0.067791" PMx_normed="0.012432" NOx_normed="0.337780" fuel_normed="0.377985" electricity_normed="0"
            traveltime="1.28" CO_perVeh="4.464491" CO2_perVeh="375.605538" HC_perVeh="0.028957" PMx_perVeh="0.005310" NOx_perVeh="0.144284" fuel_perVeh="0.161458" electricity_perVeh="0"/>
        <edge id=":1110673630_1" sampledSeconds="7.42" CO_abs="26.187447" CO2_abs="2302.260217" HC_abs="0.171512" PMx_abs="0.028876" NOx_abs="0.857067" fuel_abs="0.989654" electricity_abs="0"
            CO_normed="1.744586" CO2_normed="153.374664" HC_normed="0.011426" PMx_normed="0.001924" NOx_normed="0.057097" fuel_normed="0.065930" electricity_normed="0"
            traveltime="1.05" CO_perVeh="3.706531" CO2_perVeh="325.858369" HC_perVeh="0.024276" PMx_perVeh="0.004087" NOx_perVeh="0.121308" fuel_perVeh="0.140074" electricity_perVeh="0"/>
        <edge id=":1110673650_0" sampledSeconds="143.24" CO_abs="2105.596871" CO2_abs="265981.936854" HC_abs="15.628321" PMx_abs="3.620819" NOx_abs="99.141060" fuel_abs="114.334461" electricity_abs="0"
            CO_normed="5377.136083" CO2_normed="679247.338209" HC_normed="39.910588" PMx_normed="9.246612" NOx_normed="253.179978" fuel_normed="291.979897" electricity_normed="0"
            traveltime="0.02" CO_perVeh="0.338893" CO2_perVeh="42.809423" HC_perVeh="0.002515" PMx_perVeh="0.000583" NOx_perVeh="0.015957" fuel_perVeh="0.018402" electricity_perVeh="0"/>
        <edge id=":1110673655_0" sampledSeconds="45.13" CO_abs="733.860411" CO2_abs="82813.050427" HC_abs="5.220350" PMx_abs="1.108037" NOx_abs="30.975423" fuel_abs="35.597925" electricity_abs="0"
            CO_normed="1874.084898" CO2_normed="211482.571849" HC_normed="13.331389" PMx_normed="2.829633" NOx_normed="79.103017" fuel_normed="90.907662" electricity_normed="0"
            traveltime="0.02" CO_perVeh="0.392754" CO2_perVeh="44.320605" HC_perVeh="0.002794" PMx_perVeh="0.000593" NOx_perVeh="0.016578" fuel_perVeh="0.019052" electricity_perVeh="0"/>
        <edge id=":1110673663_0" sampledSeconds="108.64" CO_abs="1741.474518" CO2_abs="201651.060792" HC_abs="12.503137" PMx_abs="2.825512" NOx_abs="75.926606" fuel_abs="86.681293" electricity_abs="0"
            CO_normed="81.451724" CO2_normed="9431.562984" HC_normed="0.584793" PMx_normed="0.132154" NOx_normed="3.551216" fuel_normed="4.054231" electricity_normed="0"
            traveltime="1.28" CO_perVeh="20.454440" CO2_perVeh="2368.486839" HC_perVeh="0.146855" PMx_perVeh="0.033187" NOx_perVeh="0.891794" fuel_perVeh="1.018113" electricity_perVeh="0"/>
        <edge id=":1110673663_1" sampledSeconds="154.26" CO_abs="2487.440657" CO2_abs="310467.686116" HC_abs="18.375442" PMx_abs="4.220857" NOx_abs="115.634761" fuel_abs="133.457055" electricity_abs="0"
            CO_normed="116.484056" CO2_normed="14538.853530" HC_normed="0.860501" PMx_normed="0.197658" NOx_normed="5.415046" fuel_normed="6.249644" electricity_normed="0"
            traveltime="1.25" CO_perVeh="20.144206" CO2_perVeh="2514.281158" HC_perVeh="0.148811" PMx_perVeh="0.034182" NOx_perVeh="0.936453" fuel_perVeh="1.080784" electricity_perVeh="0"/>
        <edge id=":1110673666_0" sampledSeconds="191.17" CO_abs="4062.492218" CO2_abs="334424.779052" HC_abs="26.126474" PMx_abs="4.478362" NOx_abs="127.074201" fuel_abs="143.756211" electricity_abs="0"