<?xml version="1.0" encoding="UTF-8"?>

<!-- generated on Sat Oct 31 23:53:36 2020 by Eclipse SUMO sumo Version 1.7.0
<configuration xmlns:xsi="http://www.w3.org/2001/XMLSchema-instance" xsi:noNamespaceSchemaLocation="http://sumo.dlr.de/xsd/sumoConfiguration.xsd">

    <input>
        <net-file value="../dataSets/Porto/8AM9AM_Routing_SaoBento/Porto.net.xml"/>
        <route-files value="../results/Porto/8AM9AM_Routing_SaoBento_fewerv/cost_co-ttime/solution1/Porto.rou.xml"/>
        <additional-files value="moreOutputInfo.xml"/>
    </input>

    <output>
        <emission-output.precision value="6"/>
        <tripinfo-output value="../results/Porto/8AM9AM_Routing_SaoBento_fewerv/cost_co-ttime/solution1/Porto-tripinfo"/>
    </output>

    <processing>
        <collision.action value="warn"/>
        <time-to-teleport value="-1"/>
    </processing>

    <emissions>
        <device.emissions.probability value="1"/>
    </emissions>

    <gui_only>
        <quit-on-end value="true"/>
        <start value="true"/>
    </gui_only>

</configuration>
-->

<meandata xmlns:xsi="http://www.w3.org/2001/XMLSchema-instance" xsi:noNamespaceSchemaLocation="http://sumo.dlr.de/xsd/meandata_file.xsd">
    <interval begin="0.00" end="8661.00" id="emissions-detector">
        <edge id=":1092997347_0" sampledSeconds="606.75" CO_abs="74190.091863" CO2_abs="3116572.418733" HC_abs="411.510297" PMx_abs="63.065070" NOx_abs="1348.815323" fuel_abs="1339.689031" electricity_abs="0"
            CO_normed="70085.422297" CO2_normed="2944143.734043" HC_normed="388.742920" PMx_normed="59.575907" NOx_normed="1274.190247" fuel_normed="1265.568880" electricity_normed="0"
            traveltime="0.07" CO_perVeh="8.504710" CO2_perVeh="357.265292" HC_perVeh="0.047173" PMx_perVeh="0.007229" NOx_perVeh="0.154620" fuel_perVeh="0.153574" electricity_perVeh="0"/>
        <edge id=":1103427051_0" sampledSeconds="19.44" CO_abs="1597.476811" CO2_abs="90293.079870" HC_abs="9.417644" PMx_abs="1.768900" NOx_abs="38.498902" fuel_abs="38.812998" electricity_abs="0"
            CO_normed="2289.660157" CO2_normed="129416.881674" HC_normed="13.498290" PMx_normed="2.535361" NOx_normed="55.180395" fuel_normed="55.630589" electricity_normed="0"
            traveltime="0.03" CO_perVeh="2.484279" CO2_perVeh="140.417166" HC_perVeh="0.014646" PMx_perVeh="0.002751" NOx_perVeh="0.059871" fuel_perVeh="0.060359" electricity_perVeh="0"/>
        <edge id=":1105984386_0" sampledSeconds="10.49" CO_abs="313.652020" CO2_abs="21173.423734" HC_abs="1.912211" PMx_abs="0.303442" NOx_abs="8.244429" fuel_abs="9.101642" electricity_abs="0"
            CO_normed="13.426516" CO2_normed="906.371667" HC_normed="0.081856" PMx_normed="0.012989" NOx_normed="0.352920" fuel_normed="0.389614" electricity_normed="0"
            traveltime="1.01" CO_perVeh="30.088531" CO2_perVeh="2031.159301" HC_perVeh="0.183438" PMx_perVeh="0.029109" NOx_perVeh="0.790885" fuel_perVeh="0.873117" electricity_perVeh="0"/>
        <edge id=":1105984390_0" sampledSeconds="10.44" CO_abs="7.502261" CO2_abs="458.307003" HC_abs="0.044496" PMx_abs="0.005998" NOx_abs="0.175445" fuel_abs="0.197010" electricity_abs="0"
            CO_normed="0.248277" CO2_normed="15.167057" HC_normed="0.001473" PMx_normed="0.000198" NOx_normed="0.005806" fuel_normed="0.006520" electricity_normed="0"
            traveltime="1.08" CO_perVeh="0.777654" CO2_perVeh="47.506280" HC_perVeh="0.004612" PMx_perVeh="0.000622" NOx_perVeh="0.018186" fuel_perVeh="0.020421" electricity_perVeh="0"/>
        <edge id=":1105984390_1" sampledSeconds="2395.54" CO_abs="64258.312157" CO2_abs="7596079.585142" HC_abs="474.561059" PMx_abs="137.508552" NOx_abs="2893.761178" fuel_abs="3265.203516" electricity_abs="0"
            CO_normed="2034.225294" CO2_normed="240469.080271" HC_normed="15.023179" PMx_normed="4.353108" NOx_normed="91.607793" fuel_normed="103.366543" electricity_normed="0"
            traveltime="0.65" CO_perVeh="17.349456" CO2_perVeh="2050.907465" HC_perVeh="0.128129" PMx_perVeh="0.037127" NOx_perVeh="0.781303" fuel_perVeh="0.881590" electricity_perVeh="0"/>
        <edge id=":1105984395_0" sampledSeconds="4.16" CO_abs="94.174001" CO2_abs="6098.670601" HC_abs="0.567998" PMx_abs="0.087091" NOx_abs="2.376240" fuel_abs="2.621588" electricity_abs="0"
            CO_normed="42.547854" CO2_normed="2755.381968" HC_normed="0.256622" PMx_normed="0.039348" NOx_normed="1.073586" fuel_normed="1.184434" electricity_normed="0"
            traveltime="0.10" CO_perVeh="2.182920" CO2_perVeh="141.365003" HC_perVeh="0.013166" PMx_perVeh="0.002019" NOx_perVeh="0.055080" fuel_perVeh="0.060767" electricity_perVeh="0"/>
        <edge id=":1105984398_0" sampledSeconds="10.74" CO_abs="585.225548" CO2_abs="41512.921909" HC_abs="3.631250" PMx_abs="0.678033" NOx_abs="16.664467" fuel_abs="17.844663" electricity_abs="0"
            CO_normed="20.120160" CO2_normed="1427.221777" HC_normed="0.124843" PMx_normed="0.023311" NOx_normed="0.572927" fuel_normed="0.613503" electricity_normed="0"
            traveltime="1.15" CO_perVeh="62.655879" CO2_perVeh="4444.489148" HC_perVeh="0.388772" PMx_perVeh="0.072592" NOx_perVeh="1.784144" fuel_perVeh="1.910499" electricity_perVeh="0"/>
        <edge id=":1105984398_1" sampledSeconds="645.24" CO_abs="12121.264464" CO2_abs="1392350.514226" HC_abs="87.307558" PMx_abs="20.184761" NOx_abs="528.520062" fuel_abs="598.511950" electricity_abs="0"
            CO_normed="403.385191" CO2_normed="46336.220125" HC_normed="2.905520" PMx_normed="0.671731" NOx_normed="17.588690" fuel_normed="19.917960" electricity_normed="0"
            traveltime="0.95" CO_perVeh="17.927235" CO2_perVeh="2059.273193" HC_perVeh="0.129127" PMx_perVeh="0.029853" NOx_perVeh="0.781676" fuel_perVeh="0.885193" electricity_perVeh="0"/>
        <edge id=":1106006327_0" sampledSeconds="67.76" CO_abs="9057.780671" CO2_abs="292170.280488" HC_abs="48.114871" PMx_abs="6.072791" NOx_abs="127.765491" fuel_abs="125.593767" electricity_abs="0"
            CO_normed="424.935036" CO2_normed="13706.822152" HC_normed="2.257252" PMx_normed="0.284898" NOx_normed="5.993966" fuel_normed="5.892083" electricity_normed="0"
            traveltime="2.10" CO_perVeh="280.787715" CO2_perVeh="9057.166247" HC_perVeh="1.491542" PMx_perVeh="0.188254" NOx_perVeh="3.960681" fuel_perVeh="3.893358" electricity_perVeh="0"/>
        <edge id=":1106006327_1" sampledSeconds="682.92" CO_abs="92315.200695" CO2_abs="3083530.132456" HC_abs="493.011692" PMx_abs="64.298436" NOx_abs="1349.348977" fuel_abs="1325.498493" electricity_abs="0"
            CO_normed="3776.712906" CO2_normed="126150.492670" HC_normed="20.169632" PMx_normed="2.630517" NOx_normed="55.203300" fuel_normed="54.227551" electricity_normed="0"
            traveltime="2.29" CO_perVeh="309.880053" CO2_perVeh="10350.673274" HC_perVeh="1.654922" PMx_perVeh="0.215834" NOx_perVeh="4.529442" fuel_perVeh="4.449381" electricity_perVeh="0"/>
        <edge id=":1106006327_2" sampledSeconds="0.00" CO_abs="0" CO2_abs="0" HC_abs="0" PMx_abs="0" NOx_abs="0" fuel_abs="0" electricity_abs="0"
            CO_normed="0" CO2_normed="0" HC_normed="0" PMx_normed="0" NOx_normed="0" fuel_normed="0" electricity_normed="0"/>
        <edge id=":1106006327_3" sampledSeconds="0.00" CO_abs="0" CO2_abs="0" HC_abs="0" PMx_abs="0" NOx_abs="0" fuel_abs="0" electricity_abs="0"
            CO_normed="0" CO2_normed="0" HC_normed="0" PMx_normed="0" NOx_normed="0" fuel_normed="0" electricity_normed="0"/>
        <edge id=":1107381198_0" sampledSeconds="0.00" CO_abs="0" CO2_abs="0" HC_abs="0" PMx_abs="0" NOx_abs="0" fuel_abs="0" electricity_abs="0"
            CO_normed="0" CO2_normed="0" HC_normed="0" PMx_normed="0" NOx_normed="0" fuel_normed="0" electricity_normed="0"/>
        <edge id=":1107381198_1" sampledSeconds="104.97" CO_abs="4927.857358" CO2_abs="191451.779755" HC_abs="26.841143" PMx_abs="3.300678" NOx_abs="79.313145" fuel_abs="82.298590" electricity_abs="0"
            CO_normed="223.369182" CO2_normed="8678.097685" HC_normed="1.216651" PMx_normed="0.149613" NOx_normed="3.595094" fuel_normed="3.730418" electricity_normed="0"
            traveltime="1.57" CO_perVeh="73.779474" CO2_perVeh="2866.400242" HC_perVeh="0.401863" PMx_perVeh="0.049417" NOx_perVeh="1.187470" fuel_perVeh="1.232168" electricity_perVeh="0"/>
        <edge id=":1110338277_0" sampledSeconds="160.11" CO_abs="2435.835636" CO2_abs="311596.443620" HC_abs="18.240716" PMx_abs="4.163106" NOx_abs="115.679735" fuel_abs="133.942327" electricity_abs="0"
            CO_normed="3615.966604" CO2_normed="462560.903984" HC_normed="27.078107" PMx_normed="6.180078" NOx_normed="171.725075" fuel_normed="198.835658" electricity_normed="0"
            traveltime="0.02" CO_perVeh="0.329911" CO2_perVeh="42.202747" HC_perVeh="0.002471" PMx_perVeh="0.000564" NOx_perVeh="0.015668" fuel_perVeh="0.018141" electricity_perVeh="0"/>
        <edge id=":1110338293_0" sampledSeconds="6861.06" CO_abs="666082.101928" CO2_abs="11565956.432960" HC_abs="3303.534319" PMx_abs="276.966264" NOx_abs="5233.459699" fuel_abs="4972.013041" electricity_abs="0"
            CO_normed="922870.941363" CO2_normed="16024879.020382" HC_normed="4577.117172" PMx_normed="383.742659" NOx_normed="7251.069898" fuel_normed="6888.829984" electricity_normed="0"
            traveltime="0.46" CO_perVeh="44.520037" CO2_perVeh="773.053069" HC_perVeh="0.220804" PMx_perVeh="0.018512" NOx_perVeh="0.349797" fuel_perVeh="0.332323" electricity_perVeh="0"/>
        <edge id=":1110338295_0" sampledSeconds="0.00" CO_abs="0" CO2_abs="0" HC_abs="0" PMx_abs="0" NOx_abs="0" fuel_abs="0" electricity_abs="0"
            CO_normed="0" CO2_normed="0" HC_normed="0" PMx_normed="0" NOx_normed="0" fuel_normed="0" electricity_normed="0"/>
        <edge id=":1110673403_0" sampledSeconds="200.93" CO_abs="3057.432703" CO2_abs="385451.119775" HC_abs="22.674543" PMx_abs="5.184067" NOx_abs="143.392834" fuel_abs="165.689335" electricity_abs="0"
            CO_normed="4236.138141" CO2_normed="534050.737479" HC_normed="31.416062" PMx_normed="7.182635" NOx_normed="198.673826" fuel_normed="229.566103" electricity_normed="0"
            traveltime="0.02" CO_perVeh="0.353365" CO2_perVeh="44.548806" HC_perVeh="0.002621" PMx_perVeh="0.000599" NOx_perVeh="0.016573" fuel_perVeh="0.019150" electricity_perVeh="0"/>
        <edge id=":1110673412_0" sampledSeconds="953.90" CO_abs="169507.576913" CO2_abs="11563742.350524" HC_abs="1054.820694" PMx_abs="254.205069" NOx_abs="4969.529684" fuel_abs="4970.683231" electricity_abs="0"
            CO_normed="242954.853858" CO2_normed="16574287.615863" HC_normed="1511.872285" PMx_normed="364.351591" NOx_normed="7122.816456" fuel_normed="7124.469832" electricity_normed="0"
            traveltime="0.02" CO_perVeh="2.757253" CO2_perVeh="188.098769" HC_perVeh="0.017158" PMx_perVeh="0.004135" NOx_perVeh="0.080836" fuel_perVeh="0.080854" electricity_perVeh="0"/>
        <edge id=":1110673414_0" sampledSeconds="0.00" CO_abs="0" CO2_abs="0" HC_abs="0" PMx_abs="0" NOx_abs="0" fuel_abs="0" electricity_abs="0"
            CO_normed="0" CO2_normed="0" HC_normed="0" PMx_normed="0" NOx_normed="0" fuel_normed="0" electricity_normed="0"/>
        <edge id=":1110673414_1" sampledSeconds="56.94" CO_abs="4257.861130" CO2_abs="158784.094746" HC_abs="23.092029" PMx_abs="3.038971" NOx_abs="67.733490" fuel_abs="68.255551" electricity_abs="0"
            CO_normed="195.991937" CO2_normed="7308.928430" HC_normed="1.062940" PMx_normed="0.139886" NOx_normed="3.117814" fuel_normed="3.141845" electricity_normed="0"
            traveltime="1.62" CO_perVeh="121.311561" CO2_perVeh="4523.948935" HC_perVeh="0.657920" PMx_perVeh="0.086584" NOx_perVeh="1.929808" fuel_perVeh="1.944682" electricity_perVeh="0"/>
        <edge id=":1110673417_0" sampledSeconds="28.69" CO_abs="350.373438" CO2_abs="50905.859581" HC_abs="2.745326" PMx_abs="0.654625" NOx_abs="18.636969" fuel_abs="21.882313" electricity_abs="0"
            CO_normed="520.124853" CO2_normed="75569.092357" HC_normed="4.075402" PMx_normed="0.971783" NOx_normed="27.666340" fuel_normed="32.484012" electricity_normed="0"
            traveltime="0.02" CO_perVeh="0.267177" CO2_perVeh="38.818161" HC_perVeh="0.002093" PMx_perVeh="0.000499" NOx_perVeh="0.014212" fuel_perVeh="0.016686" electricity_perVeh="0"/>
        <edge id=":1110673446_0" sampledSeconds="1326.48" CO_abs="13412.758784" CO2_abs="1089405.476666" HC_abs="86.855762" PMx_abs="19.882267" NOx_abs="444.954531" fuel_abs="468.285436" electricity_abs="0"
            CO_normed="18583.663020" CO2_normed="1509394.494862" HC_normed="120.340509" PMx_normed="27.547304" NOx_normed="616.493981" fuel_normed="648.819447" electricity_normed="0"
            traveltime="0.02" CO_perVeh="0.230101" CO2_perVeh="18.689199" HC_perVeh="0.001490" PMx_perVeh="0.000341" NOx_perVeh="0.007633" fuel_perVeh="0.008034" electricity_perVeh="0"/>
        <edge id=":1110673451_0" sampledSeconds="35.93" CO_abs="152.891072" CO2_abs="12475.289314" HC_abs="0.979159" PMx_abs="0.159039" NOx_abs="4.687966" fuel_abs="5.362655" electricity_abs="0"
            CO_normed="235.370930" CO2_normed="19205.310108" HC_normed="1.507384" PMx_normed="0.244836" NOx_normed="7.216974" fuel_normed="8.255637" electricity_normed="0"
            traveltime="0.03" CO_perVeh="0.112647" CO2_perVeh="9.191530" HC_perVeh="0.000721" PMx_perVeh="0.000117" NOx_perVeh="0.003454" fuel_perVeh="0.003951" electricity_perVeh="0"/>
        <edge id=":1110673464_0" sampledSeconds="1028.76" CO_abs="3489.356810" CO2_abs="266969.216404" HC_abs="21.962876" PMx_abs="3.590136" NOx_abs="101.772229" fuel_abs="114.759850" electricity_abs="0"
            CO_normed="102.717667" CO2_normed="7858.885334" HC_normed="0.646530" PMx_normed="0.105684" NOx_normed="2.995912" fuel_normed="3.378234" electricity_normed="0"
            traveltime="1.22" CO_perVeh="4.137889" CO2_perVeh="316.588127" HC_perVeh="0.026045" PMx_perVeh="0.004257" NOx_perVeh="0.120688" fuel_perVeh="0.136089" electricity_perVeh="0"/>
        <edge id=":1110673464_1" sampledSeconds="2597.65" CO_abs="64447.982962" CO2_abs="7737753.086352" HC_abs="478.292065" PMx_abs="139.051673" NOx_abs="2941.157121" fuel_abs="3326.103033" electricity_abs="0"
            CO_normed="1859.001803" CO2_normed="223195.455943" HC_normed="13.796333" PMx_normed="4.010945" NOx_normed="84.837665" fuel_normed="95.941428" electricity_normed="0"
            traveltime="0.72" CO_perVeh="17.769881" CO2_perVeh="2133.487215" HC_perVeh="0.131877" PMx_perVeh="0.038340" NOx_perVeh="0.810949" fuel_perVeh="0.917088" electricity_perVeh="0"/>
        <edge id=":1110673479_0" sampledSeconds="134.84" CO_abs="6455.665132" CO2_abs="447531.107113" HC_abs="39.883728" PMx_abs="7.690231" NOx_abs="182.090222" fuel_abs="192.374392" electricity_abs="0"
            CO_normed="8944.461562" CO2_normed="620063.882387" HC_normed="55.259755" PMx_normed="10.654979" NOx_normed="252.289882" fuel_normed="266.538818" electricity_normed="0"
            traveltime="0.03" CO_perVeh="1.364793" CO2_perVeh="94.612621" HC_perVeh="0.008432" PMx_perVeh="0.001626" NOx_perVeh="0.038496" fuel_perVeh="0.040670" electricity_perVeh="0"/>
        <edge id=":1110673511_0" sampledSeconds="63.09" CO_abs="1332.483964" CO2_abs="137516.499569" HC_abs="9.239833" PMx_abs="2.006922" NOx_abs="52.610852" fuel_abs="59.112526" electricity_abs="0"
            CO_normed="1846.184917" CO2_normed="190532.039582" HC_normed="12.801986" PMx_normed="2.780633" NOx_normed="72.893456" fuel_normed="81.901664" electricity_normed="0"
            traveltime="0.02" CO_perVeh="0.510693" CO2_perVeh="52.705142" HC_perVeh="0.003541" PMx_perVeh="0.000769" NOx_perVeh="0.020164" fuel_perVeh="0.022656" electricity_perVeh="0"/>
        <edge id=":1110673517_0" sampledSeconds="182.99" CO_abs="7703.126634" CO2_abs="554856.993772" HC_abs="48.065182" PMx_abs="9.401414" NOx_abs="224.507582" fuel_abs="238.509165" electricity_abs="0"
            CO_normed="10672.846047" CO2_normed="768766.184651" HC_normed="66.595333" PMx_normed="13.025859" NOx_normed="311.060038" fuel_normed="330.459529" electricity_normed="0"
            traveltime="0.03" CO_perVeh="1.179411" CO2_perVeh="84.953097" HC_perVeh="0.007359" PMx_perVeh="0.001439" NOx_perVeh="0.034374" fuel_perVeh="0.036518" electricity_perVeh="0"/>
        <edge id=":1110673534_0" sampledSeconds="735.90" CO_abs="5360.892844" CO2_abs="443992.755563" HC_abs="34.570816" PMx_abs="6.161031" NOx_abs="169.936733" fuel_abs="190.854883" electricity_abs="0"
            CO_normed="143.946342" CO2_normed="11921.732964" HC_normed="0.928267" PMx_normed="0.165431" NOx_normed="4.563003" fuel_normed="5.124680" electricity_normed="0"
            traveltime="1.45" CO_perVeh="10.572568" CO2_perVeh="875.627176" HC_perVeh="0.068179" PMx_perVeh="0.012151" NOx_perVeh="0.335143" fuel_perVeh="0.376397" electricity_perVeh="0"/>
        <edge id=":1110673534_1" sampledSeconds="199.87" CO_abs="3145.334082" CO2_abs="399076.878299" HC_abs="23.352326" PMx_abs="5.383507" NOx_abs="148.373247" fuel_abs="171.546450" electricity_abs="0"
            CO_normed="82.121747" CO2_normed="10419.526059" HC_normed="0.609708" PMx_normed="0.140558" NOx_normed="3.873887" fuel_normed="4.478918" electricity_normed="0"
            traveltime="1.22" CO_perVeh="19.226438" CO2_perVeh="2439.431391" HC_perVeh="0.142745" PMx_perVeh="0.032908" NOx_perVeh="0.906959" fuel_perVeh="1.048609" electricity_perVeh="0"/>
        <edge id=":1110673549_0" sampledSeconds="656.54" CO_abs="1642.941301" CO2_abs="150360.475027" HC_abs="10.898388" PMx_abs="2.170583" NOx_abs="57.340876" fuel_abs="64.633798" electricity_abs="0"
            CO_normed="42.734609" CO2_normed="3911.032062" HC_normed="0.283478" PMx_normed="0.056459" NOx_normed="1.491496" fuel_normed="1.681192" electricity_normed="0"
            traveltime="1.30" CO_perVeh="3.264133" CO2_perVeh="298.730411" HC_perVeh="0.021652" PMx_perVeh="0.004312" NOx_perVeh="0.113923" fuel_perVeh="0.128412" electricity_perVeh="0"/>
        <edge id=":1110673549_1" sampledSeconds="3194.64" CO_abs="72314.814494" CO2_abs="9405042.624060" HC_abs="553.601124" PMx_abs="165.802322" NOx_abs="3520.530419" fuel_abs="4042.797058" electricity_abs="0"
            CO_normed="1819.498474" CO2_normed="236638.382062" HC_normed="13.929046" PMx_normed="4.171719" NOx_normed="88.579356" fuel_normed="101.720002" electricity_normed="0"
            traveltime="0.81" CO_perVeh="18.242279" CO2_perVeh="2372.534798" HC_perVeh="0.139653" PMx_perVeh="0.041826" NOx_perVeh="0.888096" fuel_perVeh="1.019844" electricity_perVeh="0"/>
        <edge id=":1110673556_0" sampledSeconds="469.60" CO_abs="57373.337210" CO2_abs="2737120.224805" HC_abs="326.231050" PMx_abs="55.239645" NOx_abs="1179.834267" fuel_abs="1176.571768" electricity_abs="0"
            CO_normed="1106.616903" CO2_normed="52793.573717" HC_normed="6.292344" PMx_normed="1.065462" NOx_normed="22.756643" fuel_normed="22.693716" electricity_normed="0"
            traveltime="2.77" CO_perVeh="338.210306" CO2_perVeh="16135.060548" HC_perVeh="1.923101" PMx_perVeh="0.325632" NOx_perVeh="6.955010" fuel_perVeh="6.935777" electricity_perVeh="0"/>
        <edge id=":1110673556_2" sampledSeconds="171.56" CO_abs="16539.382260" CO2_abs="721289.173345" HC_abs="92.282250" PMx_abs="14.049213" NOx_abs="308.455956" fuel_abs="310.053495" electricity_abs="0"
            CO_normed="333.561375" CO2_normed="14546.746941" HC_normed="1.861121" PMx_normed="0.283340" NOx_normed="6.220849" fuel_normed="6.253067" electricity_normed="0"
            traveltime="2.97" CO_perVeh="285.989553" CO2_perVeh="12472.120497" HC_perVeh="1.595692" PMx_perVeh="0.242931" NOx_perVeh="5.333644" fuel_perVeh="5.361268" electricity_perVeh="0"/>
        <edge id=":1110673556_3" sampledSeconds="326.94" CO_abs="33288.713368" CO2_abs="1155392.490438" HC_abs="178.577468" PMx_abs="22.739671" NOx_abs="497.185798" fuel_abs="496.662518" electricity_abs="0"
            CO_normed="1527.225878" CO2_normed="53007.314839" HC_normed="8.192811" PMx_normed="1.043255" NOx_normed="22.809984" fuel_normed="22.785977" electricity_normed="0"
            traveltime="1.82" CO_perVeh="185.075751" CO2_perVeh="6423.652698" HC_perVeh="0.992840" PMx_perVeh="0.126426" NOx_perVeh="2.764211" fuel_perVeh="2.761302" electricity_perVeh="0"/>
        <edge id=":1110673556_4" sampledSeconds="65.47" CO_abs="7877.998974" CO2_abs="301100.393238" HC_abs="42.952412" PMx_abs="6.015508" NOx_abs="129.969582" fuel_abs="129.431648" electricity_abs="0"
            CO_normed="220.805167" CO2_normed="8439.265185" HC_normed="1.203874" PMx_normed="0.168603" NOx_normed="3.642798" fuel_normed="3.627720" electricity_normed="0"
            traveltime="2.61" CO_perVeh="314.044204" CO2_perVeh="12002.899929" HC_perVeh="1.712231" PMx_perVeh="0.239799" NOx_perVeh="5.181036" fuel_perVeh="5.159592" electricity_perVeh="0"/>
        <edge id=":1110673556_5" sampledSeconds="22.09" CO_abs="1551.082137" CO2_abs="69379.080971" HC_abs="8.677320" PMx_abs="1.254136" NOx_abs="29.062090" fuel_abs="29.823417" electricity_abs="0"
            CO_normed="60.593722" CO2_normed="2710.325036" HC_normed="0.338983" PMx_normed="0.048993" NOx_normed="1.135324" fuel_normed="1.165065" electricity_normed="0"
            traveltime="1.53" CO_perVeh="107.235308" CO2_perVeh="4796.578437" HC_perVeh="0.599913" PMx_perVeh="0.086706" NOx_perVeh="2.009231" fuel_perVeh="2.061866" electricity_perVeh="0"/>
        <edge id=":1110673556_6" sampledSeconds="487.18" CO_abs="58720.001570" CO2_abs="2822988.639058" HC_abs="334.395036" PMx_abs="56.896415" NOx_abs="1216.739600" fuel_abs="1213.482642" electricity_abs="0"
            CO_normed="1161.148616" CO2_normed="55822.705459" HC_normed="6.612437" PMx_normed="1.125088" NOx_normed="24.060209" fuel_normed="23.995805" electricity_normed="0"
            traveltime="2.69" CO_perVeh="323.625427" CO2_perVeh="15558.427774" HC_perVeh="1.842962" PMx_perVeh="0.313575" NOx_perVeh="6.705856" fuel_perVeh="6.687906" electricity_perVeh="0"/>
        <edge id=":1110673561_0" sampledSeconds="122.28" CO_abs="10831.803350" CO2_abs="778677.404092" HC_abs="67.973517" PMx_abs="15.601701" NOx_abs="328.502996" fuel_abs="334.716482" electricity_abs="0"
            CO_normed="269.115857" CO2_normed="19346.218728" HC_normed="1.688800" PMx_normed="0.387624" NOx_normed="8.161648" fuel_normed="8.316022" electricity_normed="0"
            traveltime="1.24" CO_perVeh="109.989888" CO2_perVeh="7906.960463" HC_perVeh="0.690227" PMx_perVeh="0.158425" NOx_perVeh="3.335733" fuel_perVeh="3.398827" electricity_perVeh="0"/>
        <edge id=":1110673561_1" sampledSeconds="5242.35" CO_abs="489030.253904" CO2_abs="33896176.523616" HC_abs="3046.842940" PMx_abs="708.523159" NOx_abs="14490.877301" fuel_abs="14570.329111" electricity_abs="0"
            CO_normed="11845.486614" CO2_normed="821046.759494" HC_normed="73.801850" PMx_normed="17.162132" NOx_normed="351.003832" fuel_normed="352.928346" electricity_normed="0"
            traveltime="1.19" CO_perVeh="111.006319" CO2_perVeh="7694.186108" HC_perVeh="0.691611" PMx_perVeh="0.160830" NOx_perVeh="3.289324" fuel_perVeh="3.307359" electricity_perVeh="0"/>
        <edge id=":1110673562_0" sampledSeconds="301.47" CO_abs="6981.806887" CO2_abs="528620.677076" HC_abs="43.854805" PMx_abs="7.281517" NOx_abs="202.917419" fuel_abs="227.233570" electricity_abs="0"
            CO_normed="10748.269079" CO2_normed="813794.676637" HC_normed="67.513074" PMx_normed="11.209664" NOx_normed="312.384896" fuel_normed="349.818835" electricity_normed="0"
            traveltime="0.03" CO_perVeh="0.625861" CO2_perVeh="47.386423" HC_perVeh="0.003931" PMx_perVeh="0.000653" NOx_perVeh="0.018190" fuel_perVeh="0.020370" electricity_perVeh="0"/>
        <edge id=":1110673564_0" sampledSeconds="27.43" CO_abs="279.748933" CO2_abs="40947.771934" HC_abs="2.184402" PMx_abs="0.529288" NOx_abs="14.963711" fuel_abs="17.601741" electricity_abs="0"
            CO_normed="1162.794319" CO2_normed="170202.030899" HC_normed="9.079606" PMx_normed="2.200021" NOx_normed="62.197620" fuel_normed="73.162761" electricity_normed="0"
            traveltime="7.746682e-03" CO_perVeh="0.079014" CO2_perVeh="11.565534" HC_perVeh="0.000617" PMx_perVeh="0.000149" NOx_perVeh="0.004226" fuel_perVeh="0.004972" electricity_perVeh="0"/>
        <edge id=":1110673588_0" sampledSeconds="62.95" CO_abs="1107.733208" CO2_abs="121687.758915" HC_abs="7.849510" PMx_abs="1.704857" NOx_abs="46.003876" fuel_abs="52.308479" electricity_abs="0"
            CO_normed="1841.745548" CO2_normed="202321.178660" HC_normed="13.050797" PMx_normed="2.834538" NOx_normed="76.487221" fuel_normed="86.969414" electricity_normed="0"
            traveltime="0.02" CO_perVeh="0.357333" CO2_perVeh="39.254116" HC_perVeh="0.002532" PMx_perVeh="0.000550" NOx_perVeh="0.014840" fuel_perVeh="0.016874" electricity_perVeh="0"/>
        <edge id=":1110673601_0" sampledSeconds="28.32" CO_abs="437.364475" CO2_abs="56308.508335" HC_abs="3.290673" PMx_abs="0.763599" NOx_abs="20.969735" fuel_abs="24.204663" electricity_abs="0"
            CO_normed="649.261925" CO2_normed="83589.254790" HC_normed="4.884962" PMx_normed="1.133552" NOx_normed="31.129301" fuel_normed="35.931511" electricity_normed="0"
            traveltime="0.02" CO_perVeh="0.333511" CO2_perVeh="42.937940" HC_perVeh="0.002509" PMx_perVeh="0.000582" NOx_perVeh="0.015990" fuel_perVeh="0.018457" electricity_perVeh="0"/>
        <edge id=":1110673617_0" sampledSeconds="851.65" CO_abs="30651.380481" CO2_abs="3138471.269508" HC_abs="214.753420" PMx_abs="59.014900" NOx_abs="1227.776718" fuel_abs="1349.082009" electricity_abs="0"
            CO_normed="42468.140604" CO2_normed="4348418.800842" HC_normed="297.545438" PMx_normed="81.766402" NOx_normed="1701.110797" fuel_normed="1869.181862" electricity_normed="0"
            traveltime="0.02" CO_perVeh="0.542623" CO2_perVeh="55.560504" HC_perVeh="0.003802" PMx_perVeh="0.001045" NOx_perVeh="0.021735" fuel_perVeh="0.023883" electricity_perVeh="0"/>
        <edge id=":1110673621_0" sampledSeconds="30.80" CO_abs="678.676960" CO2_abs="69472.045211" HC_abs="4.691465" PMx_abs="1.005612" NOx_abs="26.553982" fuel_abs="29.863108" electricity_abs="0"
            CO_normed="1128.385662" CO2_normed="115505.998273" HC_normed="7.800150" PMx_normed="1.671956" NOx_normed="44.149329" fuel_normed="49.651167" electricity_normed="0"
            traveltime="0.02" CO_perVeh="0.440699" CO2_perVeh="45.111718" HC_perVeh="0.003046" PMx_perVeh="0.000653" NOx_perVeh="0.017243" fuel_perVeh="0.019392" electricity_perVeh="0"/>
        <edge id=":1110673630_0" sampledSeconds="286.85" CO_abs="1099.001785" CO2_abs="96530.910518" HC_abs="7.202485" PMx_abs="1.279853" NOx_abs="36.497732" fuel_abs="41.494852" electricity_abs="0"
            CO_normed="32.582533" CO2_normed="2861.889434" HC_normed="0.213535" PMx_normed="0.037944" NOx_normed="1.082062" fuel_normed="1.230214" electricity_normed="0"
            traveltime="1.29" CO_perVeh="4.945088" CO2_perVeh="434.352230" HC_perVeh="0.032408" PMx_perVeh="0.005759" NOx_perVeh="0.164226" fuel_perVeh="0.186711" electricity_perVeh="0"/>
        <edge id=":1110673630_1" sampledSeconds="339.31" CO_abs="1314.104947" CO2_abs="105308.813200" HC_abs="8.377464" PMx_abs="1.377128" NOx_abs="39.858059" fuel_abs="45.268239" electricity_abs="0"
            CO_normed="47.497054" CO2_normed="3806.285322" HC_normed="0.302795" PMx_normed="0.049775" NOx_normed="1.440631" fuel_normed="1.636177" electricity_normed="0"
            traveltime="1.08" CO_perVeh="4.189108" CO2_perVeh="335.703770" HC_perVeh="0.026706" PMx_perVeh="0.004390" NOx_perVeh="0.127060" fuel_perVeh="0.144306" electricity_perVeh="0"/>
        <edge id=":1110673650_0" sampledSeconds="199.95" CO_abs="3001.494798" CO2_abs="384035.068318" HC_abs="22.424295" PMx_abs="5.206086" NOx_abs="142.957143" fuel_abs="165.080556" electricity_abs="0"
            CO_normed="4158.634981" CO2_normed="532088.768019" HC_normed="31.069338" PMx_normed="7.213144" NOx_normed="198.070167" fuel_normed="228.722626" electricity_normed="0"
            traveltime="0.02" CO_perVeh="0.347353" CO2_perVeh="44.443137" HC_perVeh="0.002595" PMx_perVeh="0.000602" NOx_perVeh="0.016544" fuel_perVeh="0.019104" electricity_perVeh="0"/>
        <edge id=":1110673655_0" sampledSeconds="20.74" CO_abs="218.021558" CO2_abs="33914.093034" HC_abs="1.710328" PMx_abs="0.391476" NOx_abs="12.106496" fuel_abs="14.578309" electricity_abs="0"
            CO_normed="302.073513" CO2_normed="46988.698349" HC_normed="2.369696" PMx_normed="0.542399" NOx_normed="16.773808" fuel_normed="20.198557" electricity_normed="0"
            traveltime="0.02" CO_perVeh="0.249073" CO2_perVeh="38.744204" HC_perVeh="0.001954" PMx_perVeh="0.000447" NOx_perVeh="0.013831" fuel_perVeh="0.016655" electricity_perVeh="0"/>
        <edge id=":1110673663_0" sampledSeconds="130.50" CO_abs="2468.746744" CO2_abs="272553.773661" HC_abs="17.521174" PMx_abs="3.824711" NOx_abs="103.025865" fuel_abs="117.159453" electricity_abs="0"
            CO_normed="62.646542" CO2_normed="6916.283140" HC_normed="0.444615" PMx_normed="0.097055" NOx_normed="2.614369" fuel_normed="2.973020" electricity_normed="0"
            traveltime="1.31" CO_perVeh="24.854224" CO2_perVeh="2743.947986" HC_perVeh="0.176395" PMx_perVeh="0.038505" NOx_perVeh="1.037218" fuel_perVeh="1.179508" electricity_perVeh="0"/>
        <edge id=":1110673663_1" sampledSeconds="170.98" CO_abs="2288.095731" CO2_abs="299810.125211" HC_abs="17.275269" PMx_abs="3.918104" NOx_abs="110.707656" fuel_abs="128.875968" electricity_abs="0"
            CO_normed="58.133350" CO2_normed="7617.236830" HC_normed="0.438911" PMx_normed="0.099547" NOx_normed="2.812735" fuel_normed="3.274335" electricity_normed="0"
            traveltime="1.28" CO_perVeh="17.082741" CO2_perVeh="2238.358554" HC_perVeh="0.128976" PMx_perVeh="0.029252" NOx_perVeh="0.826535" fuel_perVeh="0.962178" electricity_perVeh="0"/>