<?xml version="1.0" encoding="UTF-8"?>

<!-- generated on Tue Nov 10 06:57:25 2020 by Eclipse SUMO sumo Version 1.7.0
<configuration xmlns:xsi="http://www.w3.org/2001/XMLSchema-instance" xsi:noNamespaceSchemaLocation="http://sumo.dlr.de/xsd/sumoConfiguration.xsd">

    <input>
        <net-file value="../dataSets/Porto/8AM9AM_Routing_SaoBento/Porto.net.xml"/>
        <route-files value="../results/Porto/8AM9AM_Routing_SaoBento/cost_co-length/solution17/Porto.rou.xml"/>
        <additional-files value="moreOutputInfo.xml"/>
    </input>

    <output>
        <emission-output.precision value="6"/>
        <tripinfo-output value="../results/Porto/8AM9AM_Routing_SaoBento/cost_co-length/solution17/Porto-tripinfo"/>
    </output>

    <processing>
        <collision.action value="warn"/>
        <time-to-teleport value="-1"/>
    </processing>

    <emissions>
        <device.emissions.probability value="1"/>
    </emissions>

    <gui_only>
        <quit-on-end value="true"/>
        <start value="true"/>
    </gui_only>

</configuration>
-->

<meandata xmlns:xsi="http://www.w3.org/2001/XMLSchema-instance" xsi:noNamespaceSchemaLocation="http://sumo.dlr.de/xsd/meandata_file.xsd">
    <interval begin="0.00" end="9528.00" id="emissions-detector">
        <edge id=":1092997347_0" sampledSeconds="583.41" CO_abs="70522.155519" CO2_abs="3052133.049949" HC_abs="393.326699" PMx_abs="61.615646" NOx_abs="1319.676880" fuel_abs="1311.987569" electricity_abs="0"
            CO_normed="60558.297045" CO2_normed="2620906.557662" HC_normed="337.754779" PMx_normed="52.910161" NOx_normed="1133.223792" fuel_normed="1126.620880" electricity_normed="0"
            traveltime="0.07" CO_perVeh="8.082044" CO2_perVeh="349.783325" HC_perVeh="0.045076" PMx_perVeh="0.007061" NOx_perVeh="0.151239" fuel_perVeh="0.150358" electricity_perVeh="0"/>
        <edge id=":1103427051_0" sampledSeconds="19.10" CO_abs="1535.348606" CO2_abs="86379.097577" HC_abs="9.041884" PMx_abs="1.694947" NOx_abs="36.864238" fuel_abs="37.130551" electricity_abs="0"
            CO_normed="2000.367332" CO2_normed="112541.167693" HC_normed="11.780445" PMx_normed="2.208304" NOx_normed="48.029494" fuel_normed="48.376467" electricity_normed="0"
            traveltime="0.03" CO_perVeh="2.387661" CO2_perVeh="134.330428" HC_perVeh="0.014061" PMx_perVeh="0.002636" NOx_perVeh="0.057329" fuel_perVeh="0.057743" electricity_perVeh="0"/>
        <edge id=":1105984386_0" sampledSeconds="10.36" CO_abs="240.887843" CO2_abs="19910.590743" HC_abs="1.544654" PMx_abs="0.233855" NOx_abs="7.358946" fuel_abs="8.558838" electricity_abs="0"
            CO_normed="9.373384" CO2_normed="774.757284" HC_normed="0.060105" PMx_normed="0.009100" NOx_normed="0.286350" fuel_normed="0.333040" electricity_normed="0"
            traveltime="0.99" CO_perVeh="23.108288" CO2_perVeh="1910.016164" HC_perVeh="0.148178" PMx_perVeh="0.022434" NOx_perVeh="0.705941" fuel_perVeh="0.821046" electricity_perVeh="0"/>
        <edge id=":1105984390_0" sampledSeconds="10.45" CO_abs="0" CO2_abs="0" HC_abs="0" PMx_abs="0" NOx_abs="0" fuel_abs="0" electricity_abs="0"
            CO_normed="0" CO2_normed="0" HC_normed="0" PMx_normed="0" NOx_normed="0" fuel_normed="0" electricity_normed="0"
            traveltime="1.08" CO_perVeh="0" CO2_perVeh="0" HC_perVeh="0" PMx_perVeh="0" NOx_perVeh="0" fuel_perVeh="0" electricity_perVeh="0"/>
        <edge id=":1105984390_1" sampledSeconds="2400.88" CO_abs="65197.709069" CO2_abs="7684711.653077" HC_abs="480.729602" PMx_abs="139.031766" NOx_abs="2929.429466" fuel_abs="3303.302346" electricity_abs="0"
            CO_normed="1876.153474" CO2_normed="221138.114680" HC_normed="13.833653" PMx_normed="4.000830" NOx_normed="84.298350" fuel_normed="95.057054" electricity_normed="0"
            traveltime="0.65" CO_perVeh="17.601180" CO2_perVeh="2074.612724" HC_perVeh="0.129781" PMx_perVeh="0.037534" NOx_perVeh="0.790847" fuel_perVeh="0.891780" electricity_perVeh="0"/>
        <edge id=":1105984395_0" sampledSeconds="4.14" CO_abs="125.269417" CO2_abs="8825.314618" HC_abs="0.770556" PMx_abs="0.116716" NOx_abs="3.365151" fuel_abs="3.793675" electricity_abs="0"
            CO_normed="51.446754" CO2_normed="3624.458418" HC_normed="0.316459" PMx_normed="0.047934" NOx_normed="1.382030" fuel_normed="1.558020" electricity_normed="0"
            traveltime="0.10" CO_perVeh="2.903700" CO2_perVeh="204.567635" HC_perVeh="0.017861" PMx_perVeh="0.002705" NOx_perVeh="0.078003" fuel_perVeh="0.087936" electricity_perVeh="0"/>
        <edge id=":1105984398_0" sampledSeconds="10.85" CO_abs="642.667421" CO2_abs="44189.276886" HC_abs="3.965635" PMx_abs="0.780974" NOx_abs="18.141815" fuel_abs="18.995040" electricity_abs="0"
            CO_normed="20.084487" CO2_normed="1380.992584" HC_normed="0.123933" PMx_normed="0.024407" NOx_normed="0.566964" fuel_normed="0.593628" electricity_normed="0"
            traveltime="1.16" CO_perVeh="68.665618" CO2_perVeh="4721.390756" HC_perVeh="0.423707" PMx_perVeh="0.083443" NOx_perVeh="1.938357" fuel_perVeh="2.029520" electricity_perVeh="0"/>
        <edge id=":1105984398_1" sampledSeconds="644.59" CO_abs="12474.293910" CO2_abs="1424439.988684" HC_abs="89.600375" PMx_abs="20.870382" NOx_abs="541.809469" fuel_abs="612.305583" electricity_abs="0"
            CO_normed="377.358630" CO2_normed="43090.593039" HC_normed="2.710492" PMx_normed="0.631348" NOx_normed="16.390225" fuel_normed="18.522796" electricity_normed="0"
            traveltime="0.95" CO_perVeh="18.437088" CO2_perVeh="2105.331591" HC_perVeh="0.132430" PMx_perVeh="0.030847" NOx_perVeh="0.800798" fuel_perVeh="0.904992" electricity_perVeh="0"/>
        <edge id=":1106006327_0" sampledSeconds="65.85" CO_abs="9011.316515" CO2_abs="299013.988256" HC_abs="48.082184" PMx_abs="6.265618" NOx_abs="131.065911" fuel_abs="128.535341" electricity_abs="0"
            CO_normed="384.286630" CO2_normed="12751.419574" HC_normed="2.050460" PMx_normed="0.267197" NOx_normed="5.589292" fuel_normed="5.481376" electricity_normed="0"
            traveltime="2.04" CO_perVeh="279.355382" CO2_perVeh="9269.585263" HC_perVeh="1.490572" PMx_perVeh="0.194237" NOx_perVeh="4.063110" fuel_perVeh="3.984661" electricity_perVeh="0"/>
        <edge id=":1106006327_1" sampledSeconds="682.77" CO_abs="92522.427295" CO2_abs="3093739.673917" HC_abs="494.210737" PMx_abs="64.570817" NOx_abs="1354.175130" fuel_abs="1329.887035" electricity_abs="0"
            CO_normed="3440.757476" CO2_normed="115051.109475" HC_normed="18.378888" PMx_normed="2.401283" NOx_normed="50.359554" fuel_normed="49.456320" electricity_normed="0"
            traveltime="2.29" CO_perVeh="310.575394" CO2_perVeh="10384.935256" HC_perVeh="1.658946" PMx_perVeh="0.216749" NOx_perVeh="4.545638" fuel_perVeh="4.464109" electricity_perVeh="0"/>
        <edge id=":1106006327_2" sampledSeconds="0.00" CO_abs="0" CO2_abs="0" HC_abs="0" PMx_abs="0" NOx_abs="0" fuel_abs="0" electricity_abs="0"
            CO_normed="0" CO2_normed="0" HC_normed="0" PMx_normed="0" NOx_normed="0" fuel_normed="0" electricity_normed="0"/>
        <edge id=":1106006327_3" sampledSeconds="0.00" CO_abs="0" CO2_abs="0" HC_abs="0" PMx_abs="0" NOx_abs="0" fuel_abs="0" electricity_abs="0"
            CO_normed="0" CO2_normed="0" HC_normed="0" PMx_normed="0" NOx_normed="0" fuel_normed="0" electricity_normed="0"/>
        <edge id=":1107381198_0" sampledSeconds="0.00" CO_abs="0" CO2_abs="0" HC_abs="0" PMx_abs="0" NOx_abs="0" fuel_abs="0" electricity_abs="0"
            CO_normed="0" CO2_normed="0" HC_normed="0" PMx_normed="0" NOx_normed="0" fuel_normed="0" electricity_normed="0"/>
        <edge id=":1107381198_1" sampledSeconds="103.07" CO_abs="4806.526570" CO2_abs="188825.535391" HC_abs="26.212547" PMx_abs="3.164325" NOx_abs="77.623545" fuel_abs="81.169752" electricity_abs="0"
            CO_normed="198.044490" CO2_normed="7780.224725" HC_normed="1.080042" PMx_normed="0.130380" NOx_normed="3.198342" fuel_normed="3.344457" electricity_normed="0"
            traveltime="1.54" CO_perVeh="71.962919" CO2_perVeh="2827.080328" HC_perVeh="0.392452" PMx_perVeh="0.047376" NOx_perVeh="1.162173" fuel_perVeh="1.215267" electricity_perVeh="0"/>
        <edge id=":1110338277_0" sampledSeconds="160.53" CO_abs="2618.632748" CO2_abs="326262.219274" HC_abs="19.351497" PMx_abs="4.452689" NOx_abs="121.765216" fuel_abs="140.246431" electricity_abs="0"
            CO_normed="3533.599426" CO2_normed="440260.281497" HC_normed="26.113031" PMx_normed="6.008486" NOx_normed="164.310744" fuel_normed="189.249412" electricity_normed="0"
            traveltime="0.02" CO_perVeh="0.354671" CO2_perVeh="44.189329" HC_perVeh="0.002621" PMx_perVeh="0.000603" NOx_perVeh="0.016492" fuel_perVeh="0.018995" electricity_perVeh="0"/>
        <edge id=":1110338293_0" sampledSeconds="6418.52" CO_abs="610085.393064" CO2_abs="10721096.052947" HC_abs="3028.798024" PMx_abs="255.671729" NOx_abs="4845.277052" fuel_abs="4608.816802" electricity_abs="0"
            CO_normed="768369.512675" CO2_normed="13502639.865172" HC_normed="3814.607083" PMx_normed="322.004696" NOx_normed="6102.364045" fuel_normed="5804.555167" electricity_normed="0"
            traveltime="0.43" CO_perVeh="40.767962" CO2_perVeh="716.419775" HC_perVeh="0.202394" PMx_perVeh="0.017085" NOx_perVeh="0.323778" fuel_perVeh="0.307977" electricity_perVeh="0"/>
        <edge id=":1110338295_0" sampledSeconds="0.00" CO_abs="0" CO2_abs="0" HC_abs="0" PMx_abs="0" NOx_abs="0" fuel_abs="0" electricity_abs="0"
            CO_normed="0" CO2_normed="0" HC_normed="0" PMx_normed="0" NOx_normed="0" fuel_normed="0" electricity_normed="0"/>
        <edge id=":1110673403_0" sampledSeconds="201.02" CO_abs="3205.155094" CO2_abs="384666.965641" HC_abs="23.378977" PMx_abs="5.261039" NOx_abs="143.959045" fuel_abs="165.352235" electricity_abs="0"
            CO_normed="4036.719261" CO2_normed="484467.211135" HC_normed="29.444555" PMx_normed="6.625994" NOx_normed="181.308621" fuel_normed="208.252186" electricity_normed="0"
            traveltime="0.02" CO_perVeh="0.370439" CO2_perVeh="44.458296" HC_perVeh="0.002702" PMx_perVeh="0.000608" NOx_perVeh="0.016638" fuel_perVeh="0.019111" electricity_perVeh="0"/>
        <edge id=":1110673412_0" sampledSeconds="963.67" CO_abs="170332.827190" CO2_abs="11629842.356567" HC_abs="1060.122243" PMx_abs="255.367346" NOx_abs="4997.194808" fuel_abs="4999.096570" electricity_abs="0"
            CO_normed="221922.384075" CO2_normed="15152230.986581" HC_normed="1381.206779" PMx_normed="332.711734" NOx_normed="6510.720239" fuel_normed="6513.197998" electricity_normed="0"
            traveltime="0.02" CO_perVeh="2.755208" CO2_perVeh="188.117814" HC_perVeh="0.017148" PMx_perVeh="0.004131" NOx_perVeh="0.080832" fuel_perVeh="0.080863" electricity_perVeh="0"/>
        <edge id=":1110673414_0" sampledSeconds="0.00" CO_abs="0" CO2_abs="0" HC_abs="0" PMx_abs="0" NOx_abs="0" fuel_abs="0" electricity_abs="0"
            CO_normed="0" CO2_normed="0" HC_normed="0" PMx_normed="0" NOx_normed="0" fuel_normed="0" electricity_normed="0"/>
        <edge id=":1110673414_1" sampledSeconds="240.17" CO_abs="16925.830415" CO2_abs="653458.736820" HC_abs="92.254589" PMx_abs="12.097087" NOx_abs="276.055547" fuel_abs="280.898446" electricity_abs="0"
            CO_normed="708.211521" CO2_normed="27342.056153" HC_normed="3.860122" PMx_normed="0.506167" NOx_normed="11.550731" fuel_normed="11.753368" electricity_normed="0"
            traveltime="1.56" CO_perVeh="109.816385" CO2_perVeh="4239.701960" HC_perVeh="0.598556" PMx_perVeh="0.078487" NOx_perVeh="1.791074" fuel_perVeh="1.822496" electricity_perVeh="0"/>
        <edge id=":1110673417_0" sampledSeconds="29.34" CO_abs="472.251006" CO2_abs="55325.080395" HC_abs="3.422114" PMx_abs="0.765943" NOx_abs="20.791118" fuel_abs="23.781932" electricity_abs="0"
            CO_normed="637.258465" CO2_normed="74656.009889" HC_normed="4.617822" PMx_normed="1.033569" NOx_normed="28.055665" fuel_normed="32.091487" electricity_normed="0"
            traveltime="0.02" CO_perVeh="0.360114" CO2_perVeh="42.188029" HC_perVeh="0.002610" PMx_perVeh="0.000584" NOx_perVeh="0.015854" fuel_perVeh="0.018135" electricity_perVeh="0"/>
        <edge id=":1110673446_0" sampledSeconds="1330.53" CO_abs="13145.060166" CO2_abs="1073888.828019" HC_abs="85.323751" PMx_abs="19.650654" NOx_abs="438.793739" fuel_abs="461.615420" electricity_abs="0"
            CO_normed="16555.491393" CO2_normed="1352504.821182" HC_normed="107.460644" PMx_normed="24.748934" NOx_normed="552.636951" fuel_normed="581.379622" electricity_normed="0"
            traveltime="0.02" CO_perVeh="0.225499" CO2_perVeh="18.422175" HC_perVeh="0.001464" PMx_perVeh="0.000337" NOx_perVeh="0.007527" fuel_perVeh="0.007919" electricity_perVeh="0"/>
        <edge id=":1110673451_0" sampledSeconds="36.72" CO_abs="514.875791" CO2_abs="33828.080220" HC_abs="3.116860" PMx_abs="0.482954" NOx_abs="13.167459" fuel_abs="14.541407" electricity_abs="0"
            CO_normed="720.509083" CO2_normed="47338.483375" HC_normed="4.361686" PMx_normed="0.675839" NOx_normed="18.426335" fuel_normed="20.349017" electricity_normed="0"
            traveltime="0.03" CO_perVeh="0.379353" CO2_perVeh="24.924053" HC_perVeh="0.002296" PMx_perVeh="0.000356" NOx_perVeh="0.009702" fuel_perVeh="0.010714" electricity_perVeh="0"/>
        <edge id=":1110673464_0" sampledSeconds="1023.20" CO_abs="4003.625834" CO2_abs="270044.738881" HC_abs="24.420636" PMx_abs="3.949452" NOx_abs="105.525853" fuel_abs="116.081765" electricity_abs="0"
            CO_normed="107.132080" CO2_normed="7226.063542" HC_normed="0.653466" PMx_normed="0.105682" NOx_normed="2.823741" fuel_normed="3.106205" electricity_normed="0"
            traveltime="1.21" CO_perVeh="4.747740" CO2_perVeh="320.235267" HC_perVeh="0.028959" PMx_perVeh="0.004683" NOx_perVeh="0.125139" fuel_perVeh="0.137657" electricity_perVeh="0"/>
        <edge id=":1110673464_1" sampledSeconds="2614.43" CO_abs="64574.720071" CO2_abs="7844224.436521" HC_abs="481.064357" PMx_abs="140.230530" NOx_abs="2976.776659" fuel_abs="3371.870593" electricity_abs="0"
            CO_normed="1693.165083" CO2_normed="205677.498917" HC_normed="12.613626" PMx_normed="3.676879" NOx_normed="78.051818" fuel_normed="88.411278" electricity_normed="0"
            traveltime="0.72" CO_perVeh="17.801605" CO2_perVeh="2162.452764" HC_perVeh="0.132617" PMx_perVeh="0.038658" NOx_perVeh="0.820621" fuel_perVeh="0.929539" electricity_perVeh="0"/>
        <edge id=":1110673479_0" sampledSeconds="134.68" CO_abs="6297.597802" CO2_abs="435453.247398" HC_abs="38.893272" PMx_abs="7.548859" NOx_abs="177.598609" fuel_abs="187.182552" electricity_abs="0"
            CO_normed="7931.483378" CO2_normed="548429.782617" HC_normed="48.983970" PMx_normed="9.507380" NOx_normed="223.675830" fuel_normed="235.746287" electricity_normed="0"
            traveltime="0.03" CO_perVeh="1.331369" CO2_perVeh="92.058754" HC_perVeh="0.008222" PMx_perVeh="0.001596" NOx_perVeh="0.037546" fuel_perVeh="0.039572" electricity_perVeh="0"/>
        <edge id=":1110673511_0" sampledSeconds="63.51" CO_abs="1064.505968" CO2_abs="118295.510605" HC_abs="7.552235" PMx_abs="1.618100" NOx_abs="44.442822" fuel_abs="50.850342" electricity_abs="0"
            CO_normed="1340.687617" CO2_normed="148986.789175" HC_normed="9.511631" PMx_normed="2.037909" NOx_normed="55.973328" fuel_normed="64.043252" electricity_normed="0"
            traveltime="0.02" CO_perVeh="0.407987" CO2_perVeh="45.338426" HC_perVeh="0.002895" PMx_perVeh="0.000620" NOx_perVeh="0.017033" fuel_perVeh="0.019489" electricity_perVeh="0"/>
        <edge id=":1110673517_0" sampledSeconds="182.42" CO_abs="8243.150091" CO2_abs="587231.782370" HC_abs="51.307254" PMx_abs="10.086354" NOx_abs="238.605360" fuel_abs="252.425552" electricity_abs="0"
            CO_normed="10381.801123" CO2_normed="739586.627671" HC_normed="64.618708" PMx_normed="12.703216" NOx_normed="300.510529" fuel_normed="317.916312" electricity_normed="0"
            traveltime="0.03" CO_perVeh="1.262096" CO2_perVeh="89.910142" HC_perVeh="0.007856" PMx_perVeh="0.001544" NOx_perVeh="0.036532" fuel_perVeh="0.038648" electricity_perVeh="0"/>
        <edge id=":1110673534_0" sampledSeconds="735.06" CO_abs="5421.409765" CO2_abs="452486.132298" HC_abs="35.068170" PMx_abs="6.345964" NOx_abs="173.562142" fuel_abs="194.505718" electricity_abs="0"
            CO_normed="132.325039" CO2_normed="11044.220518" HC_normed="0.855939" PMx_normed="0.154891" NOx_normed="4.236281" fuel_normed="4.747469" electricity_normed="0"
            traveltime="1.45" CO_perVeh="10.691917" CO2_perVeh="892.377520" HC_perVeh="0.069160" PMx_perVeh="0.012515" NOx_perVeh="0.342293" fuel_perVeh="0.383597" electricity_perVeh="0"/>
        <edge id=":1110673534_1" sampledSeconds="200.30" CO_abs="3181.575618" CO2_abs="412809.706363" HC_abs="23.848074" PMx_abs="5.578980" NOx_abs="153.366222" fuel_abs="177.449562" electricity_abs="0"
            CO_normed="75.509212" CO2_normed="9797.326677" HC_normed="0.565993" PMx_normed="0.132407" NOx_normed="3.639883" fuel_normed="4.211459" electricity_normed="0"
            traveltime="1.22" CO_perVeh="19.447971" CO2_perVeh="2523.375848" HC_perVeh="0.145776" PMx_perVeh="0.034103" NOx_perVeh="0.937479" fuel_perVeh="1.084693" electricity_perVeh="0"/>
        <edge id=":1110673549_0" sampledSeconds="653.72" CO_abs="1277.709325" CO2_abs="123009.571716" HC_abs="8.610001" PMx_abs="1.706650" NOx_abs="46.287100" fuel_abs="52.876836" electricity_abs="0"
            CO_normed="30.210370" CO2_normed="2908.458583" HC_normed="0.203576" PMx_normed="0.040352" NOx_normed="1.094420" fuel_normed="1.250229" electricity_normed="0"
            traveltime="1.30" CO_perVeh="2.538504" CO2_perVeh="244.390688" HC_perVeh="0.017106" PMx_perVeh="0.003391" NOx_perVeh="0.091961" fuel_perVeh="0.105054" electricity_perVeh="0"/>
        <edge id=":1110673549_1" sampledSeconds="3196.17" CO_abs="69325.410044" CO2_abs="9210084.419082" HC_abs="535.623741" PMx_abs="161.407277" NOx_abs="3437.973698" fuel_abs="3958.994067" electricity_abs="0"
            CO_normed="1585.561735" CO2_normed="210646.535283" HC_normed="12.250407" PMx_normed="3.691593" NOx_normed="78.630902" fuel_normed="90.547312" electricity_normed="0"
            traveltime="0.81" CO_perVeh="17.485536" CO2_perVeh="2323.004797" HC_perVeh="0.135097" PMx_perVeh="0.040711" NOx_perVeh="0.867140" fuel_perVeh="0.998554" electricity_perVeh="0"/>
        <edge id=":1110673556_0" sampledSeconds="478.43" CO_abs="58769.137542" CO2_abs="2777154.078889" HC_abs="333.500609" PMx_abs="55.992398" NOx_abs="1197.328261" fuel_abs="1193.781121" electricity_abs="0"
            CO_normed="1030.392752" CO2_normed="48691.533582" HC_normed="5.847229" PMx_normed="0.981708" NOx_normed="20.992623" fuel_normed="20.930432" electricity_normed="0"
            traveltime="2.82" CO_perVeh="346.438415" CO2_perVeh="16371.056268" HC_perVeh="1.965954" PMx_perVeh="0.330070" NOx_perVeh="7.058135" fuel_perVeh="7.037225" electricity_perVeh="0"/>
        <edge id=":1110673556_2" sampledSeconds="173.76" CO_abs="17248.084098" CO2_abs="743306.011269" HC_abs="96.016694" PMx_abs="14.458343" NOx_abs="317.783175" fuel_abs="319.517857" electricity_abs="0"
            CO_normed="316.201278" CO2_normed="13626.690926" HC_normed="1.760230" PMx_normed="0.265058" NOx_normed="5.825774" fuel_normed="5.857576" electricity_normed="0"
            traveltime="3.00" CO_perVeh="298.244021" CO2_perVeh="12852.823086" HC_perVeh="1.660266" PMx_perVeh="0.250005" NOx_perVeh="5.494925" fuel_perVeh="5.524920" electricity_perVeh="0"/>
        <edge id=":1110673556_3" sampledSeconds="240.21" CO_abs="25653.341124" CO2_abs="889879.548926" HC_abs="137.653769" PMx_abs="17.764588" NOx_abs="384.540796" fuel_abs="382.527491" electricity_abs="0"
            CO_normed="1069.834234" CO2_normed="37111.096007" HC_normed="5.740645" PMx_normed="0.740846" NOx_normed="16.036699" fuel_normed="15.952737" electricity_normed="0"
            traveltime="1.85" CO_perVeh="197.997419" CO2_perVeh="6868.261459" HC_perVeh="1.062438" PMx_perVeh="0.137111" NOx_perVeh="2.967960" fuel_perVeh="2.952421" electricity_perVeh="0"/>
        <edge id=":1110673556_4" sampledSeconds="46.79" CO_abs="5328.080201" CO2_abs="205965.563831" HC_abs="29.104892" PMx_abs="4.107241" NOx_abs="88.848543" fuel_abs="88.536751" electricity_abs="0"
            CO_normed="135.747036" CO2_normed="5247.521376" HC_normed="0.741525" PMx_normed="0.104643" NOx_normed="2.263653" fuel_normed="2.255710" electricity_normed="0"
            traveltime="2.53" CO_perVeh="288.251238" CO2_perVeh="11142.818151" HC_perVeh="1.574586" PMx_perVeh="0.222203" NOx_perVeh="4.806741" fuel_perVeh="4.789873" electricity_perVeh="0"/>
        <edge id=":1110673556_5" sampledSeconds="22.57" CO_abs="1172.891025" CO2_abs="52486.209849" HC_abs="6.562725" PMx_abs="0.951937" NOx_abs="22.008128" fuel_abs="22.561811" electricity_abs="0"
            CO_normed="41.650171" CO2_normed="1863.821584" HC_normed="0.233047" PMx_normed="0.033804" NOx_normed="0.781524" fuel_normed="0.801186" electricity_normed="0"
            traveltime="1.56" CO_perVeh="81.088762" CO2_perVeh="3628.676236" HC_perVeh="0.453719" PMx_perVeh="0.065813" NOx_perVeh="1.521550" fuel_perVeh="1.559829" electricity_perVeh="0"/>
        <edge id=":1110673556_6" sampledSeconds="212.74" CO_abs="26113.713794" CO2_abs="1322730.185963" HC_abs="150.388842" PMx_abs="26.783999" NOx_abs="570.023648" fuel_abs="568.584103" electricity_abs="0"
            CO_normed="469.393078" CO2_normed="23776.028095" HC_normed="2.703234" PMx_normed="0.481441" NOx_normed="10.246155" fuel_normed="10.220279" electricity_normed="0"
            traveltime="2.48" CO_perVeh="304.290850" CO2_perVeh="15413.154005" HC_perVeh="1.752411" PMx_perVeh="0.312101" NOx_perVeh="6.642218" fuel_perVeh="6.625444" electricity_perVeh="0"/>
        <edge id=":1110673561_0" sampledSeconds="163.17" CO_abs="15525.086338" CO2_abs="1114935.614122" HC_abs="97.528524" PMx_abs="22.482198" NOx_abs="471.308445" fuel_abs="479.257750" electricity_abs="0"
            CO_normed="350.621736" CO2_normed="25179.934704" HC_normed="2.202604" PMx_normed="0.507743" NOx_normed="10.644127" fuel_normed="10.823655" electricity_normed="0"
            traveltime="1.20" CO_perVeh="114.604116" CO2_perVeh="8230.305954" HC_perVeh="0.719943" PMx_perVeh="0.165961" NOx_perVeh="3.479136" fuel_perVeh="3.537817" electricity_perVeh="0"/>
        <edge id=":1110673561_1" sampledSeconds="5264.85" CO_abs="483186.412963" CO2_abs="33500410.891570" HC_abs="3010.648662" PMx_abs="699.644914" NOx_abs="14319.401693" fuel_abs="14400.209247" electricity_abs="0"
            CO_normed="10638.935657" CO2_normed="737621.560558" HC_normed="66.289317" PMx_normed="15.404980" NOx_normed="315.288653" fuel_normed="317.067897" electricity_normed="0"
            traveltime="1.20" CO_perVeh="109.733216" CO2_perVeh="7608.053000" HC_perVeh="0.683728" PMx_perVeh="0.158892" NOx_perVeh="3.251983" fuel_perVeh="3.270335" electricity_perVeh="0"/>
        <edge id=":1110673562_0" sampledSeconds="301.36" CO_abs="6697.312184" CO2_abs="507978.667396" HC_abs="42.113490" PMx_abs="7.107179" NOx_abs="195.666905" fuel_abs="218.360195" electricity_abs="0"
            CO_normed="9372.113328" CO2_normed="710857.357117" HC_normed="58.932955" PMx_normed="9.945674" NOx_normed="273.813189" fuel_normed="305.569822" electricity_normed="0"
            traveltime="0.03" CO_perVeh="0.600358" CO2_perVeh="45.536014" HC_perVeh="0.003775" PMx_perVeh="0.000637" NOx_perVeh="0.017540" fuel_perVeh="0.019574" electricity_perVeh="0"/>
        <edge id=":1110673564_0" sampledSeconds="27.98" CO_abs="511.821426" CO2_abs="57104.130142" HC_abs="3.650293" PMx_abs="0.809107" NOx_abs="21.603435" fuel_abs="24.546661" electricity_abs="0"
            CO_normed="1933.834103" CO2_normed="215758.678120" HC_normed="13.792039" PMx_normed="3.057079" NOx_normed="81.625070" fuel_normed="92.745572" electricity_normed="0"
            traveltime="7.901998e-03" CO_perVeh="0.144562" CO2_perVeh="16.128832" HC_perVeh="0.001031" PMx_perVeh="0.000229" NOx_perVeh="0.006102" fuel_perVeh="0.006933" electricity_perVeh="0"/>
        <edge id=":1110673588_0" sampledSeconds="62.97" CO_abs="1149.486388" CO2_abs="119999.548526" HC_abs="8.009005" PMx_abs="1.729171" NOx_abs="45.757931" fuel_abs="51.582755" electricity_abs="0"
            CO_normed="1737.259025" CO2_normed="181359.519183" HC_normed="12.104289" PMx_normed="2.613357" NOx_normed="69.155563" fuel_normed="77.958824" electricity_normed="0"
            traveltime="0.02" CO_perVeh="0.370803" CO2_perVeh="38.709607" HC_perVeh="0.002584" PMx_perVeh="0.000558" NOx_perVeh="0.014761" fuel_perVeh="0.016640" electricity_perVeh="0"/>
        <edge id=":1110673601_0" sampledSeconds="29.08" CO_abs="573.743972" CO2_abs="59891.419122" HC_abs="3.986612" PMx_abs="0.877085" NOx_abs="22.901558" fuel_abs="25.744779" electricity_abs="0"
            CO_normed="774.213709" CO2_normed="80817.855959" HC_normed="5.379559" PMx_normed="1.183544" NOx_normed="30.903505" fuel_normed="34.740166" electricity_normed="0"
            traveltime="0.02" CO_perVeh="0.437507" CO2_perVeh="45.670082" HC_perVeh="0.003040" PMx_perVeh="0.000669" NOx_perVeh="0.017464" fuel_perVeh="0.019632" electricity_perVeh="0"/>
        <edge id=":1110673617_0" sampledSeconds="856.51" CO_abs="32124.324507" CO2_abs="3252841.042145" HC_abs="224.168101" PMx_abs="61.302231" NOx_abs="1274.800201" fuel_abs="1398.244170" electricity_abs="0"
            CO_normed="40458.846987" CO2_normed="4096777.131165" HC_normed="282.327583" PMx_normed="77.206839" NOx_normed="1605.541815" fuel_normed="1761.012808" electricity_normed="0"
            traveltime="0.02" CO_perVeh="0.569578" CO2_perVeh="57.674234" HC_perVeh="0.003975" PMx_perVeh="0.001087" NOx_perVeh="0.022603" fuel_perVeh="0.024791" electricity_perVeh="0"/>
        <edge id=":1110673621_0" sampledSeconds="42.13" CO_abs="1009.450754" CO2_abs="99840.547604" HC_abs="6.912636" PMx_abs="1.541191" NOx_abs="38.771510" fuel_abs="42.917132" electricity_abs="0"
            CO_normed="1525.618269" CO2_normed="150892.515271" HC_normed="10.447309" PMx_normed="2.329256" NOx_normed="58.596740" fuel_normed="64.862164" electricity_normed="0"
            traveltime="0.02" CO_perVeh="0.476156" CO2_perVeh="47.094598" HC_perVeh="0.003261" PMx_perVeh="0.000727" NOx_perVeh="0.018288" fuel_perVeh="0.020244" electricity_perVeh="0"/>
        <edge id=":1110673630_0" sampledSeconds="286.82" CO_abs="1249.252308" CO2_abs="111645.510836" HC_abs="8.231959" PMx_abs="1.459693" NOx_abs="42.061190" fuel_abs="47.992041" electricity_abs="0"
            CO_normed="33.666882" CO2_normed="3008.804735" HC_normed="0.221848" PMx_normed="0.039338" NOx_normed="1.133533" fuel_normed="1.293368" electricity_normed="0"
            traveltime="1.29" CO_perVeh="5.621158" CO2_perVeh="502.362159" HC_perVeh="0.037041" PMx_perVeh="0.006568" NOx_perVeh="0.189259" fuel_perVeh="0.215946" electricity_perVeh="0"/>
        <edge id=":1110673630_1" sampledSeconds="338.29" CO_abs="994.586930" CO2_abs="79518.050811" HC_abs="6.325020" PMx_abs="0.982387" NOx_abs="29.733859" fuel_abs="34.181864" electricity_abs="0"
            CO_normed="32.677262" CO2_normed="2612.574224" HC_normed="0.207809" PMx_normed="0.032276" NOx_normed="0.976909" fuel_normed="1.123049" electricity_normed="0"
            traveltime="1.08" CO_perVeh="3.170547" CO2_perVeh="253.487896" HC_perVeh="0.020163" PMx_perVeh="0.003132" NOx_perVeh="0.094786" fuel_perVeh="0.108965" electricity_perVeh="0"/>
        <edge id=":1110673650_0" sampledSeconds="200.90" CO_abs="2788.785345" CO2_abs="363482.717842" HC_abs="20.975934" PMx_abs="4.855134" NOx_abs="134.802532" fuel_abs="156.246033" electricity_abs="0"
            CO_normed="3512.324112" CO2_normed="457786.798289" HC_normed="26.418053" PMx_normed="6.114779" NOx_normed="169.776488" fuel_normed="196.783416" electricity_normed="0"
            traveltime="0.02" CO_perVeh="0.322317" CO2_perVeh="42.009974" HC_perVeh="0.002424" PMx_perVeh="0.000561" NOx_perVeh="0.015580" fuel_perVeh="0.018058" electricity_perVeh="0"/>
        <edge id=":1110673655_0" sampledSeconds="20.64" CO_abs="404.103217" CO2_abs="46811.611355" HC_abs="2.918702" PMx_abs="0.634461" NOx_abs="17.537219" fuel_abs="20.122371" electricity_abs="0"
            CO_normed="508.946117" CO2_normed="58956.689363" HC_normed="3.675948" PMx_normed="0.799069" NOx_normed="22.087177" fuel_normed="25.343036" electricity_normed="0"
            traveltime="0.02" CO_perVeh="0.461656" CO2_perVeh="53.478612" HC_perVeh="0.003334" PMx_perVeh="0.000725" NOx_perVeh="0.020035" fuel_perVeh="0.022988" electricity_perVeh="0"/>
        <edge id=":1110673663_0" sampledSeconds="178.15" CO_abs="3328.850891" CO2_abs="367010.797157" HC_abs="23.586967" PMx_abs="5.218690" NOx_abs="139.082624" fuel_abs="157.762473" electricity_abs="0"
            CO_normed="76.785850" CO2_normed="8465.755002" HC_normed="0.544075" PMx_normed="0.120378" NOx_normed="3.208187" fuel_normed="3.639071" electricity_normed="0"
            traveltime="1.30" CO_perVeh="24.344717" CO2_perVeh="2684.041484" HC_perVeh="0.172497" PMx_perVeh="0.038166" NOx_perVeh="1.017146" fuel_perVeh="1.153756" electricity_perVeh="0"/>
        <edge id=":1110673663_1" sampledSeconds="170.28" CO_abs="2268.445295" CO2_abs="306949.085437" HC_abs="17.307011" PMx_abs="3.975700" NOx_abs="112.936350" fuel_abs="131.944714" electricity_abs="0"
            CO_normed="52.389682" CO2_normed="7088.980744" HC_normed="0.399705" PMx_normed="0.091819" NOx_normed="2.608262" fuel_normed="3.047260" electricity_normed="0"
            traveltime="1.27" CO_perVeh="16.983822" CO2_perVeh="2298.124076" HC_perVeh="0.129577" PMx_perVeh="0.029766" NOx_perVeh="0.845553" fuel_perVeh="0.987868" electricity_perVeh="0"/>
        <edge id=":1110673666_0" sampledSeconds="208.67" CO_abs="4418.786948" CO2_abs="353693.490073" HC_abs="28.180974" PMx_abs="4.729970" NOx_abs="134.513937" fuel_abs="152.039179" electricity_abs="0"