<?xml version="1.0" encoding="UTF-8"?>

<!-- generated on Mon Nov  9 22:33:49 2020 by Eclipse SUMO sumo Version 1.7.0
<configuration xmlns:xsi="http://www.w3.org/2001/XMLSchema-instance" xsi:noNamespaceSchemaLocation="http://sumo.dlr.de/xsd/sumoConfiguration.xsd">

    <input>
        <net-file value="../dataSets/Porto/6AM7AM_Routing_SaoBento/Porto.net.xml"/>
        <route-files value="../results/Porto/6AM7AM_Routing_SaoBento/cost_co-length/solution5/Porto.rou.xml"/>
        <additional-files value="moreOutputInfo.xml"/>
    </input>

    <output>
        <emission-output.precision value="6"/>
        <tripinfo-output value="../results/Porto/6AM7AM_Routing_SaoBento/cost_co-length/solution5/Porto-tripinfo"/>
    </output>

    <processing>
        <collision.action value="warn"/>
        <time-to-teleport value="-1"/>
    </processing>

    <emissions>
        <device.emissions.probability value="1"/>
    </emissions>

    <gui_only>
        <quit-on-end value="true"/>
        <start value="true"/>
    </gui_only>

</configuration>
-->

<meandata xmlns:xsi="http://www.w3.org/2001/XMLSchema-instance" xsi:noNamespaceSchemaLocation="http://sumo.dlr.de/xsd/meandata_file.xsd">
    <interval begin="0.00" end="4700.00" id="emissions-detector">
        <edge id=":1092997347_0" sampledSeconds="272.43" CO_abs="35078.186189" CO2_abs="1370201.855150" HC_abs="192.094390" PMx_abs="27.990966" NOx_abs="595.099776" fuel_abs="588.996284" electricity_abs="0"
            CO_normed="61064.540755" CO2_normed="2385264.351325" HC_normed="334.400292" PMx_normed="48.727020" NOx_normed="1035.957057" fuel_normed="1025.332022" electricity_normed="0"
            traveltime="0.08" CO_perVeh="9.863726" CO2_perVeh="385.290613" HC_perVeh="0.054016" PMx_perVeh="0.007871" NOx_perVeh="0.167338" fuel_perVeh="0.165621" electricity_perVeh="0"/>
        <edge id=":1103427051_0" sampledSeconds="10.81" CO_abs="954.853412" CO2_abs="53575.573728" HC_abs="5.626195" PMx_abs="1.085196" NOx_abs="23.090593" fuel_abs="23.029717" electricity_abs="0"
            CO_normed="2521.989937" CO2_normed="141505.550564" HC_normed="14.860089" PMx_normed="2.866256" NOx_normed="60.987627" fuel_normed="60.826840" electricity_normed="0"
            traveltime="0.03" CO_perVeh="2.616284" CO2_perVeh="146.796262" HC_perVeh="0.015416" PMx_perVeh="0.002973" NOx_perVeh="0.063268" fuel_perVeh="0.063101" electricity_perVeh="0"/>
        <edge id=":1105984386_0" sampledSeconds="22.92" CO_abs="543.168851" CO2_abs="44050.171764" HC_abs="3.469637" PMx_abs="0.549215" NOx_abs="16.497297" fuel_abs="18.935523" electricity_abs="0"
            CO_normed="42.846985" CO2_normed="3474.825654" HC_normed="0.273697" PMx_normed="0.043324" NOx_normed="1.301362" fuel_normed="1.493698" electricity_normed="0"
            traveltime="0.96" CO_perVeh="22.796376" CO2_perVeh="1848.751590" HC_perVeh="0.145618" PMx_perVeh="0.023050" NOx_perVeh="0.692379" fuel_perVeh="0.794709" electricity_perVeh="0"/>
        <edge id=":1105984390_0" sampledSeconds="23.21" CO_abs="16.558028" CO2_abs="1665.596583" HC_abs="0.113188" PMx_abs="0.020383" NOx_abs="0.616601" fuel_abs="0.715975" electricity_abs="0"
            CO_normed="1.009773" CO2_normed="101.574531" HC_normed="0.006903" PMx_normed="0.001243" NOx_normed="0.037603" fuel_normed="0.043663" electricity_normed="0"
            traveltime="1.05" CO_perVeh="0.750898" CO2_perVeh="75.533987" HC_perVeh="0.005133" PMx_perVeh="0.000924" NOx_perVeh="0.027963" fuel_perVeh="0.032469" electricity_perVeh="0"/>
        <edge id=":1105984390_1" sampledSeconds="644.43" CO_abs="15233.447909" CO2_abs="1943671.970387" HC_abs="115.904593" PMx_abs="34.546576" NOx_abs="729.641696" fuel_abs="835.495373" electricity_abs="0"
            CO_normed="888.665108" CO2_normed="113386.901742" HC_normed="6.761461" PMx_normed="2.015324" NOx_normed="42.564698" fuel_normed="48.739825" electricity_normed="0"
            traveltime="0.63" CO_perVeh="15.008876" CO2_perVeh="1915.018343" HC_perVeh="0.114196" PMx_perVeh="0.034037" NOx_perVeh="0.718885" fuel_perVeh="0.823178" electricity_perVeh="0"/>
        <edge id=":1105984395_0" sampledSeconds="8.90" CO_abs="212.142768" CO2_abs="15953.648147" HC_abs="1.330150" PMx_abs="0.220206" NOx_abs="6.133278" fuel_abs="6.857856" electricity_abs="0"
            CO_normed="176.622101" CO2_normed="13282.408263" HC_normed="1.107433" PMx_normed="0.183335" NOx_normed="5.106337" fuel_normed="5.709593" electricity_normed="0"
            traveltime="0.09" CO_perVeh="2.151360" CO2_perVeh="161.787437" HC_perVeh="0.013489" PMx_perVeh="0.002233" NOx_perVeh="0.062198" fuel_perVeh="0.069546" electricity_perVeh="0"/>
        <edge id=":1105984398_0" sampledSeconds="22.53" CO_abs="1704.584244" CO2_abs="116490.732748" HC_abs="10.518706" PMx_abs="2.147013" NOx_abs="48.359791" fuel_abs="50.074157" electricity_abs="0"
            CO_normed="107.993300" CO2_normed="7380.226984" HC_normed="0.666409" PMx_normed="0.136023" NOx_normed="3.063817" fuel_normed="3.172430" electricity_normed="0"
            traveltime="1.09" CO_perVeh="82.462874" CO2_perVeh="5635.486016" HC_perVeh="0.508865" PMx_perVeh="0.103866" NOx_perVeh="2.339507" fuel_perVeh="2.422443" electricity_perVeh="0"/>
        <edge id=":1105984398_1" sampledSeconds="453.55" CO_abs="8213.452464" CO2_abs="943178.816201" HC_abs="59.177802" PMx_abs="13.716258" NOx_abs="358.179952" fuel_abs="405.432195" electricity_abs="0"
            CO_normed="503.695363" CO2_normed="57841.059883" HC_normed="3.629118" PMx_normed="0.841159" NOx_normed="21.965621" fuel_normed="24.863395" electricity_normed="0"
            traveltime="0.96" CO_perVeh="17.316911" CO2_perVeh="1988.560026" HC_perVeh="0.124768" PMx_perVeh="0.028919" NOx_perVeh="0.755172" fuel_perVeh="0.854797" electricity_perVeh="0"/>
        <edge id=":1106006327_0" sampledSeconds="38.75" CO_abs="5266.560588" CO2_abs="170823.110419" HC_abs="28.003755" PMx_abs="3.573873" NOx_abs="74.834935" fuel_abs="73.430811" electricity_abs="0"
            CO_normed="455.300373" CO2_normed="14767.859313" HC_normed="2.420958" PMx_normed="0.308966" NOx_normed="6.469568" fuel_normed="6.348180" electricity_normed="0"
            traveltime="2.10" CO_perVeh="285.707365" CO2_perVeh="9267.038687" HC_perVeh="1.519185" PMx_perVeh="0.193880" NOx_perVeh="4.059745" fuel_perVeh="3.983572" electricity_perVeh="0"/>
        <edge id=":1106006327_1" sampledSeconds="163.49" CO_abs="22019.778569" CO2_abs="728300.806406" HC_abs="117.417837" PMx_abs="15.171446" NOx_abs="318.603369" fuel_abs="313.070481" electricity_abs="0"
            CO_normed="1660.060371" CO2_normed="54906.242735" HC_normed="8.852073" PMx_normed="1.143768" NOx_normed="24.019353" fuel_normed="23.602231" electricity_normed="0"
            traveltime="2.32" CO_perVeh="312.599137" CO2_perVeh="10339.168613" HC_perVeh="1.666898" PMx_perVeh="0.215378" NOx_perVeh="4.522985" fuel_perVeh="4.444439" electricity_perVeh="0"/>
        <edge id=":1106006327_2" sampledSeconds="0.00" CO_abs="0" CO2_abs="0" HC_abs="0" PMx_abs="0" NOx_abs="0" fuel_abs="0" electricity_abs="0"
            CO_normed="0" CO2_normed="0" HC_normed="0" PMx_normed="0" NOx_normed="0" fuel_normed="0" electricity_normed="0"/>
        <edge id=":1106006327_3" sampledSeconds="0.00" CO_abs="0" CO2_abs="0" HC_abs="0" PMx_abs="0" NOx_abs="0" fuel_abs="0" electricity_abs="0"
            CO_normed="0" CO2_normed="0" HC_normed="0" PMx_normed="0" NOx_normed="0" fuel_normed="0" electricity_normed="0"/>
        <edge id=":1107381198_0" sampledSeconds="0.00" CO_abs="0" CO2_abs="0" HC_abs="0" PMx_abs="0" NOx_abs="0" fuel_abs="0" electricity_abs="0"
            CO_normed="0" CO2_normed="0" HC_normed="0" PMx_normed="0" NOx_normed="0" fuel_normed="0" electricity_normed="0"/>
        <edge id=":1107381198_1" sampledSeconds="35.38" CO_abs="1680.202110" CO2_abs="70969.958305" HC_abs="9.289236" PMx_abs="1.231496" NOx_abs="29.414467" fuel_abs="30.507431" electricity_abs="0"
            CO_normed="140.344964" CO2_normed="5928.022690" HC_normed="0.775917" PMx_normed="0.102865" NOx_normed="2.456950" fuel_normed="2.548244" electricity_normed="0"
            traveltime="1.46" CO_perVeh="69.178580" CO2_perVeh="2922.029982" HC_perVeh="0.382464" PMx_perVeh="0.050704" NOx_perVeh="1.211075" fuel_perVeh="1.256076" electricity_perVeh="0"/>
        <edge id=":1110338277_0" sampledSeconds="97.05" CO_abs="1396.098046" CO2_abs="170195.148028" HC_abs="10.254882" PMx_abs="2.298310" NOx_abs="63.490209" fuel_abs="73.159804" electricity_abs="0"
            CO_normed="3819.113197" CO2_normed="465579.432297" HC_normed="28.052868" PMx_normed="6.287169" NOx_normed="173.681423" fuel_normed="200.133203" electricity_normed="0"
            traveltime="0.02" CO_perVeh="0.314638" CO2_perVeh="38.356804" HC_perVeh="0.002311" PMx_perVeh="0.000518" NOx_perVeh="0.014309" fuel_perVeh="0.016488" electricity_perVeh="0"/>
        <edge id=":1110338293_0" sampledSeconds="123.48" CO_abs="6609.614706" CO2_abs="449416.828767" HC_abs="40.683807" PMx_abs="8.038663" NOx_abs="185.046333" fuel_abs="193.184593" electricity_abs="0"
            CO_normed="16875.612015" CO2_normed="1147447.222385" HC_normed="103.873549" PMx_normed="20.524246" NOx_normed="472.458722" fuel_normed="493.237258" electricity_normed="0"
            traveltime="0.03" CO_perVeh="1.516025" CO2_perVeh="103.081195" HC_perVeh="0.009332" PMx_perVeh="0.001844" NOx_perVeh="0.042443" fuel_perVeh="0.044310" electricity_perVeh="0"/>
        <edge id=":1110338295_0" sampledSeconds="0.00" CO_abs="0" CO2_abs="0" HC_abs="0" PMx_abs="0" NOx_abs="0" fuel_abs="0" electricity_abs="0"
            CO_normed="0" CO2_normed="0" HC_normed="0" PMx_normed="0" NOx_normed="0" fuel_normed="0" electricity_normed="0"/>
        <edge id=":1110673403_0" sampledSeconds="143.94" CO_abs="1983.698859" CO2_abs="258236.675424" HC_abs="14.898802" PMx_abs="3.503715" NOx_abs="96.054901" fuel_abs="111.005078" electricity_abs="0"
            CO_normed="5064.763044" CO2_normed="659327.681934" HC_normed="38.039494" PMx_normed="8.945655" NOx_normed="245.246555" fuel_normed="283.417220" electricity_normed="0"
            traveltime="0.02" CO_perVeh="0.318496" CO2_perVeh="41.461602" HC_perVeh="0.002392" PMx_perVeh="0.000563" NOx_perVeh="0.015422" fuel_perVeh="0.017823" electricity_perVeh="0"/>
        <edge id=":1110673412_0" sampledSeconds="254.19" CO_abs="43877.432913" CO2_abs="3010588.761310" HC_abs="273.427750" PMx_abs="65.914865" NOx_abs="1292.128404" fuel_abs="1294.104000" electricity_abs="0"
            CO_normed="115890.505126" CO2_normed="7951665.106909" HC_normed="722.186279" PMx_normed="174.096488" NOx_normed="3412.811633" fuel_normed="3418.029641" electricity_normed="0"
            traveltime="0.02" CO_perVeh="2.701389" CO2_perVeh="185.352013" HC_perVeh="0.016834" PMx_perVeh="0.004058" NOx_perVeh="0.079552" fuel_perVeh="0.079674" electricity_perVeh="0"/>
        <edge id=":1110673414_0" sampledSeconds="0.00" CO_abs="0" CO2_abs="0" HC_abs="0" PMx_abs="0" NOx_abs="0" fuel_abs="0" electricity_abs="0"
            CO_normed="0" CO2_normed="0" HC_normed="0" PMx_normed="0" NOx_normed="0" fuel_normed="0" electricity_normed="0"/>
        <edge id=":1110673414_1" sampledSeconds="14.11" CO_abs="1018.857845" CO2_abs="38430.656557" HC_abs="5.531108" PMx_abs="0.709162" NOx_abs="16.221944" fuel_abs="16.519983" electricity_abs="0"
            CO_normed="86.423229" CO2_normed="3259.828081" HC_normed="0.469169" PMx_normed="0.060154" NOx_normed="1.376004" fuel_normed="1.401285" electricity_normed="0"
            traveltime="1.54" CO_perVeh="111.275839" CO2_perVeh="4197.252403" HC_perVeh="0.604087" PMx_perVeh="0.077452" NOx_perVeh="1.771700" fuel_perVeh="1.804251" electricity_perVeh="0"/>
        <edge id=":1110673417_0" sampledSeconds="29.87" CO_abs="476.554187" CO2_abs="52172.688064" HC_abs="3.369343" PMx_abs="0.734530" NOx_abs="19.756009" fuel_abs="22.426851" electricity_abs="0"
            CO_normed="1303.643674" CO2_normed="142721.639080" HC_normed="9.217048" PMx_normed="2.009354" NOx_normed="54.043794" fuel_normed="61.350048" electricity_normed="0"
            traveltime="0.02" CO_perVeh="0.353705" CO2_perVeh="38.723267" HC_perVeh="0.002501" PMx_perVeh="0.000545" NOx_perVeh="0.014663" fuel_perVeh="0.016646" electricity_perVeh="0"/>
        <edge id=":1110673446_0" sampledSeconds="333.98" CO_abs="3339.474590" CO2_abs="276421.620951" HC_abs="21.727361" PMx_abs="4.929875" NOx_abs="112.199522" fuel_abs="118.821090" electricity_abs="0"
            CO_normed="8526.318102" CO2_normed="705757.330088" HC_normed="55.474114" PMx_normed="12.586914" NOx_normed="286.466864" fuel_normed="303.372997" electricity_normed="0"
            traveltime="0.02" CO_perVeh="0.227955" CO2_perVeh="18.868733" HC_perVeh="0.001483" PMx_perVeh="0.000337" NOx_perVeh="0.007659" fuel_perVeh="0.008111" electricity_perVeh="0"/>
        <edge id=":1110673451_0" sampledSeconds="37.40" CO_abs="484.823093" CO2_abs="32989.285520" HC_abs="2.964151" PMx_abs="0.484477" NOx_abs="12.917960" fuel_abs="14.180807" electricity_abs="0"
            CO_normed="1375.384661" CO2_normed="93586.625588" HC_normed="8.408940" PMx_normed="1.374403" NOx_normed="36.646695" fuel_normed="40.229239" electricity_normed="0"
            traveltime="0.03" CO_perVeh="0.347682" CO2_perVeh="23.657655" HC_perVeh="0.002126" PMx_perVeh="0.000347" NOx_perVeh="0.009264" fuel_perVeh="0.010170" electricity_perVeh="0"/>
        <edge id=":1110673464_0" sampledSeconds="323.67" CO_abs="588.861951" CO2_abs="44255.550502" HC_abs="3.693919" PMx_abs="0.622273" NOx_abs="17.076584" fuel_abs="19.023732" electricity_abs="0"
            CO_normed="31.943569" CO2_normed="2400.698900" HC_normed="0.200381" PMx_normed="0.033756" NOx_normed="0.926341" fuel_normed="1.031967" electricity_normed="0"
            traveltime="1.17" CO_perVeh="2.128658" CO2_perVeh="159.977976" HC_perVeh="0.013353" PMx_perVeh="0.002249" NOx_perVeh="0.061730" fuel_perVeh="0.068768" electricity_perVeh="0"/>
        <edge id=":1110673464_1" sampledSeconds="709.20" CO_abs="15684.903859" CO2_abs="2020559.229700" HC_abs="119.665233" PMx_abs="35.776089" NOx_abs="757.375021" fuel_abs="868.545760" electricity_abs="0"
            CO_normed="833.724421" CO2_normed="107401.970070" HC_normed="6.360755" PMx_normed="1.901663" NOx_normed="40.257948" fuel_normed="46.167182" electricity_normed="0"
            traveltime="0.70" CO_perVeh="15.492028" CO2_perVeh="1995.712551" HC_perVeh="0.118194" PMx_perVeh="0.035336" NOx_perVeh="0.748062" fuel_perVeh="0.857865" electricity_perVeh="0"/>
        <edge id=":1110673479_0" sampledSeconds="133.17" CO_abs="7141.125131" CO2_abs="493104.602672" HC_abs="44.126001" PMx_abs="8.756884" NOx_abs="202.519803" fuel_abs="211.964064" electricity_abs="0"
            CO_normed="18232.659909" CO2_normed="1258990.474907" HC_normed="112.662129" PMx_normed="22.358002" NOx_normed="517.071837" fuel_normed="541.184845" electricity_normed="0"
            traveltime="0.03" CO_perVeh="1.504345" CO2_perVeh="103.877102" HC_perVeh="0.009296" PMx_perVeh="0.001845" NOx_perVeh="0.042663" fuel_perVeh="0.044652" electricity_perVeh="0"/>
        <edge id=":1110673511_0" sampledSeconds="11.88" CO_abs="156.006413" CO2_abs="20286.741820" HC_abs="1.164535" PMx_abs="0.267229" NOx_abs="7.500590" fuel_abs="8.720427" electricity_abs="0"
            CO_normed="398.314246" CO2_normed="51795.936561" HC_normed="2.973282" PMx_normed="0.682288" NOx_normed="19.150443" fuel_normed="22.264921" electricity_normed="0"
            traveltime="0.02" CO_perVeh="0.308924" CO2_perVeh="40.171766" HC_perVeh="0.002306" PMx_perVeh="0.000529" NOx_perVeh="0.014853" fuel_perVeh="0.017268" electricity_perVeh="0"/>
        <edge id=":1110673517_0" sampledSeconds="17.46" CO_abs="582.996877" CO2_abs="43369.883294" HC_abs="3.665193" PMx_abs="0.704449" NOx_abs="17.335169" fuel_abs="18.642880" electricity_abs="0"
            CO_normed="1488.502664" CO2_normed="110731.616921" HC_normed="9.357940" PMx_normed="1.798594" NOx_normed="44.260005" fuel_normed="47.598842" electricity_normed="0"
            traveltime="0.03" CO_perVeh="0.936040" CO2_perVeh="69.633208" HC_perVeh="0.005885" PMx_perVeh="0.001131" NOx_perVeh="0.027833" fuel_perVeh="0.029932" electricity_perVeh="0"/>
        <edge id=":1110673534_0" sampledSeconds="475.60" CO_abs="3038.566180" CO2_abs="263641.861905" HC_abs="19.835279" PMx_abs="3.416064" NOx_abs="99.253381" fuel_abs="113.329441" electricity_abs="0"
            CO_normed="150.349638" CO2_normed="13045.119342" HC_normed="0.981459" PMx_normed="0.169028" NOx_normed="4.911102" fuel_normed="5.607592" electricity_normed="0"
            traveltime="1.43" CO_perVeh="9.153982" CO2_perVeh="794.247263" HC_perVeh="0.059756" PMx_perVeh="0.010291" NOx_perVeh="0.299011" fuel_perVeh="0.341416" electricity_perVeh="0"/>
        <edge id=":1110673534_1" sampledSeconds="184.45" CO_abs="2525.712848" CO2_abs="343751.306106" HC_abs="19.264052" PMx_abs="4.495218" NOx_abs="126.541635" fuel_abs="147.764398" electricity_abs="0"
            CO_normed="121.519382" CO2_normed="16538.873917" HC_normed="0.926849" PMx_normed="0.216278" NOx_normed="6.088286" fuel_normed="7.109374" electricity_normed="0"
            traveltime="1.22" CO_perVeh="16.769827" CO2_perVeh="2282.385263" HC_perVeh="0.127906" PMx_perVeh="0.029847" NOx_perVeh="0.840191" fuel_perVeh="0.981103" electricity_perVeh="0"/>
        <edge id=":1110673549_0" sampledSeconds="59.92" CO_abs="5.040377" CO2_abs="1141.780458" HC_abs="0.047689" PMx_abs="0.006314" NOx_abs="0.365482" fuel_abs="0.490814" electricity_abs="0"
            CO_normed="0.241597" CO2_normed="54.728113" HC_normed="0.002286" PMx_normed="0.000303" NOx_normed="0.017518" fuel_normed="0.023526" electricity_normed="0"
            traveltime="1.25" CO_perVeh="0.105012" CO2_perVeh="23.788023" HC_perVeh="0.000994" PMx_perVeh="0.000132" NOx_perVeh="0.007614" fuel_perVeh="0.010226" electricity_perVeh="0"/>
        <edge id=":1110673549_1" sampledSeconds="638.90" CO_abs="14028.184758" CO2_abs="1828472.025169" HC_abs="107.666183" PMx_abs="32.314364" NOx_abs="683.767317" fuel_abs="785.976379" electricity_abs="0"
            CO_normed="650.423280" CO2_normed="84777.951814" HC_normed="4.991992" PMx_normed="1.498270" NOx_normed="31.703188" fuel_normed="36.442159" electricity_normed="0"
            traveltime="0.80" CO_perVeh="17.667911" CO2_perVeh="2302.883910" HC_perVeh="0.135601" PMx_perVeh="0.040699" NOx_perVeh="0.861176" fuel_perVeh="0.989904" electricity_perVeh="0"/>
        <edge id=":1110673556_0" sampledSeconds="422.56" CO_abs="52153.174460" CO2_abs="2601015.090221" HC_abs="299.299139" PMx_abs="52.437112" NOx_abs="1120.298217" fuel_abs="1118.064062" electricity_abs="0"
            CO_normed="1853.694309" CO2_normed="92448.579008" HC_normed="10.638070" PMx_normed="1.863786" NOx_normed="39.819061" fuel_normed="39.739652" electricity_normed="0"
            traveltime="2.62" CO_perVeh="323.741476" CO2_perVeh="16145.833389" HC_perVeh="1.857903" PMx_perVeh="0.325504" NOx_perVeh="6.954265" fuel_perVeh="6.940397" electricity_perVeh="0"/>
        <edge id=":1110673556_2" sampledSeconds="248.21" CO_abs="24274.939228" CO2_abs="1046676.020403" HC_abs="135.111921" PMx_abs="20.172657" NOx_abs="446.219572" fuel_abs="449.924907" electricity_abs="0"
            CO_normed="902.162565" CO2_normed="38899.043776" HC_normed="5.021348" PMx_normed="0.749704" NOx_normed="16.583465" fuel_normed="16.721171" electricity_normed="0"
            traveltime="3.01" CO_perVeh="294.450361" CO2_perVeh="12695.979554" HC_perVeh="1.638882" PMx_perVeh="0.244690" NOx_perVeh="5.412558" fuel_perVeh="5.457503" electricity_perVeh="0"/>
        <edge id=":1110673556_3" sampledSeconds="418.64" CO_abs="35516.166589" CO2_abs="1262482.039683" HC_abs="191.093821" PMx_abs="24.047075" NOx_abs="538.130293" fuel_abs="542.697026" electricity_abs="0"
            CO_normed="3002.634910" CO2_normed="106733.721828" HC_normed="16.155600" PMx_normed="2.033006" NOx_normed="45.495023" fuel_normed="45.881107" electricity_normed="0"
            traveltime="1.74" CO_perVeh="147.469944" CO2_perVeh="5242.067883" HC_perVeh="0.793458" PMx_perVeh="0.099848" NOx_perVeh="2.234420" fuel_perVeh="2.253382" electricity_perVeh="0"/>
        <edge id=":1110673556_4" sampledSeconds="195.93" CO_abs="21019.839838" CO2_abs="835336.187085" HC_abs="115.293076" PMx_abs="16.228398" NOx_abs="357.548744" fuel_abs="359.079364" electricity_abs="0"
            CO_normed="1085.657644" CO2_normed="43144.435137" HC_normed="5.954794" PMx_normed="0.838184" NOx_normed="18.467102" fuel_normed="18.546157" electricity_normed="0"
            traveltime="2.43" CO_perVeh="260.992502" CO2_perVeh="10371.938290" HC_perVeh="1.431535" PMx_perVeh="0.201500" NOx_perVeh="4.439498" fuel_perVeh="4.458503" electricity_perVeh="0"/>
        <edge id=":1110673556_5" sampledSeconds="24.15" CO_abs="2037.388332" CO2_abs="84432.524884" HC_abs="11.245604" PMx_abs="1.571166" NOx_abs="35.690604" fuel_abs="36.294373" electricity_abs="0"
            CO_normed="146.668493" CO2_normed="6078.169285" HC_normed="0.809554" PMx_normed="0.113106" NOx_normed="2.569312" fuel_normed="2.612777" electricity_normed="0"
            traveltime="1.67" CO_perVeh="140.856477" CO2_perVeh="5837.310362" HC_perVeh="0.777474" PMx_perVeh="0.108624" NOx_perVeh="2.467499" fuel_perVeh="2.509241" electricity_perVeh="0"/>
        <edge id=":1110673556_6" sampledSeconds="497.88" CO_abs="60412.309652" CO2_abs="2916017.329262" HC_abs="344.353363" PMx_abs="58.917078" NOx_abs="1257.214632" fuel_abs="1253.471344" electricity_abs="0"
            CO_normed="2201.391934" CO2_normed="106258.096497" HC_normed="12.548051" PMx_normed="2.146907" NOx_normed="45.812222" fuel_normed="45.675819" electricity_normed="0"
            traveltime="2.67" CO_perVeh="324.491997" CO2_perVeh="15662.772918" HC_perVeh="1.849622" PMx_perVeh="0.316461" NOx_perVeh="6.752864" fuel_perVeh="6.732757" electricity_perVeh="0"/>
        <edge id=":1110673561_0" sampledSeconds="103.29" CO_abs="9120.191353" CO2_abs="651898.728637" HC_abs="57.211778" PMx_abs="13.143158" NOx_abs="275.569872" fuel_abs="280.220271" electricity_abs="0"
            CO_normed="417.554004" CO2_normed="29846.185640" HC_normed="2.619354" PMx_normed="0.601739" NOx_normed="12.616545" fuel_normed="12.829456" electricity_normed="0"
            traveltime="1.22" CO_perVeh="107.627110" CO2_perVeh="7693.037731" HC_perVeh="0.675155" PMx_perVeh="0.155102" NOx_perVeh="3.251992" fuel_perVeh="3.306871" electricity_perVeh="0"/>
        <edge id=":1110673561_1" sampledSeconds="1312.00" CO_abs="121464.763092" CO2_abs="8415905.053115" HC_abs="756.653985" PMx_abs="175.750344" NOx_abs="3597.584872" fuel_abs="3617.591307" electricity_abs="0"
            CO_normed="5421.727262" CO2_normed="375654.146099" HC_normed="33.774170" PMx_normed="7.844830" NOx_normed="160.582571" fuel_normed="161.475583" electricity_normed="0"
            traveltime="1.19" CO_perVeh="110.438215" CO2_perVeh="7651.910803" HC_perVeh="0.687965" PMx_perVeh="0.159796" NOx_perVeh="3.270997" fuel_perVeh="3.289187" electricity_perVeh="0"/>
        <edge id=":1110673562_0" sampledSeconds="104.20" CO_abs="2253.669962" CO2_abs="179291.552714" HC_abs="14.345799" PMx_abs="2.389735" NOx_abs="68.139473" fuel_abs="77.070541" electricity_abs="0"
            CO_normed="6393.389962" CO2_normed="508628.518336" HC_normed="40.697301" PMx_normed="6.779391" NOx_normed="193.303470" fuel_normed="218.639834" electricity_normed="0"
            traveltime="0.03" CO_perVeh="0.574475" CO2_perVeh="45.702589" HC_perVeh="0.003657" PMx_perVeh="0.000609" NOx_perVeh="0.017369" fuel_perVeh="0.019646" electricity_perVeh="0"/>
        <edge id=":1110673564_0" sampledSeconds="28.87" CO_abs="474.678368" CO2_abs="55078.705266" HC_abs="3.430395" PMx_abs="0.771856" NOx_abs="20.757569" fuel_abs="23.676015" electricity_abs="0"
            CO_normed="3635.834306" CO2_normed="421879.444589" HC_normed="26.275364" PMx_normed="5.912091" NOx_normed="158.994148" fuel_normed="181.348202" electricity_normed="0"
            traveltime="7.937043e-03" CO_perVeh="0.130496" CO2_perVeh="15.141912" HC_perVeh="0.000943" PMx_perVeh="0.000212" NOx_perVeh="0.005707" fuel_perVeh="0.006509" electricity_perVeh="0"/>
        <edge id=":1110673588_0" sampledSeconds="11.69" CO_abs="85.108880" CO2_abs="13969.709987" HC_abs="0.704676" PMx_abs="0.163093" NOx_abs="5.011678" fuel_abs="6.005014" electricity_abs="0"
            CO_normed="260.759121" CO2_normed="42800.813578" HC_normed="2.159008" PMx_normed="0.499688" NOx_normed="15.354929" fuel_normed="18.398341" electricity_normed="0"
            traveltime="0.02" CO_perVeh="0.141848" CO2_perVeh="23.282850" HC_perVeh="0.001174" PMx_perVeh="0.000272" NOx_perVeh="0.008353" fuel_perVeh="0.010008" electricity_perVeh="0"/>
        <edge id=":1110673601_0" sampledSeconds="29.62" CO_abs="700.690841" CO2_abs="73521.763958" HC_abs="4.879820" PMx_abs="1.088863" NOx_abs="28.171575" fuel_abs="31.603866" electricity_abs="0"
            CO_normed="1916.783454" CO2_normed="201123.366451" HC_normed="13.349052" PMx_normed="2.978652" NOx_normed="77.065099" fuel_normed="86.454345" electricity_normed="0"
            traveltime="0.02" CO_perVeh="0.520062" CO2_perVeh="54.568837" HC_perVeh="0.003622" PMx_perVeh="0.000808" NOx_perVeh="0.020909" fuel_perVeh="0.023457" electricity_perVeh="0"/>
        <edge id=":1110673617_0" sampledSeconds="238.52" CO_abs="5674.264903" CO2_abs="722815.356121" HC_abs="43.170432" PMx_abs="12.845493" NOx_abs="271.520932" fuel_abs="310.705143" electricity_abs="0"
            CO_normed="14487.484859" CO2_normed="1845486.015627" HC_normed="110.222378" PMx_normed="32.797002" NOx_normed="693.244934" fuel_normed="793.289727" electricity_normed="0"
            traveltime="0.01" CO_perVeh="0.347511" CO2_perVeh="44.267607" HC_perVeh="0.002644" PMx_perVeh="0.000787" NOx_perVeh="0.016629" fuel_perVeh="0.019029" electricity_perVeh="0"/>
        <edge id=":1110673621_0" sampledSeconds="25.90" CO_abs="565.031527" CO2_abs="56202.853878" HC_abs="3.879692" PMx_abs="0.842587" NOx_abs="21.677112" fuel_abs="24.159211" electricity_abs="0"
            CO_normed="1731.160422" CO2_normed="172195.977839" HC_normed="11.886716" PMx_normed="2.581542" NOx_normed="66.414982" fuel_normed="74.019710" electricity_normed="0"
            traveltime="0.02" CO_perVeh="0.428054" CO2_perVeh="42.577920" HC_perVeh="0.002939" PMx_perVeh="0.000638" NOx_perVeh="0.016422" fuel_perVeh="0.018302" electricity_perVeh="0"/>
        <edge id=":1110673630_0" sampledSeconds="54.07" CO_abs="409.162011" CO2_abs="39114.428452" HC_abs="2.762648" PMx_abs="0.540893" NOx_abs="14.837636" fuel_abs="16.813704" electricity_abs="0"
            CO_normed="22.353829" CO2_normed="2136.946345" HC_normed="0.150932" PMx_normed="0.029551" NOx_normed="0.810628" fuel_normed="0.918586" electricity_normed="0"
            traveltime="1.26" CO_perVeh="9.550565" CO2_perVeh="912.999945" HC_perVeh="0.064485" PMx_perVeh="0.012625" NOx_perVeh="0.346337" fuel_perVeh="0.392462" electricity_perVeh="0"/>
        <edge id=":1110673630_1" sampledSeconds="7.48" CO_abs="26.829535" CO2_abs="1900.996467" HC_abs="0.165741" PMx_abs="0.027577" NOx_abs="0.741483" fuel_abs="0.817164" electricity_abs="0"
            CO_normed="1.786981" CO2_normed="126.615861" HC_normed="0.011039" PMx_normed="0.001837" NOx_normed="0.049386" fuel_normed="0.054427" electricity_normed="0"
            traveltime="1.06" CO_perVeh="3.797411" CO2_perVeh="269.064115" HC_perVeh="0.023459" PMx_perVeh="0.003903" NOx_perVeh="0.104948" fuel_perVeh="0.115660" electricity_perVeh="0"/>
        <edge id=":1110673650_0" sampledSeconds="143.28" CO_abs="1982.554983" CO2_abs="254267.714367" HC_abs="14.820714" PMx_abs="3.444790" NOx_abs="94.640965" fuel_abs="109.299015" electricity_abs="0"
            CO_normed="5061.842510" CO2_normed="649194.164341" HC_normed="37.840122" PMx_normed="8.795210" NOx_normed="241.636506" fuel_normed="279.061315" electricity_normed="0"
            traveltime="0.02" CO_perVeh="0.318312" CO2_perVeh="40.824359" HC_perVeh="0.002380" PMx_perVeh="0.000553" NOx_perVeh="0.015195" fuel_perVeh="0.017549" electricity_perVeh="0"/>
        <edge id=":1110673655_0" sampledSeconds="44.97" CO_abs="737.342731" CO2_abs="82404.597685" HC_abs="5.243381" PMx_abs="1.147487" NOx_abs="31.076088" fuel_abs="35.422291" electricity_abs="0"
            CO_normed="1882.577185" CO2_normed="210394.717495" HC_normed="13.387355" PMx_normed="2.929754" NOx_normed="79.343203" fuel_normed="90.439892" electricity_normed="0"
            traveltime="0.02" CO_perVeh="0.394617" CO2_perVeh="44.102006" HC_perVeh="0.002806" PMx_perVeh="0.000614" NOx_perVeh="0.016632" fuel_perVeh="0.018958" electricity_perVeh="0"/>
        <edge id=":1110673663_0" sampledSeconds="109.64" CO_abs="1970.550779" CO2_abs="230835.545571" HC_abs="14.236381" PMx_abs="3.183678" NOx_abs="86.606312" fuel_abs="99.226537" electricity_abs="0"
            CO_normed="92.146401" CO2_normed="10794.273817" HC_normed="0.665718" PMx_normed="0.148874" NOx_normed="4.049863" fuel_normed="4.640006" electricity_normed="0"
            traveltime="1.29" CO_perVeh="23.145049" CO2_perVeh="2711.272381" HC_perVeh="0.167213" PMx_perVeh="0.037394" NOx_perVeh="1.017232" fuel_perVeh="1.165462" electricity_perVeh="0"/>
        <edge id=":1110673663_1" sampledSeconds="153.66" CO_abs="2355.238183" CO2_abs="309285.199943" HC_abs="17.796216" PMx_abs="4.170714" NOx_abs="114.765001" fuel_abs="132.948732" electricity_abs="0"
            CO_normed="110.269696" CO2_normed="14480.397438" HC_normed="0.833200" PMx_normed="0.195268" NOx_normed="5.373173" fuel_normed="6.224515" electricity_normed="0"
            traveltime="1.24" CO_perVeh="19.060483" CO2_perVeh="2502.984755" HC_perVeh="0.144021" PMx_perVeh="0.033753" NOx_perVeh="0.928771" fuel_perVeh="1.075928" electricity_perVeh="0"/>
        <edge id=":1110673666_0" sampledSeconds="192.19" CO_abs="3894.410916" CO2_abs="316736.248787" HC_abs="24.942663" PMx_abs="4.175959" NOx_abs="119.990290" fuel_abs="136.152734" electricity_abs="0"