<?xml version="1.0" encoding="UTF-8"?>

<!-- generated on Tue Nov 10 01:52:17 2020 by Eclipse SUMO sumo Version 1.7.0
<configuration xmlns:xsi="http://www.w3.org/2001/XMLSchema-instance" xsi:noNamespaceSchemaLocation="http://sumo.dlr.de/xsd/sumoConfiguration.xsd">

    <input>
        <net-file value="../dataSets/Porto/6AM7AM_Routing_SaoBento/Porto.net.xml"/>
        <route-files value="../results/Porto/6AM7AM_Routing_SaoBento/cost_co2-cost_hc/solution3/Porto.rou.xml"/>
        <additional-files value="moreOutputInfo.xml"/>
    </input>

    <output>
        <emission-output.precision value="6"/>
        <tripinfo-output value="../results/Porto/6AM7AM_Routing_SaoBento/cost_co2-cost_hc/solution3/Porto-tripinfo"/>
    </output>

    <processing>
        <collision.action value="warn"/>
        <time-to-teleport value="-1"/>
    </processing>

    <emissions>
        <device.emissions.probability value="1"/>
    </emissions>

    <gui_only>
        <quit-on-end value="true"/>
        <start value="true"/>
    </gui_only>

</configuration>
-->

<meandata xmlns:xsi="http://www.w3.org/2001/XMLSchema-instance" xsi:noNamespaceSchemaLocation="http://sumo.dlr.de/xsd/meandata_file.xsd">
    <interval begin="0.00" end="4788.00" id="emissions-detector">
        <edge id=":1092997347_0" sampledSeconds="272.53" CO_abs="34718.738161" CO2_abs="1365400.412956" HC_abs="190.359760" PMx_abs="27.938000" NOx_abs="593.333051" fuel_abs="586.932057" electricity_abs="0"
            CO_normed="59327.987288" CO2_normed="2333220.117834" HC_normed="325.290088" PMx_normed="47.740942" NOx_normed="1013.897900" fuel_normed="1002.959770" electricity_normed="0"
            traveltime="0.08" CO_perVeh="9.746427" CO2_perVeh="383.302381" HC_perVeh="0.053439" PMx_perVeh="0.007843" NOx_perVeh="0.166564" fuel_perVeh="0.164767" electricity_perVeh="0"/>
        <edge id=":1103427051_0" sampledSeconds="10.96" CO_abs="964.647374" CO2_abs="55785.834700" HC_abs="5.713911" PMx_abs="1.072529" NOx_abs="23.634933" fuel_abs="23.979875" electricity_abs="0"
            CO_normed="2501.030267" CO2_normed="144635.298678" HC_normed="14.814393" PMx_normed="2.780733" NOx_normed="61.278021" fuel_normed="62.172349" electricity_normed="0"
            traveltime="0.03" CO_perVeh="2.643119" CO2_perVeh="152.852344" HC_perVeh="0.015656" PMx_perVeh="0.002939" NOx_perVeh="0.064759" fuel_perVeh="0.065704" electricity_perVeh="0"/>
        <edge id=":1105984386_0" sampledSeconds="23.11" CO_abs="460.488803" CO2_abs="38226.439713" HC_abs="2.956372" PMx_abs="0.448028" NOx_abs="14.123658" fuel_abs="16.432153" electricity_abs="0"
            CO_normed="35.657279" CO2_normed="2960.008650" HC_normed="0.228922" PMx_normed="0.034692" NOx_normed="1.093645" fuel_normed="1.272400" electricity_normed="0"
            traveltime="0.97" CO_perVeh="19.326358" CO2_perVeh="1604.334066" HC_perVeh="0.124077" PMx_perVeh="0.018803" NOx_perVeh="0.592759" fuel_perVeh="0.689645" electricity_perVeh="0"/>
        <edge id=":1105984390_0" sampledSeconds="23.67" CO_abs="9.738457" CO2_abs="993.550987" HC_abs="0.066830" PMx_abs="0.011818" NOx_abs="0.365311" fuel_abs="0.427089" electricity_abs="0"
            CO_normed="0.582974" CO2_normed="59.476976" HC_normed="0.004001" PMx_normed="0.000707" NOx_normed="0.021869" fuel_normed="0.025567" electricity_normed="0"
            traveltime="1.07" CO_perVeh="0.441634" CO2_perVeh="45.057049" HC_perVeh="0.003031" PMx_perVeh="0.000536" NOx_perVeh="0.016567" fuel_perVeh="0.019368" electricity_perVeh="0"/>
        <edge id=":1105984390_1" sampledSeconds="645.55" CO_abs="14488.921083" CO2_abs="1915748.457905" HC_abs="111.614839" PMx_abs="33.664023" NOx_abs="714.803735" fuel_abs="823.492633" electricity_abs="0"
            CO_normed="829.697306" CO2_normed="109703.912747" HC_normed="6.391541" PMx_normed="1.927745" NOx_normed="40.932705" fuel_normed="47.156694" electricity_normed="0"
            traveltime="0.64" CO_perVeh="14.264270" CO2_perVeh="1886.044691" HC_perVeh="0.109884" PMx_perVeh="0.033142" NOx_perVeh="0.703721" fuel_perVeh="0.810724" electricity_perVeh="0"/>
        <edge id=":1105984395_0" sampledSeconds="8.94" CO_abs="192.274661" CO2_abs="15683.785736" HC_abs="1.232254" PMx_abs="0.205770" NOx_abs="5.940388" fuel_abs="6.741857" electricity_abs="0"
            CO_normed="157.138494" CO2_normed="12817.739241" HC_normed="1.007072" PMx_normed="0.168167" NOx_normed="4.854845" fuel_normed="5.509854" electricity_normed="0"
            traveltime="0.09" CO_perVeh="1.949875" CO2_perVeh="159.050737" HC_perVeh="0.012496" PMx_perVeh="0.002087" NOx_perVeh="0.060242" fuel_perVeh="0.068370" electricity_perVeh="0"/>
        <edge id=":1105984398_0" sampledSeconds="22.75" CO_abs="1560.210545" CO2_abs="107896.785518" HC_abs="9.656650" PMx_abs="1.978003" NOx_abs="44.709393" fuel_abs="46.380005" electricity_abs="0"
            CO_normed="97.029829" CO2_normed="6710.124288" HC_normed="0.600549" PMx_normed="0.123012" NOx_normed="2.780487" fuel_normed="2.884382" electricity_normed="0"
            traveltime="1.09" CO_perVeh="74.948255" CO2_perVeh="5183.067024" HC_perVeh="0.463879" PMx_perVeh="0.095018" NOx_perVeh="2.147717" fuel_perVeh="2.227969" electricity_perVeh="0"/>
        <edge id=":1105984398_1" sampledSeconds="451.51" CO_abs="8103.981560" CO2_abs="932465.852699" HC_abs="58.422554" PMx_abs="13.559337" NOx_abs="354.093834" fuel_abs="400.827137" electricity_abs="0"
            CO_normed="487.847816" CO2_normed="56133.078053" HC_normed="3.516952" PMx_normed="0.816252" NOx_normed="21.315930" fuel_normed="24.129206" electricity_normed="0"
            traveltime="0.95" CO_perVeh="17.114950" CO2_perVeh="1969.292099" HC_perVeh="0.123384" PMx_perVeh="0.028636" NOx_perVeh="0.747817" fuel_perVeh="0.846514" electricity_perVeh="0"/>
        <edge id=":1106006327_0" sampledSeconds="606.09" CO_abs="81603.271164" CO2_abs="2649761.512155" HC_abs="433.935610" PMx_abs="55.224215" NOx_abs="1159.582288" fuel_abs="1139.038959" electricity_abs="0"
            CO_normed="6925.038711" CO2_normed="224864.773007" HC_normed="36.824760" PMx_normed="4.686452" NOx_normed="98.404784" fuel_normed="96.661430" electricity_normed="0"
            traveltime="2.09" CO_perVeh="281.074958" CO2_perVeh="9126.859689" HC_perVeh="1.494651" PMx_perVeh="0.190215" NOx_perVeh="3.994074" fuel_perVeh="3.923315" electricity_perVeh="0"/>
        <edge id=":1106006327_1" sampledSeconds="164.32" CO_abs="22221.552013" CO2_abs="733471.874883" HC_abs="118.462476" PMx_abs="15.305867" NOx_abs="321.016271" fuel_abs="315.293339" electricity_abs="0"
            CO_normed="1644.481678" CO2_normed="54279.784714" HC_normed="8.766686" PMx_normed="1.132694" NOx_normed="23.756458" fuel_normed="23.332939" electricity_normed="0"
            traveltime="2.33" CO_perVeh="315.463571" CO2_perVeh="10412.578595" HC_perVeh="1.681728" PMx_perVeh="0.217287" NOx_perVeh="4.557240" fuel_perVeh="4.475995" electricity_perVeh="0"/>
        <edge id=":1106006327_2" sampledSeconds="0.00" CO_abs="0" CO2_abs="0" HC_abs="0" PMx_abs="0" NOx_abs="0" fuel_abs="0" electricity_abs="0"
            CO_normed="0" CO2_normed="0" HC_normed="0" PMx_normed="0" NOx_normed="0" fuel_normed="0" electricity_normed="0"/>
        <edge id=":1106006327_3" sampledSeconds="0.00" CO_abs="0" CO2_abs="0" HC_abs="0" PMx_abs="0" NOx_abs="0" fuel_abs="0" electricity_abs="0"
            CO_normed="0" CO2_normed="0" HC_normed="0" PMx_normed="0" NOx_normed="0" fuel_normed="0" electricity_normed="0"/>
        <edge id=":1107381198_0" sampledSeconds="0.00" CO_abs="0" CO2_abs="0" HC_abs="0" PMx_abs="0" NOx_abs="0" fuel_abs="0" electricity_abs="0"
            CO_normed="0" CO2_normed="0" HC_normed="0" PMx_normed="0" NOx_normed="0" fuel_normed="0" electricity_normed="0"/>
        <edge id=":1107381198_1" sampledSeconds="36.66" CO_abs="1418.233862" CO2_abs="54893.933836" HC_abs="7.714091" PMx_abs="0.915947" NOx_abs="22.544678" fuel_abs="23.597081" electricity_abs="0"
            CO_normed="116.285851" CO2_normed="4500.941599" HC_normed="0.632505" PMx_normed="0.075102" NOx_normed="1.848515" fuel_normed="1.934805" electricity_normed="0"
            traveltime="1.51" CO_perVeh="58.392621" CO2_perVeh="2260.135476" HC_perVeh="0.317611" PMx_perVeh="0.037712" NOx_perVeh="0.928227" fuel_perVeh="0.971557" electricity_perVeh="0"/>
        <edge id=":1110338277_0" sampledSeconds="96.96" CO_abs="1403.669359" CO2_abs="173134.674826" HC_abs="10.343086" PMx_abs="2.329548" NOx_abs="64.479203" fuel_abs="74.423386" electricity_abs="0"
            CO_normed="3769.251771" CO2_normed="464915.882991" HC_normed="27.774131" PMx_normed="6.255500" NOx_normed="173.145015" fuel_normed="199.847976" electricity_normed="0"
            traveltime="0.02" CO_perVeh="0.317158" CO2_perVeh="39.119588" HC_perVeh="0.002337" PMx_perVeh="0.000526" NOx_perVeh="0.014569" fuel_perVeh="0.016816" electricity_perVeh="0"/>
        <edge id=":1110338293_0" sampledSeconds="124.63" CO_abs="5478.570764" CO2_abs="383186.992894" HC_abs="33.937744" PMx_abs="6.632267" NOx_abs="156.190957" fuel_abs="164.715510" electricity_abs="0"
            CO_normed="13730.753795" CO2_normed="960368.403243" HC_normed="85.057002" PMx_normed="16.622224" NOx_normed="391.456033" fuel_normed="412.820828" electricity_normed="0"
            traveltime="0.03" CO_perVeh="1.256601" CO2_perVeh="87.890285" HC_perVeh="0.007784" PMx_perVeh="0.001521" NOx_perVeh="0.035825" fuel_perVeh="0.037780" electricity_perVeh="0"/>
        <edge id=":1110338295_0" sampledSeconds="0.00" CO_abs="0" CO2_abs="0" HC_abs="0" PMx_abs="0" NOx_abs="0" fuel_abs="0" electricity_abs="0"
            CO_normed="0" CO2_normed="0" HC_normed="0" PMx_normed="0" NOx_normed="0" fuel_normed="0" electricity_normed="0"/>
        <edge id=":1110673403_0" sampledSeconds="143.66" CO_abs="2131.721747" CO2_abs="267928.876699" HC_abs="15.854516" PMx_abs="3.660443" NOx_abs="100.025506" fuel_abs="115.171362" electricity_abs="0"
            CO_normed="5342.661021" CO2_normed="671500.944107" HC_normed="39.735629" PMx_normed="9.174043" NOx_normed="250.690491" fuel_normed="288.650030" electricity_normed="0"
            traveltime="0.02" CO_perVeh="0.342262" CO2_perVeh="43.017748" HC_perVeh="0.002546" PMx_perVeh="0.000588" NOx_perVeh="0.016060" fuel_perVeh="0.018492" electricity_perVeh="0"/>
        <edge id=":1110673412_0" sampledSeconds="252.19" CO_abs="44835.396227" CO2_abs="3060892.815908" HC_abs="279.060794" PMx_abs="67.263215" NOx_abs="1315.278722" fuel_abs="1315.727057" electricity_abs="0"
            CO_normed="116244.221486" CO2_normed="7935941.965020" HC_normed="723.517745" PMx_normed="174.392572" NOx_normed="3410.108172" fuel_normed="3411.270566" electricity_normed="0"
            traveltime="0.02" CO_perVeh="2.758827" CO2_perVeh="188.343879" HC_perVeh="0.017171" PMx_perVeh="0.004139" NOx_perVeh="0.080932" fuel_perVeh="0.080960" electricity_perVeh="0"/>
        <edge id=":1110673414_0" sampledSeconds="0.00" CO_abs="0" CO2_abs="0" HC_abs="0" PMx_abs="0" NOx_abs="0" fuel_abs="0" electricity_abs="0"
            CO_normed="0" CO2_normed="0" HC_normed="0" PMx_normed="0" NOx_normed="0" fuel_normed="0" electricity_normed="0"/>
        <edge id=":1110673414_1" sampledSeconds="133.62" CO_abs="8562.075398" CO2_abs="323015.884226" HC_abs="46.460153" PMx_abs="5.845372" NOx_abs="135.621812" fuel_abs="138.853299" electricity_abs="0"
            CO_normed="712.918126" CO2_normed="26895.801316" HC_normed="3.868488" PMx_normed="0.486713" NOx_normed="11.292501" fuel_normed="11.561570" electricity_normed="0"
            traveltime="1.59" CO_perVeh="102.012852" CO2_perVeh="3848.572944" HC_perVeh="0.553550" PMx_perVeh="0.069645" NOx_perVeh="1.615866" fuel_perVeh="1.654368" electricity_perVeh="0"/>
        <edge id=":1110673417_0" sampledSeconds="29.86" CO_abs="387.452858" CO2_abs="49456.475331" HC_abs="2.894918" PMx_abs="0.656568" NOx_abs="18.354601" fuel_abs="21.259282" electricity_abs="0"
            CO_normed="1040.421207" CO2_normed="132804.713564" HC_normed="7.773679" PMx_normed="1.763071" NOx_normed="49.287329" fuel_normed="57.087224" electricity_normed="0"
            traveltime="0.02" CO_perVeh="0.287573" CO2_perVeh="36.707258" HC_perVeh="0.002149" PMx_perVeh="0.000487" NOx_perVeh="0.013623" fuel_perVeh="0.015779" electricity_perVeh="0"/>
        <edge id=":1110673446_0" sampledSeconds="334.63" CO_abs="3310.703046" CO2_abs="272742.641219" HC_abs="21.534184" PMx_abs="4.973651" NOx_abs="111.280286" fuel_abs="117.239525" electricity_abs="0"
            CO_normed="8297.501367" CO2_normed="683565.516840" HC_normed="53.970386" PMx_normed="12.465290" NOx_normed="278.897959" fuel_normed="293.833395" electricity_normed="0"
            traveltime="0.02" CO_perVeh="0.225804" CO2_perVeh="18.602219" HC_perVeh="0.001469" PMx_perVeh="0.000339" NOx_perVeh="0.007590" fuel_perVeh="0.007996" electricity_perVeh="0"/>
        <edge id=":1110673451_0" sampledSeconds="37.55" CO_abs="448.506570" CO2_abs="31352.638394" HC_abs="2.762595" PMx_abs="0.464279" NOx_abs="12.286841" fuel_abs="13.477261" electricity_abs="0"
            CO_normed="1248.974017" CO2_normed="87308.934542" HC_normed="7.693109" PMx_normed="1.292897" NOx_normed="34.215652" fuel_normed="37.530664" electricity_normed="0"
            traveltime="0.03" CO_perVeh="0.321638" CO2_perVeh="22.483964" HC_perVeh="0.001981" PMx_perVeh="0.000333" NOx_perVeh="0.008811" fuel_perVeh="0.009665" electricity_perVeh="0"/>
        <edge id=":1110673464_0" sampledSeconds="321.76" CO_abs="561.309190" CO2_abs="42690.145243" HC_abs="3.508698" PMx_abs="0.595208" NOx_abs="16.389832" fuel_abs="18.350828" electricity_abs="0"
            CO_normed="29.889305" CO2_normed="2273.219091" HC_normed="0.186836" PMx_normed="0.031694" NOx_normed="0.872747" fuel_normed="0.977168" electricity_normed="0"
            traveltime="1.16" CO_perVeh="2.029059" CO2_perVeh="154.319243" HC_perVeh="0.012683" PMx_perVeh="0.002152" NOx_perVeh="0.059247" fuel_perVeh="0.066336" electricity_perVeh="0"/>
        <edge id=":1110673464_1" sampledSeconds="709.75" CO_abs="14999.449425" CO2_abs="1958675.245219" HC_abs="115.022536" PMx_abs="34.538625" NOx_abs="732.498386" fuel_abs="841.944787" electricity_abs="0"
            CO_normed="782.635775" CO2_normed="102199.039160" HC_normed="6.001604" PMx_normed="1.802144" NOx_normed="38.220032" fuel_normed="43.930687" electricity_normed="0"
            traveltime="0.70" CO_perVeh="14.797377" CO2_perVeh="1932.288052" HC_perVeh="0.113473" PMx_perVeh="0.034073" NOx_perVeh="0.722630" fuel_perVeh="0.830602" electricity_perVeh="0"/>
        <edge id=":1110673479_0" sampledSeconds="133.52" CO_abs="6971.410068" CO2_abs="476790.217450" HC_abs="42.977646" PMx_abs="8.527940" NOx_abs="196.289383" fuel_abs="204.951181" electricity_abs="0"
            CO_normed="17472.205685" CO2_normed="1194962.951002" HC_normed="107.713398" PMx_normed="21.373283" NOx_normed="491.953342" fuel_normed="513.662108" electricity_normed="0"
            traveltime="0.03" CO_perVeh="1.468593" CO2_perVeh="100.440324" HC_perVeh="0.009054" PMx_perVeh="0.001796" NOx_perVeh="0.041350" fuel_perVeh="0.043175" electricity_perVeh="0"/>
        <edge id=":1110673511_0" sampledSeconds="11.57" CO_abs="204.200918" CO2_abs="28081.127604" HC_abs="1.558227" PMx_abs="0.355655" NOx_abs="10.275074" fuel_abs="12.070923" electricity_abs="0"
            CO_normed="511.781748" CO2_normed="70378.765925" HC_normed="3.905330" PMx_normed="0.891367" NOx_normed="25.752065" fuel_normed="30.252941" electricity_normed="0"
            traveltime="0.02" CO_perVeh="0.404358" CO2_perVeh="55.606193" HC_perVeh="0.003086" PMx_perVeh="0.000704" NOx_perVeh="0.020347" fuel_perVeh="0.023903" electricity_perVeh="0"/>
        <edge id=":1110673517_0" sampledSeconds="17.12" CO_abs="831.539073" CO2_abs="57398.745495" HC_abs="5.141951" PMx_abs="1.040450" NOx_abs="23.699483" fuel_abs="24.673175" electricity_abs="0"
            CO_normed="2084.057827" CO2_normed="143856.505000" HC_normed="12.887095" PMx_normed="2.607644" NOx_normed="59.397200" fuel_normed="61.837531" electricity_normed="0"
            traveltime="0.03" CO_perVeh="1.335091" CO2_perVeh="92.157472" HC_perVeh="0.008256" PMx_perVeh="0.001671" NOx_perVeh="0.038051" fuel_perVeh="0.039614" electricity_perVeh="0"/>
        <edge id=":1110673534_0" sampledSeconds="473.46" CO_abs="3213.637143" CO2_abs="283285.533268" HC_abs="21.106436" PMx_abs="3.791525" NOx_abs="107.292583" fuel_abs="121.773281" electricity_abs="0"
            CO_normed="156.089698" CO2_normed="13759.472969" HC_normed="1.025162" PMx_normed="0.184158" NOx_normed="5.211312" fuel_normed="5.914655" electricity_normed="0"
            traveltime="1.43" CO_perVeh="9.681417" CO2_perVeh="853.427171" HC_perVeh="0.063585" PMx_perVeh="0.011422" NOx_perVeh="0.323230" fuel_perVeh="0.366855" electricity_perVeh="0"/>
        <edge id=":1110673534_1" sampledSeconds="183.80" CO_abs="2759.190190" CO2_abs="354720.830181" HC_abs="20.615839" PMx_abs="4.782268" NOx_abs="131.831622" fuel_abs="152.479622" electricity_abs="0"
            CO_normed="130.312757" CO2_normed="16752.976829" HC_normed="0.973658" PMx_normed="0.225860" NOx_normed="6.226226" fuel_normed="7.201403" electricity_normed="0"
            traveltime="1.22" CO_perVeh="18.320032" CO2_perVeh="2355.218965" HC_perVeh="0.136882" PMx_perVeh="0.031753" NOx_perVeh="0.875315" fuel_perVeh="1.012410" electricity_perVeh="0"/>
        <edge id=":1110673549_0" sampledSeconds="60.44" CO_abs="36.230373" CO2_abs="4904.944134" HC_abs="0.280123" PMx_abs="0.073901" NOx_abs="1.852597" fuel_abs="2.108419" electricity_abs="0"
            CO_normed="1.704686" CO2_normed="230.783975" HC_normed="0.013180" PMx_normed="0.003477" NOx_normed="0.087167" fuel_normed="0.099204" electricity_normed="0"
            traveltime="1.26" CO_perVeh="0.754829" CO2_perVeh="102.190333" HC_perVeh="0.005836" PMx_perVeh="0.001540" NOx_perVeh="0.038597" fuel_perVeh="0.043927" electricity_perVeh="0"/>
        <edge id=":1110673549_1" sampledSeconds="640.34" CO_abs="13312.248040" CO2_abs="1821070.849365" HC_abs="104.163838" PMx_abs="31.705131" NOx_abs="676.662284" fuel_abs="782.795247" electricity_abs="0"
            CO_normed="605.884325" CO2_normed="82882.942042" HC_normed="4.740840" PMx_normed="1.443005" NOx_normed="30.797133" fuel_normed="35.627594" electricity_normed="0"
            traveltime="0.81" CO_perVeh="16.760089" CO2_perVeh="2292.723981" HC_perVeh="0.131142" PMx_perVeh="0.039917" NOx_perVeh="0.851916" fuel_perVeh="0.985537" electricity_perVeh="0"/>
        <edge id=":1110673556_0" sampledSeconds="419.67" CO_abs="51566.498283" CO2_abs="2580537.427245" HC_abs="296.156485" PMx_abs="52.066402" NOx_abs="1111.620324" fuel_abs="1109.261397" electricity_abs="0"
            CO_normed="1799.155602" CO2_normed="90034.974696" HC_normed="10.332902" PMx_normed="1.816597" NOx_normed="38.784443" fuel_normed="38.702140" electricity_normed="0"
            traveltime="2.61" CO_perVeh="320.100481" CO2_perVeh="16018.758262" HC_perVeh="1.838400" PMx_perVeh="0.323204" NOx_perVeh="6.900414" fuel_perVeh="6.885771" electricity_perVeh="0"/>
        <edge id=":1110673556_2" sampledSeconds="246.40" CO_abs="23627.392219" CO2_abs="1027874.323842" HC_abs="131.721055" PMx_abs="19.771774" NOx_abs="437.944269" fuel_abs="441.842675" electricity_abs="0"
            CO_normed="861.958106" CO2_normed="37498.196869" HC_normed="4.805356" PMx_normed="0.721300" NOx_normed="15.976779" fuel_normed="16.118997" electricity_normed="0"
            traveltime="2.99" CO_perVeh="286.595740" CO2_perVeh="12467.918578" HC_perVeh="1.597751" PMx_perVeh="0.239828" NOx_perVeh="5.312180" fuel_perVeh="5.359467" electricity_perVeh="0"/>
        <edge id=":1110673556_3" sampledSeconds="370.80" CO_abs="31898.220197" CO2_abs="1131509.259174" HC_abs="171.618820" PMx_abs="21.803166" NOx_abs="483.925304" fuel_abs="486.396067" electricity_abs="0"
            CO_normed="2647.199140" CO2_normed="93902.741886" HC_normed="14.242462" PMx_normed="1.809421" NOx_normed="40.160443" fuel_normed="40.365489" electricity_normed="0"
            traveltime="1.76" CO_perVeh="151.642831" CO2_perVeh="5379.148636" HC_perVeh="0.815869" PMx_perVeh="0.103651" NOx_perVeh="2.300561" fuel_perVeh="2.312307" electricity_perVeh="0"/>
        <edge id=":1110673556_4" sampledSeconds="176.16" CO_abs="17494.040531" CO2_abs="702731.193752" HC_abs="96.139543" PMx_abs="13.665873" NOx_abs="300.820190" fuel_abs="302.077327" electricity_abs="0"
            CO_normed="886.946320" CO2_normed="35628.409886" HC_normed="4.874266" PMx_normed="0.692859" NOx_normed="15.251557" fuel_normed="15.315294" electricity_normed="0"
            traveltime="2.38" CO_perVeh="236.608621" CO2_perVeh="9504.508612" HC_perVeh="1.300297" PMx_perVeh="0.184832" NOx_perVeh="4.068623" fuel_perVeh="4.085626" electricity_perVeh="0"/>
        <edge id=":1110673556_5" sampledSeconds="23.91" CO_abs="1782.761102" CO2_abs="73660.170430" HC_abs="9.830890" PMx_abs="1.350342" NOx_abs="31.008273" fuel_abs="31.663778" electricity_abs="0"
            CO_normed="125.979500" CO2_normed="5205.224322" HC_normed="0.694704" PMx_normed="0.095422" NOx_normed="2.191212" fuel_normed="2.237533" electricity_normed="0"
            traveltime="1.65" CO_perVeh="123.252619" CO2_perVeh="5092.554993" HC_perVeh="0.679667" PMx_perVeh="0.093357" NOx_perVeh="2.143782" fuel_perVeh="2.189101" electricity_perVeh="0"/>
        <edge id=":1110673556_6" sampledSeconds="317.62" CO_abs="38368.480495" CO2_abs="1931363.761572" HC_abs="220.632500" PMx_abs="38.941904" NOx_abs="831.505754" fuel_abs="830.209602" electricity_abs="0"
            CO_normed="1372.430142" CO2_normed="69084.357954" HC_normed="7.891965" PMx_normed="1.392941" NOx_normed="29.742735" fuel_normed="29.696372" electricity_normed="0"
            traveltime="2.52" CO_perVeh="303.847501" CO2_perVeh="15294.847349" HC_perVeh="1.747232" PMx_perVeh="0.308389" NOx_perVeh="6.584857" fuel_perVeh="6.574592" electricity_perVeh="0"/>
        <edge id=":1110673561_0" sampledSeconds="100.22" CO_abs="10223.566259" CO2_abs="724746.294293" HC_abs="63.999250" PMx_abs="14.802742" NOx_abs="307.487421" fuel_abs="311.533763" electricity_abs="0"
            CO_normed="459.467539" CO2_normed="32571.549658" HC_normed="2.876254" PMx_normed="0.665265" NOx_normed="13.819100" fuel_normed="14.000951" electricity_normed="0"
            traveltime="1.18" CO_perVeh="120.648005" CO2_perVeh="8552.709711" HC_perVeh="0.755253" PMx_perVeh="0.174687" NOx_perVeh="3.628650" fuel_perVeh="3.676401" electricity_perVeh="0"/>
        <edge id=":1110673561_1" sampledSeconds="1320.38" CO_abs="121024.836472" CO2_abs="8378810.421127" HC_abs="753.798464" PMx_abs="175.235482" NOx_abs="3583.130477" fuel_abs="3601.645828" electricity_abs="0"
            CO_normed="5302.804059" CO2_normed="367124.560577" HC_normed="33.028308" PMx_normed="7.678089" NOx_normed="156.997848" fuel_normed="157.809113" electricity_normed="0"
            traveltime="1.20" CO_perVeh="109.605495" CO2_perVeh="7588.224775" HC_perVeh="0.682674" PMx_perVeh="0.158701" NOx_perVeh="3.245043" fuel_perVeh="3.261811" electricity_perVeh="0"/>
        <edge id=":1110673562_0" sampledSeconds="104.22" CO_abs="2109.749459" CO2_abs="166363.941395" HC_abs="13.385497" PMx_abs="2.167334" NOx_abs="62.920925" fuel_abs="71.513549" electricity_abs="0"
            CO_normed="5875.102921" CO2_normed="463280.260081" HC_normed="37.275123" PMx_normed="6.035461" NOx_normed="175.218393" fuel_normed="199.146614" electricity_normed="0"
            traveltime="0.03" CO_perVeh="0.537785" CO2_perVeh="42.406926" HC_perVeh="0.003412" PMx_perVeh="0.000552" NOx_perVeh="0.016039" fuel_perVeh="0.018229" electricity_perVeh="0"/>
        <edge id=":1110673564_0" sampledSeconds="28.75" CO_abs="495.533626" CO2_abs="58880.013003" HC_abs="3.597829" PMx_abs="0.775321" NOx_abs="21.902312" fuel_abs="25.310099" electricity_abs="0"
            CO_normed="3725.816733" CO2_normed="442706.864683" HC_normed="27.051344" PMx_normed="5.829482" NOx_normed="164.679034" fuel_normed="190.301494" electricity_normed="0"
            traveltime="7.904643e-03" CO_perVeh="0.136229" CO2_perVeh="16.186945" HC_perVeh="0.000989" PMx_perVeh="0.000213" NOx_perVeh="0.006021" fuel_perVeh="0.006958" electricity_perVeh="0"/>
        <edge id=":1110673588_0" sampledSeconds="11.69" CO_abs="137.867864" CO2_abs="16815.062332" HC_abs="1.018393" PMx_abs="0.240082" NOx_abs="6.342166" fuel_abs="7.228077" electricity_abs="0"
            CO_normed="414.640193" CO2_normed="50571.616036" HC_normed="3.062836" PMx_normed="0.722051" NOx_normed="19.074183" fuel_normed="21.738577" electricity_normed="0"
            traveltime="0.02" CO_perVeh="0.229780" CO2_perVeh="28.025104" HC_perVeh="0.001697" PMx_perVeh="0.000400" NOx_perVeh="0.010570" fuel_perVeh="0.012047" electricity_perVeh="0"/>
        <edge id=":1110673601_0" sampledSeconds="30.11" CO_abs="482.801981" CO2_abs="54345.371548" HC_abs="3.445910" PMx_abs="0.765657" NOx_abs="20.526665" fuel_abs="23.360789" electricity_abs="0"
            CO_normed="1296.460743" CO2_normed="145932.791481" HC_normed="9.253250" PMx_normed="2.056008" NOx_normed="55.119939" fuel_normed="62.730368" electricity_normed="0"
            traveltime="0.02" CO_perVeh="0.358342" CO2_perVeh="40.335862" HC_perVeh="0.002558" PMx_perVeh="0.000568" NOx_perVeh="0.015235" fuel_perVeh="0.017339" electricity_perVeh="0"/>
        <edge id=":1110673617_0" sampledSeconds="237.54" CO_abs="6154.090066" CO2_abs="741353.100689" HC_abs="45.836082" PMx_abs="13.393212" NOx_abs="281.047037" fuel_abs="318.673505" electricity_abs="0"
            CO_normed="15423.784627" CO2_normed="1858027.821275" HC_normed="114.877398" PMx_normed="33.566948" NOx_normed="704.378538" fuel_normed="798.680464" electricity_normed="0"
            traveltime="0.01" CO_perVeh="0.377592" CO2_perVeh="45.486620" HC_perVeh="0.002812" PMx_perVeh="0.000822" NOx_perVeh="0.017244" fuel_perVeh="0.019553" electricity_perVeh="0"/>
        <edge id=":1110673621_0" sampledSeconds="25.84" CO_abs="571.215865" CO2_abs="62477.797107" HC_abs="4.022198" PMx_abs="0.892278" NOx_abs="23.707782" fuel_abs="26.856566" electricity_abs="0"
            CO_normed="1717.942452" CO2_normed="187903.149195" HC_normed="12.096838" PMx_normed="2.683542" NOx_normed="71.301600" fuel_normed="80.771628" electricity_normed="0"
            traveltime="0.02" CO_perVeh="0.432739" CO2_perVeh="47.331664" HC_perVeh="0.003047" PMx_perVeh="0.000676" NOx_perVeh="0.017960" fuel_perVeh="0.020346" electricity_perVeh="0"/>
        <edge id=":1110673630_0" sampledSeconds="54.65" CO_abs="241.427054" CO2_abs="24275.489732" HC_abs="1.651733" PMx_abs="0.304288" NOx_abs="9.019036" fuel_abs="10.435083" electricity_abs="0"
            CO_normed="12.947511" CO2_normed="1301.872177" HC_normed="0.088581" PMx_normed="0.016319" NOx_normed="0.483683" fuel_normed="0.559624" electricity_normed="0"
            traveltime="1.28" CO_perVeh="5.635334" CO2_perVeh="566.632868" HC_perVeh="0.038554" PMx_perVeh="0.007103" NOx_perVeh="0.210520" fuel_perVeh="0.243573" electricity_perVeh="0"/>
        <edge id=":1110673630_1" sampledSeconds="7.28" CO_abs="0.903909" CO2_abs="145.011889" HC_abs="0.007418" PMx_abs="0.001671" NOx_abs="0.052007" fuel_abs="0.062335" electricity_abs="0"
            CO_normed="0.059098" CO2_normed="9.481000" HC_normed="0.000485" PMx_normed="0.000109" NOx_normed="0.003400" fuel_normed="0.004076" electricity_normed="0"
            traveltime="1.03" CO_perVeh="0.127938" CO2_perVeh="20.524760" HC_perVeh="0.001050" PMx_perVeh="0.000237" NOx_perVeh="0.007361" fuel_perVeh="0.008823" electricity_perVeh="0"/>
        <edge id=":1110673650_0" sampledSeconds="143.05" CO_abs="2171.753453" CO2_abs="286018.088708" HC_abs="16.396641" PMx_abs="3.827501" NOx_abs="106.019881" fuel_abs="122.947204" electricity_abs="0"
            CO_normed="5442.991110" CO2_normed="716837.315057" HC_normed="41.094338" PMx_normed="9.592736" NOx_normed="265.713987" fuel_normed="308.138355" electricity_normed="0"
            traveltime="0.02" CO_perVeh="0.349243" CO2_perVeh="45.994994" HC_perVeh="0.002637" PMx_perVeh="0.000616" NOx_perVeh="0.017049" fuel_perVeh="0.019771" electricity_perVeh="0"/>
        <edge id=":1110673655_0" sampledSeconds="45.41" CO_abs="747.315785" CO2_abs="90511.196558" HC_abs="5.457490" PMx_abs="1.189462" NOx_abs="33.575539" fuel_abs="38.907043" electricity_abs="0"
            CO_normed="1872.971891" CO2_normed="226845.104155" HC_normed="13.677920" PMx_normed="2.981109" NOx_normed="84.149220" fuel_normed="97.511385" electricity_normed="0"
            traveltime="0.02" CO_perVeh="0.399955" CO2_perVeh="48.440565" HC_perVeh="0.002921" PMx_perVeh="0.000637" NOx_perVeh="0.017969" fuel_perVeh="0.020823" electricity_perVeh="0"/>
        <edge id=":1110673663_0" sampledSeconds="108.58" CO_abs="1751.326411" CO2_abs="208645.725127" HC_abs="12.763068" PMx_abs="2.959469" NOx_abs="78.621997" fuel_abs="89.687933" electricity_abs="0"
            CO_normed="80.389913" CO2_normed="9577.318990" HC_normed="0.585854" PMx_normed="0.135846" NOx_normed="3.608931" fuel_normed="4.116883" electricity_normed="0"
            traveltime="1.28" CO_perVeh="20.570155" CO2_perVeh="2450.642471" HC_perVeh="0.149908" PMx_perVeh="0.034760" NOx_perVeh="0.923452" fuel_perVeh="1.053427" electricity_perVeh="0"/>
        <edge id=":1110673663_1" sampledSeconds="153.97" CO_abs="2467.532621" CO2_abs="306904.227267" HC_abs="18.181136" PMx_abs="4.269375" NOx_abs="114.881312" fuel_abs="131.925130" electricity_abs="0"
            CO_normed="113.403893" CO2_normed="14104.832402" HC_normed="0.835576" PMx_normed="0.196214" NOx_normed="5.279763" fuel_normed="6.063070" electricity_normed="0"
            traveltime="1.25" CO_perVeh="19.998550" CO2_perVeh="2487.359014" HC_perVeh="0.147352" PMx_perVeh="0.034602" NOx_perVeh="0.931076" fuel_perVeh="1.069210" electricity_perVeh="0"/>
        <edge id=":1110673666_0" sampledSeconds="191.46" CO_abs="4573.572269" CO2_abs="368842.761136" HC_abs="29.234051" PMx_abs="4.937618" NOx_abs="140.241353" fuel_abs="158.551235" electricity_abs="0"