<?xml version="1.0" encoding="UTF-8"?>

<!-- generated on Mon Nov  9 23:03:15 2020 by Eclipse SUMO sumo Version 1.7.0
<configuration xmlns:xsi="http://www.w3.org/2001/XMLSchema-instance" xsi:noNamespaceSchemaLocation="http://sumo.dlr.de/xsd/sumoConfiguration.xsd">

    <input>
        <net-file value="../dataSets/Porto/6AM7AM_Routing_SaoBento/Porto.net.xml"/>
        <route-files value="../results/Porto/6AM7AM_Routing_SaoBento/cost_co2-length/solution4/Porto.rou.xml"/>
        <additional-files value="moreOutputInfo.xml"/>
    </input>

    <output>
        <emission-output.precision value="6"/>
        <tripinfo-output value="../results/Porto/6AM7AM_Routing_SaoBento/cost_co2-length/solution4/Porto-tripinfo"/>
    </output>

    <processing>
        <collision.action value="warn"/>
        <time-to-teleport value="-1"/>
    </processing>

    <emissions>
        <device.emissions.probability value="1"/>
    </emissions>

    <gui_only>
        <quit-on-end value="true"/>
        <start value="true"/>
    </gui_only>

</configuration>
-->

<meandata xmlns:xsi="http://www.w3.org/2001/XMLSchema-instance" xsi:noNamespaceSchemaLocation="http://sumo.dlr.de/xsd/meandata_file.xsd">
    <interval begin="0.00" end="4699.00" id="emissions-detector">
        <edge id=":1092997347_0" sampledSeconds="270.77" CO_abs="34472.985603" CO2_abs="1358200.841189" HC_abs="189.077171" PMx_abs="27.810342" NOx_abs="590.273259" fuel_abs="583.837166" electricity_abs="0"
            CO_normed="60023.771098" CO2_normed="2364876.002768" HC_normed="329.217926" PMx_normed="48.422891" NOx_normed="1027.773672" fuel_normed="1016.567257" electricity_normed="0"
            traveltime="0.08" CO_perVeh="9.677370" CO2_perVeh="381.278624" HC_perVeh="0.053078" PMx_perVeh="0.007807" NOx_perVeh="0.165703" fuel_perVeh="0.163897" electricity_perVeh="0"/>
        <edge id=":1103427051_0" sampledSeconds="11.25" CO_abs="765.967134" CO2_abs="42212.386112" HC_abs="4.490199" PMx_abs="0.832925" NOx_abs="18.057201" fuel_abs="18.145241" electricity_abs="0"
            CO_normed="2023.527883" CO2_normed="111516.456182" HC_normed="11.862183" PMx_normed="2.200416" NOx_normed="47.703417" fuel_normed="47.936002" electricity_normed="0"
            traveltime="0.03" CO_perVeh="2.098738" CO2_perVeh="115.661300" HC_perVeh="0.012303" PMx_perVeh="0.002282" NOx_perVeh="0.049476" fuel_perVeh="0.049718" electricity_perVeh="0"/>
        <edge id=":1105984386_0" sampledSeconds="22.76" CO_abs="454.240554" CO2_abs="35062.350354" HC_abs="2.869823" PMx_abs="0.486675" NOx_abs="13.482896" fuel_abs="15.071934" electricity_abs="0"
            CO_normed="35.839648" CO2_normed="2766.424683" HC_normed="0.226429" PMx_normed="0.038399" NOx_normed="1.063803" fuel_normed="1.189178" electricity_normed="0"
            traveltime="0.96" CO_perVeh="19.064124" CO2_perVeh="1471.539687" HC_perVeh="0.120444" PMx_perVeh="0.020425" NOx_perVeh="0.565867" fuel_perVeh="0.632557" electricity_perVeh="0"/>
        <edge id=":1105984390_0" sampledSeconds="22.87" CO_abs="3.269024" CO2_abs="289.397150" HC_abs="0.021165" PMx_abs="0.002167" NOx_abs="0.098885" fuel_abs="0.124403" electricity_abs="0"
            CO_normed="0.199400" CO2_normed="17.652315" HC_normed="0.001291" PMx_normed="0.000132" NOx_normed="0.006032" fuel_normed="0.007588" electricity_normed="0"
            traveltime="1.04" CO_perVeh="0.148249" CO2_perVeh="13.124019" HC_perVeh="0.000960" PMx_perVeh="0.000098" NOx_perVeh="0.004484" fuel_perVeh="0.005642" electricity_perVeh="0"/>
        <edge id=":1105984390_1" sampledSeconds="645.67" CO_abs="14449.376378" CO2_abs="1896041.346413" HC_abs="111.075557" PMx_abs="33.424287" NOx_abs="708.144659" fuel_abs="815.021395" electricity_abs="0"
            CO_normed="843.104551" CO2_normed="110631.839431" HC_normed="6.481131" PMx_normed="1.950269" NOx_normed="41.319429" fuel_normed="47.555564" electricity_normed="0"
            traveltime="0.64" CO_perVeh="14.232699" CO2_perVeh="1867.609067" HC_perVeh="0.109410" PMx_perVeh="0.032923" NOx_perVeh="0.697526" fuel_perVeh="0.802800" electricity_perVeh="0"/>
        <edge id=":1105984395_0" sampledSeconds="8.92" CO_abs="138.091438" CO2_abs="10481.821952" HC_abs="0.868853" PMx_abs="0.148083" NOx_abs="4.045138" fuel_abs="4.505724" electricity_abs="0"
            CO_normed="114.994212" CO2_normed="8728.628438" HC_normed="0.723528" PMx_normed="0.123315" NOx_normed="3.368546" fuel_normed="3.752095" electricity_normed="0"
            traveltime="0.09" CO_perVeh="1.400398" CO2_perVeh="106.297136" HC_perVeh="0.008811" PMx_perVeh="0.001502" NOx_perVeh="0.041022" fuel_perVeh="0.045693" electricity_perVeh="0"/>
        <edge id=":1105984398_0" sampledSeconds="22.61" CO_abs="1641.568846" CO2_abs="113700.082958" HC_abs="10.164256" PMx_abs="2.081396" NOx_abs="47.070454" fuel_abs="48.874588" electricity_abs="0"
            CO_normed="104.023115" CO2_normed="7204.959376" HC_normed="0.644090" PMx_normed="0.131894" NOx_normed="2.982766" fuel_normed="3.097090" electricity_normed="0"
            traveltime="1.08" CO_perVeh="78.748293" CO2_perVeh="5454.347827" HC_perVeh="0.487593" PMx_perVeh="0.099847" NOx_perVeh="2.258034" fuel_perVeh="2.344581" electricity_perVeh="0"/>
        <edge id=":1105984398_1" sampledSeconds="453.74" CO_abs="7586.895744" CO2_abs="911681.896975" HC_abs="55.444096" PMx_abs="12.789591" NOx_abs="342.901510" fuel_abs="391.893447" electricity_abs="0"
            CO_normed="465.370376" CO2_normed="55921.388809" HC_normed="3.400869" PMx_normed="0.784497" NOx_normed="21.033135" fuel_normed="24.038237" electricity_normed="0"
            traveltime="0.96" CO_perVeh="16.014512" CO2_perVeh="1924.389296" HC_perVeh="0.117032" PMx_perVeh="0.026996" NOx_perVeh="0.723801" fuel_perVeh="0.827213" electricity_perVeh="0"/>
        <edge id=":1106006327_0" sampledSeconds="199.07" CO_abs="26927.348516" CO2_abs="875348.626458" HC_abs="143.220275" PMx_abs="18.276740" NOx_abs="383.270106" fuel_abs="376.281406" electricity_abs="0"
            CO_normed="2328.396433" CO2_normed="75691.025353" HC_normed="12.384197" PMx_normed="1.580382" NOx_normed="33.141204" fuel_normed="32.536894" electricity_normed="0"
            traveltime="2.09" CO_perVeh="282.733649" CO2_perVeh="9191.046468" HC_perVeh="1.503794" PMx_perVeh="0.191903" NOx_perVeh="4.024286" fuel_perVeh="3.950906" electricity_perVeh="0"/>
        <edge id=":1106006327_1" sampledSeconds="161.30" CO_abs="21832.670898" CO2_abs="730067.129088" HC_abs="116.619171" PMx_abs="15.230588" NOx_abs="319.516209" fuel_abs="313.829521" electricity_abs="0"
            CO_normed="1646.304693" CO2_normed="55051.117944" HC_normed="8.793733" PMx_normed="1.148471" NOx_normed="24.093297" fuel_normed="23.664490" electricity_normed="0"
            traveltime="2.29" CO_perVeh="309.942902" CO2_perVeh="10364.243840" HC_perVeh="1.655559" PMx_perVeh="0.216218" NOx_perVeh="4.535944" fuel_perVeh="4.455215" electricity_perVeh="0"/>
        <edge id=":1106006327_2" sampledSeconds="0.00" CO_abs="0" CO2_abs="0" HC_abs="0" PMx_abs="0" NOx_abs="0" fuel_abs="0" electricity_abs="0"
            CO_normed="0" CO2_normed="0" HC_normed="0" PMx_normed="0" NOx_normed="0" fuel_normed="0" electricity_normed="0"/>
        <edge id=":1106006327_3" sampledSeconds="0.00" CO_abs="0" CO2_abs="0" HC_abs="0" PMx_abs="0" NOx_abs="0" fuel_abs="0" electricity_abs="0"
            CO_normed="0" CO2_normed="0" HC_normed="0" PMx_normed="0" NOx_normed="0" fuel_normed="0" electricity_normed="0"/>
        <edge id=":1107381198_0" sampledSeconds="0.00" CO_abs="0" CO2_abs="0" HC_abs="0" PMx_abs="0" NOx_abs="0" fuel_abs="0" electricity_abs="0"
            CO_normed="0" CO2_normed="0" HC_normed="0" PMx_normed="0" NOx_normed="0" fuel_normed="0" electricity_normed="0"/>
        <edge id=":1107381198_1" sampledSeconds="36.51" CO_abs="1384.289369" CO2_abs="55471.037918" HC_abs="7.576084" PMx_abs="0.934631" NOx_abs="22.832849" fuel_abs="23.845104" electricity_abs="0"
            CO_normed="115.652388" CO2_normed="4634.405299" HC_normed="0.632954" PMx_normed="0.078085" NOx_normed="1.907602" fuel_normed="1.992172" electricity_normed="0"
            traveltime="1.50" CO_perVeh="56.995032" CO2_perVeh="2283.896452" HC_perVeh="0.311928" PMx_perVeh="0.038481" NOx_perVeh="0.940092" fuel_perVeh="0.981769" electricity_perVeh="0"/>
        <edge id=":1110338277_0" sampledSeconds="96.82" CO_abs="1681.518608" CO2_abs="202233.769394" HC_abs="12.258833" PMx_abs="2.769829" NOx_abs="75.690483" fuel_abs="86.931826" electricity_abs="0"
            CO_normed="4600.877838" CO2_normed="553340.809455" HC_normed="33.541938" PMx_normed="7.578652" NOx_normed="207.100096" fuel_normed="237.858036" electricity_normed="0"
            traveltime="0.02" CO_perVeh="0.380167" CO2_perVeh="45.722122" HC_perVeh="0.002772" PMx_perVeh="0.000626" NOx_perVeh="0.017113" fuel_perVeh="0.019654" electricity_perVeh="0"/>
        <edge id=":1110338293_0" sampledSeconds="124.11" CO_abs="6200.869913" CO2_abs="425929.310412" HC_abs="38.264630" PMx_abs="7.579681" NOx_abs="175.064672" fuel_abs="183.088350" electricity_abs="0"
            CO_normed="15835.377517" CO2_normed="1087710.518185" HC_normed="97.717720" PMx_normed="19.356494" NOx_normed="447.068753" fuel_normed="467.559097" electricity_normed="0"
            traveltime="0.03" CO_perVeh="1.422272" CO2_perVeh="97.693943" HC_perVeh="0.008777" PMx_perVeh="0.001739" NOx_perVeh="0.040154" fuel_perVeh="0.041994" electricity_perVeh="0"/>
        <edge id=":1110338295_0" sampledSeconds="0.00" CO_abs="0" CO2_abs="0" HC_abs="0" PMx_abs="0" NOx_abs="0" fuel_abs="0" electricity_abs="0"
            CO_normed="0" CO2_normed="0" HC_normed="0" PMx_normed="0" NOx_normed="0" fuel_normed="0" electricity_normed="0"/>
        <edge id=":1110673403_0" sampledSeconds="143.47" CO_abs="2464.630909" CO2_abs="303965.731736" HC_abs="18.216709" PMx_abs="4.190510" NOx_abs="113.782751" fuel_abs="130.662070" electricity_abs="0"
            CO_normed="6294.013813" CO2_normed="776247.878450" HC_normed="46.520644" PMx_normed="10.701451" NOx_normed="290.570975" fuel_normed="333.676279" electricity_normed="0"
            traveltime="0.02" CO_perVeh="0.395714" CO2_perVeh="48.803864" HC_perVeh="0.002925" PMx_perVeh="0.000673" NOx_perVeh="0.018269" fuel_perVeh="0.020979" electricity_perVeh="0"/>
        <edge id=":1110673412_0" sampledSeconds="253.04" CO_abs="45205.736010" CO2_abs="3079241.211776" HC_abs="281.190131" PMx_abs="67.706100" NOx_abs="1323.929840" fuel_abs="1323.614101" electricity_abs="0"
            CO_normed="119424.271956" CO2_normed="8134722.987571" HC_normed="742.846585" PMx_normed="178.865614" NOx_normed="3497.550780" fuel_normed="3496.716664" electricity_normed="0"
            traveltime="0.02" CO_perVeh="2.782396" CO2_perVeh="189.526128" HC_perVeh="0.017307" PMx_perVeh="0.004167" NOx_perVeh="0.081487" fuel_perVeh="0.081468" electricity_perVeh="0"/>
        <edge id=":1110673414_0" sampledSeconds="0.00" CO_abs="0" CO2_abs="0" HC_abs="0" PMx_abs="0" NOx_abs="0" fuel_abs="0" electricity_abs="0"
            CO_normed="0" CO2_normed="0" HC_normed="0" PMx_normed="0" NOx_normed="0" fuel_normed="0" electricity_normed="0"/>
        <edge id=":1110673414_1" sampledSeconds="14.82" CO_abs="1005.357080" CO2_abs="35294.053863" HC_abs="5.386643" PMx_abs="0.610096" NOx_abs="14.640461" fuel_abs="15.171789" electricity_abs="0"
            CO_normed="85.296193" CO2_normed="2994.407139" HC_normed="0.457012" PMx_normed="0.051762" NOx_normed="1.242121" fuel_normed="1.287200" electricity_normed="0"
            traveltime="1.62" CO_perVeh="109.801336" CO2_perVeh="3854.684402" HC_perVeh="0.588309" PMx_perVeh="0.066632" NOx_perVeh="1.598976" fuel_perVeh="1.657006" electricity_perVeh="0"/>
        <edge id=":1110673417_0" sampledSeconds="29.91" CO_abs="411.262975" CO2_abs="46260.567621" HC_abs="2.911795" PMx_abs="0.613466" NOx_abs="17.263232" fuel_abs="19.885524" electricity_abs="0"
            CO_normed="1125.274913" CO2_normed="126575.596203" HC_normed="7.967091" PMx_normed="1.678531" NOx_normed="47.234697" fuel_normed="54.409667" electricity_normed="0"
            traveltime="0.02" CO_perVeh="0.305245" CO2_perVeh="34.335213" HC_perVeh="0.002161" PMx_perVeh="0.000455" NOx_perVeh="0.012813" fuel_perVeh="0.014759" electricity_perVeh="0"/>
        <edge id=":1110673446_0" sampledSeconds="334.13" CO_abs="3451.055723" CO2_abs="279005.499090" HC_abs="22.314179" PMx_abs="5.105331" NOx_abs="114.052226" fuel_abs="119.931656" electricity_abs="0"
            CO_normed="8813.081225" CO2_normed="712506.062797" HC_normed="56.984495" PMx_normed="13.037662" NOx_normed="291.259142" fuel_normed="306.273647" electricity_normed="0"
            traveltime="0.02" CO_perVeh="0.235424" CO2_perVeh="19.033215" HC_perVeh="0.001522" PMx_perVeh="0.000348" NOx_perVeh="0.007780" fuel_perVeh="0.008182" electricity_perVeh="0"/>
        <edge id=":1110673451_0" sampledSeconds="37.60" CO_abs="254.834670" CO2_abs="17805.745496" HC_abs="1.569591" PMx_abs="0.264398" NOx_abs="6.983840" fuel_abs="7.653986" electricity_abs="0"
            CO_normed="723.089082" CO2_normed="50523.502861" HC_normed="4.453688" PMx_normed="0.750225" NOx_normed="19.816527" fuel_normed="21.718056" electricity_normed="0"
            traveltime="0.03" CO_perVeh="0.182750" CO2_perVeh="12.769061" HC_perVeh="0.001126" PMx_perVeh="0.000190" NOx_perVeh="0.005008" fuel_perVeh="0.005489" electricity_perVeh="0"/>
        <edge id=":1110673464_0" sampledSeconds="321.13" CO_abs="479.987530" CO2_abs="37405.552735" HC_abs="3.041748" PMx_abs="0.523135" NOx_abs="14.394396" fuel_abs="16.079177" electricity_abs="0"
            CO_normed="26.043078" CO2_normed="2029.543834" HC_normed="0.165039" PMx_normed="0.028384" NOx_normed="0.781009" fuel_normed="0.872421" electricity_normed="0"
            traveltime="1.16" CO_perVeh="1.735092" CO2_perVeh="135.216138" HC_perVeh="0.010996" PMx_perVeh="0.001891" NOx_perVeh="0.052034" fuel_perVeh="0.058124" electricity_perVeh="0"/>
        <edge id=":1110673464_1" sampledSeconds="709.04" CO_abs="15895.349672" CO2_abs="2056392.235429" HC_abs="121.591856" PMx_abs="36.388778" NOx_abs="770.350941" fuel_abs="883.948755" electricity_abs="0"
            CO_normed="845.090386" CO2_normed="109329.919998" HC_normed="6.464539" PMx_normed="1.934642" NOx_normed="40.956392" fuel_normed="46.995921" electricity_normed="0"
            traveltime="0.70" CO_perVeh="15.703103" CO2_perVeh="2031.521116" HC_perVeh="0.120121" PMx_perVeh="0.035949" NOx_perVeh="0.761034" fuel_perVeh="0.873258" electricity_perVeh="0"/>
        <edge id=":1110673479_0" sampledSeconds="133.76" CO_abs="6593.012005" CO2_abs="458062.153613" HC_abs="40.772264" PMx_abs="7.954162" NOx_abs="186.919157" fuel_abs="196.901096" electricity_abs="0"
            CO_normed="16836.804440" CO2_normed="1169769.279284" HC_normed="104.121551" PMx_normed="20.312820" NOx_normed="477.341964" fuel_normed="502.833189" electricity_normed="0"
            traveltime="0.03" CO_perVeh="1.388880" CO2_perVeh="96.495082" HC_perVeh="0.008589" PMx_perVeh="0.001676" NOx_perVeh="0.039376" fuel_perVeh="0.041479" electricity_perVeh="0"/>
        <edge id=":1110673511_0" sampledSeconds="11.76" CO_abs="174.763432" CO2_abs="23202.794917" HC_abs="1.328049" PMx_abs="0.295483" NOx_abs="8.518063" fuel_abs="9.973932" electricity_abs="0"
            CO_normed="446.299464" CO2_normed="59253.785699" HC_normed="3.391486" PMx_normed="0.754586" NOx_normed="21.752874" fuel_normed="25.470777" electricity_normed="0"
            traveltime="0.02" CO_perVeh="0.346066" CO2_perVeh="45.946129" HC_perVeh="0.002630" PMx_perVeh="0.000585" NOx_perVeh="0.016867" fuel_perVeh="0.019750" electricity_perVeh="0"/>
        <edge id=":1110673517_0" sampledSeconds="17.35" CO_abs="641.225327" CO2_abs="47496.034656" HC_abs="4.031288" PMx_abs="0.795970" NOx_abs="19.131452" fuel_abs="20.416504" electricity_abs="0"
            CO_normed="1637.519456" CO2_normed="121292.278329" HC_normed="10.294842" PMx_normed="2.032696" NOx_normed="48.856654" fuel_normed="52.138338" electricity_normed="0"
            traveltime="0.03" CO_perVeh="1.029574" CO2_perVeh="76.261325" HC_perVeh="0.006473" PMx_perVeh="0.001278" NOx_perVeh="0.030718" fuel_perVeh="0.032781" electricity_perVeh="0"/>
        <edge id=":1110673534_0" sampledSeconds="475.35" CO_abs="2616.223487" CO2_abs="227113.926472" HC_abs="17.093969" PMx_abs="3.006547" NOx_abs="85.869331" fuel_abs="97.627400" electricity_abs="0"
            CO_normed="129.479478" CO2_normed="11240.091978" HC_normed="0.845997" PMx_normed="0.148797" NOx_normed="4.249758" fuel_normed="4.831676" electricity_normed="0"
            traveltime="1.43" CO_perVeh="7.881633" CO2_perVeh="684.203234" HC_perVeh="0.051497" PMx_perVeh="0.009058" NOx_perVeh="0.258690" fuel_perVeh="0.294112" electricity_perVeh="0"/>
        <edge id=":1110673534_1" sampledSeconds="184.94" CO_abs="2926.353459" CO2_abs="359349.827731" HC_abs="21.541367" PMx_abs="4.949569" NOx_abs="134.473308" fuel_abs="154.469370" electricity_abs="0"
            CO_normed="140.825329" CO2_normed="17293.043476" HC_normed="1.036638" PMx_normed="0.238189" NOx_normed="6.471278" fuel_normed="7.433552" electricity_normed="0"
            traveltime="1.23" CO_perVeh="19.429936" CO2_perVeh="2385.953847" HC_perVeh="0.143027" PMx_perVeh="0.032863" NOx_perVeh="0.892854" fuel_perVeh="1.025621" electricity_perVeh="0"/>
        <edge id=":1110673549_0" sampledSeconds="60.24" CO_abs="80.483120" CO2_abs="11924.088803" HC_abs="0.636605" PMx_abs="0.130367" NOx_abs="4.220088" fuel_abs="5.125705" electricity_abs="0"
            CO_normed="3.858558" CO2_normed="571.670106" HC_normed="0.030520" PMx_normed="0.006250" NOx_normed="0.202321" fuel_normed="0.245739" electricity_normed="0"
            traveltime="1.26" CO_perVeh="1.676797" CO2_perVeh="248.428233" HC_perVeh="0.013263" PMx_perVeh="0.002716" NOx_perVeh="0.087922" fuel_perVeh="0.106790" electricity_perVeh="0"/>
        <edge id=":1110673549_1" sampledSeconds="637.97" CO_abs="13063.010173" CO2_abs="1774953.113496" HC_abs="101.845020" PMx_abs="30.972307" NOx_abs="659.698330" fuel_abs="762.971317" electricity_abs="0"
            CO_normed="605.801407" CO2_normed="82314.036326" HC_normed="4.723096" PMx_normed="1.436351" NOx_normed="30.593728" fuel_normed="35.383047" electricity_normed="0"
            traveltime="0.80" CO_perVeh="16.445696" CO2_perVeh="2234.579874" HC_perVeh="0.128218" PMx_perVeh="0.038993" NOx_perVeh="0.830528" fuel_perVeh="0.960544" electricity_perVeh="0"/>
        <edge id=":1110673556_0" sampledSeconds="416.40" CO_abs="51956.772290" CO2_abs="2609088.435717" HC_abs="298.660209" PMx_abs="52.839569" NOx_abs="1124.907540" fuel_abs="1121.533815" electricity_abs="0"
            CO_normed="1847.106535" CO2_normed="92755.267262" HC_normed="10.617619" PMx_normed="1.878491" NOx_normed="39.991400" fuel_normed="39.871461" electricity_normed="0"
            traveltime="2.58" CO_perVeh="322.522308" CO2_perVeh="16195.948781" HC_perVeh="1.853937" PMx_perVeh="0.328002" NOx_perVeh="6.982877" fuel_perVeh="6.961935" electricity_perVeh="0"/>
        <edge id=":1110673556_2" sampledSeconds="247.80" CO_abs="23841.340169" CO2_abs="1026315.436497" HC_abs="132.684470" PMx_abs="19.921046" NOx_abs="438.513765" fuel_abs="441.172503" electricity_abs="0"
            CO_normed="886.236695" CO2_normed="38150.472840" HC_normed="4.932183" PMx_normed="0.740510" NOx_normed="16.300551" fuel_normed="16.399383" electricity_normed="0"
            traveltime="3.01" CO_perVeh="289.190888" CO2_perVeh="12449.009573" HC_perVeh="1.609437" PMx_perVeh="0.241638" NOx_perVeh="5.319088" fuel_perVeh="5.351338" electricity_perVeh="0"/>
        <edge id=":1110673556_3" sampledSeconds="411.99" CO_abs="36179.083057" CO2_abs="1279497.509383" HC_abs="194.494619" PMx_abs="24.330255" NOx_abs="545.126332" fuel_abs="550.011603" electricity_abs="0"
            CO_normed="3059.330622" CO2_normed="108195.276948" HC_normed="16.446612" PMx_normed="2.057385" NOx_normed="46.096295" fuel_normed="46.509397" electricity_normed="0"
            traveltime="1.74" CO_perVeh="153.130033" CO2_perVeh="5415.546208" HC_perVeh="0.823210" PMx_perVeh="0.102979" NOx_perVeh="2.307278" fuel_perVeh="2.327955" electricity_perVeh="0"/>
        <edge id=":1110673556_4" sampledSeconds="203.72" CO_abs="21264.141289" CO2_abs="848545.628164" HC_abs="116.740293" PMx_abs="16.599021" NOx_abs="363.907075" fuel_abs="364.757356" electricity_abs="0"
            CO_normed="1098.509340" CO2_normed="43836.018845" HC_normed="6.030824" PMx_normed="0.857508" NOx_normed="18.799505" fuel_normed="18.843430" electricity_normed="0"
            traveltime="2.41" CO_perVeh="251.649655" CO2_perVeh="10042.080300" HC_perVeh="1.381558" PMx_perVeh="0.196440" NOx_perVeh="4.306644" fuel_perVeh="4.316707" electricity_perVeh="0"/>
        <edge id=":1110673556_5" sampledSeconds="22.83" CO_abs="1458.870851" CO2_abs="66232.050808" HC_abs="8.196012" PMx_abs="1.255165" NOx_abs="28.120397" fuel_abs="28.470521" electricity_abs="0"
            CO_normed="105.044248" CO2_normed="4768.959459" HC_normed="0.590144" PMx_normed="0.090377" NOx_normed="2.024776" fuel_normed="2.049986" electricity_normed="0"
            traveltime="1.58" CO_perVeh="100.860207" CO2_perVeh="4579.005982" HC_perVeh="0.566638" PMx_perVeh="0.086777" NOx_perVeh="1.944126" fuel_perVeh="1.968332" electricity_perVeh="0"/>
        <edge id=":1110673556_6" sampledSeconds="487.62" CO_abs="58282.147171" CO2_abs="2849057.364384" HC_abs="333.091692" PMx_abs="57.561895" NOx_abs="1227.915367" fuel_abs="1224.687525" electricity_abs="0"
            CO_normed="2124.221926" CO2_normed="103840.205204" HC_normed="12.140264" PMx_normed="2.097971" NOx_normed="44.754095" fuel_normed="44.636449" electricity_normed="0"
            traveltime="2.62" CO_perVeh="312.759312" CO2_perVeh="15288.887987" HC_perVeh="1.787469" PMx_perVeh="0.308894" NOx_perVeh="6.589359" fuel_perVeh="6.572037" electricity_perVeh="0"/>
        <edge id=":1110673561_0" sampledSeconds="100.58" CO_abs="9562.877103" CO2_abs="686022.306972" HC_abs="60.057509" PMx_abs="13.891075" NOx_abs="290.146222" fuel_abs="294.888277" electricity_abs="0"
            CO_normed="437.914867" CO2_normed="31415.165530" HC_normed="2.750226" PMx_normed="0.636117" NOx_normed="13.286728" fuel_normed="13.503882" electricity_normed="0"
            traveltime="1.19" CO_perVeh="112.852110" CO2_perVeh="8095.792108" HC_perVeh="0.708742" PMx_perVeh="0.163929" NOx_perVeh="3.424034" fuel_perVeh="3.479995" electricity_perVeh="0"/>
        <edge id=":1110673561_1" sampledSeconds="1318.73" CO_abs="119310.360766" CO2_abs="8297524.739992" HC_abs="743.851938" PMx_abs="172.876559" NOx_abs="3543.519050" fuel_abs="3566.705633" electricity_abs="0"
            CO_normed="5326.696236" CO2_normed="370448.915927" HC_normed="33.209801" PMx_normed="7.718197" NOx_normed="158.202938" fuel_normed="159.238119" electricity_normed="0"
            traveltime="1.20" CO_perVeh="108.221291" CO2_perVeh="7526.327430" HC_perVeh="0.674716" PMx_perVeh="0.156809" NOx_perVeh="3.214174" fuel_perVeh="3.235205" electricity_perVeh="0"/>
        <edge id=":1110673562_0" sampledSeconds="104.16" CO_abs="2115.596187" CO2_abs="169907.294224" HC_abs="13.496407" PMx_abs="2.268573" NOx_abs="64.584295" fuel_abs="73.036586" electricity_abs="0"
            CO_normed="6002.968537" CO2_normed="482109.084839" HC_normed="38.295827" PMx_normed="6.437039" NOx_normed="183.256850" fuel_normed="207.240083" electricity_normed="0"
            traveltime="0.03" CO_perVeh="0.539281" CO2_perVeh="43.310598" HC_perVeh="0.003440" PMx_perVeh="0.000578" NOx_perVeh="0.016463" fuel_perVeh="0.018618" electricity_perVeh="0"/>
        <edge id=":1110673564_0" sampledSeconds="28.42" CO_abs="438.775346" CO2_abs="56499.712681" HC_abs="3.274286" PMx_abs="0.737820" NOx_abs="20.862035" fuel_abs="24.286893" electricity_abs="0"
            CO_normed="3361.547663" CO2_normed="432855.853698" HC_normed="25.084972" PMx_normed="5.652589" NOx_normed="159.828317" fuel_normed="186.066854" electricity_normed="0"
            traveltime="7.812121e-03" CO_perVeh="0.120626" CO2_perVeh="15.532567" HC_perVeh="0.000900" PMx_perVeh="0.000203" NOx_perVeh="0.005735" fuel_perVeh="0.006677" electricity_perVeh="0"/>
        <edge id=":1110673588_0" sampledSeconds="11.67" CO_abs="242.469276" CO2_abs="29737.967926" HC_abs="1.786963" PMx_abs="0.412301" NOx_abs="11.151015" fuel_abs="12.783097" electricity_abs="0"
            CO_normed="743.042684" CO2_normed="91131.461617" HC_normed="5.476117" PMx_normed="1.263489" NOx_normed="34.172084" fuel_normed="39.173569" electricity_normed="0"
            traveltime="0.02" CO_perVeh="0.404115" CO2_perVeh="49.563280" HC_perVeh="0.002978" PMx_perVeh="0.000687" NOx_perVeh="0.018585" fuel_perVeh="0.021305" electricity_perVeh="0"/>
        <edge id=":1110673601_0" sampledSeconds="29.54" CO_abs="418.206144" CO2_abs="52854.050507" HC_abs="3.094301" PMx_abs="0.693571" NOx_abs="19.543174" fuel_abs="22.719773" electricity_abs="0"
            CO_normed="1144.272428" CO2_normed="144616.317928" HC_normed="8.466456" PMx_normed="1.897711" NOx_normed="53.472947" fuel_normed="62.164582" electricity_normed="0"
            traveltime="0.02" CO_perVeh="0.310398" CO2_perVeh="39.228984" HC_perVeh="0.002297" PMx_perVeh="0.000515" NOx_perVeh="0.014505" fuel_perVeh="0.016863" electricity_perVeh="0"/>
        <edge id=":1110673617_0" sampledSeconds="238.35" CO_abs="5337.578128" CO2_abs="696489.038086" HC_abs="40.880440" PMx_abs="12.266406" NOx_abs="260.564355" fuel_abs="299.388741" electricity_abs="0"
            CO_normed="13630.759211" CO2_normed="1778648.320287" HC_normed="104.397803" PMx_normed="31.325148" NOx_normed="665.412270" fuel_normed="764.559458" electricity_normed="0"
            traveltime="0.01" CO_perVeh="0.326964" CO2_perVeh="42.664851" HC_perVeh="0.002504" PMx_perVeh="0.000751" NOx_perVeh="0.015961" fuel_perVeh="0.018340" electricity_perVeh="0"/>
        <edge id=":1110673621_0" sampledSeconds="25.76" CO_abs="351.107470" CO2_abs="44065.633992" HC_abs="2.610466" PMx_abs="0.568493" NOx_abs="16.264550" fuel_abs="18.942014" electricity_abs="0"
            CO_normed="1075.962454" CO2_normed="135038.333579" HC_normed="7.999725" PMx_normed="1.742138" NOx_normed="49.842416" fuel_normed="58.047457" electricity_normed="0"
            traveltime="0.02" CO_perVeh="0.265991" CO2_perVeh="33.383056" HC_perVeh="0.001978" PMx_perVeh="0.000431" NOx_perVeh="0.012322" fuel_perVeh="0.014350" electricity_perVeh="0"/>
        <edge id=":1110673630_0" sampledSeconds="54.59" CO_abs="225.559113" CO2_abs="19559.190100" HC_abs="1.469760" PMx_abs="0.240709" NOx_abs="7.276832" fuel_abs="8.407759" electricity_abs="0"
            CO_normed="12.325638" CO2_normed="1068.808527" HC_normed="0.080315" PMx_normed="0.013153" NOx_normed="0.397641" fuel_normed="0.459441" electricity_normed="0"
            traveltime="1.27" CO_perVeh="5.264949" CO2_perVeh="456.546093" HC_perVeh="0.034307" PMx_perVeh="0.005619" NOx_perVeh="0.169854" fuel_perVeh="0.196252" electricity_perVeh="0"/>
        <edge id=":1110673630_1" sampledSeconds="7.42" CO_abs="0" CO2_abs="0" HC_abs="0" PMx_abs="0" NOx_abs="0" fuel_abs="0" electricity_abs="0"
            CO_normed="0" CO2_normed="0" HC_normed="0" PMx_normed="0" NOx_normed="0" fuel_normed="0" electricity_normed="0"
            traveltime="1.05" CO_perVeh="0" CO2_perVeh="0" HC_perVeh="0" PMx_perVeh="0" NOx_perVeh="0" fuel_perVeh="0" electricity_perVeh="0"/>
        <edge id=":1110673650_0" sampledSeconds="143.38" CO_abs="2368.862814" CO2_abs="284339.615634" HC_abs="17.258350" PMx_abs="4.004456" NOx_abs="106.992258" fuel_abs="122.225537" electricity_abs="0"
            CO_normed="6049.447492" CO2_normed="726127.982041" HC_normed="44.073251" PMx_normed="10.226318" NOx_normed="273.229856" fuel_normed="312.131611" electricity_normed="0"
            traveltime="0.02" CO_perVeh="0.380338" CO2_perVeh="45.652754" HC_perVeh="0.002771" PMx_perVeh="0.000643" NOx_perVeh="0.017178" fuel_perVeh="0.019624" electricity_perVeh="0"/>
        <edge id=":1110673655_0" sampledSeconds="45.00" CO_abs="767.290799" CO2_abs="78843.652036" HC_abs="5.323855" PMx_abs="1.169568" NOx_abs="30.271549" fuel_abs="33.891528" electricity_abs="0"
            CO_normed="1959.457243" CO2_normed="201345.780896" HC_normed="13.595715" PMx_normed="2.986768" NOx_normed="77.305510" fuel_normed="86.549975" electricity_normed="0"
            traveltime="0.02" CO_perVeh="0.410645" CO2_perVeh="42.196228" HC_perVeh="0.002849" PMx_perVeh="0.000626" NOx_perVeh="0.016201" fuel_perVeh="0.018138" electricity_perVeh="0"/>
        <edge id=":1110673663_0" sampledSeconds="108.77" CO_abs="1919.720034" CO2_abs="226403.079020" HC_abs="13.902467" PMx_abs="3.144556" NOx_abs="85.059158" fuel_abs="97.321162" electricity_abs="0"
            CO_normed="89.788570" CO2_normed="10589.256962" HC_normed="0.650242" PMx_normed="0.147076" NOx_normed="3.978361" fuel_normed="4.551876" electricity_normed="0"
            traveltime="1.28" CO_perVeh="22.548017" CO2_perVeh="2659.210970" HC_perVeh="0.163291" PMx_perVeh="0.036934" NOx_perVeh="0.999060" fuel_perVeh="1.143083" electricity_perVeh="0"/>
        <edge id=":1110673663_1" sampledSeconds="153.83" CO_abs="2422.244469" CO2_abs="307829.553462" HC_abs="18.121168" PMx_abs="4.355603" NOx_abs="115.567176" fuel_abs="132.322766" electricity_abs="0"
            CO_normed="113.430992" CO2_normed="14415.312737" HC_normed="0.848594" PMx_normed="0.203968" NOx_normed="5.411881" fuel_normed="6.196527" electricity_normed="0"
            traveltime="1.24" CO_perVeh="19.580982" CO2_perVeh="2488.437896" HC_perVeh="0.146488" PMx_perVeh="0.035210" NOx_perVeh="0.934224" fuel_perVeh="1.069673" electricity_perVeh="0"/>
        <edge id=":1110673666_0" sampledSeconds="192.40" CO_abs="3844.832643" CO2_abs="310535.673292" HC_abs="24.586807" PMx_abs="4.157721" NOx_abs="118.078440" fuel_abs="133.487268" electricity_abs="0"