<?xml version="1.0" encoding="UTF-8"?>

<!-- generated on Tue Nov 10 05:01:59 2020 by Eclipse SUMO sumo Version 1.7.0
<configuration xmlns:xsi="http://www.w3.org/2001/XMLSchema-instance" xsi:noNamespaceSchemaLocation="http://sumo.dlr.de/xsd/sumoConfiguration.xsd">

    <input>
        <net-file value="../dataSets/Porto/8AM9AM_Routing_SaoBento/Porto.net.xml"/>
        <route-files value="../results/Porto/8AM9AM_Routing_SaoBento/cost_PMx-ttime/solution9/Porto.rou.xml"/>
        <additional-files value="moreOutputInfo.xml"/>
    </input>

    <output>
        <emission-output.precision value="6"/>
        <tripinfo-output value="../results/Porto/8AM9AM_Routing_SaoBento/cost_PMx-ttime/solution9/Porto-tripinfo"/>
    </output>

    <processing>
        <collision.action value="warn"/>
        <time-to-teleport value="-1"/>
    </processing>

    <emissions>
        <device.emissions.probability value="1"/>
    </emissions>

    <gui_only>
        <quit-on-end value="true"/>
        <start value="true"/>
    </gui_only>

</configuration>
-->

<meandata xmlns:xsi="http://www.w3.org/2001/XMLSchema-instance" xsi:noNamespaceSchemaLocation="http://sumo.dlr.de/xsd/meandata_file.xsd">
    <interval begin="0.00" end="8471.00" id="emissions-detector">
        <edge id=":1092997347_0" sampledSeconds="624.62" CO_abs="75357.957171" CO2_abs="3222159.892101" HC_abs="419.343694" PMx_abs="65.067216" NOx_abs="1393.387302" fuel_abs="1385.075916" electricity_abs="0"
            CO_normed="72785.397724" CO2_normed="3112162.246478" HC_normed="405.028197" PMx_normed="62.845960" NOx_normed="1345.820040" fuel_normed="1337.792387" electricity_normed="0"
            traveltime="0.07" CO_perVeh="8.189421" CO2_perVeh="350.163733" HC_perVeh="0.045572" PMx_perVeh="0.007071" NOx_perVeh="0.151424" fuel_perVeh="0.150521" electricity_perVeh="0"/>
        <edge id=":1103427051_0" sampledSeconds="19.48" CO_abs="1669.924734" CO2_abs="93624.055278" HC_abs="9.826916" PMx_abs="1.838860" NOx_abs="39.962109" fuel_abs="40.244840" electricity_abs="0"
            CO_normed="2447.184529" CO2_normed="137200.997724" HC_normed="14.400815" PMx_normed="2.694749" NOx_normed="58.562313" fuel_normed="58.976640" electricity_normed="0"
            traveltime="0.03" CO_perVeh="2.596944" CO2_perVeh="145.597255" HC_perVeh="0.015282" PMx_perVeh="0.002860" NOx_perVeh="0.062146" fuel_perVeh="0.062586" electricity_perVeh="0"/>
        <edge id=":1105984386_0" sampledSeconds="10.44" CO_abs="206.777019" CO2_abs="16215.784867" HC_abs="1.307767" PMx_abs="0.201331" NOx_abs="6.079765" fuel_abs="6.970566" electricity_abs="0"
            CO_normed="9.050047" CO2_normed="709.719214" HC_normed="0.057237" PMx_normed="0.008812" NOx_normed="0.266094" fuel_normed="0.305082" electricity_normed="0"
            traveltime="1.00" CO_perVeh="19.836049" CO2_perVeh="1555.574699" HC_perVeh="0.125454" PMx_perVeh="0.019314" NOx_perVeh="0.583230" fuel_perVeh="0.668684" electricity_perVeh="0"/>
        <edge id=":1105984390_0" sampledSeconds="10.45" CO_abs="4.306353" CO2_abs="383.841582" HC_abs="0.028012" PMx_abs="0.003252" NOx_abs="0.133579" fuel_abs="0.165001" electricity_abs="0"
            CO_normed="0.145709" CO2_normed="12.987639" HC_normed="0.000948" PMx_normed="0.000110" NOx_normed="0.004520" fuel_normed="0.005583" electricity_normed="0"
            traveltime="1.08" CO_perVeh="0.446379" CO2_perVeh="39.787491" HC_perVeh="0.002904" PMx_perVeh="0.000337" NOx_perVeh="0.013846" fuel_perVeh="0.017103" electricity_perVeh="0"/>
        <edge id=":1105984390_1" sampledSeconds="2401.10" CO_abs="64134.400538" CO2_abs="7536907.618599" HC_abs="471.717537" PMx_abs="136.484916" NOx_abs="2873.021719" fuel_abs="3239.768158" electricity_abs="0"
            CO_normed="2075.841226" CO2_normed="243947.451261" HC_normed="15.268104" PMx_normed="4.417614" NOx_normed="92.991232" fuel_normed="104.861732" electricity_normed="0"
            traveltime="0.65" CO_perVeh="17.321458" CO2_perVeh="2035.572622" HC_perVeh="0.127402" PMx_perVeh="0.036862" NOx_perVeh="0.775947" fuel_perVeh="0.874999" electricity_perVeh="0"/>
        <edge id=":1105984395_0" sampledSeconds="4.12" CO_abs="85.445867" CO2_abs="5669.240167" HC_abs="0.518026" PMx_abs="0.078277" NOx_abs="2.189928" fuel_abs="2.436994" electricity_abs="0"
            CO_normed="39.470357" CO2_normed="2618.815165" HC_normed="0.239294" PMx_normed="0.036159" NOx_normed="1.011602" fuel_normed="1.125731" electricity_normed="0"
            traveltime="0.10" CO_perVeh="1.980605" CO2_perVeh="131.410959" HC_perVeh="0.012008" PMx_perVeh="0.001814" NOx_perVeh="0.050762" fuel_perVeh="0.056489" electricity_perVeh="0"/>
        <edge id=":1105984398_0" sampledSeconds="11.35" CO_abs="535.557369" CO2_abs="36432.588803" HC_abs="3.292852" PMx_abs="0.631321" NOx_abs="14.878493" fuel_abs="15.660803" electricity_abs="0"
            CO_normed="18.825543" CO2_normed="1280.653233" HC_normed="0.115748" PMx_normed="0.022192" NOx_normed="0.522999" fuel_normed="0.550498" electricity_normed="0"
            traveltime="1.18" CO_perVeh="55.654376" CO2_perVeh="3786.023883" HC_perVeh="0.342189" PMx_perVeh="0.065606" NOx_perVeh="1.546152" fuel_perVeh="1.627449" electricity_perVeh="0"/>
        <edge id=":1105984398_1" sampledSeconds="642.93" CO_abs="11271.700709" CO2_abs="1383472.087218" HC_abs="82.970305" PMx_abs="19.343121" NOx_abs="519.181538" fuel_abs="594.696032" electricity_abs="0"
            CO_normed="383.526016" CO2_normed="47073.423243" HC_normed="2.823112" PMx_normed="0.658161" NOx_normed="17.665447" fuel_normed="20.234870" electricity_normed="0"
            traveltime="0.95" CO_perVeh="16.690956" CO2_perVeh="2048.623549" HC_perVeh="0.122861" PMx_perVeh="0.028643" NOx_perVeh="0.768796" fuel_perVeh="0.880616" electricity_perVeh="0"/>
        <edge id=":1106006327_0" sampledSeconds="67.26" CO_abs="9012.787010" CO2_abs="292311.685955" HC_abs="47.915886" PMx_abs="6.080601" NOx_abs="127.851015" fuel_abs="125.654504" electricity_abs="0"
            CO_normed="432.307933" CO2_normed="14021.041506" HC_normed="2.298337" PMx_normed="0.291662" NOx_normed="6.132510" fuel_normed="6.027152" electricity_normed="0"
            traveltime="2.09" CO_perVeh="279.392929" CO2_perVeh="9061.549762" HC_perVeh="1.485374" PMx_perVeh="0.188496" NOx_perVeh="3.963332" fuel_perVeh="3.895241" electricity_perVeh="0"/>
        <edge id=":1106006327_1" sampledSeconds="684.35" CO_abs="92501.482908" CO2_abs="3085027.952426" HC_abs="493.891713" PMx_abs="64.332573" NOx_abs="1350.005989" fuel_abs="1326.142470" electricity_abs="0"
            CO_normed="3869.214495" CO2_normed="129042.632584" HC_normed="20.658836" PMx_normed="2.690946" NOx_normed="56.468962" fuel_normed="55.470783" electricity_normed="0"
            traveltime="2.30" CO_perVeh="310.505088" CO2_perVeh="10355.692115" HC_perVeh="1.657875" PMx_perVeh="0.215949" NOx_perVeh="4.531643" fuel_perVeh="4.451539" electricity_perVeh="0"/>
        <edge id=":1106006327_2" sampledSeconds="0.00" CO_abs="0" CO2_abs="0" HC_abs="0" PMx_abs="0" NOx_abs="0" fuel_abs="0" electricity_abs="0"
            CO_normed="0" CO2_normed="0" HC_normed="0" PMx_normed="0" NOx_normed="0" fuel_normed="0" electricity_normed="0"/>
        <edge id=":1106006327_3" sampledSeconds="0.00" CO_abs="0" CO2_abs="0" HC_abs="0" PMx_abs="0" NOx_abs="0" fuel_abs="0" electricity_abs="0"
            CO_normed="0" CO2_normed="0" HC_normed="0" PMx_normed="0" NOx_normed="0" fuel_normed="0" electricity_normed="0"/>
        <edge id=":1107381198_0" sampledSeconds="0.00" CO_abs="0" CO2_abs="0" HC_abs="0" PMx_abs="0" NOx_abs="0" fuel_abs="0" electricity_abs="0"
            CO_normed="0" CO2_normed="0" HC_normed="0" PMx_normed="0" NOx_normed="0" fuel_normed="0" electricity_normed="0"/>
        <edge id=":1107381198_1" sampledSeconds="103.23" CO_abs="4320.430264" CO2_abs="173215.373244" HC_abs="23.671904" PMx_abs="3.045973" NOx_abs="72.126900" fuel_abs="74.459173" electricity_abs="0"
            CO_normed="200.228311" CO2_normed="8027.585084" HC_normed="1.097063" PMx_normed="0.141164" NOx_normed="3.342687" fuel_normed="3.450775" electricity_normed="0"
            traveltime="1.55" CO_perVeh="64.685125" CO2_perVeh="2593.366269" HC_perVeh="0.354414" PMx_perVeh="0.045604" NOx_perVeh="1.079878" fuel_perVeh="1.114797" electricity_perVeh="0"/>
        <edge id=":1110338277_0" sampledSeconds="160.10" CO_abs="2448.908854" CO2_abs="298158.057430" HC_abs="18.002867" PMx_abs="4.125894" NOx_abs="111.793568" fuel_abs="128.165588" electricity_abs="0"
            CO_normed="3716.913114" CO2_normed="452539.338731" HC_normed="27.324452" PMx_normed="6.262213" NOx_normed="169.678418" fuel_normed="194.527596" electricity_normed="0"
            traveltime="0.02" CO_perVeh="0.331681" CO2_perVeh="40.382646" HC_perVeh="0.002438" PMx_perVeh="0.000559" NOx_perVeh="0.015141" fuel_perVeh="0.017359" electricity_perVeh="0"/>
        <edge id=":1110338293_0" sampledSeconds="6471.43" CO_abs="590061.943051" CO2_abs="10354487.421569" HC_abs="2928.898970" PMx_abs="246.360309" NOx_abs="4676.689332" fuel_abs="4451.219495" electricity_abs="0"
            CO_normed="835880.452911" CO2_normed="14668144.145772" HC_normed="4149.071850" PMx_normed="348.993473" NOx_normed="6624.987839" fuel_normed="6305.587762" electricity_normed="0"
            traveltime="0.43" CO_perVeh="39.429904" CO2_perVeh="691.921333" HC_perVeh="0.195719" PMx_perVeh="0.016463" NOx_perVeh="0.312512" fuel_perVeh="0.297445" electricity_perVeh="0"/>
        <edge id=":1110338295_0" sampledSeconds="0.00" CO_abs="0" CO2_abs="0" HC_abs="0" PMx_abs="0" NOx_abs="0" fuel_abs="0" electricity_abs="0"
            CO_normed="0" CO2_normed="0" HC_normed="0" PMx_normed="0" NOx_normed="0" fuel_normed="0" electricity_normed="0"/>
        <edge id=":1110673403_0" sampledSeconds="200.72" CO_abs="3313.830209" CO2_abs="406487.639569" HC_abs="24.412519" PMx_abs="5.602599" NOx_abs="152.151526" fuel_abs="174.731933" electricity_abs="0"
            CO_normed="4694.364598" CO2_normed="575829.497678" HC_normed="34.582721" PMx_normed="7.936630" NOx_normed="215.537518" fuel_normed="247.524873" electricity_normed="0"
            traveltime="0.02" CO_perVeh="0.382998" CO2_perVeh="46.980118" HC_perVeh="0.002821" PMx_perVeh="0.000648" NOx_perVeh="0.017585" fuel_perVeh="0.020195" electricity_perVeh="0"/>
        <edge id=":1110673412_0" sampledSeconds="949.68" CO_abs="169549.368676" CO2_abs="11554998.487893" HC_abs="1054.834317" PMx_abs="254.161207" NOx_abs="4967.156801" fuel_abs="4966.924554" electricity_abs="0"
            CO_normed="248465.444879" CO2_normed="16933226.365170" HC_normed="1545.802735" PMx_normed="372.459526" NOx_normed="7279.100087" fuel_normed="7278.759741" electricity_normed="0"
            traveltime="0.02" CO_perVeh="2.767527" CO2_perVeh="188.610364" HC_perVeh="0.017218" PMx_perVeh="0.004149" NOx_perVeh="0.081078" fuel_perVeh="0.081074" electricity_perVeh="0"/>
        <edge id=":1110673414_0" sampledSeconds="0.00" CO_abs="0" CO2_abs="0" HC_abs="0" PMx_abs="0" NOx_abs="0" fuel_abs="0" electricity_abs="0"
            CO_normed="0" CO2_normed="0" HC_normed="0" PMx_normed="0" NOx_normed="0" fuel_normed="0" electricity_normed="0"/>
        <edge id=":1110673414_1" sampledSeconds="340.89" CO_abs="24923.289303" CO2_abs="952169.683762" HC_abs="135.629498" PMx_abs="17.766335" NOx_abs="403.204877" fuel_abs="409.303559" electricity_abs="0"
            CO_normed="1172.966010" CO2_normed="44812.009412" HC_normed="6.383138" PMx_normed="0.836138" NOx_normed="18.976051" fuel_normed="19.263074" electricity_normed="0"
            traveltime="1.58" CO_perVeh="115.831308" CO2_perVeh="4425.220862" HC_perVeh="0.630340" PMx_perVeh="0.082569" NOx_perVeh="1.873900" fuel_perVeh="1.902244" electricity_perVeh="0"/>
        <edge id=":1110673417_0" sampledSeconds="29.18" CO_abs="344.175281" CO2_abs="45165.649296" HC_abs="2.581791" PMx_abs="0.563412" NOx_abs="16.512143" fuel_abs="19.414881" electricity_abs="0"
            CO_normed="522.383515" CO2_normed="68551.671023" HC_normed="3.918600" PMx_normed="0.855137" NOx_normed="25.061856" fuel_normed="29.467584" electricity_normed="0"
            traveltime="0.02" CO_perVeh="0.262450" CO2_perVeh="34.440976" HC_perVeh="0.001969" PMx_perVeh="0.000430" NOx_perVeh="0.012591" fuel_perVeh="0.014805" electricity_perVeh="0"/>
        <edge id=":1110673446_0" sampledSeconds="1327.39" CO_abs="14445.360031" CO2_abs="1165156.705801" HC_abs="93.389014" PMx_abs="21.444634" NOx_abs="477.086030" fuel_abs="500.847223" electricity_abs="0"
            CO_normed="20463.265302" CO2_normed="1650558.431072" HC_normed="132.294672" PMx_normed="30.378422" NOx_normed="675.839023" fuel_normed="709.499077" electricity_normed="0"
            traveltime="0.02" CO_perVeh="0.247748" CO2_perVeh="19.983246" HC_perVeh="0.001602" PMx_perVeh="0.000368" NOx_perVeh="0.008182" fuel_perVeh="0.008590" electricity_perVeh="0"/>
        <edge id=":1110673451_0" sampledSeconds="36.60" CO_abs="320.421967" CO2_abs="24746.679029" HC_abs="2.022601" PMx_abs="0.332121" NOx_abs="9.435982" fuel_abs="10.637648" electricity_abs="0"
            CO_normed="504.343395" CO2_normed="38951.212417" HC_normed="3.183570" PMx_normed="0.522757" NOx_normed="14.852213" fuel_normed="16.743632" electricity_normed="0"
            traveltime="0.03" CO_perVeh="0.236080" CO2_perVeh="18.232831" HC_perVeh="0.001490" PMx_perVeh="0.000245" NOx_perVeh="0.006952" fuel_perVeh="0.007838" electricity_perVeh="0"/>
        <edge id=":1110673464_0" sampledSeconds="1024.35" CO_abs="3374.913086" CO2_abs="237237.934061" HC_abs="20.775203" PMx_abs="3.376255" NOx_abs="91.979368" fuel_abs="101.979422" electricity_abs="0"
            CO_normed="101.577078" CO2_normed="7140.313098" HC_normed="0.625286" PMx_normed="0.101617" NOx_normed="2.768366" fuel_normed="3.069345" electricity_normed="0"
            traveltime="1.21" CO_perVeh="4.002175" CO2_perVeh="281.331012" HC_perVeh="0.024636" PMx_perVeh="0.004004" NOx_perVeh="0.109075" fuel_perVeh="0.120933" electricity_perVeh="0"/>
        <edge id=":1110673464_1" sampledSeconds="2614.09" CO_abs="66230.820150" CO2_abs="7796841.831288" HC_abs="487.720025" PMx_abs="140.650848" NOx_abs="2975.402376" fuel_abs="3351.501967" electricity_abs="0"
            CO_normed="1953.277607" CO2_normed="229944.254375" HC_normed="14.383826" PMx_normed="4.148071" NOx_normed="87.750489" fuel_normed="98.842408" electricity_normed="0"
            traveltime="0.72" CO_perVeh="18.258180" CO2_perVeh="2149.394158" HC_perVeh="0.134452" PMx_perVeh="0.038774" NOx_perVeh="0.820244" fuel_perVeh="0.923925" electricity_perVeh="0"/>
        <edge id=":1110673479_0" sampledSeconds="134.20" CO_abs="6781.683836" CO2_abs="461823.397807" HC_abs="41.764430" PMx_abs="8.280750" NOx_abs="190.243039" fuel_abs="198.517598" electricity_abs="0"
            CO_normed="9606.918432" CO2_normed="654218.011296" HC_normed="59.163400" PMx_normed="11.730492" NOx_normed="269.497871" fuel_normed="281.219593" electricity_normed="0"
            traveltime="0.03" CO_perVeh="1.433709" CO2_perVeh="97.633642" HC_perVeh="0.008829" PMx_perVeh="0.001751" NOx_perVeh="0.040219" fuel_perVeh="0.041968" electricity_perVeh="0"/>
        <edge id=":1110673511_0" sampledSeconds="63.80" CO_abs="1084.801837" CO2_abs="127659.013735" HC_abs="7.829999" PMx_abs="1.695421" NOx_abs="47.552760" fuel_abs="54.875351" electricity_abs="0"
            CO_normed="1536.727900" CO2_normed="180841.478553" HC_normed="11.091960" PMx_normed="2.401729" NOx_normed="67.363136" fuel_normed="77.736302" electricity_normed="0"
            traveltime="0.02" CO_perVeh="0.415766" CO2_perVeh="48.927121" HC_perVeh="0.003001" PMx_perVeh="0.000650" NOx_perVeh="0.018225" fuel_perVeh="0.021032" electricity_perVeh="0"/>
        <edge id=":1110673517_0" sampledSeconds="182.71" CO_abs="7884.738912" CO2_abs="566387.397523" HC_abs="49.179833" PMx_abs="9.673445" NOx_abs="229.663089" fuel_abs="243.465492" electricity_abs="0"
            CO_normed="11169.503831" CO2_normed="802343.143699" HC_normed="69.668044" PMx_normed="13.703380" NOx_normed="325.340227" fuel_normed="344.892681" electricity_normed="0"
            traveltime="0.03" CO_perVeh="1.207217" CO2_perVeh="86.718495" HC_perVeh="0.007530" PMx_perVeh="0.001481" NOx_perVeh="0.035163" fuel_perVeh="0.037277" electricity_perVeh="0"/>
        <edge id=":1110673534_0" sampledSeconds="737.97" CO_abs="6055.593510" CO2_abs="476342.805820" HC_abs="38.525572" PMx_abs="6.903875" NOx_abs="184.665106" fuel_abs="204.760653" electricity_abs="0"
            CO_normed="166.246908" CO2_normed="13077.251411" HC_normed="1.057660" PMx_normed="0.189535" NOx_normed="5.069693" fuel_normed="5.621385" electricity_normed="0"
            traveltime="1.46" CO_perVeh="11.942648" CO2_perVeh="939.428039" HC_perVeh="0.075979" PMx_perVeh="0.013616" NOx_perVeh="0.364191" fuel_perVeh="0.403822" electricity_perVeh="0"/>
        <edge id=":1110673534_1" sampledSeconds="199.59" CO_abs="3454.353740" CO2_abs="424333.253903" HC_abs="25.468977" PMx_abs="5.883118" NOx_abs="158.911240" fuel_abs="182.402969" electricity_abs="0"
            CO_normed="92.212875" CO2_normed="11327.441377" HC_normed="0.679886" PMx_normed="0.157048" NOx_normed="4.242085" fuel_normed="4.869189" electricity_normed="0"
            traveltime="1.22" CO_perVeh="21.115378" CO2_perVeh="2593.815668" HC_perVeh="0.155684" PMx_perVeh="0.035962" NOx_perVeh="0.971374" fuel_perVeh="1.114972" electricity_perVeh="0"/>
        <edge id=":1110673549_0" sampledSeconds="647.57" CO_abs="1732.628048" CO2_abs="157909.903118" HC_abs="11.495721" PMx_abs="2.375952" NOx_abs="60.814024" fuel_abs="67.878849" electricity_abs="0"
            CO_normed="46.078293" CO2_normed="4199.527322" HC_normed="0.305722" PMx_normed="0.063187" NOx_normed="1.617316" fuel_normed="1.805201" electricity_normed="0"
            traveltime="1.29" CO_perVeh="3.442319" CO2_perVeh="313.729324" HC_perVeh="0.022839" PMx_perVeh="0.004720" NOx_perVeh="0.120823" fuel_perVeh="0.134859" electricity_perVeh="0"/>
        <edge id=":1110673549_1" sampledSeconds="3196.88" CO_abs="69898.245541" CO2_abs="9058442.983836" HC_abs="534.697685" PMx_abs="159.919299" NOx_abs="3393.530250" fuel_abs="3893.809546" electricity_abs="0"
            CO_normed="1798.142273" CO2_normed="233029.729559" HC_normed="13.755174" PMx_normed="4.113947" NOx_normed="87.299047" fuel_normed="100.168802" electricity_normed="0"
            traveltime="0.81" CO_perVeh="17.626472" CO2_perVeh="2284.297612" HC_perVeh="0.134836" PMx_perVeh="0.040327" NOx_perVeh="0.855758" fuel_perVeh="0.981915" electricity_perVeh="0"/>
        <edge id=":1110673556_0" sampledSeconds="469.69" CO_abs="58482.067763" CO2_abs="2792610.469168" HC_abs="332.643967" PMx_abs="56.608748" NOx_abs="1205.550344" fuel_abs="1200.424221" electricity_abs="0"
            CO_normed="1153.302582" CO2_normed="55072.007315" HC_normed="6.559945" PMx_normed="1.116360" NOx_normed="23.774199" fuel_normed="23.673109" electricity_normed="0"
            traveltime="2.77" CO_perVeh="344.746166" CO2_perVeh="16462.170203" HC_perVeh="1.960904" PMx_perVeh="0.333703" NOx_perVeh="7.106603" fuel_perVeh="7.076385" electricity_perVeh="0"/>
        <edge id=":1110673556_2" sampledSeconds="175.94" CO_abs="17773.304082" CO2_abs="758008.434335" HC_abs="98.740610" PMx_abs="14.705549" NOx_abs="323.835674" fuel_abs="325.838063" electricity_abs="0"
            CO_normed="366.486514" CO2_normed="15630.175891" HC_normed="2.036037" PMx_normed="0.303229" NOx_normed="6.677510" fuel_normed="6.718799" electricity_normed="0"
            traveltime="3.04" CO_perVeh="307.325825" CO2_perVeh="13107.048990" HC_perVeh="1.707366" PMx_perVeh="0.254280" NOx_perVeh="5.599582" fuel_perVeh="5.634206" electricity_perVeh="0"/>
        <edge id=":1110673556_3" sampledSeconds="244.22" CO_abs="26501.941601" CO2_abs="918330.415471" HC_abs="142.173673" PMx_abs="18.281468" NOx_abs="396.491982" fuel_abs="394.757608" electricity_abs="0"
            CO_normed="1243.132195" CO2_normed="43076.319542" HC_normed="6.668971" PMx_normed="0.857533" NOx_normed="18.598333" fuel_normed="18.516979" electricity_normed="0"
            traveltime="1.84" CO_perVeh="199.844849" CO2_perVeh="6924.911620" HC_perVeh="1.072098" PMx_perVeh="0.137856" NOx_perVeh="2.989852" fuel_perVeh="2.976773" electricity_perVeh="0"/>
        <edge id=":1110673556_4" sampledSeconds="37.50" CO_abs="4023.962264" CO2_abs="162331.551953" HC_abs="22.134608" PMx_abs="3.174692" NOx_abs="69.570094" fuel_abs="69.780102" electricity_abs="0"
            CO_normed="115.313610" CO2_normed="4651.891842" HC_normed="0.634306" PMx_normed="0.090976" NOx_normed="1.993652" fuel_normed="1.999670" electricity_normed="0"
            traveltime="2.37" CO_perVeh="253.980934" CO2_perVeh="10245.901070" HC_perVeh="1.397073" PMx_perVeh="0.200377" NOx_perVeh="4.391064" fuel_perVeh="4.404320" electricity_perVeh="0"/>
        <edge id=":1110673556_5" sampledSeconds="22.97" CO_abs="1458.909447" CO2_abs="61811.942147" HC_abs="8.085454" PMx_abs="1.150123" NOx_abs="26.106467" fuel_abs="26.570608" electricity_abs="0"
            CO_normed="58.271276" CO2_normed="2468.872035" HC_normed="0.322947" PMx_normed="0.045938" NOx_normed="1.042736" fuel_normed="1.061274" electricity_normed="0"
            traveltime="1.59" CO_perVeh="100.862875" CO2_perVeh="4273.418223" HC_perVeh="0.558994" PMx_perVeh="0.079515" NOx_perVeh="1.804892" fuel_perVeh="1.836980" electricity_perVeh="0"/>
        <edge id=":1110673556_6" sampledSeconds="211.87" CO_abs="25507.101475" CO2_abs="1291617.189037" HC_abs="146.870911" PMx_abs="26.057855" NOx_abs="555.761043" fuel_abs="555.210158" electricity_abs="0"
            CO_normed="515.698915" CO2_normed="26113.730837" HC_normed="2.969415" PMx_normed="0.526834" NOx_normed="11.236297" fuel_normed="11.225159" electricity_normed="0"
            traveltime="2.47" CO_perVeh="297.222281" CO2_perVeh="15050.608855" HC_perVeh="1.711418" PMx_perVeh="0.303640" NOx_perVeh="6.476023" fuel_perVeh="6.469603" electricity_perVeh="0"/>
        <edge id=":1110673561_0" sampledSeconds="100.82" CO_abs="9939.993282" CO2_abs="708724.507627" HC_abs="62.346871" PMx_abs="14.412806" NOx_abs="300.386208" fuel_abs="304.646806" electricity_abs="0"
            CO_normed="252.498015" CO2_normed="18003.184364" HC_normed="1.583750" PMx_normed="0.366117" NOx_normed="7.630480" fuel_normed="7.738709" electricity_normed="0"
            traveltime="1.19" CO_perVeh="117.301568" CO2_perVeh="8363.637078" HC_perVeh="0.735754" PMx_perVeh="0.170085" NOx_perVeh="3.544849" fuel_perVeh="3.595128" electricity_perVeh="0"/>
        <edge id=":1110673561_1" sampledSeconds="5247.63" CO_abs="489679.659430" CO2_abs="33945974.100407" HC_abs="3050.951022" PMx_abs="709.353920" NOx_abs="14510.894732" fuel_abs="14591.734935" electricity_abs="0"
            CO_normed="12127.257524" CO2_normed="840695.670884" HC_normed="75.558925" PMx_normed="17.567643" NOx_normed="359.372406" fuel_normed="361.374470" electricity_normed="0"
            traveltime="1.19" CO_perVeh="111.140551" CO2_perVeh="7704.576200" HC_perVeh="0.692462" PMx_perVeh="0.160999" NOx_perVeh="3.293477" fuel_perVeh="3.311825" electricity_perVeh="0"/>
        <edge id=":1110673562_0" sampledSeconds="302.63" CO_abs="6473.201826" CO2_abs="500036.450437" HC_abs="40.876983" PMx_abs="6.785159" NOx_abs="191.096260" fuel_abs="214.946382" electricity_abs="0"
            CO_normed="10188.803882" CO2_normed="787056.153051" HC_normed="64.340271" PMx_normed="10.679823" NOx_normed="300.785047" fuel_normed="338.325080" electricity_normed="0"
            traveltime="0.03" CO_perVeh="0.580267" CO2_perVeh="44.823985" HC_perVeh="0.003664" PMx_perVeh="0.000608" NOx_perVeh="0.017130" fuel_perVeh="0.019268" electricity_perVeh="0"/>
        <edge id=":1110673564_0" sampledSeconds="27.83" CO_abs="446.250656" CO2_abs="53605.254036" HC_abs="3.253694" PMx_abs="0.720280" NOx_abs="19.984639" fuel_abs="23.042675" electricity_abs="0"
            CO_normed="1896.473099" CO2_normed="227811.255495" HC_normed="13.827526" PMx_normed="3.061039" NOx_normed="84.930586" fuel_normed="97.926607" electricity_normed="0"
            traveltime="7.861094e-03" CO_perVeh="0.126042" CO2_perVeh="15.140589" HC_perVeh="0.000919" PMx_perVeh="0.000203" NOx_perVeh="0.005645" fuel_perVeh="0.006508" electricity_perVeh="0"/>
        <edge id=":1110673588_0" sampledSeconds="62.93" CO_abs="1411.742589" CO2_abs="144613.146363" HC_abs="9.756453" PMx_abs="2.102453" NOx_abs="55.297565" fuel_abs="62.163092" electricity_abs="0"
            CO_normed="2399.845743" CO2_normed="245830.398728" HC_normed="16.585164" PMx_normed="3.573997" NOx_normed="94.001290" fuel_normed="105.672119" electricity_normed="0"
            traveltime="0.02" CO_perVeh="0.455401" CO2_perVeh="46.649402" HC_perVeh="0.003147" PMx_perVeh="0.000678" NOx_perVeh="0.017838" fuel_perVeh="0.020053" electricity_perVeh="0"/>
        <edge id=":1110673601_0" sampledSeconds="28.99" CO_abs="412.455504" CO2_abs="50405.864052" HC_abs="3.036935" PMx_abs="0.670864" NOx_abs="18.738980" fuel_abs="21.667397" electricity_abs="0"
            CO_normed="626.018101" CO2_normed="76505.181792" HC_normed="4.609409" PMx_normed="1.018227" NOx_normed="28.441712" fuel_normed="32.886414" electricity_normed="0"
            traveltime="0.02" CO_perVeh="0.314517" CO2_perVeh="38.436891" HC_perVeh="0.002316" PMx_perVeh="0.000512" NOx_perVeh="0.014289" fuel_perVeh="0.016522" electricity_perVeh="0"/>
        <edge id=":1110673617_0" sampledSeconds="856.03" CO_abs="31645.106198" CO2_abs="3236487.325314" HC_abs="221.791115" PMx_abs="60.846299" NOx_abs="1267.184428" fuel_abs="1391.214492" electricity_abs="0"
            CO_normed="44828.387956" CO2_normed="4584800.838598" HC_normed="314.188807" PMx_normed="86.194734" NOx_normed="1795.090678" fuel_normed="1970.791395" electricity_normed="0"
            traveltime="0.02" CO_perVeh="0.560653" CO2_perVeh="57.340467" HC_perVeh="0.003929" PMx_perVeh="0.001078" NOx_perVeh="0.022451" fuel_perVeh="0.024648" electricity_perVeh="0"/>
        <edge id=":1110673621_0" sampledSeconds="25.99" CO_abs="737.867395" CO2_abs="67463.481716" HC_abs="4.940905" PMx_abs="1.091226" NOx_abs="26.606282" fuel_abs="28.999596" electricity_abs="0"
            CO_normed="1254.313598" CO2_normed="114682.344082" HC_normed="8.399129" PMx_normed="1.854995" NOx_normed="45.228481" fuel_normed="49.296918" electricity_normed="0"
            traveltime="0.02" CO_perVeh="0.558990" CO2_perVeh="51.108698" HC_perVeh="0.003743" PMx_perVeh="0.000827" NOx_perVeh="0.020156" fuel_perVeh="0.021969" electricity_perVeh="0"/>
        <edge id=":1110673630_0" sampledSeconds="286.72" CO_abs="1084.798332" CO2_abs="97771.261204" HC_abs="7.148688" PMx_abs="1.175708" NOx_abs="36.178075" fuel_abs="42.028192" electricity_abs="0"
            CO_normed="32.882802" CO2_normed="2963.678044" HC_normed="0.216694" PMx_normed="0.035638" NOx_normed="1.096643" fuel_normed="1.273974" electricity_normed="0"
            traveltime="1.29" CO_perVeh="4.881178" CO2_perVeh="439.933334" HC_perVeh="0.032166" PMx_perVeh="0.005290" NOx_perVeh="0.162788" fuel_perVeh="0.189111" electricity_perVeh="0"/>
        <edge id=":1110673630_1" sampledSeconds="337.46" CO_abs="1186.039414" CO2_abs="97196.457182" HC_abs="7.607566" PMx_abs="1.252458" NOx_abs="36.640524" fuel_abs="41.781055" electricity_abs="0"
            CO_normed="43.829761" CO2_normed="3591.868378" HC_normed="0.281136" PMx_normed="0.046284" NOx_normed="1.354040" fuel_normed="1.544007" electricity_normed="0"
            traveltime="1.08" CO_perVeh="3.780860" CO2_perVeh="309.843176" HC_perVeh="0.024251" PMx_perVeh="0.003993" NOx_perVeh="0.116803" fuel_perVeh="0.133190" electricity_perVeh="0"/>
        <edge id=":1110673650_0" sampledSeconds="200.37" CO_abs="2759.586176" CO2_abs="367210.820373" HC_abs="20.900524" PMx_abs="4.843899" NOx_abs="135.692389" fuel_abs="157.848639" electricity_abs="0"
            CO_normed="3909.223717" CO2_normed="520190.041845" HC_normed="29.607636" PMx_normed="6.861856" NOx_normed="192.221540" fuel_normed="223.608035" electricity_normed="0"
            traveltime="0.02" CO_perVeh="0.319440" CO2_perVeh="42.507021" HC_perVeh="0.002419" PMx_perVeh="0.000561" NOx_perVeh="0.015707" fuel_perVeh="0.018272" electricity_perVeh="0"/>
        <edge id=":1110673655_0" sampledSeconds="20.75" CO_abs="349.168927" CO2_abs="40391.959587" HC_abs="2.510810" PMx_abs="0.561269" NOx_abs="15.204866" fuel_abs="17.362807" electricity_abs="0"
            CO_normed="494.631935" CO2_normed="57219.161261" HC_normed="3.556808" PMx_normed="0.795092" NOx_normed="21.539179" fuel_normed="24.596114" electricity_normed="0"
            traveltime="0.02" CO_perVeh="0.398898" CO2_perVeh="46.144661" HC_perVeh="0.002868" PMx_perVeh="0.000641" NOx_perVeh="0.017370" fuel_perVeh="0.019836" electricity_perVeh="0"/>
        <edge id=":1110673663_0" sampledSeconds="110.91" CO_abs="2028.256370" CO2_abs="230334.712489" HC_abs="14.512416" PMx_abs="3.211546" NOx_abs="86.819069" fuel_abs="99.011235" electricity_abs="0"
            CO_normed="52.623141" CO2_normed="5976.037508" HC_normed="0.376525" PMx_normed="0.083324" NOx_normed="2.252522" fuel_normed="2.568848" electricity_normed="0"
            traveltime="1.30" CO_perVeh="23.822828" CO2_perVeh="2705.389860" HC_perVeh="0.170455" PMx_perVeh="0.037721" NOx_perVeh="1.019731" fuel_perVeh="1.162934" electricity_perVeh="0"/>
        <edge id=":1110673663_1" sampledSeconds="169.93" CO_abs="2600.842291" CO2_abs="330080.313641" HC_abs="19.349231" PMx_abs="4.354295" NOx_abs="122.258279" fuel_abs="141.887857" electricity_abs="0"
            CO_normed="67.561384" CO2_normed="8574.407962" HC_normed="0.502630" PMx_normed="0.113110" NOx_normed="3.175871" fuel_normed="3.685783" electricity_normed="0"
            traveltime="1.28" CO_perVeh="19.548415" CO2_perVeh="2480.945147" HC_perVeh="0.145432" PMx_perVeh="0.032728" NOx_perVeh="0.918916" fuel_perVeh="1.066456" electricity_perVeh="0"/>