<?xml version="1.0" encoding="UTF-8"?>

<!-- generated on Tue Nov 10 07:03:08 2020 by Eclipse SUMO sumo Version 1.7.0
<configuration xmlns:xsi="http://www.w3.org/2001/XMLSchema-instance" xsi:noNamespaceSchemaLocation="http://sumo.dlr.de/xsd/sumoConfiguration.xsd">

    <input>
        <net-file value="../dataSets/Porto/8AM9AM_Routing_SaoBento/Porto.net.xml"/>
        <route-files value="../results/Porto/8AM9AM_Routing_SaoBento/cost_co-length/solution19/Porto.rou.xml"/>
        <additional-files value="moreOutputInfo.xml"/>
    </input>

    <output>
        <emission-output.precision value="6"/>
        <tripinfo-output value="../results/Porto/8AM9AM_Routing_SaoBento/cost_co-length/solution19/Porto-tripinfo"/>
    </output>

    <processing>
        <collision.action value="warn"/>
        <time-to-teleport value="-1"/>
    </processing>

    <emissions>
        <device.emissions.probability value="1"/>
    </emissions>

    <gui_only>
        <quit-on-end value="true"/>
        <start value="true"/>
    </gui_only>

</configuration>
-->

<meandata xmlns:xsi="http://www.w3.org/2001/XMLSchema-instance" xsi:noNamespaceSchemaLocation="http://sumo.dlr.de/xsd/meandata_file.xsd">
    <interval begin="0.00" end="8561.00" id="emissions-detector">
        <edge id=":1092997347_0" sampledSeconds="599.18" CO_abs="71338.513733" CO2_abs="3042090.986178" HC_abs="396.754140" PMx_abs="61.318651" NOx_abs="1314.859424" fuel_abs="1307.671922" electricity_abs="0"
            CO_normed="68178.804897" CO2_normed="2907351.400708" HC_normed="379.181198" PMx_normed="58.602739" NOx_normed="1256.621977" fuel_normed="1249.752822" electricity_normed="0"
            traveltime="0.07" CO_perVeh="8.168503" CO2_perVeh="348.329803" HC_perVeh="0.045430" PMx_perVeh="0.007021" NOx_perVeh="0.150556" fuel_perVeh="0.149733" electricity_perVeh="0"/>
        <edge id=":1103427051_0" sampledSeconds="19.38" CO_abs="1608.633630" CO2_abs="90511.815172" HC_abs="9.472547" PMx_abs="1.769611" NOx_abs="38.580964" fuel_abs="38.907033" electricity_abs="0"
            CO_normed="2332.583233" CO2_normed="131245.759487" HC_normed="13.735573" PMx_normed="2.566007" NOx_normed="55.943944" fuel_normed="56.416758" electricity_normed="0"
            traveltime="0.03" CO_perVeh="2.501629" CO2_perVeh="140.757327" HC_perVeh="0.014731" PMx_perVeh="0.002752" NOx_perVeh="0.059998" fuel_perVeh="0.060505" electricity_perVeh="0"/>
        <edge id=":1105984386_0" sampledSeconds="10.62" CO_abs="198.064823" CO2_abs="16554.988535" HC_abs="1.272266" PMx_abs="0.184145" NOx_abs="6.052871" fuel_abs="7.116400" electricity_abs="0"
            CO_normed="8.577607" CO2_normed="716.948001" HC_normed="0.055098" PMx_normed="0.007975" NOx_normed="0.262132" fuel_normed="0.308190" electricity_normed="0"
            traveltime="1.02" CO_perVeh="19.000291" CO2_perVeh="1588.114391" HC_perVeh="0.122048" PMx_perVeh="0.017665" NOx_perVeh="0.580650" fuel_perVeh="0.682674" electricity_perVeh="0"/>
        <edge id=":1105984390_0" sampledSeconds="10.81" CO_abs="15.327572" CO2_abs="2910.051610" HC_abs="0.135372" PMx_abs="0.029368" NOx_abs="1.014424" fuel_abs="1.250919" electricity_abs="0"
            CO_normed="0.513171" CO2_normed="97.429182" HC_normed="0.004532" PMx_normed="0.000983" NOx_normed="0.033963" fuel_normed="0.041881" electricity_normed="0"
            traveltime="1.12" CO_perVeh="1.588795" CO2_perVeh="301.644369" HC_perVeh="0.014032" PMx_perVeh="0.003044" NOx_perVeh="0.105151" fuel_perVeh="0.129665" electricity_perVeh="0"/>
        <edge id=":1105984390_1" sampledSeconds="2398.35" CO_abs="63946.379746" CO2_abs="7492983.391276" HC_abs="470.418037" PMx_abs="135.933029" NOx_abs="2858.537224" fuel_abs="3220.886987" electricity_abs="0"
            CO_normed="2047.996641" CO2_normed="239976.131229" HC_normed="15.065975" PMx_normed="4.353497" NOx_normed="91.549743" fuel_normed="103.154639" electricity_normed="0"
            traveltime="0.65" CO_perVeh="17.271502" CO2_perVeh="2023.806190" HC_perVeh="0.127057" PMx_perVeh="0.036715" NOx_perVeh="0.772072" fuel_perVeh="0.869941" electricity_perVeh="0"/>
        <edge id=":1105984395_0" sampledSeconds="4.14" CO_abs="140.165007" CO2_abs="9883.851156" HC_abs="0.863901" PMx_abs="0.138736" NOx_abs="3.823183" fuel_abs="4.248688" electricity_abs="0"
            CO_normed="64.066320" CO2_normed="4517.689441" HC_normed="0.394870" PMx_normed="0.063413" NOx_normed="1.747492" fuel_normed="1.941981" electricity_normed="0"
            traveltime="0.10" CO_perVeh="3.248975" CO2_perVeh="229.104134" HC_perVeh="0.020025" PMx_perVeh="0.003216" NOx_perVeh="0.088620" fuel_perVeh="0.098483" electricity_perVeh="0"/>
        <edge id=":1105984398_0" sampledSeconds="9.81" CO_abs="684.136387" CO2_abs="45098.630514" HC_abs="4.176844" PMx_abs="0.808777" NOx_abs="18.617835" fuel_abs="19.385935" electricity_abs="0"
            CO_normed="23.795476" CO2_normed="1568.610280" HC_normed="0.145278" PMx_normed="0.028131" NOx_normed="0.647561" fuel_normed="0.674277" electricity_normed="0"
            traveltime="1.16" CO_perVeh="80.622372" CO2_perVeh="5314.669193" HC_perVeh="0.492222" PMx_perVeh="0.095311" NOx_perVeh="2.194027" fuel_perVeh="2.284545" electricity_perVeh="0"/>
        <edge id=":1105984398_1" sampledSeconds="644.02" CO_abs="12199.318570" CO2_abs="1429390.505037" HC_abs="88.311747" PMx_abs="20.585989" NOx_abs="541.061452" fuel_abs="614.433886" electricity_abs="0"
            CO_normed="410.725000" CO2_normed="48124.525254" HC_normed="2.973268" PMx_normed="0.693086" NOx_normed="18.216383" fuel_normed="20.686677" electricity_normed="0"
            traveltime="0.95" CO_perVeh="17.990590" CO2_perVeh="2107.952036" HC_perVeh="0.130235" PMx_perVeh="0.030359" NOx_perVeh="0.797915" fuel_perVeh="0.906118" electricity_perVeh="0"/>
        <edge id=":1106006327_0" sampledSeconds="640.95" CO_abs="86449.558663" CO2_abs="2804208.795247" HC_abs="459.658690" PMx_abs="58.562017" NOx_abs="1227.886327" fuel_abs="1205.430296" electricity_abs="0"
            CO_normed="4103.052390" CO2_normed="133092.820569" HC_normed="21.816233" PMx_normed="2.779459" NOx_normed="58.277706" fuel_normed="57.211902" electricity_normed="0"
            traveltime="2.10" CO_perVeh="282.803839" CO2_perVeh="9173.453574" HC_perVeh="1.503689" PMx_perVeh="0.191575" NOx_perVeh="4.016804" fuel_perVeh="3.943344" electricity_perVeh="0"/>
        <edge id=":1106006327_1" sampledSeconds="683.01" CO_abs="92438.916401" CO2_abs="3089211.868314" HC_abs="493.715689" PMx_abs="64.445298" NOx_abs="1352.026079" fuel_abs="1327.940783" electricity_abs="0"
            CO_normed="3825.948692" CO2_normed="127859.202255" HC_normed="20.434369" PMx_normed="2.667323" NOx_normed="55.958925" fuel_normed="54.962060" electricity_normed="0"
            traveltime="2.29" CO_perVeh="310.295068" CO2_perVeh="10369.736508" HC_perVeh="1.657284" PMx_perVeh="0.216327" NOx_perVeh="4.538424" fuel_perVeh="4.457576" electricity_perVeh="0"/>
        <edge id=":1106006327_2" sampledSeconds="0.00" CO_abs="0" CO2_abs="0" HC_abs="0" PMx_abs="0" NOx_abs="0" fuel_abs="0" electricity_abs="0"
            CO_normed="0" CO2_normed="0" HC_normed="0" PMx_normed="0" NOx_normed="0" fuel_normed="0" electricity_normed="0"/>
        <edge id=":1106006327_3" sampledSeconds="0.00" CO_abs="0" CO2_abs="0" HC_abs="0" PMx_abs="0" NOx_abs="0" fuel_abs="0" electricity_abs="0"
            CO_normed="0" CO2_normed="0" HC_normed="0" PMx_normed="0" NOx_normed="0" fuel_normed="0" electricity_normed="0"/>
        <edge id=":1107381198_0" sampledSeconds="0.00" CO_abs="0" CO2_abs="0" HC_abs="0" PMx_abs="0" NOx_abs="0" fuel_abs="0" electricity_abs="0"
            CO_normed="0" CO2_normed="0" HC_normed="0" PMx_normed="0" NOx_normed="0" fuel_normed="0" electricity_normed="0"/>
        <edge id=":1107381198_1" sampledSeconds="103.19" CO_abs="4655.896247" CO2_abs="186891.743634" HC_abs="25.518474" PMx_abs="3.301721" NOx_abs="77.908395" fuel_abs="80.338135" electricity_abs="0"
            CO_normed="213.506923" CO2_normed="8570.354454" HC_normed="1.170209" PMx_normed="0.151408" NOx_normed="3.572670" fuel_normed="3.684092" electricity_normed="0"
            traveltime="1.54" CO_perVeh="69.707694" CO2_perVeh="2798.127758" HC_perVeh="0.382060" PMx_perVeh="0.049433" NOx_perVeh="1.166438" fuel_perVeh="1.202816" electricity_perVeh="0"/>
        <edge id=":1110338277_0" sampledSeconds="160.22" CO_abs="2318.340218" CO2_abs="292993.562527" HC_abs="17.237372" PMx_abs="3.936337" NOx_abs="108.945927" fuel_abs="125.945703" electricity_abs="0"
            CO_normed="3481.746452" CO2_normed="440025.708402" HC_normed="25.887554" PMx_normed="5.911699" NOx_normed="163.617960" fuel_normed="189.148685" electricity_normed="0"
            traveltime="0.02" CO_perVeh="0.313997" CO2_perVeh="39.683165" HC_perVeh="0.002335" PMx_perVeh="0.000533" NOx_perVeh="0.014756" fuel_perVeh="0.017058" electricity_perVeh="0"/>
        <edge id=":1110338293_0" sampledSeconds="6489.92" CO_abs="616134.824904" CO2_abs="10781269.919855" HC_abs="3057.697654" PMx_abs="257.251744" NOx_abs="4873.516918" fuel_abs="4634.686538" electricity_abs="0"
            CO_normed="863639.516277" CO2_normed="15112164.354428" HC_normed="4285.991338" PMx_normed="360.591161" NOx_normed="6831.235021" fuel_normed="6496.465185" electricity_normed="0"
            traveltime="0.43" CO_perVeh="41.178304" CO2_perVeh="720.547502" HC_perVeh="0.204356" PMx_perVeh="0.017193" NOx_perVeh="0.325713" fuel_perVeh="0.309751" electricity_perVeh="0"/>
        <edge id=":1110338295_0" sampledSeconds="0.00" CO_abs="0" CO2_abs="0" HC_abs="0" PMx_abs="0" NOx_abs="0" fuel_abs="0" electricity_abs="0"
            CO_normed="0" CO2_normed="0" HC_normed="0" PMx_normed="0" NOx_normed="0" fuel_normed="0" electricity_normed="0"/>
        <edge id=":1110673403_0" sampledSeconds="200.21" CO_abs="3188.231569" CO2_abs="403041.580700" HC_abs="23.674938" PMx_abs="5.397930" NOx_abs="149.784354" fuel_abs="173.250769" electricity_abs="0"
            CO_normed="4468.961433" CO2_normed="564945.563415" HC_normed="33.185288" PMx_normed="7.566308" NOx_normed="209.953538" fuel_normed="242.846540" electricity_normed="0"
            traveltime="0.02" CO_perVeh="0.368482" CO2_perVeh="46.581837" HC_perVeh="0.002736" PMx_perVeh="0.000624" NOx_perVeh="0.017311" fuel_perVeh="0.020024" electricity_perVeh="0"/>
        <edge id=":1110673412_0" sampledSeconds="940.30" CO_abs="166389.528317" CO2_abs="11360550.048541" HC_abs="1035.634781" PMx_abs="249.607703" NOx_abs="4881.543719" fuel_abs="4883.340932" electricity_abs="0"
            CO_normed="241271.484536" CO2_normed="16473252.872790" HC_normed="1501.711938" PMx_normed="361.941173" NOx_normed="7078.434032" fuel_normed="7081.040064" electricity_normed="0"
            traveltime="0.02" CO_perVeh="2.749281" CO2_perVeh="187.712185" HC_perVeh="0.017112" PMx_perVeh="0.004124" NOx_perVeh="0.080659" fuel_perVeh="0.080688" electricity_perVeh="0"/>
        <edge id=":1110673414_0" sampledSeconds="0.00" CO_abs="0" CO2_abs="0" HC_abs="0" PMx_abs="0" NOx_abs="0" fuel_abs="0" electricity_abs="0"
            CO_normed="0" CO2_normed="0" HC_normed="0" PMx_normed="0" NOx_normed="0" fuel_normed="0" electricity_normed="0"/>
        <edge id=":1110673414_1" sampledSeconds="236.55" CO_abs="16190.810622" CO2_abs="632497.967293" HC_abs="88.419775" PMx_abs="11.673172" NOx_abs="266.958293" fuel_abs="271.888055" electricity_abs="0"
            CO_normed="753.978299" CO2_normed="29454.346228" HC_normed="4.117557" PMx_normed="0.543600" NOx_normed="12.431790" fuel_normed="12.661361" electricity_normed="0"
            traveltime="1.53" CO_perVeh="105.047507" CO2_perVeh="4103.706509" HC_perVeh="0.573676" PMx_perVeh="0.075737" NOx_perVeh="1.732051" fuel_perVeh="1.764035" electricity_perVeh="0"/>
        <edge id=":1110673417_0" sampledSeconds="29.09" CO_abs="549.255049" CO2_abs="57174.417617" HC_abs="3.832121" PMx_abs="0.872224" NOx_abs="22.044719" fuel_abs="24.576810" electricity_abs="0"
            CO_normed="824.886184" CO2_normed="85866.096844" HC_normed="5.755184" PMx_normed="1.309929" NOx_normed="33.107359" fuel_normed="36.910122" electricity_normed="0"
            traveltime="0.02" CO_perVeh="0.418833" CO2_perVeh="43.598238" HC_perVeh="0.002922" PMx_perVeh="0.000665" NOx_perVeh="0.016810" fuel_perVeh="0.018741" electricity_perVeh="0"/>
        <edge id=":1110673446_0" sampledSeconds="1313.77" CO_abs="14416.689694" CO2_abs="1167822.805334" HC_abs="93.299767" PMx_abs="21.407676" NOx_abs="477.621244" fuel_abs="501.993334" electricity_abs="0"
            CO_normed="20207.951913" CO2_normed="1636943.542110" HC_normed="130.778787" PMx_normed="30.007256" NOx_normed="669.484280" fuel_normed="703.646771" electricity_normed="0"
            traveltime="0.02" CO_perVeh="0.250087" CO2_perVeh="20.258260" HC_perVeh="0.001618" PMx_perVeh="0.000371" NOx_perVeh="0.008285" fuel_perVeh="0.008708" electricity_perVeh="0"/>
        <edge id=":1110673451_0" sampledSeconds="36.72" CO_abs="324.391225" CO2_abs="21754.708049" HC_abs="1.971599" PMx_abs="0.296863" NOx_abs="8.365072" fuel_abs="9.351540" electricity_abs="0"
            CO_normed="505.223261" CO2_normed="33881.879919" HC_normed="3.070667" PMx_normed="0.462350" NOx_normed="13.028186" fuel_normed="14.564560" electricity_normed="0"
            traveltime="0.03" CO_perVeh="0.239005" CO2_perVeh="16.028410" HC_perVeh="0.001453" PMx_perVeh="0.000219" NOx_perVeh="0.006163" fuel_perVeh="0.006890" electricity_perVeh="0"/>
        <edge id=":1110673464_0" sampledSeconds="1036.39" CO_abs="3762.391744" CO2_abs="280178.989635" HC_abs="23.518838" PMx_abs="3.921783" NOx_abs="107.936051" fuel_abs="120.438060" electricity_abs="0"
            CO_normed="112.048828" CO2_normed="8344.087926" HC_normed="0.700421" PMx_normed="0.116796" NOx_normed="3.214473" fuel_normed="3.586799" electricity_normed="0"
            traveltime="1.23" CO_perVeh="4.461670" CO2_perVeh="332.253070" HC_perVeh="0.027890" PMx_perVeh="0.004651" NOx_perVeh="0.127997" fuel_perVeh="0.142823" electricity_perVeh="0"/>
        <edge id=":1110673464_1" sampledSeconds="2607.64" CO_abs="61961.741571" CO2_abs="7593347.438753" HC_abs="462.880687" PMx_abs="135.384971" NOx_abs="2877.079948" fuel_abs="3264.030387" electricity_abs="0"
            CO_normed="1808.163253" CO2_normed="221588.539311" HC_normed="13.507752" PMx_normed="3.950795" NOx_normed="83.958748" fuel_normed="95.250709" electricity_normed="0"
            traveltime="0.72" CO_perVeh="17.079230" CO2_perVeh="2093.042014" HC_perVeh="0.127589" PMx_perVeh="0.037318" NOx_perVeh="0.793043" fuel_perVeh="0.899702" electricity_perVeh="0"/>
        <edge id=":1110673479_0" sampledSeconds="134.37" CO_abs="6786.381846" CO2_abs="458532.364106" HC_abs="41.692356" PMx_abs="8.154339" NOx_abs="188.494071" fuel_abs="197.103071" electricity_abs="0"
            CO_normed="9512.508136" CO2_normed="642727.294623" HC_normed="58.440401" PMx_normed="11.429982" NOx_normed="264.213159" fuel_normed="276.280440" electricity_normed="0"
            traveltime="0.03" CO_perVeh="1.434702" CO2_perVeh="96.937887" HC_perVeh="0.008814" PMx_perVeh="0.001724" NOx_perVeh="0.039849" fuel_perVeh="0.041669" electricity_perVeh="0"/>
        <edge id=":1110673511_0" sampledSeconds="63.70" CO_abs="1193.838367" CO2_abs="135642.211026" HC_abs="8.525028" PMx_abs="1.840456" NOx_abs="50.817830" fuel_abs="58.306973" electricity_abs="0"
            CO_normed="1673.409696" CO2_normed="190130.420782" HC_normed="11.949577" PMx_normed="2.579777" NOx_normed="71.231628" fuel_normed="81.729199" electricity_normed="0"
            traveltime="0.02" CO_perVeh="0.457555" CO2_perVeh="51.986794" HC_perVeh="0.003267" PMx_perVeh="0.000705" NOx_perVeh="0.019477" fuel_perVeh="0.022347" electricity_perVeh="0"/>
        <edge id=":1110673517_0" sampledSeconds="181.99" CO_abs="8595.427224" CO2_abs="603294.866592" HC_abs="53.322420" PMx_abs="10.569280" NOx_abs="246.600718" fuel_abs="259.330156" electricity_abs="0"
            CO_normed="12048.256826" CO2_normed="845641.677270" HC_normed="74.742324" PMx_normed="14.815017" NOx_normed="345.661560" fuel_normed="363.504482" electricity_normed="0"
            traveltime="0.03" CO_perVeh="1.316035" CO2_perVeh="92.369739" HC_perVeh="0.008164" PMx_perVeh="0.001618" NOx_perVeh="0.037757" fuel_perVeh="0.039706" electricity_perVeh="0"/>
        <edge id=":1110673534_0" sampledSeconds="658.80" CO_abs="4894.252825" CO2_abs="408876.752032" HC_abs="31.646176" PMx_abs="5.646231" NOx_abs="156.268518" fuel_abs="175.759917" electricity_abs="0"
            CO_normed="132.951563" CO2_normed="11107.068888" HC_normed="0.859663" PMx_normed="0.153379" NOx_normed="4.245008" fuel_normed="4.774489" electricity_normed="0"
            traveltime="1.45" CO_perVeh="10.761733" CO2_perVeh="899.059114" HC_perVeh="0.069585" PMx_perVeh="0.012415" NOx_perVeh="0.343611" fuel_perVeh="0.386470" electricity_perVeh="0"/>
        <edge id=":1110673534_1" sampledSeconds="263.49" CO_abs="4278.260540" CO2_abs="545015.483575" HC_abs="31.918995" PMx_abs="7.361709" NOx_abs="202.685809" fuel_abs="234.279341" electricity_abs="0"
            CO_normed="113.006173" CO2_normed="14396.064401" HC_normed="0.843110" PMx_normed="0.194453" NOx_normed="5.353752" fuel_normed="6.188265" electricity_normed="0"
            traveltime="1.22" CO_perVeh="19.850056" CO2_perVeh="2528.735114" HC_perVeh="0.148096" PMx_perVeh="0.034156" NOx_perVeh="0.940411" fuel_perVeh="1.086997" electricity_perVeh="0"/>
        <edge id=":1110673549_0" sampledSeconds="654.01" CO_abs="1574.698157" CO2_abs="136836.483989" HC_abs="10.330504" PMx_abs="1.995354" NOx_abs="52.565878" fuel_abs="58.820411" electricity_abs="0"
            CO_normed="41.437977" CO2_normed="3600.834286" HC_normed="0.271846" PMx_normed="0.052507" NOx_normed="1.383264" fuel_normed="1.547851" electricity_normed="0"
            traveltime="1.30" CO_perVeh="3.128550" CO2_perVeh="271.861466" HC_perVeh="0.020524" PMx_perVeh="0.003964" NOx_perVeh="0.104436" fuel_perVeh="0.116862" electricity_perVeh="0"/>
        <edge id=":1110673549_1" sampledSeconds="3197.02" CO_abs="69327.449047" CO2_abs="9128638.777558" HC_abs="533.022618" PMx_abs="160.299162" NOx_abs="3410.499772" fuel_abs="3923.984128" electricity_abs="0"
            CO_normed="1764.709327" CO2_normed="232366.749596" HC_normed="13.567930" PMx_normed="4.080367" NOx_normed="86.813244" fuel_normed="99.883834" electricity_normed="0"
            traveltime="0.81" CO_perVeh="17.486832" CO2_perVeh="2302.565231" HC_perVeh="0.134447" PMx_perVeh="0.040433" NOx_perVeh="0.860249" fuel_perVeh="0.989767" electricity_perVeh="0"/>
        <edge id=":1110673556_0" sampledSeconds="473.44" CO_abs="57736.008790" CO2_abs="2743170.173074" HC_abs="328.003972" PMx_abs="55.319698" NOx_abs="1182.620890" fuel_abs="1179.172603" electricity_abs="0"
            CO_normed="1126.620080" CO2_normed="53528.303490" HC_normed="6.400440" PMx_normed="1.079470" NOx_normed="23.076837" fuel_normed="23.009549" electricity_normed="0"
            traveltime="2.79" CO_perVeh="340.348430" CO2_perVeh="16170.734382" HC_perVeh="1.933553" PMx_perVeh="0.326105" NOx_perVeh="6.971441" fuel_perVeh="6.951113" electricity_perVeh="0"/>
        <edge id=":1110673556_2" sampledSeconds="177.31" CO_abs="18321.200090" CO2_abs="779177.949531" HC_abs="101.721057" PMx_abs="15.063699" NOx_abs="332.545100" fuel_abs="334.938130" electricity_abs="0"
            CO_normed="373.812595" CO2_normed="15897.786694" HC_normed="2.075443" PMx_normed="0.307349" NOx_normed="6.785011" fuel_normed="6.833837" electricity_normed="0"
            traveltime="3.07" CO_perVeh="316.799730" CO2_perVeh="13473.100158" HC_perVeh="1.758902" PMx_perVeh="0.260473" NOx_perVeh="5.750180" fuel_perVeh="5.791559" electricity_perVeh="0"/>
        <edge id=":1110673556_3" sampledSeconds="331.76" CO_abs="33160.706416" CO2_abs="1149753.249681" HC_abs="177.891024" PMx_abs="22.780281" NOx_abs="495.738058" fuel_abs="494.238205" electricity_abs="0"
            CO_normed="1539.123892" CO2_normed="53364.746630" HC_normed="8.256649" PMx_normed="1.057326" NOx_normed="23.009229" fuel_normed="22.939615" electricity_normed="0"
            traveltime="1.83" CO_perVeh="182.814791" CO2_perVeh="6338.583320" HC_perVeh="0.980712" PMx_perVeh="0.125588" NOx_perVeh="2.733001" fuel_perVeh="2.724732" electricity_perVeh="0"/>
        <edge id=":1110673556_4" sampledSeconds="97.96" CO_abs="10589.817953" CO2_abs="417728.786168" HC_abs="58.034471" PMx_abs="8.247646" NOx_abs="179.683297" fuel_abs="179.565633" electricity_abs="0"
            CO_normed="300.279267" CO2_normed="11844.896131" HC_normed="1.645595" PMx_normed="0.233866" NOx_normed="5.095004" fuel_normed="5.091668" electricity_normed="0"
            traveltime="2.47" CO_perVeh="267.359551" CO2_perVeh="10546.336226" HC_perVeh="1.465188" PMx_perVeh="0.208227" NOx_perVeh="4.536437" fuel_perVeh="4.533467" electricity_perVeh="0"/>
        <edge id=":1110673556_5" sampledSeconds="22.19" CO_abs="1277.835784" CO2_abs="58958.404134" HC_abs="7.189065" PMx_abs="1.050240" NOx_abs="24.581643" fuel_abs="25.343957" electricity_abs="0"
            CO_normed="50.502331" CO2_normed="2330.140431" HC_normed="0.284125" PMx_normed="0.041507" NOx_normed="0.971510" fuel_normed="1.001638" electricity_normed="0"
            traveltime="1.53" CO_perVeh="88.344202" CO2_perVeh="4076.136582" HC_perVeh="0.497022" PMx_perVeh="0.072609" NOx_perVeh="1.699472" fuel_perVeh="1.752175" electricity_perVeh="0"/>
        <edge id=":1110673556_6" sampledSeconds="209.80" CO_abs="24878.271808" CO2_abs="1272726.314889" HC_abs="143.542019" PMx_abs="25.553116" NOx_abs="546.841981" fuel_abs="547.089761" electricity_abs="0"
            CO_normed="497.697547" CO2_normed="25461.284854" HC_normed="2.871603" PMx_normed="0.511198" NOx_normed="10.939744" fuel_normed="10.944700" electricity_normed="0"
            traveltime="2.44" CO_perVeh="289.894824" CO2_perVeh="14830.482365" HC_perVeh="1.672628" PMx_perVeh="0.297758" NOx_perVeh="6.372093" fuel_perVeh="6.374980" electricity_perVeh="0"/>
        <edge id=":1110673561_0" sampledSeconds="102.81" CO_abs="10161.708837" CO2_abs="712718.589148" HC_abs="63.446595" PMx_abs="14.529910" NOx_abs="302.795215" fuel_abs="306.363707" electricity_abs="0"
            CO_normed="255.416418" CO2_normed="17914.312629" HC_normed="1.594742" PMx_normed="0.365212" NOx_normed="7.610813" fuel_normed="7.700508" electricity_normed="0"
            traveltime="1.21" CO_perVeh="119.918027" CO2_perVeh="8410.771117" HC_perVeh="0.748731" PMx_perVeh="0.171467" NOx_perVeh="3.573277" fuel_perVeh="3.615389" electricity_perVeh="0"/>
        <edge id=":1110673561_1" sampledSeconds="5193.21" CO_abs="485278.004931" CO2_abs="33607983.029739" HC_abs="3022.757595" PMx_abs="702.564710" NOx_abs="14369.123209" fuel_abs="14446.448786" electricity_abs="0"
            CO_normed="11891.902168" CO2_normed="823575.027501" HC_normed="74.073701" PMx_normed="17.216587" NOx_normed="352.120240" fuel_normed="354.015129" electricity_normed="0"
            traveltime="1.19" CO_perVeh="111.446450" CO2_perVeh="7718.236503" HC_perVeh="0.694191" PMx_perVeh="0.161347" NOx_perVeh="3.299939" fuel_perVeh="3.317697" electricity_perVeh="0"/>
        <edge id=":1110673562_0" sampledSeconds="300.99" CO_abs="6404.944399" CO2_abs="497643.501446" HC_abs="40.491370" PMx_abs="6.695635" NOx_abs="189.779613" fuel_abs="213.917802" electricity_abs="0"
            CO_normed="9975.383559" CO2_normed="775055.097061" HC_normed="63.063303" PMx_normed="10.428119" NOx_normed="295.572344" fuel_normed="333.166378" electricity_normed="0"
            traveltime="0.03" CO_perVeh="0.574149" CO2_perVeh="44.609557" HC_perVeh="0.003630" PMx_perVeh="0.000600" NOx_perVeh="0.017012" fuel_perVeh="0.019176" electricity_perVeh="0"/>
        <edge id=":1110673564_0" sampledSeconds="27.73" CO_abs="560.610394" CO2_abs="63910.629514" HC_abs="4.012125" PMx_abs="0.879744" NOx_abs="24.000148" fuel_abs="27.472517" electricity_abs="0"
            CO_normed="2357.431865" CO2_normed="268751.625103" HC_normed="16.871452" PMx_normed="3.699424" NOx_normed="100.923413" fuel_normed="115.525125" electricity_normed="0"
            traveltime="7.832093e-03" CO_perVeh="0.158342" CO2_perVeh="18.051301" HC_perVeh="0.001133" PMx_perVeh="0.000248" NOx_perVeh="0.006779" fuel_perVeh="0.007760" electricity_perVeh="0"/>
        <edge id=":1110673588_0" sampledSeconds="63.07" CO_abs="1253.011970" CO2_abs="138113.238583" HC_abs="8.870311" PMx_abs="1.933764" NOx_abs="52.176828" fuel_abs="59.369103" electricity_abs="0"
            CO_normed="2107.624387" CO2_normed="232312.888166" HC_normed="14.920276" PMx_normed="3.252680" NOx_normed="87.763851" fuel_normed="99.861591" electricity_normed="0"
            traveltime="0.02" CO_perVeh="0.404197" CO2_perVeh="44.552658" HC_perVeh="0.002861" PMx_perVeh="0.000624" NOx_perVeh="0.016831" fuel_perVeh="0.019151" electricity_perVeh="0"/>
        <edge id=":1110673601_0" sampledSeconds="29.09" CO_abs="443.565325" CO2_abs="49966.182986" HC_abs="3.150246" PMx_abs="0.702776" NOx_abs="18.844843" fuel_abs="21.478361" electricity_abs="0"
            CO_normed="666.158481" CO2_normed="75040.573844" HC_normed="4.731125" PMx_normed="1.055448" NOx_normed="28.301698" fuel_normed="32.256787" electricity_normed="0"
            traveltime="0.02" CO_perVeh="0.338240" CO2_perVeh="38.101613" HC_perVeh="0.002402" PMx_perVeh="0.000536" NOx_perVeh="0.014370" fuel_perVeh="0.016378" electricity_perVeh="0"/>
        <edge id=":1110673617_0" sampledSeconds="853.87" CO_abs="31906.368997" CO2_abs="3258766.609686" HC_abs="223.395188" PMx_abs="61.281328" NOx_abs="1276.249877" fuel_abs="1400.791279" electricity_abs="0"
            CO_normed="44723.329981" CO2_normed="4567830.781011" HC_normed="313.134243" PMx_normed="85.898369" NOx_normed="1788.926355" fuel_normed="1963.496712" electricity_normed="0"
            traveltime="0.02" CO_perVeh="0.564979" CO2_perVeh="57.704281" HC_perVeh="0.003956" PMx_perVeh="0.001085" NOx_perVeh="0.022599" fuel_perVeh="0.024804" electricity_perVeh="0"/>
        <edge id=":1110673621_0" sampledSeconds="26.61" CO_abs="497.301068" CO2_abs="52251.072151" HC_abs="3.460726" PMx_abs="0.761638" NOx_abs="19.966304" fuel_abs="22.460519" electricity_abs="0"
            CO_normed="836.483516" CO2_normed="87888.732506" HC_normed="5.821101" PMx_normed="1.281111" NOx_normed="33.584251" fuel_normed="37.779638" electricity_normed="0"
            traveltime="0.02" CO_perVeh="0.376743" CO2_perVeh="39.584146" HC_perVeh="0.002622" PMx_perVeh="0.000577" NOx_perVeh="0.015126" fuel_perVeh="0.017016" electricity_perVeh="0"/>
        <edge id=":1110673630_0" sampledSeconds="286.66" CO_abs="862.232869" CO2_abs="82023.362854" HC_abs="5.781951" PMx_abs="0.987038" NOx_abs="30.296806" fuel_abs="35.258726" electricity_abs="0"
            CO_normed="25.861551" CO2_normed="2460.183837" HC_normed="0.173422" PMx_normed="0.029605" NOx_normed="0.908713" fuel_normed="1.057540" electricity_normed="0"
            traveltime="1.29" CO_perVeh="3.879719" CO2_perVeh="369.073806" HC_perVeh="0.026017" PMx_perVeh="0.004441" NOx_perVeh="0.136324" fuel_perVeh="0.158651" electricity_perVeh="0"/>
        <edge id=":1110673630_1" sampledSeconds="338.69" CO_abs="1395.661638" CO2_abs="113412.144488" HC_abs="8.929495" PMx_abs="1.460223" NOx_abs="42.758297" fuel_abs="48.751572" electricity_abs="0"
            CO_normed="51.034082" CO2_normed="4147.054338" HC_normed="0.326518" PMx_normed="0.053395" NOx_normed="1.563510" fuel_normed="1.782661" electricity_normed="0"
            traveltime="1.08" CO_perVeh="4.449095" CO2_perVeh="361.535596" HC_perVeh="0.028465" PMx_perVeh="0.004655" NOx_perVeh="0.136305" fuel_perVeh="0.155410" electricity_perVeh="0"/>
        <edge id=":1110673650_0" sampledSeconds="200.10" CO_abs="3005.426521" CO2_abs="378435.748533" HC_abs="22.338241" PMx_abs="5.152222" NOx_abs="141.151252" fuel_abs="162.673640" electricity_abs="0"
            CO_normed="4212.722609" CO2_normed="530455.435392" HC_normed="31.311633" PMx_normed="7.221898" NOx_normed="197.852474" fuel_normed="228.020521" electricity_normed="0"
            traveltime="0.02" CO_perVeh="0.347354" CO2_perVeh="43.737999" HC_perVeh="0.002582" PMx_perVeh="0.000595" NOx_perVeh="0.016314" fuel_perVeh="0.018801" electricity_perVeh="0"/>
        <edge id=":1110673655_0" sampledSeconds="20.56" CO_abs="361.877713" CO2_abs="42899.574813" HC_abs="2.635490" PMx_abs="0.596752" NOx_abs="16.120138" fuel_abs="18.440722" electricity_abs="0"
            CO_normed="507.245948" CO2_normed="60132.566026" HC_normed="3.694180" PMx_normed="0.836471" NOx_normed="22.595685" fuel_normed="25.848460" electricity_normed="0"
            traveltime="0.02" CO_perVeh="0.413417" CO2_perVeh="49.009415" HC_perVeh="0.003011" PMx_perVeh="0.000682" NOx_perVeh="0.018416" fuel_perVeh="0.021067" electricity_perVeh="0"/>
        <edge id=":1110673663_0" sampledSeconds="112.03" CO_abs="2066.969062" CO2_abs="223162.235228" HC_abs="14.549658" PMx_abs="3.175007" NOx_abs="84.676059" fuel_abs="95.928066" electricity_abs="0"
            CO_normed="53.063768" CO2_normed="5729.078975" HC_normed="0.373523" PMx_normed="0.081510" NOx_normed="2.173826" fuel_normed="2.462690" electricity_normed="0"
            traveltime="1.32" CO_perVeh="24.277527" CO2_perVeh="2621.145731" HC_perVeh="0.170893" PMx_perVeh="0.037292" NOx_perVeh="0.994560" fuel_perVeh="1.126720" electricity_perVeh="0"/>
        <edge id=":1110673663_1" sampledSeconds="169.96" CO_abs="2718.011416" CO2_abs="333842.705434" HC_abs="20.003677" PMx_abs="4.542865" NOx_abs="124.628734" fuel_abs="143.505010" electricity_abs="0"
            CO_normed="69.862799" CO2_normed="8580.974188" HC_normed="0.514167" PMx_normed="0.116768" NOx_normed="3.203413" fuel_normed="3.688602" electricity_normed="0"
            traveltime="1.27" CO_perVeh="20.347004" CO2_perVeh="2499.142878" HC_perVeh="0.149747" PMx_perVeh="0.034008" NOx_perVeh="0.932969" fuel_perVeh="1.074277" electricity_perVeh="0"/>