<?xml version="1.0" encoding="UTF-8"?>

<!-- generated on Mon Nov  9 23:05:53 2020 by Eclipse SUMO sumo Version 1.7.0
<configuration xmlns:xsi="http://www.w3.org/2001/XMLSchema-instance" xsi:noNamespaceSchemaLocation="http://sumo.dlr.de/xsd/sumoConfiguration.xsd">

    <input>
        <net-file value="../dataSets/Porto/6AM7AM_Routing_SaoBento/Porto.net.xml"/>
        <route-files value="../results/Porto/6AM7AM_Routing_SaoBento/cost_co2-length/solution6/Porto.rou.xml"/>
        <additional-files value="moreOutputInfo.xml"/>
    </input>

    <output>
        <emission-output.precision value="6"/>
        <tripinfo-output value="../results/Porto/6AM7AM_Routing_SaoBento/cost_co2-length/solution6/Porto-tripinfo"/>
    </output>

    <processing>
        <collision.action value="warn"/>
        <time-to-teleport value="-1"/>
    </processing>

    <emissions>
        <device.emissions.probability value="1"/>
    </emissions>

    <gui_only>
        <quit-on-end value="true"/>
        <start value="true"/>
    </gui_only>

</configuration>
-->

<meandata xmlns:xsi="http://www.w3.org/2001/XMLSchema-instance" xsi:noNamespaceSchemaLocation="http://sumo.dlr.de/xsd/meandata_file.xsd">
    <interval begin="0.00" end="4698.00" id="emissions-detector">
        <edge id=":1092997347_0" sampledSeconds="271.52" CO_abs="34871.020901" CO2_abs="1370646.874436" HC_abs="191.165338" PMx_abs="27.983776" NOx_abs="595.173424" fuel_abs="589.187420" electricity_abs="0"
            CO_normed="60729.747303" CO2_normed="2387054.814412" HC_normed="332.924657" PMx_normed="48.735243" NOx_normed="1036.526339" fuel_normed="1026.101393" electricity_normed="0"
            traveltime="0.08" CO_perVeh="9.789106" CO2_perVeh="384.772439" HC_perVeh="0.053665" PMx_perVeh="0.007856" NOx_perVeh="0.167079" fuel_perVeh="0.165399" electricity_perVeh="0"/>
        <edge id=":1103427051_0" sampledSeconds="11.03" CO_abs="781.472277" CO2_abs="44391.206803" HC_abs="4.612787" PMx_abs="0.871831" NOx_abs="18.942900" fuel_abs="19.081808" electricity_abs="0"
            CO_normed="2064.928727" CO2_normed="117297.415256" HC_normed="12.188631" PMx_normed="2.303690" NOx_normed="50.053904" fuel_normed="50.420949" electricity_normed="0"
            traveltime="0.03" CO_perVeh="2.141222" CO2_perVeh="121.631236" HC_perVeh="0.012639" PMx_perVeh="0.002389" NOx_perVeh="0.051903" fuel_perVeh="0.052284" electricity_perVeh="0"/>
        <edge id=":1105984386_0" sampledSeconds="22.89" CO_abs="578.006345" CO2_abs="46775.961835" HC_abs="3.690195" PMx_abs="0.585301" NOx_abs="17.537913" fuel_abs="20.107236" electricity_abs="0"
            CO_normed="45.614494" CO2_normed="3691.415954" HC_normed="0.291219" PMx_normed="0.046190" NOx_normed="1.384039" fuel_normed="1.586802" electricity_normed="0"
            traveltime="0.96" CO_perVeh="24.258479" CO2_perVeh="1963.150888" HC_perVeh="0.154875" PMx_perVeh="0.024565" NOx_perVeh="0.736053" fuel_perVeh="0.843885" electricity_perVeh="0"/>
        <edge id=":1105984390_0" sampledSeconds="23.07" CO_abs="0" CO2_abs="0" HC_abs="0" PMx_abs="0" NOx_abs="0" fuel_abs="0" electricity_abs="0"
            CO_normed="0" CO2_normed="0" HC_normed="0" PMx_normed="0" NOx_normed="0" fuel_normed="0" electricity_normed="0"
            traveltime="1.05" CO_perVeh="0" CO2_perVeh="0" HC_perVeh="0" PMx_perVeh="0" NOx_perVeh="0" fuel_perVeh="0" electricity_perVeh="0"/>
        <edge id=":1105984390_1" sampledSeconds="645.00" CO_abs="16319.627066" CO2_abs="2070330.315220" HC_abs="123.925393" PMx_abs="36.867980" NOx_abs="777.552287" fuel_abs="889.939970" electricity_abs="0"
            CO_normed="952.434223" CO2_normed="120827.114369" HC_normed="7.232444" PMx_normed="2.151662" NOx_normed="45.378942" fuel_normed="51.938030" electricity_normed="0"
            traveltime="0.64" CO_perVeh="16.076721" CO2_perVeh="2039.514929" HC_perVeh="0.122081" PMx_perVeh="0.036319" NOx_perVeh="0.765979" fuel_perVeh="0.876694" electricity_perVeh="0"/>
        <edge id=":1105984395_0" sampledSeconds="8.83" CO_abs="158.195240" CO2_abs="14788.784405" HC_abs="1.052170" PMx_abs="0.164556" NOx_abs="5.382299" fuel_abs="6.357158" electricity_abs="0"
            CO_normed="131.763485" CO2_normed="12317.828090" HC_normed="0.876370" PMx_normed="0.137061" NOx_normed="4.483007" fuel_normed="5.294985" electricity_normed="0"
            traveltime="0.09" CO_perVeh="1.604273" CO2_perVeh="149.974445" HC_perVeh="0.010670" PMx_perVeh="0.001669" NOx_perVeh="0.054582" fuel_perVeh="0.064469" electricity_perVeh="0"/>
        <edge id=":1105984398_0" sampledSeconds="23.16" CO_abs="1631.080272" CO2_abs="111836.628555" HC_abs="10.071709" PMx_abs="2.048120" NOx_abs="46.328885" fuel_abs="48.073582" electricity_abs="0"
            CO_normed="103.380475" CO2_normed="7088.384280" HC_normed="0.638361" PMx_normed="0.129813" NOx_normed="2.936399" fuel_normed="3.046980" electricity_normed="0"
            traveltime="1.10" CO_perVeh="77.580987" CO2_perVeh="5319.416972" HC_perVeh="0.479053" PMx_perVeh="0.097417" NOx_perVeh="2.203595" fuel_perVeh="2.286580" electricity_perVeh="0"/>
        <edge id=":1105984398_1" sampledSeconds="452.92" CO_abs="7757.950191" CO2_abs="897641.590498" HC_abs="55.808244" PMx_abs="12.883022" NOx_abs="339.794112" fuel_abs="385.857860" electricity_abs="0"
            CO_normed="475.963925" CO2_normed="55071.894481" HC_normed="3.423934" PMx_normed="0.790396" NOx_normed="20.846968" fuel_normed="23.673060" electricity_normed="0"
            traveltime="0.96" CO_perVeh="16.379944" CO2_perVeh="1895.258199" HC_perVeh="0.117832" PMx_perVeh="0.027201" NOx_perVeh="0.717433" fuel_perVeh="0.814691" electricity_perVeh="0"/>
        <edge id=":1106006327_0" sampledSeconds="361.97" CO_abs="48885.724996" CO2_abs="1571161.934341" HC_abs="259.571349" PMx_abs="32.803222" NOx_abs="687.872242" fuel_abs="675.387412" electricity_abs="0"
            CO_normed="4228.027728" CO2_normed="135886.625874" HC_normed="22.449802" PMx_normed="2.837085" NOx_normed="59.492682" fuel_normed="58.412895" electricity_normed="0"
            traveltime="2.12" CO_perVeh="286.704611" CO2_perVeh="9214.538024" HC_perVeh="1.522332" PMx_perVeh="0.192384" NOx_perVeh="4.034228" fuel_perVeh="3.961007" electricity_perVeh="0"/>
        <edge id=":1106006327_1" sampledSeconds="162.36" CO_abs="21958.033295" CO2_abs="730716.781164" HC_abs="117.201927" PMx_abs="15.242838" NOx_abs="319.785432" fuel_abs="314.108876" electricity_abs="0"
            CO_normed="1656.110153" CO2_normed="55111.833738" HC_normed="8.839558" PMx_normed="1.149639" NOx_normed="24.118731" fuel_normed="23.690596" electricity_normed="0"
            traveltime="2.30" CO_perVeh="311.722583" CO2_perVeh="10373.466489" HC_perVeh="1.663832" PMx_perVeh="0.216392" NOx_perVeh="4.539766" fuel_perVeh="4.459180" electricity_perVeh="0"/>
        <edge id=":1106006327_2" sampledSeconds="0.00" CO_abs="0" CO2_abs="0" HC_abs="0" PMx_abs="0" NOx_abs="0" fuel_abs="0" electricity_abs="0"
            CO_normed="0" CO2_normed="0" HC_normed="0" PMx_normed="0" NOx_normed="0" fuel_normed="0" electricity_normed="0"/>
        <edge id=":1106006327_3" sampledSeconds="0.00" CO_abs="0" CO2_abs="0" HC_abs="0" PMx_abs="0" NOx_abs="0" fuel_abs="0" electricity_abs="0"
            CO_normed="0" CO2_normed="0" HC_normed="0" PMx_normed="0" NOx_normed="0" fuel_normed="0" electricity_normed="0"/>
        <edge id=":1107381198_0" sampledSeconds="0.00" CO_abs="0" CO2_abs="0" HC_abs="0" PMx_abs="0" NOx_abs="0" fuel_abs="0" electricity_abs="0"
            CO_normed="0" CO2_normed="0" HC_normed="0" PMx_normed="0" NOx_normed="0" fuel_normed="0" electricity_normed="0"/>
        <edge id=":1107381198_1" sampledSeconds="35.82" CO_abs="1458.080167" CO2_abs="59964.555711" HC_abs="8.019704" PMx_abs="1.026664" NOx_abs="24.775172" fuel_abs="25.776657" electricity_abs="0"
            CO_normed="121.843273" CO2_normed="5010.888890" HC_normed="0.670160" PMx_normed="0.085792" NOx_normed="2.070317" fuel_normed="2.154005" electricity_normed="0"
            traveltime="1.47" CO_perVeh="60.033204" CO2_perVeh="2468.907040" HC_perVeh="0.330193" PMx_perVeh="0.042271" NOx_perVeh="1.020063" fuel_perVeh="1.061296" electricity_perVeh="0"/>
        <edge id=":1110338277_0" sampledSeconds="96.41" CO_abs="1703.478325" CO2_abs="197730.859973" HC_abs="12.262241" PMx_abs="2.753546" NOx_abs="74.412472" fuel_abs="84.996184" electricity_abs="0"
            CO_normed="4661.954913" CO2_normed="541135.358437" HC_normed="33.558406" PMx_normed="7.535702" NOx_normed="203.646613" fuel_normed="232.611341" electricity_normed="0"
            traveltime="0.02" CO_perVeh="0.383910" CO2_perVeh="44.562295" HC_perVeh="0.002764" PMx_perVeh="0.000621" NOx_perVeh="0.016770" fuel_perVeh="0.019155" electricity_perVeh="0"/>
        <edge id=":1110338293_0" sampledSeconds="124.70" CO_abs="5892.802365" CO2_abs="406481.608886" HC_abs="36.368519" PMx_abs="7.046366" NOx_abs="165.864663" fuel_abs="174.728899" electricity_abs="0"
            CO_normed="15051.857892" CO2_normed="1038267.200220" HC_normed="92.895324" PMx_normed="17.998382" NOx_normed="423.664530" fuel_normed="446.306256" electricity_normed="0"
            traveltime="0.03" CO_perVeh="1.351612" CO2_perVeh="93.233291" HC_perVeh="0.008342" PMx_perVeh="0.001616" NOx_perVeh="0.038044" fuel_perVeh="0.040077" electricity_perVeh="0"/>
        <edge id=":1110338295_0" sampledSeconds="0.00" CO_abs="0" CO2_abs="0" HC_abs="0" PMx_abs="0" NOx_abs="0" fuel_abs="0" electricity_abs="0"
            CO_normed="0" CO2_normed="0" HC_normed="0" PMx_normed="0" NOx_normed="0" fuel_normed="0" electricity_normed="0"/>
        <edge id=":1110673403_0" sampledSeconds="143.82" CO_abs="2237.875523" CO2_abs="274655.837176" HC_abs="16.470232" PMx_abs="3.830219" NOx_abs="103.034689" fuel_abs="118.062920" electricity_abs="0"
            CO_normed="5716.157146" CO2_normed="701547.476822" HC_normed="42.069559" PMx_normed="9.783445" NOx_normed="263.179283" fuel_normed="301.565567" electricity_normed="0"
            traveltime="0.02" CO_perVeh="0.359308" CO2_perVeh="44.098102" HC_perVeh="0.002644" PMx_perVeh="0.000615" NOx_perVeh="0.016543" fuel_perVeh="0.018956" electricity_perVeh="0"/>
        <edge id=":1110673412_0" sampledSeconds="252.51" CO_abs="45478.107651" CO2_abs="3092792.840480" HC_abs="282.793613" PMx_abs="68.080411" NOx_abs="1330.090047" fuel_abs="1329.439245" electricity_abs="0"
            CO_normed="120169.395300" CO2_normed="8172262.757247" HC_normed="747.241678" PMx_normed="179.892751" NOx_normed="3514.572723" fuel_normed="3512.853071" electricity_normed="0"
            traveltime="0.02" CO_perVeh="2.796107" CO2_perVeh="190.152616" HC_perVeh="0.017387" PMx_perVeh="0.004186" NOx_perVeh="0.081777" fuel_perVeh="0.081737" electricity_perVeh="0"/>
        <edge id=":1110673414_0" sampledSeconds="0.00" CO_abs="0" CO2_abs="0" HC_abs="0" PMx_abs="0" NOx_abs="0" fuel_abs="0" electricity_abs="0"
            CO_normed="0" CO2_normed="0" HC_normed="0" PMx_normed="0" NOx_normed="0" fuel_normed="0" electricity_normed="0"/>
        <edge id=":1110673414_1" sampledSeconds="134.59" CO_abs="8972.627214" CO2_abs="337491.771980" HC_abs="48.700718" PMx_abs="6.296994" NOx_abs="142.894942" fuel_abs="145.075716" electricity_abs="0"
            CO_normed="761.414885" CO2_normed="28639.466740" HC_normed="4.132731" PMx_normed="0.534361" NOx_normed="12.126029" fuel_normed="12.311089" electricity_normed="0"
            traveltime="1.60" CO_perVeh="106.904372" CO2_perVeh="4021.045918" HC_perVeh="0.580245" PMx_perVeh="0.075026" NOx_perVeh="1.702522" fuel_perVeh="1.728505" electricity_perVeh="0"/>
        <edge id=":1110673417_0" sampledSeconds="29.73" CO_abs="489.537429" CO2_abs="63562.905321" HC_abs="3.671180" PMx_abs="0.837093" NOx_abs="23.509866" fuel_abs="27.323055" electricity_abs="0"
            CO_normed="1339.730239" CO2_normed="173954.311223" HC_normed="10.047018" PMx_normed="2.290895" NOx_normed="64.340082" fuel_normed="74.775739" electricity_normed="0"
            traveltime="0.02" CO_perVeh="0.363341" CO2_perVeh="47.177239" HC_perVeh="0.002725" PMx_perVeh="0.000621" NOx_perVeh="0.017449" fuel_perVeh="0.020280" electricity_perVeh="0"/>
        <edge id=":1110673446_0" sampledSeconds="333.15" CO_abs="3216.546985" CO2_abs="260511.296068" HC_abs="20.811800" PMx_abs="4.754403" NOx_abs="106.444913" fuel_abs="111.981858" electricity_abs="0"
            CO_normed="8215.956538" CO2_normed="665418.380761" HC_normed="53.159132" PMx_normed="12.144068" NOx_normed="271.889945" fuel_normed="286.032844" electricity_normed="0"
            traveltime="0.02" CO_perVeh="0.219710" CO2_perVeh="17.794516" HC_perVeh="0.001422" PMx_perVeh="0.000325" NOx_perVeh="0.007271" fuel_perVeh="0.007649" electricity_perVeh="0"/>
        <edge id=":1110673451_0" sampledSeconds="37.57" CO_abs="344.670170" CO2_abs="25526.790973" HC_abs="2.152171" PMx_abs="0.353607" NOx_abs="9.824712" fuel_abs="10.972982" electricity_abs="0"
            CO_normed="978.203974" CO2_normed="72447.256913" HC_normed="6.108047" PMx_normed="1.003568" NOx_normed="27.883389" fuel_normed="31.142278" electricity_normed="0"
            traveltime="0.03" CO_perVeh="0.247174" CO2_perVeh="18.306065" HC_perVeh="0.001543" PMx_perVeh="0.000254" NOx_perVeh="0.007046" fuel_perVeh="0.007869" electricity_perVeh="0"/>
        <edge id=":1110673464_0" sampledSeconds="323.13" CO_abs="700.372354" CO2_abs="53925.160026" HC_abs="4.429183" PMx_abs="0.783937" NOx_abs="20.921892" fuel_abs="23.180271" electricity_abs="0"
            CO_normed="38.008767" CO2_normed="2926.484540" HC_normed="0.240369" PMx_normed="0.042544" NOx_normed="1.135418" fuel_normed="1.257979" electricity_normed="0"
            traveltime="1.17" CO_perVeh="2.531754" CO2_perVeh="194.932339" HC_perVeh="0.016011" PMx_perVeh="0.002834" NOx_perVeh="0.075630" fuel_perVeh="0.083794" electricity_perVeh="0"/>
        <edge id=":1110673464_1" sampledSeconds="709.71" CO_abs="16076.206803" CO2_abs="2068962.827561" HC_abs="122.728019" PMx_abs="36.637448" NOx_abs="776.077186" fuel_abs="889.352224" electricity_abs="0"
            CO_normed="854.887746" CO2_normed="110021.660541" HC_normed="6.526333" PMx_normed="1.948277" NOx_normed="41.269616" fuel_normed="47.293266" electricity_normed="0"
            traveltime="0.70" CO_perVeh="15.873174" CO2_perVeh="2042.833019" HC_perVeh="0.121178" PMx_perVeh="0.036175" NOx_perVeh="0.766276" fuel_perVeh="0.878120" electricity_perVeh="0"/>
        <edge id=":1110673479_0" sampledSeconds="134.01" CO_abs="6806.042755" CO2_abs="465319.743780" HC_abs="41.950898" PMx_abs="8.305145" NOx_abs="191.454916" fuel_abs="200.020557" electricity_abs="0"
            CO_normed="17384.528109" CO2_normed="1188556.178238" HC_normed="107.154272" PMx_normed="21.213652" NOx_normed="489.029160" fuel_normed="510.908191" electricity_normed="0"
            traveltime="0.03" CO_perVeh="1.433757" CO2_perVeh="98.023961" HC_perVeh="0.008837" PMx_perVeh="0.001750" NOx_perVeh="0.040332" fuel_perVeh="0.042136" electricity_perVeh="0"/>
        <edge id=":1110673511_0" sampledSeconds="11.88" CO_abs="140.634246" CO2_abs="18502.650541" HC_abs="1.060041" PMx_abs="0.249493" NOx_abs="6.864582" fuel_abs="7.953512" electricity_abs="0"
            CO_normed="359.219020" CO2_normed="47260.920921" HC_normed="2.707640" PMx_normed="0.637276" NOx_normed="17.534054" fuel_normed="20.315485" electricity_normed="0"
            traveltime="0.02" CO_perVeh="0.278484" CO2_perVeh="36.638912" HC_perVeh="0.002099" PMx_perVeh="0.000494" NOx_perVeh="0.013593" fuel_perVeh="0.015750" electricity_perVeh="0"/>
        <edge id=":1110673517_0" sampledSeconds="16.98" CO_abs="802.232293" CO2_abs="56423.845830" HC_abs="4.980729" PMx_abs="0.993572" NOx_abs="23.080416" fuel_abs="24.254143" electricity_abs="0"
            CO_normed="2049.124630" CO2_normed="144122.211572" HC_normed="12.722169" PMx_normed="2.537859" NOx_normed="58.953808" fuel_normed="61.951835" electricity_normed="0"
            traveltime="0.03" CO_perVeh="1.288037" CO2_perVeh="90.592206" HC_perVeh="0.007997" PMx_perVeh="0.001595" NOx_perVeh="0.037057" fuel_perVeh="0.038942" electricity_perVeh="0"/>
        <edge id=":1110673534_0" sampledSeconds="475.50" CO_abs="2920.217335" CO2_abs="262328.755950" HC_abs="19.287828" PMx_abs="3.476397" NOx_abs="99.043770" fuel_abs="112.764803" electricity_abs="0"
            CO_normed="144.555196" CO2_normed="12985.672080" HC_normed="0.954777" PMx_normed="0.172087" NOx_normed="4.902817" fuel_normed="5.582029" electricity_normed="0"
            traveltime="1.43" CO_perVeh="8.797444" CO2_perVeh="790.291401" HC_perVeh="0.058106" PMx_perVeh="0.010473" NOx_perVeh="0.298379" fuel_perVeh="0.339715" electricity_perVeh="0"/>
        <edge id=":1110673534_1" sampledSeconds="184.16" CO_abs="2753.687607" CO2_abs="371705.810056" HC_abs="20.955143" PMx_abs="4.870231" NOx_abs="137.018530" fuel_abs="159.780873" electricity_abs="0"
            CO_normed="132.544312" CO2_normed="17891.459696" HC_normed="1.008642" PMx_normed="0.234421" NOx_normed="6.595166" fuel_normed="7.690795" electricity_normed="0"
            traveltime="1.22" CO_perVeh="18.283497" CO2_perVeh="2467.993134" HC_perVeh="0.139135" PMx_perVeh="0.032337" NOx_perVeh="0.909754" fuel_perVeh="1.060888" electricity_perVeh="0"/>
        <edge id=":1110673549_0" sampledSeconds="59.70" CO_abs="59.817250" CO2_abs="7851.416728" HC_abs="0.448766" PMx_abs="0.080281" NOx_abs="2.755671" fuel_abs="3.375033" electricity_abs="0"
            CO_normed="2.868396" CO2_normed="376.496326" HC_normed="0.021520" PMx_normed="0.003850" NOx_normed="0.132142" fuel_normed="0.161842" electricity_normed="0"
            traveltime="1.24" CO_perVeh="1.246241" CO2_perVeh="163.577580" HC_perVeh="0.009350" PMx_perVeh="0.001673" NOx_perVeh="0.057412" fuel_perVeh="0.070316" electricity_perVeh="0"/>
        <edge id=":1110673549_1" sampledSeconds="638.96" CO_abs="14048.583159" CO2_abs="1792292.723043" HC_abs="106.664320" PMx_abs="31.802494" NOx_abs="672.483060" fuel_abs="770.424424" electricity_abs="0"
            CO_normed="651.646357" CO2_normed="83135.858685" HC_normed="4.947646" PMx_normed="1.475165" NOx_normed="31.193262" fuel_normed="35.736292" electricity_normed="0"
            traveltime="0.80" CO_perVeh="17.691356" CO2_perVeh="2257.031095" HC_perVeh="0.134322" PMx_perVeh="0.040049" NOx_perVeh="0.846857" fuel_perVeh="0.970194" electricity_perVeh="0"/>
        <edge id=":1110673556_0" sampledSeconds="410.95" CO_abs="50699.965633" CO2_abs="2571680.063687" HC_abs="292.050746" PMx_abs="52.004869" NOx_abs="1108.106272" fuel_abs="1105.453278" electricity_abs="0"
            CO_normed="1802.809669" CO2_normed="91444.828962" HC_normed="10.384857" PMx_normed="1.849210" NOx_normed="39.402486" fuel_normed="39.308150" electricity_normed="0"
            traveltime="2.55" CO_perVeh="314.720665" CO2_perVeh="15963.735849" HC_perVeh="1.812909" PMx_perVeh="0.322821" NOx_perVeh="6.878583" fuel_perVeh="6.862115" electricity_perVeh="0"/>
        <edge id=":1110673556_2" sampledSeconds="248.23" CO_abs="24046.203498" CO2_abs="1034486.893897" HC_abs="133.806518" PMx_abs="20.061268" NOx_abs="441.810508" fuel_abs="444.685138" electricity_abs="0"
            CO_normed="894.042192" CO2_normed="38462.409681" HC_normed="4.974951" PMx_normed="0.745882" NOx_normed="16.426595" fuel_normed="16.533474" electricity_normed="0"
            traveltime="3.01" CO_perVeh="291.676453" CO2_perVeh="12548.154132" HC_perVeh="1.623051" PMx_perVeh="0.243340" NOx_perVeh="5.359088" fuel_perVeh="5.393957" electricity_perVeh="0"/>
        <edge id=":1110673556_3" sampledSeconds="408.73" CO_abs="35158.888660" CO2_abs="1256443.659380" HC_abs="189.343156" PMx_abs="23.987274" NOx_abs="535.893847" fuel_abs="540.101094" electricity_abs="0"
            CO_normed="2973.695048" CO2_normed="106268.441076" HC_normed="16.014408" PMx_normed="2.028814" NOx_normed="45.325235" fuel_normed="45.681078" electricity_normed="0"
            traveltime="1.73" CO_perVeh="148.812002" CO2_perVeh="5317.969472" HC_perVeh="0.801406" PMx_perVeh="0.101528" NOx_perVeh="2.268201" fuel_perVeh="2.286009" electricity_perVeh="0"/>
        <edge id=":1110673556_4" sampledSeconds="202.10" CO_abs="20704.373879" CO2_abs="830820.237318" HC_abs="113.761568" PMx_abs="16.161725" NOx_abs="355.713740" fuel_abs="357.137927" electricity_abs="0"
            CO_normed="1069.819325" CO2_normed="42929.457857" HC_normed="5.878194" PMx_normed="0.835095" NOx_normed="18.380147" fuel_normed="18.453736" electricity_normed="0"
            traveltime="2.39" CO_perVeh="245.025109" CO2_perVeh="9832.309850" HC_perVeh="1.346307" PMx_perVeh="0.191265" NOx_perVeh="4.209680" fuel_perVeh="4.226535" electricity_perVeh="0"/>
        <edge id=":1110673556_5" sampledSeconds="23.18" CO_abs="1745.282764" CO2_abs="73934.266519" HC_abs="9.668890" PMx_abs="1.358474" NOx_abs="31.121680" fuel_abs="31.781561" electricity_abs="0"
            CO_normed="125.693743" CO2_normed="5324.681425" HC_normed="0.696345" PMx_normed="0.097836" NOx_normed="2.241356" fuel_normed="2.288880" electricity_normed="0"
            traveltime="1.60" CO_perVeh="120.661524" CO2_perVeh="5111.504846" HC_perVeh="0.668466" PMx_perVeh="0.093919" NOx_perVeh="2.151622" fuel_perVeh="2.197244" electricity_perVeh="0"/>
        <edge id=":1110673556_6" sampledSeconds="308.62" CO_abs="38021.251011" CO2_abs="1944366.213370" HC_abs="219.426216" PMx_abs="39.418785" NOx_abs="838.112700" fuel_abs="835.797986" electricity_abs="0"
            CO_normed="1386.063665" CO2_normed="70881.817112" HC_normed="7.999177" PMx_normed="1.437011" NOx_normed="30.553376" fuel_normed="30.468993" electricity_normed="0"
            traveltime="2.44" CO_perVeh="301.097723" CO2_perVeh="15397.816308" HC_perVeh="1.737679" PMx_perVeh="0.312165" NOx_perVeh="6.637178" fuel_perVeh="6.618848" electricity_perVeh="0"/>
        <edge id=":1110673561_0" sampledSeconds="101.07" CO_abs="9732.332149" CO2_abs="699214.128807" HC_abs="61.098531" PMx_abs="14.165665" NOx_abs="295.669907" fuel_abs="300.558789" electricity_abs="0"
            CO_normed="445.769623" CO2_normed="32026.076945" HC_normed="2.798494" PMx_normed="0.648829" NOx_normed="13.542557" fuel_normed="13.766482" electricity_normed="0"
            traveltime="1.19" CO_perVeh="114.850966" CO2_perVeh="8251.405377" HC_perVeh="0.721022" PMx_perVeh="0.167169" NOx_perVeh="3.489192" fuel_perVeh="3.546885" electricity_perVeh="0"/>
        <edge id=":1110673561_1" sampledSeconds="1313.05" CO_abs="120234.927784" CO2_abs="8336344.498595" HC_abs="749.159480" PMx_abs="174.144753" NOx_abs="3563.504703" fuel_abs="3583.391957" electricity_abs="0"
            CO_normed="5369.116799" CO2_normed="372261.273147" HC_normed="33.453879" PMx_normed="7.776472" NOx_normed="159.129076" fuel_normed="160.017146" electricity_normed="0"
            traveltime="1.19" CO_perVeh="109.133163" CO2_perVeh="7566.616954" HC_perVeh="0.679987" PMx_perVeh="0.158065" NOx_perVeh="3.234472" fuel_perVeh="3.252523" electricity_perVeh="0"/>
        <edge id=":1110673562_0" sampledSeconds="103.62" CO_abs="2544.387486" CO2_abs="204209.520578" HC_abs="16.238353" PMx_abs="2.722360" NOx_abs="77.584066" fuel_abs="87.781800" electricity_abs="0"
            CO_normed="7221.193375" CO2_normed="579564.412028" HC_normed="46.085862" PMx_normed="7.726295" NOx_normed="220.190339" fuel_normed="249.132397" electricity_normed="0"
            traveltime="0.03" CO_perVeh="0.648576" CO2_perVeh="52.053936" HC_perVeh="0.004139" PMx_perVeh="0.000694" NOx_perVeh="0.019777" fuel_perVeh="0.022376" electricity_perVeh="0"/>
        <edge id=":1110673564_0" sampledSeconds="28.52" CO_abs="550.534847" CO2_abs="60659.287717" HC_abs="3.885108" PMx_abs="0.867963" NOx_abs="23.007368" fuel_abs="26.074862" electricity_abs="0"
            CO_normed="4218.657833" CO2_normed="464822.128103" HC_normed="29.770940" PMx_normed="6.651057" NOx_normed="176.301671" fuel_normed="199.807369" electricity_normed="0"
            traveltime="7.839597e-03" CO_perVeh="0.151350" CO2_perVeh="16.676093" HC_perVeh="0.001068" PMx_perVeh="0.000239" NOx_perVeh="0.006325" fuel_perVeh="0.007168" electricity_perVeh="0"/>
        <edge id=":1110673588_0" sampledSeconds="11.69" CO_abs="152.321398" CO2_abs="22314.462879" HC_abs="1.204874" PMx_abs="0.274600" NOx_abs="8.101039" fuel_abs="9.592079" electricity_abs="0"
            CO_normed="466.885510" CO2_normed="68396.821086" HC_normed="3.693101" PMx_normed="0.841686" NOx_normed="24.830771" fuel_normed="29.401007" electricity_normed="0"
            traveltime="0.02" CO_perVeh="0.253869" CO2_perVeh="37.190771" HC_perVeh="0.002008" PMx_perVeh="0.000458" NOx_perVeh="0.013502" fuel_perVeh="0.015987" electricity_perVeh="0"/>
        <edge id=":1110673601_0" sampledSeconds="29.80" CO_abs="390.321430" CO2_abs="50532.510505" HC_abs="2.895425" PMx_abs="0.649605" NOx_abs="18.578224" fuel_abs="21.721850" electricity_abs="0"
            CO_normed="1068.203147" CO2_normed="138293.679544" HC_normed="7.923988" PMx_normed="1.777792" NOx_normed="50.843526" fuel_normed="59.446772" electricity_normed="0"
            traveltime="0.02" CO_perVeh="0.289702" CO2_perVeh="37.505906" HC_perVeh="0.002149" PMx_perVeh="0.000482" NOx_perVeh="0.013789" fuel_perVeh="0.016122" electricity_perVeh="0"/>
        <edge id=":1110673617_0" sampledSeconds="238.56" CO_abs="5806.997769" CO2_abs="743674.470845" HC_abs="44.202640" PMx_abs="13.174521" NOx_abs="279.188304" fuel_abs="319.671534" electricity_abs="0"
            CO_normed="14832.689066" CO2_normed="1899551.649669" HC_normed="112.905849" PMx_normed="33.651394" NOx_normed="713.124659" fuel_normed="816.530099" electricity_normed="0"
            traveltime="0.01" CO_perVeh="0.355639" CO2_perVeh="45.545032" HC_perVeh="0.002707" PMx_perVeh="0.000807" NOx_perVeh="0.017098" fuel_perVeh="0.019578" electricity_perVeh="0"/>
        <edge id=":1110673621_0" sampledSeconds="25.66" CO_abs="599.960447" CO2_abs="62884.284633" HC_abs="4.174486" PMx_abs="0.934613" NOx_abs="24.114574" fuel_abs="27.031263" electricity_abs="0"
            CO_normed="1838.959225" CO2_normed="192748.765158" HC_normed="12.795361" PMx_normed="2.864715" NOx_normed="73.914403" fuel_normed="82.854446" electricity_normed="0"
            traveltime="0.02" CO_perVeh="0.454515" CO2_perVeh="47.639610" HC_perVeh="0.003162" PMx_perVeh="0.000708" NOx_perVeh="0.018269" fuel_perVeh="0.020478" electricity_perVeh="0"/>
        <edge id=":1110673630_0" sampledSeconds="53.64" CO_abs="190.633108" CO2_abs="18013.630825" HC_abs="1.282554" PMx_abs="0.251714" NOx_abs="6.863211" fuel_abs="7.743325" electricity_abs="0"
            CO_normed="10.419330" CO2_normed="984.561236" HC_normed="0.070100" PMx_normed="0.013758" NOx_normed="0.375119" fuel_normed="0.423223" electricity_normed="0"
            traveltime="1.25" CO_perVeh="4.449714" CO2_perVeh="420.470006" HC_perVeh="0.029937" PMx_perVeh="0.005875" NOx_perVeh="0.160199" fuel_perVeh="0.180743" electricity_perVeh="0"/>
        <edge id=":1110673630_1" sampledSeconds="7.43" CO_abs="59.098328" CO2_abs="5472.384316" HC_abs="0.394746" PMx_abs="0.075644" NOx_abs="2.085361" fuel_abs="2.352356" electricity_abs="0"
            CO_normed="3.937920" CO2_normed="364.643299" HC_normed="0.026303" PMx_normed="0.005040" NOx_normed="0.138955" fuel_normed="0.156745" electricity_normed="0"
            traveltime="1.05" CO_perVeh="8.364686" CO2_perVeh="774.552857" HC_perVeh="0.055872" PMx_perVeh="0.010707" NOx_perVeh="0.295159" fuel_perVeh="0.332949" electricity_perVeh="0"/>
        <edge id=":1110673650_0" sampledSeconds="143.48" CO_abs="2063.220896" CO2_abs="271994.245588" HC_abs="15.602333" PMx_abs="3.621670" NOx_abs="100.733579" fuel_abs="116.918968" electricity_abs="0"
            CO_normed="5270.040603" CO2_normed="694749.030877" HC_normed="39.852702" PMx_normed="9.250754" NOx_normed="257.301606" fuel_normed="298.643596" electricity_normed="0"
            traveltime="0.02" CO_perVeh="0.331266" CO2_perVeh="43.670746" HC_perVeh="0.002505" PMx_perVeh="0.000581" NOx_perVeh="0.016174" fuel_perVeh="0.018772" electricity_perVeh="0"/>
        <edge id=":1110673655_0" sampledSeconds="45.07" CO_abs="681.264939" CO2_abs="82563.583547" HC_abs="4.967016" PMx_abs="1.095870" NOx_abs="30.680895" fuel_abs="35.490673" electricity_abs="0"
            CO_normed="1740.140329" CO2_normed="210890.379429" HC_normed="12.687142" PMx_normed="2.799157" NOx_normed="78.367548" fuel_normed="90.653060" electricity_normed="0"
            traveltime="0.02" CO_perVeh="0.364605" CO2_perVeh="44.187093" HC_perVeh="0.002658" PMx_perVeh="0.000586" NOx_perVeh="0.016420" fuel_perVeh="0.018994" electricity_perVeh="0"/>
        <edge id=":1110673663_0" sampledSeconds="108.46" CO_abs="1736.016956" CO2_abs="211294.938747" HC_abs="12.729421" PMx_abs="2.863764" NOx_abs="78.855018" fuel_abs="90.826879" electricity_abs="0"
            CO_normed="81.213748" CO2_normed="9884.727134" HC_normed="0.595503" PMx_normed="0.133972" NOx_normed="3.688968" fuel_normed="4.249032" electricity_normed="0"
            traveltime="1.27" CO_perVeh="20.390338" CO2_perVeh="2481.758735" HC_perVeh="0.149513" PMx_perVeh="0.033636" NOx_perVeh="0.926189" fuel_perVeh="1.066805" electricity_perVeh="0"/>
        <edge id=":1110673663_1" sampledSeconds="154.25" CO_abs="2630.441558" CO2_abs="327135.170747" HC_abs="19.454934" PMx_abs="4.490405" NOx_abs="122.175248" fuel_abs="140.621654" electricity_abs="0"
            CO_normed="123.206848" CO2_normed="15322.633971" HC_normed="0.911247" PMx_normed="0.210325" NOx_normed="5.722548" fuel_normed="6.586556" electricity_normed="0"
            traveltime="1.25" CO_perVeh="21.317113" CO2_perVeh="2651.105220" HC_perVeh="0.157663" PMx_perVeh="0.036390" NOx_perVeh="0.990109" fuel_perVeh="1.139599" electricity_perVeh="0"/>
        <edge id=":1110673666_0" sampledSeconds="191.92" CO_abs="4121.772060" CO2_abs="333778.473122" HC_abs="26.372552" PMx_abs="4.448610" NOx_abs="126.768637" fuel_abs="143.478471" electricity_abs="0"