<?xml version="1.0" encoding="UTF-8"?>

<!-- generated on Tue Nov 10 02:34:30 2020 by Eclipse SUMO sumo Version 1.7.0
<configuration xmlns:xsi="http://www.w3.org/2001/XMLSchema-instance" xsi:noNamespaceSchemaLocation="http://sumo.dlr.de/xsd/sumoConfiguration.xsd">

    <input>
        <net-file value="../dataSets/Porto/6AM7AM_Routing_SaoBento/Porto.net.xml"/>
        <route-files value="../results/Porto/6AM7AM_Routing_SaoBento/cost_PMx-cost_nox/solution10/Porto.rou.xml"/>
        <additional-files value="moreOutputInfo.xml"/>
    </input>

    <output>
        <emission-output.precision value="6"/>
        <tripinfo-output value="../results/Porto/6AM7AM_Routing_SaoBento/cost_PMx-cost_nox/solution10/Porto-tripinfo"/>
    </output>

    <processing>
        <collision.action value="warn"/>
        <time-to-teleport value="-1"/>
    </processing>

    <emissions>
        <device.emissions.probability value="1"/>
    </emissions>

    <gui_only>
        <quit-on-end value="true"/>
        <start value="true"/>
    </gui_only>

</configuration>
-->

<meandata xmlns:xsi="http://www.w3.org/2001/XMLSchema-instance" xsi:noNamespaceSchemaLocation="http://sumo.dlr.de/xsd/meandata_file.xsd">
    <interval begin="0.00" end="4699.00" id="emissions-detector">
        <edge id=":1092997347_0" sampledSeconds="297.04" CO_abs="38211.338651" CO2_abs="1530552.301851" HC_abs="210.178840" PMx_abs="31.246080" NOx_abs="664.331519" fuel_abs="657.923909" electricity_abs="0"
            CO_normed="66532.927288" CO2_normed="2664971.409131" HC_normed="365.959790" PMx_normed="54.405138" NOx_normed="1156.722644" fuel_normed="1145.565824" electricity_normed="0"
            traveltime="0.07" CO_perVeh="9.478800" CO2_perVeh="379.672606" HC_perVeh="0.052137" PMx_perVeh="0.007751" NOx_perVeh="0.164796" fuel_perVeh="0.163206" electricity_perVeh="0"/>
        <edge id=":1103427051_0" sampledSeconds="11.16" CO_abs="935.182594" CO2_abs="53379.229871" HC_abs="5.520667" PMx_abs="1.017862" NOx_abs="22.566330" fuel_abs="22.945404" electricity_abs="0"
            CO_normed="2470.560383" CO2_normed="141016.964383" HC_normed="14.584469" PMx_normed="2.688983" NOx_normed="59.615610" fuel_normed="60.617046" electricity_normed="0"
            traveltime="0.03" CO_perVeh="2.562386" CO2_perVeh="146.258283" HC_perVeh="0.015127" PMx_perVeh="0.002789" NOx_perVeh="0.061831" fuel_perVeh="0.062870" electricity_perVeh="0"/>
        <edge id=":1105984386_0" sampledSeconds="23.21" CO_abs="348.314615" CO2_abs="27383.981191" HC_abs="2.206461" PMx_abs="0.349865" NOx_abs="10.327236" fuel_abs="11.771345" electricity_abs="0"
            CO_normed="27.482075" CO2_normed="2160.600208" HC_normed="0.174090" PMx_normed="0.027604" NOx_normed="0.814820" fuel_normed="0.928761" electricity_normed="0"
            traveltime="0.97" CO_perVeh="14.618495" CO2_perVeh="1149.284480" HC_perVeh="0.092603" PMx_perVeh="0.014684" NOx_perVeh="0.433426" fuel_perVeh="0.494034" electricity_perVeh="0"/>
        <edge id=":1105984390_0" sampledSeconds="23.79" CO_abs="27.731511" CO2_abs="2369.184388" HC_abs="0.182211" PMx_abs="0.040966" NOx_abs="0.954504" fuel_abs="1.018406" electricity_abs="0"
            CO_normed="1.691535" CO2_normed="144.512788" HC_normed="0.011114" PMx_normed="0.002499" NOx_normed="0.058222" fuel_normed="0.062120" electricity_normed="0"
            traveltime="1.08" CO_perVeh="1.257610" CO2_perVeh="107.441349" HC_perVeh="0.008263" PMx_perVeh="0.001858" NOx_perVeh="0.043286" fuel_perVeh="0.046184" electricity_perVeh="0"/>
        <edge id=":1105984390_1" sampledSeconds="645.36" CO_abs="14946.807686" CO2_abs="1937868.031798" HC_abs="114.365744" PMx_abs="34.272641" NOx_abs="725.279619" fuel_abs="833.000677" electricity_abs="0"
            CO_normed="872.129097" CO2_normed="113072.378584" HC_normed="6.673110" PMx_normed="1.999769" NOx_normed="42.319234" fuel_normed="48.604635" electricity_normed="0"
            traveltime="0.64" CO_perVeh="14.714885" CO2_perVeh="1907.799066" HC_perVeh="0.112591" PMx_perVeh="0.033741" NOx_perVeh="0.714026" fuel_perVeh="0.820075" electricity_perVeh="0"/>
        <edge id=":1105984395_0" sampledSeconds="8.93" CO_abs="150.952342" CO2_abs="13005.905033" HC_abs="0.980361" PMx_abs="0.153952" NOx_abs="4.809286" fuel_abs="5.590758" electricity_abs="0"
            CO_normed="125.703996" CO2_normed="10830.532426" HC_normed="0.816385" PMx_normed="0.128202" NOx_normed="4.004883" fuel_normed="4.655646" electricity_normed="0"
            traveltime="0.09" CO_perVeh="1.530822" CO2_perVeh="131.894099" HC_perVeh="0.009942" PMx_perVeh="0.001561" NOx_perVeh="0.048771" fuel_perVeh="0.056696" electricity_perVeh="0"/>
        <edge id=":1105984398_0" sampledSeconds="23.48" CO_abs="1506.888368" CO2_abs="104953.271318" HC_abs="9.335486" PMx_abs="1.877103" NOx_abs="43.186866" fuel_abs="45.114782" electricity_abs="0"
            CO_normed="95.488668" CO2_normed="6650.690453" HC_normed="0.591572" PMx_normed="0.118948" NOx_normed="2.736670" fuel_normed="2.858838" electricity_normed="0"
            traveltime="1.10" CO_perVeh="70.357363" CO2_perVeh="4900.320105" HC_perVeh="0.435878" PMx_perVeh="0.087643" NOx_perVeh="2.016416" fuel_perVeh="2.106431" electricity_perVeh="0"/>
        <edge id=":1105984398_1" sampledSeconds="452.23" CO_abs="8776.063155" CO2_abs="988763.718993" HC_abs="62.684071" PMx_abs="14.472327" NOx_abs="376.379782" fuel_abs="425.027140" electricity_abs="0"
            CO_normed="538.312367" CO2_normed="60649.488109" HC_normed="3.844960" PMx_normed="0.887714" NOx_normed="23.086649" fuel_normed="26.070615" electricity_normed="0"
            traveltime="0.95" CO_perVeh="18.513212" CO2_perVeh="2085.809124" HC_perVeh="0.132233" PMx_perVeh="0.030530" NOx_perVeh="0.793978" fuel_perVeh="0.896600" electricity_perVeh="0"/>
        <edge id=":1106006327_0" sampledSeconds="161.52" CO_abs="21706.791165" CO2_abs="700714.481924" HC_abs="115.326235" PMx_abs="14.596927" NOx_abs="306.593761" fuel_abs="301.212546" electricity_abs="0"
            CO_normed="1876.977047" CO2_normed="60590.484766" HC_normed="9.972211" PMx_normed="1.262190" NOx_normed="26.511033" fuel_normed="26.045721" electricity_normed="0"
            traveltime="2.10" CO_perVeh="282.618912" CO2_perVeh="9123.189287" HC_perVeh="1.501529" PMx_perVeh="0.190050" NOx_perVeh="3.991801" fuel_perVeh="3.921739" electricity_perVeh="0"/>
        <edge id=":1106006327_1" sampledSeconds="160.96" CO_abs="21846.509985" CO2_abs="732436.183482" HC_abs="116.742533" PMx_abs="15.294415" NOx_abs="320.646412" fuel_abs="314.847821" electricity_abs="0"
            CO_normed="1647.348237" CO2_normed="55229.757809" HC_normed="8.803036" PMx_normed="1.153284" NOx_normed="24.178521" fuel_normed="23.741275" electricity_normed="0"
            traveltime="2.29" CO_perVeh="310.139366" CO2_perVeh="10397.875621" HC_perVeh="1.657311" PMx_perVeh="0.217124" NOx_perVeh="4.551989" fuel_perVeh="4.469671" electricity_perVeh="0"/>
        <edge id=":1106006327_2" sampledSeconds="0.00" CO_abs="0" CO2_abs="0" HC_abs="0" PMx_abs="0" NOx_abs="0" fuel_abs="0" electricity_abs="0"
            CO_normed="0" CO2_normed="0" HC_normed="0" PMx_normed="0" NOx_normed="0" fuel_normed="0" electricity_normed="0"/>
        <edge id=":1106006327_3" sampledSeconds="0.00" CO_abs="0" CO2_abs="0" HC_abs="0" PMx_abs="0" NOx_abs="0" fuel_abs="0" electricity_abs="0"
            CO_normed="0" CO2_normed="0" HC_normed="0" PMx_normed="0" NOx_normed="0" fuel_normed="0" electricity_normed="0"/>
        <edge id=":1107381198_0" sampledSeconds="0.00" CO_abs="0" CO2_abs="0" HC_abs="0" PMx_abs="0" NOx_abs="0" fuel_abs="0" electricity_abs="0"
            CO_normed="0" CO2_normed="0" HC_normed="0" PMx_normed="0" NOx_normed="0" fuel_normed="0" electricity_normed="0"/>
        <edge id=":1107381198_1" sampledSeconds="36.53" CO_abs="1413.035622" CO2_abs="57017.113519" HC_abs="7.746913" PMx_abs="0.982281" NOx_abs="23.609327" fuel_abs="24.509667" electricity_abs="0"
            CO_normed="118.054034" CO2_normed="4763.574344" HC_normed="0.647227" PMx_normed="0.082066" NOx_normed="1.972474" fuel_normed="2.047694" electricity_normed="0"
            traveltime="1.50" CO_perVeh="58.178595" CO2_perVeh="2347.552671" HC_perVeh="0.318962" PMx_perVeh="0.040443" NOx_perVeh="0.972061" fuel_perVeh="1.009131" electricity_perVeh="0"/>
        <edge id=":1110338277_0" sampledSeconds="96.80" CO_abs="1785.679083" CO2_abs="210063.757044" HC_abs="12.955079" PMx_abs="2.930552" NOx_abs="79.017500" fuel_abs="90.297563" electricity_abs="0"
            CO_normed="4885.875945" CO2_normed="574764.786853" HC_normed="35.446967" PMx_normed="8.018413" NOx_normed="216.203295" fuel_normed="247.067178" electricity_normed="0"
            traveltime="0.02" CO_perVeh="0.402436" CO2_perVeh="47.341741" HC_perVeh="0.002920" PMx_perVeh="0.000660" NOx_perVeh="0.017808" fuel_perVeh="0.020350" electricity_perVeh="0"/>
        <edge id=":1110338293_0" sampledSeconds="123.19" CO_abs="6652.112983" CO2_abs="453330.219424" HC_abs="40.960401" PMx_abs="8.059772" NOx_abs="186.350856" fuel_abs="194.866849" electricity_abs="0"
            CO_normed="16987.732667" CO2_normed="1157685.174098" HC_normed="104.602004" PMx_normed="20.582520" NOx_normed="475.890672" fuel_normed="497.638260" electricity_normed="0"
            traveltime="0.03" CO_perVeh="1.525772" CO2_perVeh="103.978796" HC_perVeh="0.009395" PMx_perVeh="0.001849" NOx_perVeh="0.042743" fuel_perVeh="0.044696" electricity_perVeh="0"/>
        <edge id=":1110338295_0" sampledSeconds="0.00" CO_abs="0" CO2_abs="0" HC_abs="0" PMx_abs="0" NOx_abs="0" fuel_abs="0" electricity_abs="0"
            CO_normed="0" CO2_normed="0" HC_normed="0" PMx_normed="0" NOx_normed="0" fuel_normed="0" electricity_normed="0"/>
        <edge id=":1110673403_0" sampledSeconds="144.07" CO_abs="2112.171860" CO2_abs="268495.354207" HC_abs="15.772744" PMx_abs="3.669107" NOx_abs="100.161761" fuel_abs="115.414852" electricity_abs="0"
            CO_normed="5393.926861" CO2_normed="685665.939665" HC_normed="40.279406" PMx_normed="9.369927" NOx_normed="255.786580" fuel_normed="294.738928" electricity_normed="0"
            traveltime="0.02" CO_perVeh="0.339123" CO2_perVeh="43.108700" HC_perVeh="0.002532" PMx_perVeh="0.000589" NOx_perVeh="0.016082" fuel_perVeh="0.018531" electricity_perVeh="0"/>
        <edge id=":1110673412_0" sampledSeconds="252.72" CO_abs="45353.867094" CO2_abs="3089228.358696" HC_abs="282.127787" PMx_abs="67.940589" NOx_abs="1328.272072" fuel_abs="1327.907070" electricity_abs="0"
            CO_normed="119815.603862" CO2_normed="8161106.978966" HC_normed="745.323682" PMx_normed="179.485086" NOx_normed="3509.022066" fuel_normed="3508.057806" electricity_normed="0"
            traveltime="0.02" CO_perVeh="2.788003" CO2_perVeh="189.901699" HC_perVeh="0.017343" PMx_perVeh="0.004176" NOx_perVeh="0.081652" fuel_perVeh="0.081629" electricity_perVeh="0"/>
        <edge id=":1110673414_0" sampledSeconds="0.00" CO_abs="0" CO2_abs="0" HC_abs="0" PMx_abs="0" NOx_abs="0" fuel_abs="0" electricity_abs="0"
            CO_normed="0" CO2_normed="0" HC_normed="0" PMx_normed="0" NOx_normed="0" fuel_normed="0" electricity_normed="0"/>
        <edge id=":1110673414_1" sampledSeconds="229.35" CO_abs="15381.644369" CO2_abs="592454.879308" HC_abs="83.798878" PMx_abs="10.941016" NOx_abs="250.151443" fuel_abs="254.675145" electricity_abs="0"
            CO_normed="1305.004687" CO2_normed="50264.872583" HC_normed="7.109638" PMx_normed="0.928254" NOx_normed="21.223271" fuel_normed="21.607069" electricity_normed="0"
            traveltime="1.58" CO_perVeh="106.100564" CO2_perVeh="4086.676007" HC_perVeh="0.578034" PMx_perVeh="0.075470" NOx_perVeh="1.725512" fuel_perVeh="1.756716" electricity_perVeh="0"/>
        <edge id=":1110673417_0" sampledSeconds="29.96" CO_abs="451.513150" CO2_abs="58084.663704" HC_abs="3.374006" PMx_abs="0.755639" NOx_abs="21.444876" fuel_abs="24.968202" electricity_abs="0"
            CO_normed="1235.405208" CO2_normed="158928.031294" HC_normed="9.231767" PMx_normed="2.067539" NOx_normed="58.676278" fuel_normed="68.316609" electricity_normed="0"
            traveltime="0.02" CO_perVeh="0.335119" CO2_perVeh="43.111215" HC_perVeh="0.002504" PMx_perVeh="0.000561" NOx_perVeh="0.015917" fuel_perVeh="0.018532" electricity_perVeh="0"/>
        <edge id=":1110673446_0" sampledSeconds="334.51" CO_abs="3425.184354" CO2_abs="271513.694348" HC_abs="22.032631" PMx_abs="5.050766" NOx_abs="111.608517" fuel_abs="116.711195" electricity_abs="0"
            CO_normed="8747.012610" CO2_normed="693373.980033" HC_normed="56.265497" PMx_normed="12.898317" NOx_normed="285.018558" fuel_normed="298.049444" electricity_normed="0"
            traveltime="0.02" CO_perVeh="0.233780" CO2_perVeh="18.531714" HC_perVeh="0.001504" PMx_perVeh="0.000345" NOx_perVeh="0.007618" fuel_perVeh="0.007966" electricity_perVeh="0"/>
        <edge id=":1110673451_0" sampledSeconds="37.76" CO_abs="394.805246" CO2_abs="28070.654289" HC_abs="2.439141" PMx_abs="0.395239" NOx_abs="10.854407" fuel_abs="12.066493" electricity_abs="0"
            CO_normed="1120.253234" CO2_normed="79650.008622" HC_normed="6.921021" PMx_normed="1.121485" NOx_normed="30.799198" fuel_normed="34.238470" electricity_normed="0"
            traveltime="0.03" CO_perVeh="0.283127" CO2_perVeh="20.130350" HC_perVeh="0.001749" PMx_perVeh="0.000283" NOx_perVeh="0.007784" fuel_perVeh="0.008653" electricity_perVeh="0"/>
        <edge id=":1110673464_0" sampledSeconds="324.70" CO_abs="610.733435" CO2_abs="47589.246845" HC_abs="3.860583" PMx_abs="0.629125" NOx_abs="18.042684" fuel_abs="20.456806" electricity_abs="0"
            CO_normed="33.137066" CO2_normed="2582.088900" HC_normed="0.209467" PMx_normed="0.034135" NOx_normed="0.978957" fuel_normed="1.109942" electricity_normed="0"
            traveltime="1.17" CO_perVeh="2.207724" CO2_perVeh="172.029068" HC_perVeh="0.013956" PMx_perVeh="0.002274" NOx_perVeh="0.065222" fuel_perVeh="0.073949" electricity_perVeh="0"/>
        <edge id=":1110673464_1" sampledSeconds="708.92" CO_abs="15433.814708" CO2_abs="2034186.730574" HC_abs="118.782560" PMx_abs="35.741597" NOx_abs="759.855894" fuel_abs="874.403795" electricity_abs="0"
            CO_normed="820.552470" CO2_normed="108149.344606" HC_normed="6.315180" PMx_normed="1.900234" NOx_normed="40.398414" fuel_normed="46.488455" electricity_normed="0"
            traveltime="0.70" CO_perVeh="15.246432" CO2_perVeh="2009.489522" HC_perVeh="0.117340" PMx_perVeh="0.035308" NOx_perVeh="0.750630" fuel_perVeh="0.863788" electricity_perVeh="0"/>
        <edge id=":1110673479_0" sampledSeconds="133.63" CO_abs="7049.013215" CO2_abs="484318.641546" HC_abs="43.492583" PMx_abs="8.572555" NOx_abs="198.768735" fuel_abs="208.187434" electricity_abs="0"
            CO_normed="18001.310614" CO2_normed="1236821.387222" HC_normed="111.068524" PMx_normed="21.892032" NOx_normed="507.602642" fuel_normed="531.655502" electricity_normed="0"
            traveltime="0.03" CO_perVeh="1.484961" CO2_perVeh="102.027626" HC_perVeh="0.009162" PMx_perVeh="0.001806" NOx_perVeh="0.041873" fuel_perVeh="0.043857" electricity_perVeh="0"/>
        <edge id=":1110673511_0" sampledSeconds="11.77" CO_abs="179.887074" CO2_abs="24023.003823" HC_abs="1.368048" PMx_abs="0.318104" NOx_abs="8.875264" fuel_abs="10.326488" electricity_abs="0"
            CO_normed="459.383888" CO2_normed="61348.381756" HC_normed="3.493631" PMx_normed="0.812352" NOx_normed="22.665071" fuel_normed="26.371112" electricity_normed="0"
            traveltime="0.02" CO_perVeh="0.356212" CO2_perVeh="47.570305" HC_perVeh="0.002709" PMx_perVeh="0.000630" NOx_perVeh="0.017575" fuel_perVeh="0.020448" electricity_perVeh="0"/>
        <edge id=":1110673517_0" sampledSeconds="17.17" CO_abs="883.868397" CO2_abs="63775.485551" HC_abs="5.523508" PMx_abs="1.107803" NOx_abs="25.970220" fuel_abs="27.414297" electricity_abs="0"
            CO_normed="2257.165517" CO2_normed="162865.679212" HC_normed="14.105575" PMx_normed="2.829034" NOx_normed="66.321054" fuel_normed="70.008846" electricity_normed="0"
            traveltime="0.03" CO_perVeh="1.419109" CO2_perVeh="102.395749" HC_perVeh="0.008868" PMx_perVeh="0.001779" NOx_perVeh="0.041697" fuel_perVeh="0.044015" electricity_perVeh="0"/>
        <edge id=":1110673534_0" sampledSeconds="476.36" CO_abs="2290.029526" CO2_abs="202447.227039" HC_abs="15.031656" PMx_abs="2.595152" NOx_abs="75.941765" fuel_abs="87.024249" electricity_abs="0"
            CO_normed="113.335817" CO2_normed="10019.312721" HC_normed="0.743931" PMx_normed="0.128437" NOx_normed="3.758433" fuel_normed="4.306916" electricity_normed="0"
            traveltime="1.44" CO_perVeh="6.898948" CO2_perVeh="609.892943" HC_perVeh="0.045284" PMx_perVeh="0.007818" NOx_perVeh="0.228782" fuel_perVeh="0.262169" electricity_perVeh="0"/>
        <edge id=":1110673534_1" sampledSeconds="184.23" CO_abs="2872.559417" CO2_abs="342886.663178" HC_abs="20.913132" PMx_abs="4.814747" NOx_abs="128.960950" fuel_abs="147.392467" electricity_abs="0"
            CO_normed="138.236590" CO2_normed="16500.784239" HC_normed="1.006406" PMx_normed="0.231701" NOx_normed="6.206006" fuel_normed="7.092989" electricity_normed="0"
            traveltime="1.22" CO_perVeh="19.072763" CO2_perVeh="2276.644345" HC_perVeh="0.138856" PMx_perVeh="0.031968" NOx_perVeh="0.856254" fuel_perVeh="0.978633" electricity_perVeh="0"/>
        <edge id=":1110673549_0" sampledSeconds="59.74" CO_abs="20.792607" CO2_abs="4252.108541" HC_abs="0.191238" PMx_abs="0.045284" NOx_abs="1.482310" fuel_abs="1.827814" electricity_abs="0"
            CO_normed="0.996849" CO2_normed="203.856528" HC_normed="0.009168" PMx_normed="0.002171" NOx_normed="0.071066" fuel_normed="0.087630" electricity_normed="0"
            traveltime="1.24" CO_perVeh="0.433196" CO2_perVeh="88.589059" HC_perVeh="0.003984" PMx_perVeh="0.000943" NOx_perVeh="0.030883" fuel_perVeh="0.038081" electricity_perVeh="0"/>
        <edge id=":1110673549_1" sampledSeconds="639.72" CO_abs="13733.155236" CO2_abs="1780690.952649" HC_abs="105.370277" PMx_abs="31.491862" NOx_abs="667.190097" fuel_abs="765.437432" electricity_abs="0"
            CO_normed="636.879606" CO2_normed="82580.130510" HC_normed="4.886581" PMx_normed="1.460445" NOx_normed="30.941161" fuel_normed="35.497413" electricity_normed="0"
            traveltime="0.81" CO_perVeh="17.290098" CO2_perVeh="2241.897149" HC_perVeh="0.132662" PMx_perVeh="0.039648" NOx_perVeh="0.839995" fuel_perVeh="0.963689" electricity_perVeh="0"/>
        <edge id=":1110673556_0" sampledSeconds="418.01" CO_abs="51437.271568" CO2_abs="2576129.056748" HC_abs="295.471404" PMx_abs="51.994338" NOx_abs="1109.589458" fuel_abs="1107.366394" electricity_abs="0"
            CO_normed="1828.637852" CO2_normed="91583.533884" HC_normed="10.504255" PMx_normed="1.848442" NOx_normed="39.446830" fuel_normed="39.367798" electricity_normed="0"
            traveltime="2.59" CO_perVeh="319.297500" CO2_perVeh="15991.353028" HC_perVeh="1.834142" PMx_perVeh="0.322755" NOx_perVeh="6.887790" fuel_perVeh="6.873991" electricity_perVeh="0"/>
        <edge id=":1110673556_2" sampledSeconds="247.77" CO_abs="23721.595134" CO2_abs="1014602.569977" HC_abs="131.845422" PMx_abs="19.624659" NOx_abs="433.096535" fuel_abs="436.137836" electricity_abs="0"
            CO_normed="881.785501" CO2_normed="37715.079023" HC_normed="4.900993" PMx_normed="0.729493" NOx_normed="16.099181" fuel_normed="16.212233" electricity_normed="0"
            traveltime="3.01" CO_perVeh="287.738403" CO2_perVeh="12306.934747" HC_perVeh="1.599260" PMx_perVeh="0.238043" NOx_perVeh="5.253378" fuel_perVeh="5.290268" electricity_perVeh="0"/>
        <edge id=":1110673556_3" sampledSeconds="371.16" CO_abs="32590.292088" CO2_abs="1162089.264470" HC_abs="175.482839" PMx_abs="22.362921" NOx_abs="496.781494" fuel_abs="499.541239" electricity_abs="0"
            CO_normed="2755.859744" CO2_normed="98267.146974" HC_normed="14.838962" PMx_normed="1.891025" NOx_normed="42.008219" fuel_normed="42.241585" electricity_normed="0"
            traveltime="1.74" CO_perVeh="152.719585" CO2_perVeh="5445.602946" HC_perVeh="0.822321" PMx_perVeh="0.104794" NOx_perVeh="2.327941" fuel_perVeh="2.340873" electricity_perVeh="0"/>
        <edge id=":1110673556_4" sampledSeconds="172.94" CO_abs="18351.544944" CO2_abs="731291.790417" HC_abs="100.733142" PMx_abs="14.346927" NOx_abs="313.898278" fuel_abs="314.354367" electricity_abs="0"
            CO_normed="948.044093" CO2_normed="37778.664626" HC_normed="5.203892" PMx_normed="0.741165" NOx_normed="16.216041" fuel_normed="16.239603" electricity_normed="0"
            traveltime="2.43" CO_perVeh="257.399285" CO2_perVeh="10257.119180" HC_perVeh="1.412886" PMx_perVeh="0.201230" NOx_perVeh="4.402746" fuel_perVeh="4.409143" electricity_perVeh="0"/>
        <edge id=":1110673556_5" sampledSeconds="23.88" CO_abs="1568.535497" CO2_abs="65396.269348" HC_abs="8.663647" PMx_abs="1.198212" NOx_abs="27.518042" fuel_abs="28.111423" electricity_abs="0"
            CO_normed="112.940519" CO2_normed="4708.780017" HC_normed="0.623816" PMx_normed="0.086276" NOx_normed="1.981404" fuel_normed="2.024129" electricity_normed="0"
            traveltime="1.65" CO_perVeh="108.441960" CO2_perVeh="4521.223560" HC_perVeh="0.598968" PMx_perVeh="0.082839" NOx_perVeh="1.902482" fuel_perVeh="1.943506" electricity_perVeh="0"/>
        <edge id=":1110673556_6" sampledSeconds="302.88" CO_abs="35240.037081" CO2_abs="1830850.950072" HC_abs="203.999979" PMx_abs="36.680279" NOx_abs="785.673036" fuel_abs="787.002998" electricity_abs="0"
            CO_normed="1284.401194" CO2_normed="66729.417501" HC_normed="7.435231" PMx_normed="1.336894" NOx_normed="28.635594" fuel_normed="28.684067" electricity_normed="0"
            traveltime="2.40" CO_perVeh="279.072746" CO2_perVeh="14498.866738" HC_perVeh="1.615516" PMx_perVeh="0.290478" NOx_perVeh="6.221898" fuel_perVeh="6.232431" electricity_perVeh="0"/>
        <edge id=":1110673561_0" sampledSeconds="99.59" CO_abs="10033.848877" CO2_abs="719020.864787" HC_abs="63.006503" PMx_abs="14.588803" NOx_abs="304.309668" fuel_abs="309.072747" electricity_abs="0"
            CO_normed="459.482177" CO2_normed="32926.275512" HC_normed="2.885270" PMx_normed="0.668068" NOx_normed="13.935317" fuel_normed="14.153434" electricity_normed="0"
            traveltime="1.18" CO_perVeh="118.409156" CO2_perVeh="8485.144086" HC_perVeh="0.743538" PMx_perVeh="0.172162" NOx_perVeh="3.591149" fuel_perVeh="3.647358" electricity_perVeh="0"/>
        <edge id=":1110673561_1" sampledSeconds="1317.56" CO_abs="121636.374824" CO2_abs="8409863.209809" HC_abs="757.277861" PMx_abs="175.928692" NOx_abs="3597.164288" fuel_abs="3614.993935" electricity_abs="0"
            CO_normed="5430.542795" CO2_normed="375464.347115" HC_normed="33.809211" PMx_normed="7.854462" NOx_normed="160.597968" fuel_normed="161.393985" electricity_normed="0"
            traveltime="1.20" CO_perVeh="110.436933" CO2_perVeh="7635.540749" HC_perVeh="0.687553" PMx_perVeh="0.159730" NOx_perVeh="3.265962" fuel_perVeh="3.282150" electricity_perVeh="0"/>
        <edge id=":1110673562_0" sampledSeconds="103.90" CO_abs="2008.947992" CO2_abs="170569.131595" HC_abs="13.018903" PMx_abs="2.172028" NOx_abs="64.005633" fuel_abs="73.321164" electricity_abs="0"
            CO_normed="5700.356082" CO2_normed="483987.037227" HC_normed="36.940919" PMx_normed="6.163092" NOx_normed="181.614906" fuel_normed="208.047569" electricity_normed="0"
            traveltime="0.03" CO_perVeh="0.512090" CO2_perVeh="43.478848" HC_perVeh="0.003319" PMx_perVeh="0.000554" NOx_perVeh="0.016315" fuel_perVeh="0.018690" electricity_perVeh="0"/>
        <edge id=":1110673564_0" sampledSeconds="29.08" CO_abs="600.336798" CO2_abs="66154.382594" HC_abs="4.261744" PMx_abs="0.933061" NOx_abs="25.041792" fuel_abs="28.436993" electricity_abs="0"
            CO_normed="4599.302984" CO2_normed="506822.254393" HC_normed="32.650089" PMx_normed="7.148374" NOx_normed="191.850292" fuel_normed="217.861615" electricity_normed="0"
            traveltime="7.995776e-03" CO_perVeh="0.165041" CO2_perVeh="18.186772" HC_perVeh="0.001172" PMx_perVeh="0.000257" NOx_perVeh="0.006884" fuel_perVeh="0.007818" electricity_perVeh="0"/>
        <edge id=":1110673588_0" sampledSeconds="11.63" CO_abs="188.119128" CO2_abs="22349.812495" HC_abs="1.369304" PMx_abs="0.323672" NOx_abs="8.466611" fuel_abs="9.607225" electricity_abs="0"
            CO_normed="576.487646" CO2_normed="68490.593728" HC_normed="4.196207" PMx_normed="0.991887" NOx_normed="25.945776" fuel_normed="29.441165" electricity_normed="0"
            traveltime="0.02" CO_perVeh="0.313532" CO2_perVeh="37.249687" HC_perVeh="0.002282" PMx_perVeh="0.000539" NOx_perVeh="0.014111" fuel_perVeh="0.016012" electricity_perVeh="0"/>
        <edge id=":1110673601_0" sampledSeconds="30.05" CO_abs="612.253411" CO2_abs="68750.143766" HC_abs="4.375069" PMx_abs="0.963285" NOx_abs="25.969293" fuel_abs="29.552802" electricity_abs="0"
            CO_normed="1675.213783" CO2_normed="188110.325568" HC_normed="11.970820" PMx_normed="2.635686" NOx_normed="71.055738" fuel_normed="80.860737" electricity_normed="0"
            traveltime="0.02" CO_perVeh="0.454423" CO2_perVeh="51.027277" HC_perVeh="0.003247" PMx_perVeh="0.000715" NOx_perVeh="0.019275" fuel_perVeh="0.021934" electricity_perVeh="0"/>
        <edge id=":1110673617_0" sampledSeconds="238.66" CO_abs="6041.373951" CO2_abs="732476.350451" HC_abs="45.097973" PMx_abs="13.202059" NOx_abs="277.453381" fuel_abs="314.857815" electricity_abs="0"
            CO_normed="15428.067124" CO2_normed="1870550.373572" HC_normed="115.168264" PMx_normed="33.714557" NOx_normed="708.542365" fuel_normed="804.063371" electricity_normed="0"
            traveltime="0.01" CO_perVeh="0.369993" CO2_perVeh="44.859231" HC_perVeh="0.002762" PMx_perVeh="0.000809" NOx_perVeh="0.016992" fuel_perVeh="0.019283" electricity_perVeh="0"/>
        <edge id=":1110673621_0" sampledSeconds="25.72" CO_abs="523.609694" CO2_abs="54449.446489" HC_abs="3.643404" PMx_abs="0.823791" NOx_abs="20.979756" fuel_abs="23.405469" electricity_abs="0"
            CO_normed="1604.592379" CO2_normed="166859.338039" HC_normed="11.165145" PMx_normed="2.524492" NOx_normed="64.292081" fuel_normed="71.725635" electricity_normed="0"
            traveltime="0.02" CO_perVeh="0.396674" CO2_perVeh="41.249581" HC_perVeh="0.002760" PMx_perVeh="0.000624" NOx_perVeh="0.015894" fuel_perVeh="0.017731" electricity_perVeh="0"/>
        <edge id=":1110673630_0" sampledSeconds="54.65" CO_abs="153.399261" CO2_abs="15310.145344" HC_abs="1.044847" PMx_abs="0.181525" NOx_abs="5.621378" fuel_abs="6.581249" electricity_abs="0"
            CO_normed="8.382476" CO2_normed="836.620218" HC_normed="0.057095" PMx_normed="0.009919" NOx_normed="0.307179" fuel_normed="0.359631" electricity_normed="0"
            traveltime="1.28" CO_perVeh="3.580610" CO2_perVeh="357.365873" HC_perVeh="0.024389" PMx_perVeh="0.004237" NOx_perVeh="0.131213" fuel_perVeh="0.153618" electricity_perVeh="0"/>
        <edge id=":1110673630_1" sampledSeconds="7.38" CO_abs="2.443647" CO2_abs="190.740129" HC_abs="0.015404" PMx_abs="0.002213" NOx_abs="0.070555" fuel_abs="0.081992" electricity_abs="0"
            CO_normed="0.162794" CO2_normed="12.706949" HC_normed="0.001026" PMx_normed="0.000147" NOx_normed="0.004700" fuel_normed="0.005462" electricity_normed="0"
            traveltime="1.04" CO_perVeh="0.345870" CO2_perVeh="26.997064" HC_perVeh="0.002180" PMx_perVeh="0.000313" NOx_perVeh="0.009986" fuel_perVeh="0.011605" electricity_perVeh="0"/>
        <edge id=":1110673650_0" sampledSeconds="143.34" CO_abs="2211.526870" CO2_abs="278751.674418" HC_abs="16.413261" PMx_abs="3.819172" NOx_abs="104.041654" fuel_abs="119.823605" electricity_abs="0"
            CO_normed="5647.653211" CO2_normed="711857.861890" HC_normed="41.915117" PMx_normed="9.753153" NOx_normed="265.694797" fuel_normed="305.997715" electricity_normed="0"
            traveltime="0.02" CO_perVeh="0.355723" CO2_perVeh="44.837118" HC_perVeh="0.002640" PMx_perVeh="0.000614" NOx_perVeh="0.016735" fuel_perVeh="0.019274" electricity_perVeh="0"/>
        <edge id=":1110673655_0" sampledSeconds="45.16" CO_abs="812.344675" CO2_abs="85565.555884" HC_abs="5.665679" PMx_abs="1.220486" NOx_abs="32.530635" fuel_abs="36.781044" electricity_abs="0"
            CO_normed="2074.512897" CO2_normed="218511.740926" HC_normed="14.468642" PMx_normed="3.116798" NOx_normed="83.074615" fuel_normed="93.929032" electricity_normed="0"
            traveltime="0.02" CO_perVeh="0.434758" CO2_perVeh="45.793715" HC_perVeh="0.003032" PMx_perVeh="0.000653" NOx_perVeh="0.017410" fuel_perVeh="0.019685" electricity_perVeh="0"/>
        <edge id=":1110673663_0" sampledSeconds="108.91" CO_abs="2019.482888" CO2_abs="225750.697014" HC_abs="14.405695" PMx_abs="3.260902" NOx_abs="85.771673" fuel_abs="97.040622" electricity_abs="0"
            CO_normed="94.454648" CO2_normed="10558.743947" HC_normed="0.673779" PMx_normed="0.152518" NOx_normed="4.011687" fuel_normed="4.538755" electricity_normed="0"
            traveltime="1.28" CO_perVeh="23.719779" CO2_perVeh="2651.548435" HC_perVeh="0.169202" PMx_perVeh="0.038301" NOx_perVeh="1.007429" fuel_perVeh="1.139788" electricity_perVeh="0"/>
        <edge id=":1110673663_1" sampledSeconds="154.70" CO_abs="2460.694819" CO2_abs="316304.225032" HC_abs="18.435254" PMx_abs="4.307746" NOx_abs="117.691715" fuel_abs="135.965890" electricity_abs="0"
            CO_normed="115.231579" CO2_normed="14812.172102" HC_normed="0.863302" PMx_normed="0.201727" NOx_normed="5.511371" fuel_normed="6.367130" electricity_normed="0"
            traveltime="1.25" CO_perVeh="19.864681" CO2_perVeh="2553.458630" HC_perVeh="0.148824" PMx_perVeh="0.034776" NOx_perVeh="0.950101" fuel_perVeh="1.097625" electricity_perVeh="0"/>
        <edge id=":1110673666_0" sampledSeconds="191.80" CO_abs="4341.747411" CO2_abs="343900.784242" HC_abs="27.619056" PMx_abs="4.684770" NOx_abs="131.380544" fuel_abs="147.829576" electricity_abs="0"