<?xml version="1.0" encoding="UTF-8"?>

<!-- generated on Fri Oct  2 15:58:38 2020 by Eclipse SUMO Version 1.1.0
<configuration xmlns:xsi="http://www.w3.org/2001/XMLSchema-instance" xsi:noNamespaceSchemaLocation="http://sumo.dlr.de/xsd/sumoConfiguration.xsd">

    <input>
        <net-file value="../dataSets/Angeja_Estarreja/angeja_estarreja.net.xml"/>
        <route-files value="../results/angeja_estarreja/cost_co2-cost_hc/solution16/angeja_estarreja.rou.xml"/>
        <additional-files value="moreOutputInfo.xml"/>
    </input>

    <output>
        <emission-output.precision value="6"/>
        <tripinfo-output value="../results/angeja_estarreja/cost_co2-cost_hc/solution16/angeja_estarreja-tripinfo"/>
    </output>

    <processing>
        <collision.action value="warn"/>
        <time-to-teleport value="-1"/>
    </processing>

    <emissions>
        <device.emissions.probability value="1"/>
    </emissions>

    <gui_only>
        <quit-on-end value="true"/>
        <start value="true"/>
    </gui_only>

</configuration>
-->

<meandata xmlns:xsi="http://www.w3.org/2001/XMLSchema-instance" xsi:noNamespaceSchemaLocation="http://sumo.dlr.de/xsd/meandata_file.xsd">
    <interval begin="0.00" end="19078.00" id="emissions-detector">
        <edge id=":10_0" sampledSeconds="386.46" CO_abs="38000.572641" CO2_abs="2111534.722779" HC_abs="223.113112" PMx_abs="41.211495" NOx_abs="899.323619" fuel_abs="907.656096" electricity_abs="0"
            CO_normed="409.986907" CO2_normed="22781.277505" HC_normed="2.407160" PMx_normed="0.444629" NOx_normed="9.702772" fuel_normed="9.792671" electricity_normed="0"
            traveltime="1.89" CO_perVeh="185.617659" CO2_perVeh="10314.005960" HC_perVeh="1.089819" PMx_perVeh="0.201302" NOx_perVeh="4.392838" fuel_perVeh="4.433538" electricity_perVeh="0"/>
        <edge id=":10_1" sampledSeconds="0.00" CO_abs="0" CO2_abs="0" HC_abs="0" PMx_abs="0" NOx_abs="0" fuel_abs="0" electricity_abs="0"
            CO_normed="0" CO2_normed="0" HC_normed="0" PMx_normed="0" NOx_normed="0" fuel_normed="0" electricity_normed="0"/>
        <edge id=":100_0" sampledSeconds="0.00" CO_abs="0" CO2_abs="0" HC_abs="0" PMx_abs="0" NOx_abs="0" fuel_abs="0" electricity_abs="0"
            CO_normed="0" CO2_normed="0" HC_normed="0" PMx_normed="0" NOx_normed="0" fuel_normed="0" electricity_normed="0"/>
        <edge id=":100_1" sampledSeconds="912.23" CO_abs="22216.829426" CO2_abs="2773381.259651" HC_abs="168.561326" PMx_abs="50.303418" NOx_abs="1037.587537" fuel_abs="1192.149356" electricity_abs="0"
            CO_normed="141.823209" CO2_normed="17704.138694" HC_normed="1.076027" PMx_normed="0.321117" NOx_normed="6.623537" fuel_normed="7.610197" electricity_normed="0"
            traveltime="1.37" CO_perVeh="33.404981" CO2_perVeh="4170.025640" HC_perVeh="0.253447" PMx_perVeh="0.075636" NOx_perVeh="1.560105" fuel_perVeh="1.792503" electricity_perVeh="0"/>
        <edge id=":101_0" sampledSeconds="438.65" CO_abs="10033.197488" CO2_abs="1276051.995332" HC_abs="76.645577" PMx_abs="23.019823" NOx_abs="475.836201" fuel_abs="548.516306" electricity_abs="0"
            CO_normed="231.732507" CO2_normed="29472.431755" HC_normed="1.770250" PMx_normed="0.531679" NOx_normed="10.990187" fuel_normed="12.668848" electricity_normed="0"
            traveltime="0.38" CO_perVeh="8.667383" CO2_perVeh="1102.343667" HC_perVeh="0.066212" PMx_perVeh="0.019886" NOx_perVeh="0.411061" fuel_perVeh="0.473847" electricity_perVeh="0"/>
        <edge id=":102_0" sampledSeconds="341.15" CO_abs="8188.157955" CO2_abs="1027020.770457" HC_abs="62.175554" PMx_abs="18.593436" NOx_abs="383.840779" fuel_abs="441.469133" electricity_abs="0"
            CO_normed="190.752768" CO2_normed="23925.656555" HC_normed="1.448453" PMx_normed="0.433156" NOx_normed="8.942022" fuel_normed="10.284543" electricity_normed="0"
            traveltime="0.38" CO_perVeh="9.011040" CO2_perVeh="1130.232852" HC_perVeh="0.068424" PMx_perVeh="0.020462" NOx_perVeh="0.422415" fuel_perVeh="0.485835" electricity_perVeh="0"/>
        <edge id=":103_0" sampledSeconds="433.96" CO_abs="11271.906793" CO2_abs="1383846.040646" HC_abs="84.995525" PMx_abs="25.226269" NOx_abs="519.134922" fuel_abs="594.851830" electricity_abs="0"
            CO_normed="264.223332" CO2_normed="32438.558844" HC_normed="1.992369" PMx_normed="0.591326" NOx_normed="12.168976" fuel_normed="13.943846" electricity_normed="0"
            traveltime="0.37" CO_perVeh="9.684389" CO2_perVeh="1188.947301" HC_perVeh="0.073025" PMx_perVeh="0.021673" NOx_perVeh="0.446021" fuel_perVeh="0.511074" electricity_perVeh="0"/>
        <edge id=":104_0" sampledSeconds="340.97" CO_abs="8201.474923" CO2_abs="1041164.270770" HC_abs="62.634489" PMx_abs="18.798794" NOx_abs="388.347921" fuel_abs="447.548825" electricity_abs="0"
            CO_normed="191.299175" CO2_normed="24285.127666" HC_normed="1.460948" PMx_normed="0.438481" NOx_normed="9.058204" fuel_normed="10.439064" electricity_normed="0"
            traveltime="0.37" CO_perVeh="9.018233" CO2_perVeh="1144.850412" HC_perVeh="0.068872" PMx_perVeh="0.020671" NOx_perVeh="0.427022" fuel_perVeh="0.492119" electricity_perVeh="0"/>
        <edge id=":105_0" sampledSeconds="168.67" CO_abs="3745.620996" CO2_abs="493413.482122" HC_abs="29.032949" PMx_abs="8.817130" NOx_abs="182.998650" fuel_abs="212.095919" electricity_abs="0"
            CO_normed="3212.704682" CO2_normed="423212.013752" HC_normed="24.902224" PMx_normed="7.562654" NOx_normed="156.962122" fuel_normed="181.919514" electricity_normed="0"
            traveltime="0.01" CO_perVeh="0.226506" CO2_perVeh="29.837760" HC_perVeh="0.001756" PMx_perVeh="0.000533" NOx_perVeh="0.011066" fuel_perVeh="0.012826" electricity_perVeh="0"/>
        <edge id=":106_0" sampledSeconds="134.55" CO_abs="3056.932764" CO2_abs="394439.939997" HC_abs="23.490495" PMx_abs="7.085831" NOx_abs="146.808292" fuel_abs="169.551681" electricity_abs="0"
            CO_normed="1860.774943" CO2_normed="240098.168130" HC_normed="14.298818" PMx_normed="4.313192" NOx_normed="89.363166" fuel_normed="103.207216" electricity_normed="0"
            traveltime="0.01" CO_perVeh="0.326845" CO2_perVeh="42.173286" HC_perVeh="0.002512" PMx_perVeh="0.000758" NOx_perVeh="0.015697" fuel_perVeh="0.018128" electricity_perVeh="0"/>
        <edge id=":107_0" sampledSeconds="438.34" CO_abs="10863.154774" CO2_abs="1387764.531524" HC_abs="83.158927" PMx_abs="25.006692" NOx_abs="517.205618" fuel_abs="596.536426" electricity_abs="0"
            CO_normed="250.901679" CO2_normed="32052.608826" HC_normed="1.920686" PMx_normed="0.577569" NOx_normed="11.945679" fuel_normed="13.777949" electricity_normed="0"
            traveltime="0.38" CO_perVeh="9.384367" CO2_perVeh="1198.849925" HC_perVeh="0.071839" PMx_perVeh="0.021603" NOx_perVeh="0.446799" fuel_perVeh="0.515331" electricity_perVeh="0"/>
        <edge id=":108_0" sampledSeconds="92.95" CO_abs="7919.474588" CO2_abs="590607.122471" HC_abs="50.186107" PMx_abs="11.687618" NOx_abs="247.657377" fuel_abs="253.874015" electricity_abs="0"
            CO_normed="124.222538" CO2_normed="9264.088795" HC_normed="0.787204" PMx_normed="0.183329" NOx_normed="3.884680" fuel_normed="3.982193" electricity_normed="0"
            traveltime="0.85" CO_perVeh="72.369903" CO2_perVeh="5397.097988" HC_perVeh="0.458612" PMx_perVeh="0.106804" NOx_perVeh="2.263148" fuel_perVeh="2.319957" electricity_perVeh="0"/>
        <edge id=":108_1" sampledSeconds="402.30" CO_abs="10035.655266" CO2_abs="1264912.093212" HC_abs="76.408690" PMx_abs="22.875994" NOx_abs="472.492802" fuel_abs="543.727720" electricity_abs="0"
            CO_normed="146.799873" CO2_normed="18502.920835" HC_normed="1.117693" PMx_normed="0.334626" NOx_normed="6.911545" fuel_normed="7.953557" electricity_normed="0"
            traveltime="0.60" CO_perVeh="14.914333" CO2_perVeh="1879.829426" HC_perVeh="0.113554" PMx_perVeh="0.033997" NOx_perVeh="0.702188" fuel_perVeh="0.808052" electricity_perVeh="0"/>
        <edge id=":109_0" sampledSeconds="306.99" CO_abs="159.704584" CO2_abs="24628.177562" HC_abs="1.276894" PMx_abs="0.312403" NOx_abs="8.941005" fuel_abs="10.586632" electricity_abs="0"
            CO_normed="2.401283" CO2_normed="370.303832" HC_normed="0.019199" PMx_normed="0.004697" NOx_normed="0.134435" fuel_normed="0.159178" electricity_normed="0"
            traveltime="0.85" CO_perVeh="0.443889" CO2_perVeh="68.452512" HC_perVeh="0.003549" PMx_perVeh="0.000868" NOx_perVeh="0.024851" fuel_perVeh="0.029425" electricity_perVeh="0"/>
        <edge id=":109_1" sampledSeconds="524.48" CO_abs="12072.385287" CO2_abs="1506478.693486" HC_abs="91.569508" PMx_abs="27.328759" NOx_abs="563.525672" fuel_abs="647.566077" electricity_abs="0"
            CO_normed="118.401629" CO2_normed="14775.003156" HC_normed="0.898081" PMx_normed="0.268031" NOx_normed="5.526858" fuel_normed="6.351096" electricity_normed="0"
            traveltime="0.89" CO_perVeh="20.556397" CO2_perVeh="2565.174455" HC_perVeh="0.155921" PMx_perVeh="0.046534" NOx_perVeh="0.959550" fuel_perVeh="1.102651" electricity_perVeh="0"/>
        <edge id=":11_0" sampledSeconds="273.83" CO_abs="16359.571520" CO2_abs="1200740.079398" HC_abs="102.807618" PMx_abs="21.259215" NOx_abs="490.953945" fuel_abs="516.144955" electricity_abs="0"
            CO_normed="169.152613" CO2_normed="12415.259306" HC_normed="1.062997" PMx_normed="0.219813" NOx_normed="5.076303" fuel_normed="5.336770" electricity_normed="0"
            traveltime="1.59" CO_perVeh="94.751565" CO2_perVeh="6954.460949" HC_perVeh="0.595442" PMx_perVeh="0.123129" NOx_perVeh="2.843513" fuel_perVeh="2.989415" electricity_perVeh="0"/>
        <edge id=":11_1" sampledSeconds="50.92" CO_abs="881.962598" CO2_abs="81182.333614" HC_abs="5.859412" PMx_abs="1.018064" NOx_abs="30.279454" fuel_abs="34.897158" electricity_abs="0"
            CO_normed="9.349746" CO2_normed="860.619506" HC_normed="0.062116" PMx_normed="0.010793" NOx_normed="0.320995" fuel_normed="0.369947" electricity_normed="0"
            traveltime="1.67" CO_perVeh="29.007639" CO2_perVeh="2670.076752" HC_perVeh="0.192715" PMx_perVeh="0.033484" NOx_perVeh="0.995887" fuel_perVeh="1.147763" electricity_perVeh="0"/>
        <edge id=":110_0" sampledSeconds="94.24" CO_abs="0" CO2_abs="0" HC_abs="0" PMx_abs="0" NOx_abs="0" fuel_abs="0" electricity_abs="0"
            CO_normed="0" CO2_normed="0" HC_normed="0" PMx_normed="0" NOx_normed="0" fuel_normed="0" electricity_normed="0"
            traveltime="0.92" CO_perVeh="0" CO2_perVeh="0" HC_perVeh="0" PMx_perVeh="0" NOx_perVeh="0" fuel_perVeh="0" electricity_perVeh="0"/>
        <edge id=":110_1" sampledSeconds="444.74" CO_abs="9493.069388" CO2_abs="1206692.526706" HC_abs="72.521299" PMx_abs="21.772304" NOx_abs="450.099218" fuel_abs="518.701839" electricity_abs="0"
            CO_normed="121.859384" CO2_normed="15489.911791" HC_normed="0.930932" PMx_normed="0.279484" NOx_normed="5.777774" fuel_normed="6.658403" electricity_normed="0"
            traveltime="0.68" CO_perVeh="14.582780" CO2_perVeh="1853.660889" HC_perVeh="0.111404" PMx_perVeh="0.033446" NOx_perVeh="0.691420" fuel_perVeh="0.796804" electricity_perVeh="0"/>
        <edge id=":111_0" sampledSeconds="341.15" CO_abs="8013.927178" CO2_abs="1004477.351696" HC_abs="60.789386" PMx_abs="18.180506" NOx_abs="375.431302" fuel_abs="431.778749" electricity_abs="0"
            CO_normed="185.094277" CO2_normed="23199.987387" HC_normed="1.404027" PMx_normed="0.419907" NOx_normed="8.671178" fuel_normed="9.972611" electricity_normed="0"
            traveltime="0.38" CO_perVeh="8.906240" CO2_perVeh="1116.321127" HC_perVeh="0.067558" PMx_perVeh="0.020205" NOx_perVeh="0.417234" fuel_perVeh="0.479855" electricity_perVeh="0"/>
        <edge id=":114_0" sampledSeconds="107.24" CO_abs="10709.198916" CO2_abs="773064.589118" HC_abs="67.391199" PMx_abs="15.666230" NOx_abs="326.998882" fuel_abs="332.303533" electricity_abs="0"
            CO_normed="142.310943" CO2_normed="10272.995371" HC_normed="0.895539" PMx_normed="0.208183" NOx_normed="4.345378" fuel_normed="4.415870" electricity_normed="0"
            traveltime="0.99" CO_perVeh="99.072038" CO2_perVeh="7151.709935" HC_perVeh="0.623444" PMx_perVeh="0.144930" NOx_perVeh="3.025104" fuel_perVeh="3.074178" electricity_perVeh="0"/>
        <edge id=":114_1" sampledSeconds="415.81" CO_abs="10270.562590" CO2_abs="1255199.673782" HC_abs="77.314196" PMx_abs="22.907939" NOx_abs="471.311391" fuel_abs="539.552641" electricity_abs="0"
            CO_normed="135.622474" CO2_normed="16574.874366" HC_normed="1.020932" PMx_normed="0.302499" NOx_normed="6.223653" fuel_normed="7.124777" electricity_normed="0"
            traveltime="0.66" CO_perVeh="16.365880" CO2_perVeh="2000.128773" HC_perVeh="0.123198" PMx_perVeh="0.036503" NOx_perVeh="0.751023" fuel_perVeh="0.859763" electricity_perVeh="0"/>
        <edge id=":115_0" sampledSeconds="79.81" CO_abs="79.698469" CO2_abs="11020.932365" HC_abs="0.614912" PMx_abs="0.140320" NOx_abs="4.044350" fuel_abs="4.737445" electricity_abs="0"
            CO_normed="1.801081" CO2_normed="249.058586" HC_normed="0.013896" PMx_normed="0.003171" NOx_normed="0.091397" fuel_normed="0.107060" electricity_normed="0"
            traveltime="0.63" CO_perVeh="0.627163" CO2_perVeh="86.725837" HC_perVeh="0.004839" PMx_perVeh="0.001104" NOx_perVeh="0.031826" fuel_perVeh="0.037280" electricity_perVeh="0"/>
        <edge id=":115_1" sampledSeconds="72.61" CO_abs="828.588029" CO2_abs="135771.453789" HC_abs="6.830254" PMx_abs="1.943679" NOx_abs="49.951115" fuel_abs="58.362207" electricity_abs="0"
            CO_normed="16.722327" CO2_normed="2740.100637" HC_normed="0.137846" PMx_normed="0.039227" NOx_normed="1.008099" fuel_normed="1.177849" electricity_normed="0"
            traveltime="0.59" CO_perVeh="6.783380" CO2_perVeh="1111.516586" HC_perVeh="0.055917" PMx_perVeh="0.015912" NOx_perVeh="0.408933" fuel_perVeh="0.477792" electricity_perVeh="0"/>
        <edge id=":116_0" sampledSeconds="75.21" CO_abs="89.981811" CO2_abs="11268.126340" HC_abs="0.667563" PMx_abs="0.141221" NOx_abs="4.136636" fuel_abs="4.843713" electricity_abs="0"
            CO_normed="2.269984" CO2_normed="284.262628" HC_normed="0.016841" PMx_normed="0.003563" NOx_normed="0.104356" fuel_normed="0.122193" electricity_normed="0"
            traveltime="0.57" CO_perVeh="0.679430" CO2_perVeh="85.082811" HC_perVeh="0.005041" PMx_perVeh="0.001066" NOx_perVeh="0.031235" fuel_perVeh="0.036574" electricity_perVeh="0"/>
        <edge id=":117_0" sampledSeconds="240.76" CO_abs="13028.831503" CO2_abs="1115440.182021" HC_abs="85.698436" PMx_abs="20.011698" NOx_abs="451.870350" fuel_abs="479.476641" electricity_abs="0"
            CO_normed="294.434467" CO2_normed="25207.482019" HC_normed="1.936672" PMx_normed="0.452238" NOx_normed="10.211676" fuel_normed="10.835542" electricity_normed="0"
            traveltime="0.60" CO_perVeh="32.673561" CO2_perVeh="2797.288636" HC_perVeh="0.214914" PMx_perVeh="0.050185" NOx_perVeh="1.133196" fuel_perVeh="1.202426" electricity_perVeh="0"/>
        <edge id=":117_1" sampledSeconds="76.35" CO_abs="4521.432796" CO2_abs="364056.527321" HC_abs="29.274685" PMx_abs="6.798662" NOx_abs="149.638282" fuel_abs="156.491010" electricity_abs="0"
            CO_normed="96.296835" CO2_normed="7753.624353" HC_normed="0.623488" PMx_normed="0.144797" NOx_normed="3.186975" fuel_normed="3.332923" electricity_normed="0"
            traveltime="0.65" CO_perVeh="38.226185" CO2_perVeh="3077.894245" HC_perVeh="0.247501" PMx_perVeh="0.057479" NOx_perVeh="1.265108" fuel_perVeh="1.323044" electricity_perVeh="0"/>
        <edge id=":118_0" sampledSeconds="898.76" CO_abs="13745.257855" CO2_abs="2049698.095666" HC_abs="108.542519" PMx_abs="30.709375" NOx_abs="763.191009" fuel_abs="881.074387" electricity_abs="0"
            CO_normed="41.706332" CO2_normed="6219.264067" HC_normed="0.329343" PMx_normed="0.093179" NOx_normed="2.315700" fuel_normed="2.673386" electricity_normed="0"
            traveltime="3.92" CO_perVeh="59.954585" CO2_perVeh="8940.450652" HC_perVeh="0.473445" PMx_perVeh="0.133949" NOx_perVeh="3.328915" fuel_perVeh="3.843104" electricity_perVeh="0"/>
        <edge id=":118_4" sampledSeconds="282.54" CO_abs="3891.789899" CO2_abs="616594.887202" HC_abs="31.711534" PMx_abs="9.063691" NOx_abs="227.809440" fuel_abs="265.046981" electricity_abs="0"
            CO_normed="11.831432" CO2_normed="1874.510296" HC_normed="0.096406" PMx_normed="0.027555" NOx_normed="0.692564" fuel_normed="0.805769" electricity_normed="0"
            traveltime="3.92" CO_perVeh="53.957256" CO2_perVeh="8548.706181" HC_perVeh="0.439661" PMx_perVeh="0.125662" NOx_perVeh="3.158437" fuel_perVeh="3.674712" electricity_perVeh="0"/>
        <edge id=":118_5" sampledSeconds="237.94" CO_abs="3991.749782" CO2_abs="590533.748234" HC_abs="31.402085" PMx_abs="8.991360" NOx_abs="220.530174" fuel_abs="253.844119" electricity_abs="0"
            CO_normed="12.255765" CO2_normed="1813.100269" HC_normed="0.096413" PMx_normed="0.027606" NOx_normed="0.677088" fuel_normed="0.779371" electricity_normed="0"
            traveltime="3.81" CO_perVeh="63.885792" CO2_perVeh="9451.172645" HC_perVeh="0.502573" PMx_perVeh="0.143902" NOx_perVeh="3.529466" fuel_perVeh="4.062638" electricity_perVeh="0"/>
        <edge id=":119_0" sampledSeconds="139.50" CO_abs="1894.755004" CO2_abs="295138.523391" HC_abs="15.292579" PMx_abs="4.379595" NOx_abs="109.522100" fuel_abs="126.866986" electricity_abs="0"
            CO_normed="40.629366" CO2_normed="6328.676320" HC_normed="0.327920" PMx_normed="0.093912" NOx_normed="2.348490" fuel_normed="2.720418" electricity_normed="0"
            traveltime="0.56" CO_perVeh="7.595983" CO2_perVeh="1183.196417" HC_perVeh="0.061307" PMx_perVeh="0.017558" NOx_perVeh="0.439069" fuel_perVeh="0.508604" electricity_perVeh="0"/>
        <edge id=":12_0" sampledSeconds="603.90" CO_abs="56204.257301" CO2_abs="3161606.399695" HC_abs="330.955660" PMx_abs="61.809222" NOx_abs="1346.745367" fuel_abs="1359.035118" electricity_abs="0"
            CO_normed="526.598240" CO2_normed="29622.246536" HC_normed="3.100845" PMx_normed="0.579113" NOx_normed="12.618150" fuel_normed="12.733297" electricity_normed="0"
            traveltime="2.14" CO_perVeh="198.910987" CO2_perVeh="11189.156837" HC_perVeh="1.171276" PMx_perVeh="0.218747" NOx_perVeh="4.766231" fuel_perVeh="4.809725" electricity_perVeh="0"/>
        <edge id=":12_1" sampledSeconds="55.89" CO_abs="965.257161" CO2_abs="84415.857767" HC_abs="6.317940" PMx_abs="1.101337" NOx_abs="31.824183" fuel_abs="36.287095" electricity_abs="0"
            CO_normed="9.034875" CO2_normed="790.138396" HC_normed="0.059136" PMx_normed="0.010309" NOx_normed="0.297877" fuel_normed="0.339650" electricity_normed="0"
            traveltime="1.88" CO_perVeh="32.549820" CO2_perVeh="2846.620655" HC_perVeh="0.213050" PMx_perVeh="0.037139" NOx_perVeh="1.073156" fuel_perVeh="1.223652" electricity_perVeh="0"/>
        <edge id=":120_0" sampledSeconds="39.14" CO_abs="556.154734" CO2_abs="88088.826534" HC_abs="4.472908" PMx_abs="1.298362" NOx_abs="32.498321" fuel_abs="37.865497" electricity_abs="0"
            CO_normed="437.274400" CO2_normed="69259.482022" HC_normed="3.516806" PMx_normed="1.020832" NOx_normed="25.551673" fuel_normed="29.771593" electricity_normed="0"
            traveltime="0.02" CO_perVeh="0.213993" CO2_perVeh="33.894214" HC_perVeh="0.001721" PMx_perVeh="0.000500" NOx_perVeh="0.012504" fuel_perVeh="0.014570" electricity_perVeh="0"/>
        <edge id=":121_0" sampledSeconds="375.91" CO_abs="53333.886790" CO2_abs="1426397.068333" HC_abs="276.334430" PMx_abs="30.746153" NOx_abs="630.571561" fuel_abs="613.164276" electricity_abs="0"
            CO_normed="30497.128605" CO2_normed="815635.564048" HC_normed="158.012235" PMx_normed="17.581119" NOx_normed="360.570421" fuel_normed="350.616670" electricity_normed="0"
            traveltime="0.11" CO_perVeh="16.265741" CO2_perVeh="435.021841" HC_perVeh="0.084276" PMx_perVeh="0.009377" NOx_perVeh="0.192311" fuel_perVeh="0.187003" electricity_perVeh="0"/>
        <edge id=":122_0" sampledSeconds="135.05" CO_abs="887.428108" CO2_abs="95682.764502" HC_abs="6.275322" PMx_abs="1.646498" NOx_abs="37.515618" fuel_abs="41.129624" electricity_abs="0"
            CO_normed="19.539886" CO2_normed="2106.796310" HC_normed="0.138174" PMx_normed="0.036253" NOx_normed="0.826040" fuel_normed="0.905615" electricity_normed="0"
            traveltime="0.54" CO_perVeh="3.545982" CO2_perVeh="382.328876" HC_perVeh="0.025075" PMx_perVeh="0.006579" NOx_perVeh="0.149905" fuel_perVeh="0.164346" electricity_perVeh="0"/>
        <edge id=":123_0" sampledSeconds="315.64" CO_abs="41205.930171" CO2_abs="2499373.114908" HC_abs="247.663136" PMx_abs="51.516248" NOx_abs="1074.319331" fuel_abs="1074.364207" electricity_abs="0"
            CO_normed="157.144682" CO2_normed="9531.715239" HC_normed="0.944499" PMx_normed="0.196465" NOx_normed="4.097070" fuel_normed="4.097241" electricity_normed="0"
            traveltime="4.30" CO_perVeh="561.144882" CO2_perVeh="34036.616216" HC_perVeh="3.372692" PMx_perVeh="0.701551" NOx_perVeh="14.630146" fuel_perVeh="14.630758" electricity_perVeh="0"/>
        <edge id=":123_1" sampledSeconds="0.00" CO_abs="0" CO2_abs="0" HC_abs="0" PMx_abs="0" NOx_abs="0" fuel_abs="0" electricity_abs="0"
            CO_normed="0" CO2_normed="0" HC_normed="0" PMx_normed="0" NOx_normed="0" fuel_normed="0" electricity_normed="0"/>
        <edge id=":123_2" sampledSeconds="259.11" CO_abs="34279.195884" CO2_abs="2135495.096433" HC_abs="207.420296" PMx_abs="44.054740" NOx_abs="916.811687" fuel_abs="917.949262" electricity_abs="0"
            CO_normed="131.982266" CO2_normed="8222.114726" HC_normed="0.798613" PMx_normed="0.169620" NOx_normed="3.529922" fuel_normed="3.534302" electricity_normed="0"
            traveltime="4.07" CO_perVeh="538.800605" CO2_perVeh="33565.724637" HC_perVeh="3.260233" PMx_perVeh="0.692453" NOx_perVeh="14.410452" fuel_perVeh="14.428332" electricity_perVeh="0"/>
        <edge id=":123_3" sampledSeconds="468.42" CO_abs="23629.320930" CO2_abs="2134922.473040" HC_abs="158.391111" PMx_abs="40.637570" NOx_abs="863.236324" fuel_abs="917.702355" electricity_abs="0"
            CO_normed="93.086218" CO2_normed="8410.392260" HC_normed="0.623972" PMx_normed="0.160089" NOx_normed="3.400665" fuel_normed="3.615230" electricity_normed="0"
            traveltime="2.80" CO_perVeh="141.431058" CO2_perVeh="12778.375876" HC_perVeh="0.948035" PMx_perVeh="0.243232" NOx_perVeh="5.166819" fuel_perVeh="5.492820" electricity_perVeh="0"/>
        <edge id=":123_5" sampledSeconds="0.00" CO_abs="0" CO2_abs="0" HC_abs="0" PMx_abs="0" NOx_abs="0" fuel_abs="0" electricity_abs="0"
            CO_normed="0" CO2_normed="0" HC_normed="0" PMx_normed="0" NOx_normed="0" fuel_normed="0" electricity_normed="0"/>
        <edge id=":123_6" sampledSeconds="194.82" CO_abs="9228.121311" CO2_abs="867023.679533" HC_abs="62.441968" PMx_abs="16.161539" NOx_abs="348.042819" fuel_abs="372.692748" electricity_abs="0"
            CO_normed="35.114690" CO2_normed="3299.183767" HC_normed="0.237603" PMx_normed="0.061498" NOx_normed="1.324367" fuel_normed="1.418164" electricity_normed="0"
            traveltime="2.91" CO_perVeh="138.056842" CO2_perVeh="12971.063875" HC_perVeh="0.934160" PMx_perVeh="0.241784" NOx_perVeh="5.206877" fuel_perVeh="5.575651" electricity_perVeh="0"/>
        <edge id=":124_0" sampledSeconds="118.90" CO_abs="4156.559623" CO2_abs="364979.791401" HC_abs="27.511317" PMx_abs="7.006081" NOx_abs="148.209544" fuel_abs="156.887541" electricity_abs="0"
            CO_normed="97.312500" CO2_normed="8544.830124" HC_normed="0.644089" PMx_normed="0.164025" NOx_normed="3.469851" fuel_normed="3.673018" electricity_normed="0"
            traveltime="0.46" CO_perVeh="16.158776" CO2_perVeh="1418.872111" HC_perVeh="0.106951" PMx_perVeh="0.027236" NOx_perVeh="0.576170" fuel_perVeh="0.609906" electricity_perVeh="0"/>
        <edge id=":125_0" sampledSeconds="140.96" CO_abs="5966.727549" CO2_abs="590072.438181" HC_abs="41.203280" PMx_abs="11.088407" NOx_abs="233.753674" fuel_abs="253.644410" electricity_abs="0"
            CO_normed="375.305224" CO2_normed="37115.364599" HC_normed="2.591673" PMx_normed="0.697457" NOx_normed="14.703030" fuel_normed="15.954151" electricity_normed="0"
            traveltime="0.16" CO_perVeh="6.833435" CO2_perVeh="675.784430" HC_perVeh="0.047188" PMx_perVeh="0.012699" NOx_perVeh="0.267708" fuel_perVeh="0.290488" electricity_perVeh="0"/>
        <edge id=":125_3" sampledSeconds="0.00" CO_abs="0" CO2_abs="0" HC_abs="0" PMx_abs="0" NOx_abs="0" fuel_abs="0" electricity_abs="0"
            CO_normed="0" CO2_normed="0" HC_normed="0" PMx_normed="0" NOx_normed="0" fuel_normed="0" electricity_normed="0"/>
        <edge id=":126_0" sampledSeconds="27.41" CO_abs="81.375688" CO2_abs="6154.180285" HC_abs="0.511323" PMx_abs="0.086446" NOx_abs="2.375655" fuel_abs="2.645441" electricity_abs="0"
            CO_normed="2.679845" CO2_normed="202.668031" HC_normed="0.016839" PMx_normed="0.002847" NOx_normed="0.078235" fuel_normed="0.087119" electricity_normed="0"
            traveltime="0.57" CO_perVeh="1.687851" CO2_perVeh="127.646754" HC_perVeh="0.010606" PMx_perVeh="0.001793" NOx_perVeh="0.049275" fuel_perVeh="0.054870" electricity_perVeh="0"/>
        <edge id=":126_1" sampledSeconds="81.16" CO_abs="1044.773447" CO2_abs="170421.674384" HC_abs="8.679009" PMx_abs="2.702963" NOx_abs="62.684931" fuel_abs="73.256603" electricity_abs="0"
            CO_normed="30.613002" CO2_normed="4993.540963" HC_normed="0.254304" PMx_normed="0.079200" NOx_normed="1.836737" fuel_normed="2.146498" electricity_normed="0"
            traveltime="0.35" CO_perVeh="4.520914" CO2_perVeh="737.443866" HC_perVeh="0.037556" PMx_perVeh="0.011696" NOx_perVeh="0.271248" fuel_perVeh="0.316994" electricity_perVeh="0"/>
        <edge id=":127_0" sampledSeconds="234.49" CO_abs="4992.280825" CO2_abs="659971.583020" HC_abs="38.011531" PMx_abs="11.173432" NOx_abs="248.935093" fuel_abs="283.691625" electricity_abs="0"
            CO_normed="115.445898" CO2_normed="15261.764005" HC_normed="0.879012" PMx_normed="0.258384" NOx_normed="5.756594" fuel_normed="6.560335" electricity_normed="0"
            traveltime="0.44" CO_perVeh="9.335686" CO2_perVeh="1234.162802" HC_perVeh="0.071082" PMx_perVeh="0.020895" NOx_perVeh="0.465515" fuel_perVeh="0.530510" electricity_perVeh="0"/>
        <edge id=":128_0" sampledSeconds="229.94" CO_abs="370.397920" CO2_abs="42250.149898" HC_abs="2.653247" PMx_abs="0.698408" NOx_abs="16.345495" fuel_abs="18.161424" electricity_abs="0"
            CO_normed="5.724302" CO2_normed="652.953488" HC_normed="0.041005" PMx_normed="0.010794" NOx_normed="0.252611" fuel_normed="0.280675" electricity_normed="0"
            traveltime="0.76" CO_perVeh="1.217627" CO2_perVeh="138.890952" HC_perVeh="0.008722" PMx_perVeh="0.002296" NOx_perVeh="0.053733" fuel_perVeh="0.059703" electricity_perVeh="0"/>
        <edge id=":128_1" sampledSeconds="141.47" CO_abs="142.375738" CO2_abs="22648.388350" HC_abs="1.161838" PMx_abs="0.261941" NOx_abs="8.109784" fuel_abs="9.735635" electricity_abs="0"
            CO_normed="2.272941" CO2_normed="361.567580" HC_normed="0.018548" PMx_normed="0.004182" NOx_normed="0.129468" fuel_normed="0.155423" electricity_normed="0"
            traveltime="0.85" CO_perVeh="0.853462" CO2_perVeh="135.764214" HC_perVeh="0.006965" PMx_perVeh="0.001570" NOx_perVeh="0.048614" fuel_perVeh="0.058360" electricity_perVeh="0"/>
        <edge id=":129_0" sampledSeconds="105.34" CO_abs="6013.297192" CO2_abs="518596.387424" HC_abs="39.792611" PMx_abs="9.977879" NOx_abs="211.896084" fuel_abs="222.920026" electricity_abs="0"
            CO_normed="140.086829" CO2_normed="12081.312679" HC_normed="0.927016" PMx_normed="0.232446" NOx_normed="4.936368" fuel_normed="5.193184" electricity_normed="0"
            traveltime="0.50" CO_perVeh="28.499873" CO2_perVeh="2457.874690" HC_perVeh="0.188596" PMx_perVeh="0.047290" NOx_perVeh="1.004276" fuel_perVeh="1.056524" electricity_perVeh="0"/>
        <edge id=":13_0" sampledSeconds="60.07" CO_abs="4909.553441" CO2_abs="349076.203638" HC_abs="30.702044" PMx_abs="6.789591" NOx_abs="146.526472" fuel_abs="150.051607" electricity_abs="0"
            CO_normed="34.710676" CO2_normed="2467.978243" HC_normed="0.217064" PMx_normed="0.048003" NOx_normed="1.035946" fuel_normed="1.060869" electricity_normed="0"
            traveltime="2.12" CO_perVeh="173.658796" CO2_perVeh="12347.386391" HC_perVeh="1.085981" PMx_perVeh="0.240159" NOx_perVeh="5.182877" fuel_perVeh="5.307567" electricity_perVeh="0"/>
        <edge id=":13_1" sampledSeconds="542.39" CO_abs="12510.346405" CO2_abs="957831.312529" HC_abs="78.862947" PMx_abs="13.314423" NOx_abs="368.266739" fuel_abs="411.734327" electricity_abs="0"
            CO_normed="124.640452" CO2_normed="9542.863508" HC_normed="0.785711" PMx_normed="0.132651" NOx_normed="3.669038" fuel_normed="4.102105" electricity_normed="0"
            traveltime="1.89" CO_perVeh="43.676594" CO2_perVeh="3344.016888" HC_perVeh="0.275329" PMx_perVeh="0.046484" NOx_perVeh="1.285707" fuel_perVeh="1.437462" electricity_perVeh="0"/>
        <edge id=":132_0" sampledSeconds="41.09" CO_abs="532.082198" CO2_abs="84349.355498" HC_abs="4.320946" PMx_abs="1.230200" NOx_abs="31.182763" fuel_abs="36.258076" electricity_abs="0"
            CO_normed="1004.033920" CO2_normed="159166.411465" HC_normed="8.153584" PMx_normed="2.321376" NOx_normed="58.841570" fuel_normed="68.418636" electricity_normed="0"
            traveltime="6.369538e-03" CO_perVeh="0.082487" CO2_perVeh="13.076406" HC_perVeh="0.000670" PMx_perVeh="0.000191" NOx_perVeh="0.004834" fuel_perVeh="0.005621" electricity_perVeh="0"/>
        <edge id=":133_0" sampledSeconds="44.83" CO_abs="557.655877" CO2_abs="79689.514262" HC_abs="4.344355" PMx_abs="1.014115" NOx_abs="29.154337" fuel_abs="34.255231" electricity_abs="0"