<?xml version="1.0" encoding="UTF-8"?>

<!-- generated on Tue Nov 10 03:20:06 2020 by Eclipse SUMO sumo Version 1.7.0
<configuration xmlns:xsi="http://www.w3.org/2001/XMLSchema-instance" xsi:noNamespaceSchemaLocation="http://sumo.dlr.de/xsd/sumoConfiguration.xsd">

    <input>
        <net-file value="../dataSets/Porto/8AM9AM_Routing_SaoBento/Porto.net.xml"/>
        <route-files value="../results/Porto/8AM9AM_Routing_SaoBento/length-ttime/solution8/Porto.rou.xml"/>
        <additional-files value="moreOutputInfo.xml"/>
    </input>

    <output>
        <emission-output.precision value="6"/>
        <tripinfo-output value="../results/Porto/8AM9AM_Routing_SaoBento/length-ttime/solution8/Porto-tripinfo"/>
    </output>

    <processing>
        <collision.action value="warn"/>
        <time-to-teleport value="-1"/>
    </processing>

    <emissions>
        <device.emissions.probability value="1"/>
    </emissions>

    <gui_only>
        <quit-on-end value="true"/>
        <start value="true"/>
    </gui_only>

</configuration>
-->

<meandata xmlns:xsi="http://www.w3.org/2001/XMLSchema-instance" xsi:noNamespaceSchemaLocation="http://sumo.dlr.de/xsd/meandata_file.xsd">
    <interval begin="0.00" end="8651.00" id="emissions-detector">
        <edge id=":1092997347_0" sampledSeconds="601.75" CO_abs="72985.681938" CO2_abs="3097592.566131" HC_abs="405.579827" PMx_abs="62.578106" NOx_abs="1339.977002" fuel_abs="1331.529865" electricity_abs="0"
            CO_normed="69027.347069" CO2_normed="2929596.483347" HC_normed="383.583447" PMx_normed="59.184219" NOx_normed="1267.304150" fuel_normed="1259.315138" electricity_normed="0"
            traveltime="0.07" CO_perVeh="8.349285" CO2_perVeh="354.352846" HC_perVeh="0.046397" PMx_perVeh="0.007159" NOx_perVeh="0.153288" fuel_perVeh="0.152322" electricity_perVeh="0"/>
        <edge id=":1103427051_0" sampledSeconds="19.28" CO_abs="1679.216619" CO2_abs="94322.933119" HC_abs="9.889246" PMx_abs="1.870424" NOx_abs="40.383142" fuel_abs="40.545226" electricity_abs="0"
            CO_normed="2409.599779" CO2_normed="135349.136129" HC_normed="14.190620" PMx_normed="2.683974" NOx_normed="57.947979" fuel_normed="58.180563" electricity_normed="0"
            traveltime="0.03" CO_perVeh="2.611394" CO2_perVeh="146.684098" HC_perVeh="0.015379" PMx_perVeh="0.002909" NOx_perVeh="0.062801" fuel_perVeh="0.063053" electricity_perVeh="0"/>
        <edge id=":1105984386_0" sampledSeconds="10.37" CO_abs="201.828040" CO2_abs="15998.386653" HC_abs="1.277410" PMx_abs="0.182615" NOx_abs="5.887401" fuel_abs="6.877138" electricity_abs="0"
            CO_normed="8.649649" CO2_normed="685.635266" HC_normed="0.054745" PMx_normed="0.007826" NOx_normed="0.252314" fuel_normed="0.294730" electricity_normed="0"
            traveltime="0.99" CO_perVeh="19.361295" CO2_perVeh="1534.719763" HC_perVeh="0.122542" PMx_perVeh="0.017518" NOx_perVeh="0.564776" fuel_perVeh="0.659721" electricity_perVeh="0"/>
        <edge id=":1105984390_0" sampledSeconds="10.72" CO_abs="0" CO2_abs="0" HC_abs="0" PMx_abs="0" NOx_abs="0" fuel_abs="0" electricity_abs="0"
            CO_normed="0" CO2_normed="0" HC_normed="0" PMx_normed="0" NOx_normed="0" fuel_normed="0" electricity_normed="0"
            traveltime="1.11" CO_perVeh="0" CO2_perVeh="0" HC_perVeh="0" PMx_perVeh="0" NOx_perVeh="0" fuel_perVeh="0" electricity_perVeh="0"/>
        <edge id=":1105984390_1" sampledSeconds="2401.11" CO_abs="63861.137733" CO2_abs="7567666.596585" HC_abs="471.637946" PMx_abs="136.672548" NOx_abs="2882.322807" fuel_abs="3252.990223" electricity_abs="0"
            CO_normed="2023.988843" CO2_normed="239846.537406" HC_normed="14.947901" PMx_normed="4.331644" NOx_normed="91.351163" fuel_normed="103.098945" electricity_normed="0"
            traveltime="0.65" CO_perVeh="17.239257" CO2_perVeh="2042.884872" HC_perVeh="0.127318" PMx_perVeh="0.036895" NOx_perVeh="0.778080" fuel_perVeh="0.878142" electricity_perVeh="0"/>
        <edge id=":1105984395_0" sampledSeconds="4.14" CO_abs="57.458472" CO2_abs="4163.651770" HC_abs="0.357575" PMx_abs="0.062627" NOx_abs="1.636192" fuel_abs="1.789786" electricity_abs="0"
            CO_normed="25.989770" CO2_normed="1883.314115" HC_normed="0.161739" PMx_normed="0.028327" NOx_normed="0.740087" fuel_normed="0.809561" electricity_normed="0"
            traveltime="0.10" CO_perVeh="1.331867" CO2_perVeh="96.511958" HC_perVeh="0.008288" PMx_perVeh="0.001452" NOx_perVeh="0.037926" fuel_perVeh="0.041487" electricity_perVeh="0"/>
        <edge id=":1105984398_0" sampledSeconds="11.18" CO_abs="680.446986" CO2_abs="44676.546627" HC_abs="4.153212" PMx_abs="0.818072" NOx_abs="18.556981" fuel_abs="19.204476" electricity_abs="0"
            CO_normed="23.420932" CO2_normed="1537.763272" HC_normed="0.142953" PMx_normed="0.028158" NOx_normed="0.638730" fuel_normed="0.661017" electricity_normed="0"
            traveltime="1.15" CO_perVeh="69.787954" CO2_perVeh="4582.112731" HC_perVeh="0.425961" PMx_perVeh="0.083903" NOx_perVeh="1.903240" fuel_perVeh="1.969648" electricity_perVeh="0"/>
        <edge id=":1105984398_1" sampledSeconds="646.53" CO_abs="11813.081342" CO2_abs="1377109.845500" HC_abs="85.514012" PMx_abs="19.869449" NOx_abs="521.777142" fuel_abs="591.960663" electricity_abs="0"
            CO_normed="393.583556" CO2_normed="45881.999265" HC_normed="2.849122" PMx_normed="0.662002" NOx_normed="17.384364" fuel_normed="19.722710" electricity_normed="0"
            traveltime="0.95" CO_perVeh="17.402636" CO2_perVeh="2028.712160" HC_perVeh="0.125976" PMx_perVeh="0.029271" NOx_perVeh="0.768665" fuel_perVeh="0.872057" electricity_perVeh="0"/>
        <edge id=":1106006327_0" sampledSeconds="258.93" CO_abs="34793.145199" CO2_abs="1133063.023620" HC_abs="185.099875" PMx_abs="23.628864" NOx_abs="495.957282" fuel_abs="487.063696" electricity_abs="0"
            CO_normed="1634.165947" CO2_normed="53217.753047" HC_normed="8.693779" PMx_normed="1.109802" NOx_normed="23.294143" fuel_normed="22.876429" electricity_normed="0"
            traveltime="2.08" CO_perVeh="279.630325" CO2_perVeh="9106.356428" HC_perVeh="1.487636" PMx_perVeh="0.189904" NOx_perVeh="3.985978" fuel_perVeh="3.914500" electricity_perVeh="0"/>
        <edge id=":1106006327_1" sampledSeconds="683.75" CO_abs="92489.801471" CO2_abs="3087434.044710" HC_abs="493.900940" PMx_abs="64.399062" NOx_abs="1351.163224" fuel_abs="1327.176666" electricity_abs="0"
            CO_normed="3788.229904" CO2_normed="126456.212346" HC_normed="20.229369" PMx_normed="2.637679" NOx_normed="55.341420" fuel_normed="54.358970" electricity_normed="0"
            traveltime="2.30" CO_perVeh="310.465877" CO2_perVeh="10363.768785" HC_perVeh="1.657906" PMx_perVeh="0.216172" NOx_perVeh="4.535528" fuel_perVeh="4.455011" electricity_perVeh="0"/>
        <edge id=":1106006327_2" sampledSeconds="0.00" CO_abs="0" CO2_abs="0" HC_abs="0" PMx_abs="0" NOx_abs="0" fuel_abs="0" electricity_abs="0"
            CO_normed="0" CO2_normed="0" HC_normed="0" PMx_normed="0" NOx_normed="0" fuel_normed="0" electricity_normed="0"/>
        <edge id=":1106006327_3" sampledSeconds="0.00" CO_abs="0" CO2_abs="0" HC_abs="0" PMx_abs="0" NOx_abs="0" fuel_abs="0" electricity_abs="0"
            CO_normed="0" CO2_normed="0" HC_normed="0" PMx_normed="0" NOx_normed="0" fuel_normed="0" electricity_normed="0"/>
        <edge id=":1107381198_0" sampledSeconds="0.00" CO_abs="0" CO2_abs="0" HC_abs="0" PMx_abs="0" NOx_abs="0" fuel_abs="0" electricity_abs="0"
            CO_normed="0" CO2_normed="0" HC_normed="0" PMx_normed="0" NOx_normed="0" fuel_normed="0" electricity_normed="0"/>
        <edge id=":1107381198_1" sampledSeconds="105.25" CO_abs="5120.075853" CO2_abs="202711.978115" HC_abs="27.994862" PMx_abs="3.580314" NOx_abs="84.526666" fuel_abs="87.138751" electricity_abs="0"
            CO_normed="232.350306" CO2_normed="9199.119588" HC_normed="1.270414" PMx_normed="0.162476" NOx_normed="3.835841" fuel_normed="3.954378" electricity_normed="0"
            traveltime="1.58" CO_perVeh="76.657353" CO2_perVeh="3034.987003" HC_perVeh="0.419137" PMx_perVeh="0.053604" NOx_perVeh="1.265526" fuel_perVeh="1.304634" electricity_perVeh="0"/>
        <edge id=":1110338277_0" sampledSeconds="160.84" CO_abs="2415.329299" CO2_abs="305695.186112" HC_abs="18.008777" PMx_abs="4.157138" NOx_abs="113.959143" fuel_abs="131.405530" electricity_abs="0"
            CO_normed="3589.669847" CO2_normed="454325.127568" HC_normed="26.764700" PMx_normed="6.178351" NOx_normed="169.366429" fuel_normed="195.295304" electricity_normed="0"
            traveltime="0.02" CO_perVeh="0.327133" CO2_perVeh="41.403478" HC_perVeh="0.002439" PMx_perVeh="0.000563" NOx_perVeh="0.015435" fuel_perVeh="0.017798" electricity_perVeh="0"/>
        <edge id=":1110338293_0" sampledSeconds="6224.67" CO_abs="568683.801257" CO2_abs="10037578.590005" HC_abs="2824.176136" PMx_abs="238.490607" NOx_abs="4531.900278" fuel_abs="4314.983348" electricity_abs="0"
            CO_normed="788834.309916" CO2_normed="13923354.881524" HC_normed="3917.479323" PMx_normed="330.815777" NOx_normed="6286.302547" fuel_normed="5985.412111" electricity_normed="0"
            traveltime="0.42" CO_perVeh="38.019431" CO2_perVeh="671.063651" HC_perVeh="0.188811" PMx_perVeh="0.015944" NOx_perVeh="0.302981" fuel_perVeh="0.288479" electricity_perVeh="0"/>
        <edge id=":1110338295_0" sampledSeconds="0.00" CO_abs="0" CO2_abs="0" HC_abs="0" PMx_abs="0" NOx_abs="0" fuel_abs="0" electricity_abs="0"
            CO_normed="0" CO2_normed="0" HC_normed="0" PMx_normed="0" NOx_normed="0" fuel_normed="0" electricity_normed="0"/>
        <edge id=":1110673403_0" sampledSeconds="200.38" CO_abs="3335.761223" CO2_abs="411414.415204" HC_abs="24.550299" PMx_abs="5.630533" NOx_abs="153.711700" fuel_abs="176.849782" electricity_abs="0"
            CO_normed="4627.110702" CO2_normed="570682.346832" HC_normed="34.054281" PMx_normed="7.810242" NOx_normed="213.217016" fuel_normed="245.312378" electricity_normed="0"
            traveltime="0.02" CO_perVeh="0.385533" CO2_perVeh="47.549534" HC_perVeh="0.002837" PMx_perVeh="0.000651" NOx_perVeh="0.017765" fuel_perVeh="0.020440" electricity_perVeh="0"/>
        <edge id=":1110673412_0" sampledSeconds="938.65" CO_abs="165962.619576" CO2_abs="11346977.143681" HC_abs="1033.359632" PMx_abs="249.170029" NOx_abs="4874.148065" fuel_abs="4877.506698" electricity_abs="0"
            CO_normed="238148.840865" CO2_normed="16282398.174917" HC_normed="1482.824260" PMx_normed="357.547705" NOx_normed="6994.181671" fuel_normed="6999.001157" electricity_normed="0"
            traveltime="0.02" CO_perVeh="2.743890" CO2_perVeh="187.601623" HC_perVeh="0.017085" PMx_perVeh="0.004120" NOx_perVeh="0.080585" fuel_perVeh="0.080641" electricity_perVeh="0"/>
        <edge id=":1110673414_0" sampledSeconds="0.00" CO_abs="0" CO2_abs="0" HC_abs="0" PMx_abs="0" NOx_abs="0" fuel_abs="0" electricity_abs="0"
            CO_normed="0" CO2_normed="0" HC_normed="0" PMx_normed="0" NOx_normed="0" fuel_normed="0" electricity_normed="0"/>
        <edge id=":1110673414_1" sampledSeconds="6.92" CO_abs="308.550547" CO2_abs="12492.454560" HC_abs="1.693480" PMx_abs="0.219683" NOx_abs="5.201739" fuel_abs="5.370063" electricity_abs="0"
            CO_normed="14.219187" CO2_normed="575.699983" HC_normed="0.078042" PMx_normed="0.010124" NOx_normed="0.239716" fuel_normed="0.247473" electricity_normed="0"
            traveltime="1.51" CO_perVeh="67.397471" CO2_perVeh="2728.758217" HC_perVeh="0.369911" PMx_perVeh="0.047986" NOx_perVeh="1.136229" fuel_perVeh="1.172996" electricity_perVeh="0"/>
        <edge id=":1110673417_0" sampledSeconds="28.96" CO_abs="567.972684" CO2_abs="64873.324539" HC_abs="4.066368" PMx_abs="0.900236" NOx_abs="24.387322" fuel_abs="27.886329" electricity_abs="0"
            CO_normed="844.122753" CO2_normed="96414.934830" HC_normed="6.043449" PMx_normed="1.337934" NOx_normed="36.244512" fuel_normed="41.444748" electricity_normed="0"
            traveltime="0.02" CO_perVeh="0.433106" CO2_perVeh="49.469024" HC_perVeh="0.003101" PMx_perVeh="0.000686" NOx_perVeh="0.018597" fuel_perVeh="0.021265" electricity_perVeh="0"/>
        <edge id=":1110673446_0" sampledSeconds="1313.63" CO_abs="14305.305482" CO2_abs="1148976.856321" HC_abs="92.341428" PMx_abs="21.203129" NOx_abs="470.987013" fuel_abs="493.892193" electricity_abs="0"
            CO_normed="19843.216482" CO2_normed="1593772.081361" HC_normed="128.088908" PMx_normed="29.411346" NOx_normed="653.316860" fuel_normed="685.089160" electricity_normed="0"
            traveltime="0.02" CO_perVeh="0.248176" CO2_perVeh="19.933079" HC_perVeh="0.001602" PMx_perVeh="0.000368" NOx_perVeh="0.008171" fuel_perVeh="0.008568" electricity_perVeh="0"/>
        <edge id=":1110673451_0" sampledSeconds="37.06" CO_abs="398.219900" CO2_abs="28663.001641" HC_abs="2.470577" PMx_abs="0.414584" NOx_abs="11.149286" fuel_abs="12.321100" electricity_abs="0"
            CO_normed="613.755480" CO2_normed="44176.783633" HC_normed="3.807772" PMx_normed="0.638977" NOx_normed="17.183810" fuel_normed="18.989866" electricity_normed="0"
            traveltime="0.03" CO_perVeh="0.293400" CO2_perVeh="21.118295" HC_perVeh="0.001820" PMx_perVeh="0.000305" NOx_perVeh="0.008215" fuel_perVeh="0.009078" electricity_perVeh="0"/>
        <edge id=":1110673464_0" sampledSeconds="1022.71" CO_abs="2996.587987" CO2_abs="237924.319632" HC_abs="19.041113" PMx_abs="3.226288" NOx_abs="90.699648" fuel_abs="102.274435" electricity_abs="0"
            CO_normed="88.313791" CO2_normed="7011.974501" HC_normed="0.561169" PMx_normed="0.095083" NOx_normed="2.673050" fuel_normed="3.014176" electricity_normed="0"
            traveltime="1.21" CO_perVeh="3.553536" CO2_perVeh="282.145134" HC_perVeh="0.022580" PMx_perVeh="0.003826" NOx_perVeh="0.107557" fuel_perVeh="0.121283" electricity_perVeh="0"/>
        <edge id=":1110673464_1" sampledSeconds="2609.59" CO_abs="66778.704948" CO2_abs="7964762.660704" HC_abs="493.966918" PMx_abs="143.154388" NOx_abs="3031.174562" fuel_abs="3423.683886" electricity_abs="0"
            CO_normed="1928.458069" CO2_normed="230009.114955" HC_normed="14.264944" PMx_normed="4.134061" NOx_normed="87.535286" fuel_normed="98.870303" electricity_normed="0"
            traveltime="0.72" CO_perVeh="18.406672" CO2_perVeh="2195.382132" HC_perVeh="0.136155" PMx_perVeh="0.039459" NOx_perVeh="0.835503" fuel_perVeh="0.943693" electricity_perVeh="0"/>
        <edge id=":1110673479_0" sampledSeconds="132.87" CO_abs="6807.449060" CO2_abs="469495.393306" HC_abs="42.039984" PMx_abs="8.278406" NOx_abs="192.383119" fuel_abs="201.815603" electricity_abs="0"
            CO_normed="9442.768319" CO2_normed="651247.800216" HC_normed="58.314624" PMx_normed="11.483166" NOx_normed="266.859026" fuel_normed="279.943040" electricity_normed="0"
            traveltime="0.03" CO_perVeh="1.439156" CO2_perVeh="99.255571" HC_perVeh="0.008888" PMx_perVeh="0.001750" NOx_perVeh="0.040672" fuel_perVeh="0.042666" electricity_perVeh="0"/>
        <edge id=":1110673511_0" sampledSeconds="63.31" CO_abs="1319.348728" CO2_abs="144902.159041" HC_abs="9.329629" PMx_abs="2.024261" NOx_abs="54.720622" fuel_abs="62.287386" electricity_abs="0"
            CO_normed="1830.098803" CO2_normed="200997.099583" HC_normed="12.941342" PMx_normed="2.807898" NOx_normed="75.904226" fuel_normed="86.400259" electricity_normed="0"
            traveltime="0.02" CO_perVeh="0.505666" CO2_perVeh="55.536513" HC_perVeh="0.003576" PMx_perVeh="0.000776" NOx_perVeh="0.020973" fuel_perVeh="0.023873" electricity_perVeh="0"/>
        <edge id=":1110673517_0" sampledSeconds="182.65" CO_abs="7979.978992" CO2_abs="566077.846139" HC_abs="49.616795" PMx_abs="9.751544" NOx_abs="230.241857" fuel_abs="243.332370" electricity_abs="0"
            CO_normed="11069.211410" CO2_normed="785219.529959" HC_normed="68.824592" PMx_normed="13.526590" NOx_normed="319.373747" fuel_normed="337.531897" electricity_normed="0"
            traveltime="0.03" CO_perVeh="1.221799" CO2_perVeh="86.671100" HC_perVeh="0.007597" PMx_perVeh="0.001493" NOx_perVeh="0.035252" fuel_perVeh="0.037256" electricity_perVeh="0"/>
        <edge id=":1110673534_0" sampledSeconds="655.58" CO_abs="4619.045124" CO2_abs="397634.697932" HC_abs="30.116911" PMx_abs="5.416297" NOx_abs="151.283633" fuel_abs="170.927416" electricity_abs="0"
            CO_normed="124.170216" CO2_normed="10689.305926" HC_normed="0.809610" PMx_normed="0.145602" NOx_normed="4.066841" fuel_normed="4.594909" electricity_normed="0"
            traveltime="1.44" CO_perVeh="10.156593" CO2_perVeh="874.339510" HC_perVeh="0.066223" PMx_perVeh="0.011910" NOx_perVeh="0.332650" fuel_perVeh="0.375844" electricity_perVeh="0"/>
        <edge id=":1110673534_1" sampledSeconds="263.69" CO_abs="3947.010128" CO2_abs="475623.709352" HC_abs="28.858300" PMx_abs="6.702073" NOx_abs="178.905615" fuel_abs="204.450454" electricity_abs="0"
            CO_normed="103.171885" CO2_normed="12432.447128" HC_normed="0.754334" PMx_normed="0.175187" NOx_normed="4.676459" fuel_normed="5.344182" electricity_normed="0"
            traveltime="1.22" CO_perVeh="18.313137" CO2_perVeh="2206.774690" HC_perVeh="0.133895" PMx_perVeh="0.031096" NOx_perVeh="0.830077" fuel_perVeh="0.948599" electricity_perVeh="0"/>
        <edge id=":1110673549_0" sampledSeconds="653.84" CO_abs="1409.361221" CO2_abs="123579.354422" HC_abs="9.210360" PMx_abs="1.829842" NOx_abs="47.529397" fuel_abs="53.121659" electricity_abs="0"
            CO_normed="36.701324" CO2_normed="3218.142982" HC_normed="0.239848" PMx_normed="0.047651" NOx_normed="1.237718" fuel_normed="1.383347" electricity_normed="0"
            traveltime="1.30" CO_perVeh="2.800068" CO2_perVeh="245.522994" HC_perVeh="0.018299" PMx_perVeh="0.003635" NOx_perVeh="0.094430" fuel_perVeh="0.105540" electricity_perVeh="0"/>
        <edge id=":1110673549_1" sampledSeconds="3194.37" CO_abs="73038.230483" CO2_abs="9442207.391417" HC_abs="558.054179" PMx_abs="166.714551" NOx_abs="3539.343945" fuel_abs="4058.772187" electricity_abs="0"
            CO_normed="1839.824461" CO2_normed="237848.096954" HC_normed="14.057319" PMx_normed="4.199520" NOx_normed="89.155659" fuel_normed="102.239995" electricity_normed="0"
            traveltime="0.81" CO_perVeh="18.422931" CO2_perVeh="2381.672359" HC_perVeh="0.140762" PMx_perVeh="0.042052" NOx_perVeh="0.892753" fuel_perVeh="1.023772" electricity_perVeh="0"/>
        <edge id=":1110673556_0" sampledSeconds="460.11" CO_abs="56550.452190" CO2_abs="2741959.930431" HC_abs="322.648028" PMx_abs="55.447338" NOx_abs="1182.659098" fuel_abs="1178.651190" electricity_abs="0"
            CO_normed="1092.005929" CO2_normed="52948.055840" HC_normed="6.230429" PMx_normed="1.070704" NOx_normed="22.837496" fuel_normed="22.760102" electricity_normed="0"
            traveltime="2.71" CO_perVeh="333.359478" CO2_perVeh="16163.590147" HC_perVeh="1.901979" PMx_perVeh="0.326857" NOx_perVeh="6.971662" fuel_perVeh="6.948035" electricity_perVeh="0"/>
        <edge id=":1110673556_2" sampledSeconds="173.95" CO_abs="17170.873891" CO2_abs="736698.051651" HC_abs="95.494231" PMx_abs="14.264101" NOx_abs="314.566971" fuel_abs="316.677519" electricity_abs="0"
            CO_normed="346.697409" CO2_normed="14874.682971" HC_normed="1.928126" PMx_normed="0.288007" NOx_normed="6.351427" fuel_normed="6.394041" electricity_normed="0"
            traveltime="3.01" CO_perVeh="296.908946" CO2_perVeh="12738.562021" HC_perVeh="1.651232" PMx_perVeh="0.246647" NOx_perVeh="5.439312" fuel_perVeh="5.475807" electricity_perVeh="0"/>
        <edge id=":1110673556_3" sampledSeconds="334.70" CO_abs="34037.210422" CO2_abs="1184186.468496" HC_abs="182.702117" PMx_abs="23.517289" NOx_abs="510.913826" fuel_abs="509.039645" electricity_abs="0"
            CO_normed="1563.370636" CO2_normed="54391.130459" HC_normed="8.391731" PMx_normed="1.080178" NOx_normed="23.466896" fuel_normed="23.380812" electricity_normed="0"
            traveltime="1.83" CO_perVeh="186.083229" CO2_perVeh="6474.010020" HC_perVeh="0.998842" PMx_perVeh="0.128570" NOx_perVeh="2.793193" fuel_perVeh="2.782947" electricity_perVeh="0"/>
        <edge id=":1110673556_4" sampledSeconds="98.68" CO_abs="11431.406689" CO2_abs="437418.853968" HC_abs="62.322336" PMx_abs="8.655245" NOx_abs="188.277677" fuel_abs="188.029905" electricity_abs="0"
            CO_normed="320.770716" CO2_normed="12274.181363" HC_normed="1.748794" PMx_normed="0.242870" NOx_normed="5.283161" fuel_normed="5.276209" electricity_normed="0"
            traveltime="2.58" CO_perVeh="298.558982" CO2_perVeh="11424.256991" HC_perVeh="1.627699" PMx_perVeh="0.226053" NOx_perVeh="4.917329" fuel_perVeh="4.910858" electricity_perVeh="0"/>
        <edge id=":1110673556_5" sampledSeconds="22.37" CO_abs="1384.131300" CO2_abs="62676.427881" HC_abs="7.754108" PMx_abs="1.093070" NOx_abs="25.986843" fuel_abs="26.942250" electricity_abs="0"
            CO_normed="54.134216" CO2_normed="2451.313164" HC_normed="0.303268" PMx_normed="0.042751" NOx_normed="1.016361" fuel_normed="1.053728" electricity_normed="0"
            traveltime="1.55" CO_perVeh="95.693028" CO2_perVeh="4333.185137" HC_perVeh="0.536086" PMx_perVeh="0.075570" NOx_perVeh="1.796621" fuel_perVeh="1.862674" electricity_perVeh="0"/>
        <edge id=":1110673556_6" sampledSeconds="539.72" CO_abs="63024.906965" CO2_abs="3074083.073081" HC_abs="359.976275" PMx_abs="61.865163" NOx_abs="1323.846421" fuel_abs="1321.416859" electricity_abs="0"
            CO_normed="1247.715845" CO2_normed="60858.196289" HC_normed="7.126517" PMx_normed="1.224756" NOx_normed="26.208435" fuel_normed="26.160336" electricity_normed="0"
            traveltime="2.62" CO_perVeh="305.999858" CO2_perVeh="14925.352984" HC_perVeh="1.747764" PMx_perVeh="0.300369" NOx_perVeh="6.427567" fuel_perVeh="6.415771" electricity_perVeh="0"/>
        <edge id=":1110673561_0" sampledSeconds="102.58" CO_abs="9567.486623" CO2_abs="680997.600221" HC_abs="59.969293" PMx_abs="13.793044" NOx_abs="288.385643" fuel_abs="292.728421" electricity_abs="0"
            CO_normed="237.978713" CO2_normed="16938.924383" HC_normed="1.491658" PMx_normed="0.343084" NOx_normed="7.173216" fuel_normed="7.281237" electricity_normed="0"
            traveltime="1.21" CO_perVeh="112.905628" CO2_perVeh="8036.432659" HC_perVeh="0.707696" PMx_perVeh="0.162771" NOx_perVeh="3.403230" fuel_perVeh="3.454479" electricity_perVeh="0"/>
        <edge id=":1110673561_1" sampledSeconds="5189.28" CO_abs="486184.199931" CO2_abs="33694675.389229" HC_abs="3028.798682" PMx_abs="704.139197" NOx_abs="14404.365361" fuel_abs="14483.713713" electricity_abs="0"
            CO_normed="11790.161288" CO2_normed="817109.353684" HC_normed="73.449579" PMx_normed="17.075657" NOx_normed="349.311621" fuel_normed="351.235850" electricity_normed="0"
            traveltime="1.19" CO_perVeh="111.648629" CO2_perVeh="7737.734602" HC_perVeh="0.695541" PMx_perVeh="0.161700" NOx_perVeh="3.307857" fuel_perVeh="3.326078" electricity_perVeh="0"/>
        <edge id=":1110673562_0" sampledSeconds="300.12" CO_abs="6880.537883" CO2_abs="532156.344212" HC_abs="43.456853" PMx_abs="7.181874" NOx_abs="203.120715" fuel_abs="228.753537" electricity_abs="0"
            CO_normed="10604.612774" CO2_normed="820184.709608" HC_normed="66.977773" PMx_normed="11.069046" NOx_normed="313.059323" fuel_normed="352.565849" electricity_normed="0"
            traveltime="0.03" CO_perVeh="0.616781" CO2_perVeh="47.703258" HC_perVeh="0.003896" PMx_perVeh="0.000644" NOx_perVeh="0.018208" fuel_perVeh="0.020506" electricity_perVeh="0"/>
        <edge id=":1110673564_0" sampledSeconds="27.51" CO_abs="459.858153" CO2_abs="56427.372553" HC_abs="3.379914" PMx_abs="0.778993" NOx_abs="21.116897" fuel_abs="24.255751" electricity_abs="0"
            CO_normed="1913.639293" CO2_normed="234815.097898" HC_normed="14.065068" PMx_normed="3.241676" NOx_normed="87.875195" fuel_normed="100.937121" electricity_normed="0"
            traveltime="7.771047e-03" CO_perVeh="0.129885" CO2_perVeh="15.937685" HC_perVeh="0.000955" PMx_perVeh="0.000220" NOx_perVeh="0.005964" fuel_perVeh="0.006851" electricity_perVeh="0"/>
        <edge id=":1110673588_0" sampledSeconds="63.03" CO_abs="937.760906" CO2_abs="107773.595580" HC_abs="6.730127" PMx_abs="1.444850" NOx_abs="40.263370" fuel_abs="46.327428" electricity_abs="0"
            CO_normed="1560.947527" CO2_normed="179394.263825" HC_normed="11.202615" PMx_normed="2.405022" NOx_normed="67.020289" fuel_normed="77.114201" electricity_normed="0"
            traveltime="0.02" CO_perVeh="0.302504" CO2_perVeh="34.765676" HC_perVeh="0.002171" PMx_perVeh="0.000466" NOx_perVeh="0.012988" fuel_perVeh="0.014944" electricity_perVeh="0"/>
        <edge id=":1110673601_0" sampledSeconds="28.70" CO_abs="493.195693" CO2_abs="59247.551818" HC_abs="3.603239" PMx_abs="0.804013" NOx_abs="22.136031" fuel_abs="25.468054" electricity_abs="0"
            CO_normed="732.988958" CO2_normed="88053.894077" HC_normed="5.355144" PMx_normed="1.194926" NOx_normed="32.898638" fuel_normed="37.850700" electricity_normed="0"
            traveltime="0.02" CO_perVeh="0.376085" CO2_perVeh="45.179102" HC_perVeh="0.002748" PMx_perVeh="0.000613" NOx_perVeh="0.016880" fuel_perVeh="0.019421" electricity_perVeh="0"/>
        <edge id=":1110673617_0" sampledSeconds="853.67" CO_abs="30408.532757" CO2_abs="3164960.372933" HC_abs="214.211375" PMx_abs="59.153697" NOx_abs="1234.631497" fuel_abs="1360.468672" electricity_abs="0"
            CO_normed="42180.371412" CO2_normed="4390188.934828" HC_normed="297.137499" PMx_normed="82.053446" NOx_normed="1712.585593" fuel_normed="1887.137217" electricity_normed="0"
            traveltime="0.02" CO_perVeh="0.538207" CO2_perVeh="56.017339" HC_perVeh="0.003791" PMx_perVeh="0.001047" NOx_perVeh="0.021852" fuel_perVeh="0.024079" electricity_perVeh="0"/>
        <edge id=":1110673621_0" sampledSeconds="26.22" CO_abs="629.202348" CO2_abs="61862.065411" HC_abs="4.309834" PMx_abs="0.960738" NOx_abs="24.065207" fuel_abs="26.591821" electricity_abs="0"
            CO_normed="1047.337164" CO2_normed="102972.343303" HC_normed="7.173923" PMx_normed="1.599194" NOx_normed="40.057680" fuel_normed="44.263348" electricity_normed="0"
            traveltime="0.02" CO_perVeh="0.476668" CO2_perVeh="46.865201" HC_perVeh="0.003265" PMx_perVeh="0.000728" NOx_perVeh="0.018231" fuel_perVeh="0.020145" electricity_perVeh="0"/>
        <edge id=":1110673630_0" sampledSeconds="285.34" CO_abs="1489.655951" CO2_abs="131401.505070" HC_abs="9.782614" PMx_abs="1.743453" NOx_abs="49.680849" fuel_abs="56.484347" electricity_abs="0"
            CO_normed="44.215460" CO2_normed="3900.214699" HC_normed="0.290364" PMx_normed="0.051749" NOx_normed="1.474610" fuel_normed="1.676549" electricity_normed="0"
            traveltime="1.28" CO_perVeh="6.702883" CO2_perVeh="591.256588" HC_perVeh="0.044018" PMx_perVeh="0.007845" NOx_perVeh="0.223545" fuel_perVeh="0.254158" electricity_perVeh="0"/>
        <edge id=":1110673630_1" sampledSeconds="338.33" CO_abs="1461.636820" CO2_abs="117869.365120" HC_abs="9.347260" PMx_abs="1.603189" NOx_abs="44.991601" fuel_abs="50.667441" electricity_abs="0"
            CO_normed="52.890518" CO2_normed="4265.198941" HC_normed="0.338238" PMx_normed="0.058013" NOx_normed="1.628058" fuel_normed="1.833443" electricity_normed="0"
            traveltime="1.08" CO_perVeh="4.659411" CO2_perVeh="375.744338" HC_perVeh="0.029797" PMx_perVeh="0.005111" NOx_perVeh="0.143424" fuel_perVeh="0.161518" electricity_perVeh="0"/>
        <edge id=":1110673650_0" sampledSeconds="200.13" CO_abs="2847.181844" CO2_abs="353955.931581" HC_abs="21.087625" PMx_abs="4.867201" NOx_abs="132.335694" fuel_abs="152.150756" electricity_abs="0"
            CO_normed="3949.391067" CO2_normed="490980.369781" HC_normed="29.251127" PMx_normed="6.751406" NOx_normed="183.565869" fuel_normed="211.051794" electricity_normed="0"
            traveltime="0.02" CO_perVeh="0.329067" CO2_perVeh="40.908909" HC_perVeh="0.002437" PMx_perVeh="0.000563" NOx_perVeh="0.015295" fuel_perVeh="0.017585" electricity_perVeh="0"/>
        <edge id=":1110673655_0" sampledSeconds="20.81" CO_abs="270.090254" CO2_abs="31457.575947" HC_abs="1.946560" PMx_abs="0.419455" NOx_abs="11.727327" fuel_abs="13.522317" electricity_abs="0"
            CO_normed="374.648370" CO2_normed="43635.523219" HC_normed="2.700118" PMx_normed="0.581836" NOx_normed="16.267244" fuel_normed="18.757115" electricity_normed="0"
            traveltime="0.02" CO_perVeh="0.308557" CO2_perVeh="35.937825" HC_perVeh="0.002224" PMx_perVeh="0.000479" NOx_perVeh="0.013398" fuel_perVeh="0.015448" electricity_perVeh="0"/>
        <edge id=":1110673663_0" sampledSeconds="111.25" CO_abs="2188.158026" CO2_abs="241762.141161" HC_abs="15.536694" PMx_abs="3.428999" NOx_abs="91.567023" fuel_abs="103.923368" electricity_abs="0"
            CO_normed="55.590550" CO2_normed="6142.010926" HC_normed="0.394713" PMx_normed="0.087114" NOx_normed="2.326277" fuel_normed="2.640192" electricity_normed="0"
            traveltime="1.31" CO_perVeh="25.700948" CO2_perVeh="2839.610400" HC_perVeh="0.182486" PMx_perVeh="0.040275" NOx_perVeh="1.075498" fuel_perVeh="1.220629" electricity_perVeh="0"/>
        <edge id=":1110673663_1" sampledSeconds="170.38" CO_abs="2678.456553" CO2_abs="330417.520295" HC_abs="19.744443" PMx_abs="4.491408" NOx_abs="123.336203" fuel_abs="142.032662" electricity_abs="0"
            CO_normed="68.129860" CO2_normed="8404.578870" HC_normed="0.502224" PMx_normed="0.114245" NOx_normed="3.137209" fuel_normed="3.612777" electricity_normed="0"
            traveltime="1.27" CO_perVeh="20.027565" CO2_perVeh="2470.623753" HC_perVeh="0.147635" PMx_perVeh="0.033584" NOx_perVeh="0.922219" fuel_perVeh="1.062018" electricity_perVeh="0"/>
        <edge id=":1110673666_0" sampledSeconds="271.88" CO_abs="6375.330912" CO2_abs="503715.005838" HC_abs="40.551924" PMx_abs="6.978833" NOx_abs="193.214746" fuel_abs="216.527329" electricity_abs="0"