<?xml version="1.0" encoding="UTF-8"?>

<!-- generated on Tue Nov 10 05:10:21 2020 by Eclipse SUMO sumo Version 1.7.0
<configuration xmlns:xsi="http://www.w3.org/2001/XMLSchema-instance" xsi:noNamespaceSchemaLocation="http://sumo.dlr.de/xsd/sumoConfiguration.xsd">

    <input>
        <net-file value="../dataSets/Porto/8AM9AM_Routing_SaoBento/Porto.net.xml"/>
        <route-files value="../results/Porto/8AM9AM_Routing_SaoBento/cost_PMx-ttime/solution12/Porto.rou.xml"/>
        <additional-files value="moreOutputInfo.xml"/>
    </input>

    <output>
        <emission-output.precision value="6"/>
        <tripinfo-output value="../results/Porto/8AM9AM_Routing_SaoBento/cost_PMx-ttime/solution12/Porto-tripinfo"/>
    </output>

    <processing>
        <collision.action value="warn"/>
        <time-to-teleport value="-1"/>
    </processing>

    <emissions>
        <device.emissions.probability value="1"/>
    </emissions>

    <gui_only>
        <quit-on-end value="true"/>
        <start value="true"/>
    </gui_only>

</configuration>
-->

<meandata xmlns:xsi="http://www.w3.org/2001/XMLSchema-instance" xsi:noNamespaceSchemaLocation="http://sumo.dlr.de/xsd/meandata_file.xsd">
    <interval begin="0.00" end="8471.00" id="emissions-detector">
        <edge id=":1092997347_0" sampledSeconds="598.31" CO_abs="72440.377278" CO2_abs="3080398.833079" HC_abs="402.702322" PMx_abs="62.248509" NOx_abs="1332.365711" fuel_abs="1324.138857" electricity_abs="0"
            CO_normed="69967.417768" CO2_normed="2975240.606745" HC_normed="388.954926" PMx_normed="60.123478" NOx_normed="1286.881596" fuel_normed="1278.935589" electricity_normed="0"
            traveltime="0.07" CO_perVeh="8.296602" CO2_perVeh="352.798304" HC_perVeh="0.046122" PMx_perVeh="0.007129" NOx_perVeh="0.152596" fuel_perVeh="0.151654" electricity_perVeh="0"/>
        <edge id=":1103427051_0" sampledSeconds="19.07" CO_abs="1523.835205" CO2_abs="87330.922056" HC_abs="9.009912" PMx_abs="1.694839" NOx_abs="37.108574" fuel_abs="37.539706" electricity_abs="0"
            CO_normed="2233.098212" CO2_normed="127978.750790" HC_normed="13.203539" PMx_normed="2.483694" NOx_normed="54.380611" fuel_normed="55.012413" electricity_normed="0"
            traveltime="0.03" CO_perVeh="2.369757" CO2_perVeh="135.810636" HC_perVeh="0.014012" PMx_perVeh="0.002636" NOx_perVeh="0.057709" fuel_perVeh="0.058379" electricity_perVeh="0"/>
        <edge id=":1105984386_0" sampledSeconds="10.40" CO_abs="297.439194" CO2_abs="21468.695329" HC_abs="1.842146" PMx_abs="0.287340" NOx_abs="8.207872" fuel_abs="9.228584" electricity_abs="0"
            CO_normed="13.018075" CO2_normed="939.624305" HC_normed="0.080626" PMx_normed="0.012576" NOx_normed="0.359235" fuel_normed="0.403909" electricity_normed="0"
            traveltime="1.00" CO_perVeh="28.533240" CO2_perVeh="2059.484604" HC_perVeh="0.176716" PMx_perVeh="0.027564" NOx_perVeh="0.787378" fuel_perVeh="0.885295" electricity_perVeh="0"/>
        <edge id=":1105984390_0" sampledSeconds="10.08" CO_abs="5.837981" CO2_abs="2555.484598" HC_abs="0.083450" PMx_abs="0.019880" NOx_abs="0.840341" fuel_abs="1.098508" electricity_abs="0"
            CO_normed="0.197534" CO2_normed="86.467210" HC_normed="0.002824" PMx_normed="0.000673" NOx_normed="0.028434" fuel_normed="0.037169" electricity_normed="0"
            traveltime="1.05" CO_perVeh="0.605142" CO2_perVeh="264.891364" HC_perVeh="0.008650" PMx_perVeh="0.002061" NOx_perVeh="0.087106" fuel_perVeh="0.113867" electricity_perVeh="0"/>
        <edge id=":1105984390_1" sampledSeconds="2396.52" CO_abs="59741.534618" CO2_abs="7313186.544321" HC_abs="446.045028" PMx_abs="130.790146" NOx_abs="2768.699683" fuel_abs="3143.602027" electricity_abs="0"
            CO_normed="1933.657123" CO2_normed="236706.260493" HC_normed="14.437161" PMx_normed="4.233291" NOx_normed="89.614636" fuel_normed="101.749118" electricity_normed="0"
            traveltime="0.65" CO_perVeh="16.130785" CO2_perVeh="1974.630276" HC_perVeh="0.120436" PMx_perVeh="0.035315" NOx_perVeh="0.747575" fuel_perVeh="0.848803" electricity_perVeh="0"/>
        <edge id=":1105984395_0" sampledSeconds="4.25" CO_abs="107.673338" CO2_abs="6660.797227" HC_abs="0.641488" PMx_abs="0.091949" NOx_abs="2.577959" fuel_abs="2.863233" electricity_abs="0"
            CO_normed="49.737983" CO2_normed="3076.849150" HC_normed="0.296325" PMx_normed="0.042474" NOx_normed="1.190847" fuel_normed="1.322625" electricity_normed="0"
            traveltime="0.10" CO_perVeh="2.495829" CO2_perVeh="154.394897" HC_perVeh="0.014869" PMx_perVeh="0.002131" NOx_perVeh="0.059756" fuel_perVeh="0.066369" electricity_perVeh="0"/>
        <edge id=":1105984398_0" sampledSeconds="10.38" CO_abs="642.840454" CO2_abs="43765.613332" HC_abs="3.954925" PMx_abs="0.766902" NOx_abs="17.929965" fuel_abs="18.812941" electricity_abs="0"
            CO_normed="22.596684" CO2_normed="1538.418654" HC_normed="0.139021" PMx_normed="0.026958" NOx_normed="0.630262" fuel_normed="0.661300" electricity_normed="0"
            traveltime="1.15" CO_perVeh="71.442052" CO2_perVeh="4863.889980" HC_perVeh="0.439530" PMx_perVeh="0.085230" NOx_perVeh="1.992646" fuel_perVeh="2.090776" electricity_perVeh="0"/>
        <edge id=":1105984398_1" sampledSeconds="644.06" CO_abs="12297.116325" CO2_abs="1434478.999636" HC_abs="89.031897" PMx_abs="20.749362" NOx_abs="543.651610" fuel_abs="616.621140" electricity_abs="0"
            CO_normed="418.416365" CO2_normed="48808.962398" HC_normed="3.029361" PMx_normed="0.706009" NOx_normed="18.498055" fuel_normed="20.980884" electricity_normed="0"
            traveltime="0.95" CO_perVeh="18.183863" CO2_perVeh="2121.177779" HC_perVeh="0.131652" PMx_perVeh="0.030682" NOx_perVeh="0.803903" fuel_perVeh="0.911804" electricity_perVeh="0"/>
        <edge id=":1106006327_0" sampledSeconds="131.80" CO_abs="17741.974758" CO2_abs="575100.642485" HC_abs="94.320658" PMx_abs="11.985890" NOx_abs="251.672651" fuel_abs="247.215496" electricity_abs="0"
            CO_normed="851.012725" CO2_normed="27585.315148" HC_normed="4.524191" PMx_normed="0.574916" NOx_normed="12.071747" fuel_normed="11.857955" electricity_normed="0"
            traveltime="2.09" CO_perVeh="281.704443" CO2_perVeh="9131.362686" HC_perVeh="1.497609" PMx_perVeh="0.190310" NOx_perVeh="3.996021" fuel_perVeh="3.925251" electricity_perVeh="0"/>
        <edge id=":1106006327_1" sampledSeconds="684.20" CO_abs="92610.235228" CO2_abs="3091131.787765" HC_abs="494.539196" PMx_abs="64.492325" NOx_abs="1352.891394" fuel_abs="1328.766176" electricity_abs="0"
            CO_normed="3873.763461" CO2_normed="129297.947931" HC_normed="20.685919" PMx_normed="2.697629" NOx_normed="56.589655" fuel_normed="55.580529" electricity_normed="0"
            traveltime="2.30" CO_perVeh="310.870144" CO2_perVeh="10376.181213" HC_perVeh="1.660048" PMx_perVeh="0.216485" NOx_perVeh="4.541329" fuel_perVeh="4.460346" electricity_perVeh="0"/>
        <edge id=":1106006327_2" sampledSeconds="0.00" CO_abs="0" CO2_abs="0" HC_abs="0" PMx_abs="0" NOx_abs="0" fuel_abs="0" electricity_abs="0"
            CO_normed="0" CO2_normed="0" HC_normed="0" PMx_normed="0" NOx_normed="0" fuel_normed="0" electricity_normed="0"/>
        <edge id=":1106006327_3" sampledSeconds="0.00" CO_abs="0" CO2_abs="0" HC_abs="0" PMx_abs="0" NOx_abs="0" fuel_abs="0" electricity_abs="0"
            CO_normed="0" CO2_normed="0" HC_normed="0" PMx_normed="0" NOx_normed="0" fuel_normed="0" electricity_normed="0"/>
        <edge id=":1107381198_0" sampledSeconds="0.00" CO_abs="0" CO2_abs="0" HC_abs="0" PMx_abs="0" NOx_abs="0" fuel_abs="0" electricity_abs="0"
            CO_normed="0" CO2_normed="0" HC_normed="0" PMx_normed="0" NOx_normed="0" fuel_normed="0" electricity_normed="0"/>
        <edge id=":1107381198_1" sampledSeconds="102.85" CO_abs="4377.455621" CO2_abs="176035.157406" HC_abs="23.996776" PMx_abs="3.093551" NOx_abs="73.282108" fuel_abs="75.671291" electricity_abs="0"
            CO_normed="202.871124" CO2_normed="8158.266656" HC_normed="1.112119" PMx_normed="0.143369" NOx_normed="3.396225" fuel_normed="3.506950" electricity_normed="0"
            traveltime="1.54" CO_perVeh="65.538904" CO2_perVeh="2635.583845" HC_perVeh="0.359278" PMx_perVeh="0.046316" NOx_perVeh="1.097174" fuel_perVeh="1.132944" electricity_perVeh="0"/>
        <edge id=":1110338277_0" sampledSeconds="159.96" CO_abs="2681.284601" CO2_abs="315847.735475" HC_abs="19.479334" PMx_abs="4.416430" NOx_abs="118.846748" fuel_abs="135.769628" electricity_abs="0"
            CO_normed="4069.609155" CO2_normed="479388.437741" HC_normed="29.565409" PMx_normed="6.703183" NOx_normed="180.383617" fuel_normed="206.068882" electricity_normed="0"
            traveltime="0.02" CO_perVeh="0.363841" CO2_perVeh="42.859465" HC_perVeh="0.002643" PMx_perVeh="0.000599" NOx_perVeh="0.016127" fuel_perVeh="0.018423" electricity_perVeh="0"/>
        <edge id=":1110338293_0" sampledSeconds="5858.06" CO_abs="516564.494715" CO2_abs="9222292.315770" HC_abs="2567.679754" PMx_abs="217.686423" NOx_abs="4155.532527" fuel_abs="3964.502737" electricity_abs="0"
            CO_normed="731764.128979" CO2_normed="13064279.044887" HC_normed="3637.369501" PMx_normed="308.374109" NOx_normed="5886.718253" fuel_normed="5616.105872" electricity_normed="0"
            traveltime="0.39" CO_perVeh="34.598628" CO2_perVeh="617.693758" HC_perVeh="0.171979" PMx_perVeh="0.014580" NOx_perVeh="0.278331" fuel_perVeh="0.265536" electricity_perVeh="0"/>
        <edge id=":1110338295_0" sampledSeconds="0.00" CO_abs="0" CO2_abs="0" HC_abs="0" PMx_abs="0" NOx_abs="0" fuel_abs="0" electricity_abs="0"
            CO_normed="0" CO2_normed="0" HC_normed="0" PMx_normed="0" NOx_normed="0" fuel_normed="0" electricity_normed="0"/>
        <edge id=":1110673403_0" sampledSeconds="201.04" CO_abs="3204.500852" CO2_abs="391236.278799" HC_abs="23.522307" PMx_abs="5.380771" NOx_abs="146.411003" fuel_abs="168.176033" electricity_abs="0"
            CO_normed="4539.488870" CO2_normed="554224.453499" HC_normed="33.321648" PMx_normed="7.622388" NOx_normed="207.405505" fuel_normed="238.237800" electricity_normed="0"
            traveltime="0.02" CO_perVeh="0.370363" CO2_perVeh="45.217430" HC_perVeh="0.002719" PMx_perVeh="0.000622" NOx_perVeh="0.016922" fuel_perVeh="0.019437" electricity_perVeh="0"/>
        <edge id=":1110673412_0" sampledSeconds="951.99" CO_abs="167888.708776" CO2_abs="11479013.268627" HC_abs="1045.354148" PMx_abs="252.021473" NOx_abs="4930.878561" fuel_abs="4934.262563" electricity_abs="0"
            CO_normed="246031.837462" CO2_normed="16821874.129202" HC_normed="1531.910059" PMx_normed="369.323861" NOx_normed="7225.936285" fuel_normed="7230.895357" electricity_normed="0"
            traveltime="0.02" CO_perVeh="2.740120" CO2_perVeh="187.349539" HC_perVeh="0.017061" PMx_perVeh="0.004113" NOx_perVeh="0.080477" fuel_perVeh="0.080532" electricity_perVeh="0"/>
        <edge id=":1110673414_0" sampledSeconds="0.00" CO_abs="0" CO2_abs="0" HC_abs="0" PMx_abs="0" NOx_abs="0" fuel_abs="0" electricity_abs="0"
            CO_normed="0" CO2_normed="0" HC_normed="0" PMx_normed="0" NOx_normed="0" fuel_normed="0" electricity_normed="0"/>
        <edge id=":1110673414_1" sampledSeconds="239.49" CO_abs="16451.117543" CO2_abs="640867.906565" HC_abs="89.816457" PMx_abs="11.921680" NOx_abs="271.086678" fuel_abs="275.485887" electricity_abs="0"
            CO_normed="774.239767" CO2_normed="30161.198315" HC_normed="4.227036" PMx_normed="0.561071" NOx_normed="12.758166" fuel_normed="12.965206" electricity_normed="0"
            traveltime="1.55" CO_perVeh="106.736403" CO2_perVeh="4158.011465" HC_perVeh="0.582738" PMx_perVeh="0.077349" NOx_perVeh="1.758836" fuel_perVeh="1.787378" electricity_perVeh="0"/>
        <edge id=":1110673417_0" sampledSeconds="29.03" CO_abs="463.135503" CO2_abs="47802.505291" HC_abs="3.208867" PMx_abs="0.699264" NOx_abs="18.282743" fuel_abs="20.548273" electricity_abs="0"
            CO_normed="702.939361" CO2_normed="72553.847179" HC_normed="4.870365" PMx_normed="1.061331" NOx_normed="27.749244" fuel_normed="31.187827" electricity_normed="0"
            traveltime="0.02" CO_perVeh="0.353163" CO2_perVeh="36.451705" HC_perVeh="0.002447" PMx_perVeh="0.000533" NOx_perVeh="0.013941" fuel_perVeh="0.015669" electricity_perVeh="0"/>
        <edge id=":1110673446_0" sampledSeconds="1329.41" CO_abs="14206.349271" CO2_abs="1145895.706531" HC_abs="91.873091" PMx_abs="21.056658" NOx_abs="469.141717" fuel_abs="492.567848" electricity_abs="0"
            CO_normed="20124.683184" CO2_normed="1623273.341798" HC_normed="130.147220" PMx_normed="29.828816" NOx_normed="664.585127" fuel_normed="697.770532" electricity_normed="0"
            traveltime="0.02" CO_perVeh="0.243657" CO2_perVeh="19.653611" HC_perVeh="0.001576" PMx_perVeh="0.000361" NOx_perVeh="0.008046" fuel_perVeh="0.008448" electricity_perVeh="0"/>
        <edge id=":1110673451_0" sampledSeconds="36.46" CO_abs="241.858429" CO2_abs="17402.298474" HC_abs="1.497877" PMx_abs="0.238745" NOx_abs="6.684097" fuel_abs="7.480585" electricity_abs="0"
            CO_normed="380.684577" CO2_normed="27391.175342" HC_normed="2.357655" PMx_normed="0.375784" NOx_normed="10.520753" fuel_normed="11.774423" electricity_normed="0"
            traveltime="0.03" CO_perVeh="0.178196" CO2_perVeh="12.821647" HC_perVeh="0.001104" PMx_perVeh="0.000176" NOx_perVeh="0.004925" fuel_perVeh="0.005512" electricity_perVeh="0"/>
        <edge id=":1110673464_0" sampledSeconds="1031.93" CO_abs="3074.439680" CO2_abs="240567.384662" HC_abs="19.464064" PMx_abs="3.139319" NOx_abs="91.012146" fuel_abs="103.410808" electricity_abs="0"
            CO_normed="92.533523" CO2_normed="7240.521860" HC_normed="0.585823" PMx_normed="0.094486" NOx_normed="2.739255" fuel_normed="3.112426" electricity_normed="0"
            traveltime="1.22" CO_perVeh="3.645858" CO2_perVeh="285.279473" HC_perVeh="0.023082" PMx_perVeh="0.003723" NOx_perVeh="0.107928" fuel_perVeh="0.122631" electricity_perVeh="0"/>
        <edge id=":1110673464_1" sampledSeconds="2602.79" CO_abs="64044.883959" CO2_abs="7838452.999295" HC_abs="478.205021" PMx_abs="139.872707" NOx_abs="2969.424432" fuel_abs="3369.389998" electricity_abs="0"
            CO_normed="1888.810035" CO2_normed="231171.449848" HC_normed="14.103210" PMx_normed="4.125122" NOx_normed="87.574187" fuel_normed="99.369961" electricity_normed="0"
            traveltime="0.72" CO_perVeh="17.654623" CO2_perVeh="2160.749244" HC_perVeh="0.131822" PMx_perVeh="0.038557" NOx_perVeh="0.818552" fuel_perVeh="0.928807" electricity_perVeh="0"/>
        <edge id=":1110673479_0" sampledSeconds="135.07" CO_abs="6205.567961" CO2_abs="437214.494569" HC_abs="38.504681" PMx_abs="7.494204" NOx_abs="177.635242" fuel_abs="187.939680" electricity_abs="0"
            CO_normed="8790.793948" CO2_normed="619357.093003" HC_normed="54.545647" PMx_normed="10.616273" NOx_normed="251.637694" fuel_normed="266.234938" electricity_normed="0"
            traveltime="0.03" CO_perVeh="1.311917" CO2_perVeh="92.431374" HC_perVeh="0.008140" PMx_perVeh="0.001584" NOx_perVeh="0.037554" fuel_perVeh="0.039732" electricity_perVeh="0"/>
        <edge id=":1110673511_0" sampledSeconds="63.58" CO_abs="946.529724" CO2_abs="104518.616762" HC_abs="6.714974" PMx_abs="1.415124" NOx_abs="39.217689" fuel_abs="44.928252" electricity_abs="0"
            CO_normed="1340.851929" CO2_normed="148060.843011" HC_normed="9.512418" PMx_normed="2.004661" NOx_normed="55.555692" fuel_normed="63.645263" electricity_normed="0"
            traveltime="0.02" CO_perVeh="0.362771" CO2_perVeh="40.058237" HC_perVeh="0.002574" PMx_perVeh="0.000542" NOx_perVeh="0.015031" fuel_perVeh="0.017219" electricity_perVeh="0"/>
        <edge id=":1110673517_0" sampledSeconds="182.56" CO_abs="8307.538702" CO2_abs="590957.627108" HC_abs="51.685945" PMx_abs="10.181607" NOx_abs="240.317527" fuel_abs="254.027093" electricity_abs="0"
            CO_normed="11768.441084" CO2_normed="837149.276980" HC_normed="73.218197" PMx_normed="14.423242" NOx_normed="340.433281" fuel_normed="359.854222" electricity_normed="0"
            traveltime="0.03" CO_perVeh="1.271956" CO2_perVeh="90.480756" HC_perVeh="0.007914" PMx_perVeh="0.001559" NOx_perVeh="0.036795" fuel_perVeh="0.038894" electricity_perVeh="0"/>
        <edge id=":1110673534_0" sampledSeconds="739.54" CO_abs="4918.148176" CO2_abs="394127.801737" HC_abs="31.408941" PMx_abs="5.436304" NOx_abs="150.923682" fuel_abs="169.420075" electricity_abs="0"
            CO_normed="135.020114" CO2_normed="10820.166251" HC_normed="0.862284" PMx_normed="0.149245" NOx_normed="4.143375" fuel_normed="4.651165" electricity_normed="0"
            traveltime="1.46" CO_perVeh="9.699402" CO2_perVeh="777.285237" HC_perVeh="0.061944" PMx_perVeh="0.010721" NOx_perVeh="0.297646" fuel_perVeh="0.334124" electricity_perVeh="0"/>
        <edge id=":1110673534_1" sampledSeconds="200.12" CO_abs="3170.933129" CO2_abs="393092.412440" HC_abs="23.388595" PMx_abs="5.363074" NOx_abs="146.719352" fuel_abs="168.973939" electricity_abs="0"
            CO_normed="84.647052" CO2_normed="10493.477042" HC_normed="0.624351" PMx_normed="0.143166" NOx_normed="3.916626" fuel_normed="4.510706" electricity_normed="0"
            traveltime="1.22" CO_perVeh="19.382917" CO2_perVeh="2402.850234" HC_perVeh="0.142967" PMx_perVeh="0.032783" NOx_perVeh="0.896849" fuel_perVeh="1.032885" electricity_perVeh="0"/>
        <edge id=":1110673549_0" sampledSeconds="651.25" CO_abs="1145.555665" CO2_abs="111640.431818" HC_abs="7.716271" PMx_abs="1.600455" NOx_abs="42.331619" fuel_abs="47.989604" electricity_abs="0"
            CO_normed="30.465425" CO2_normed="2969.016094" HC_normed="0.205210" PMx_normed="0.042563" NOx_normed="1.125786" fuel_normed="1.276257" electricity_normed="0"
            traveltime="1.29" CO_perVeh="2.275946" CO2_perVeh="221.802918" HC_perVeh="0.015330" PMx_perVeh="0.003180" NOx_perVeh="0.084103" fuel_perVeh="0.095344" electricity_perVeh="0"/>
        <edge id=":1110673549_1" sampledSeconds="3198.35" CO_abs="69614.523001" CO2_abs="9176739.177819" HC_abs="536.149554" PMx_abs="161.199251" NOx_abs="3428.576693" fuel_abs="3944.660288" electricity_abs="0"
            CO_normed="1790.843470" CO2_normed="236072.915914" HC_normed="13.792523" PMx_normed="4.146874" NOx_normed="88.200621" fuel_normed="101.476945" electricity_normed="0"
            traveltime="0.81" CO_perVeh="17.559217" CO2_perVeh="2314.694474" HC_perVeh="0.135236" PMx_perVeh="0.040660" NOx_perVeh="0.864807" fuel_perVeh="0.994981" electricity_perVeh="0"/>
        <edge id=":1110673556_0" sampledSeconds="467.49" CO_abs="58007.752979" CO2_abs="2785538.133377" HC_abs="330.301900" PMx_abs="56.339157" NOx_abs="1201.673613" fuel_abs="1197.384040" electricity_abs="0"
            CO_normed="1143.948800" CO2_normed="54932.536475" HC_normed="6.513758" PMx_normed="1.111043" NOx_normed="23.697748" fuel_normed="23.613155" electricity_normed="0"
            traveltime="2.76" CO_perVeh="341.950126" CO2_perVeh="16420.479463" HC_perVeh="1.947098" PMx_perVeh="0.332114" NOx_perVeh="7.083750" fuel_perVeh="7.058464" electricity_perVeh="0"/>
        <edge id=":1110673556_2" sampledSeconds="173.84" CO_abs="17117.772028" CO2_abs="738843.762661" HC_abs="95.305064" PMx_abs="14.295285" NOx_abs="315.345463" fuel_abs="317.599811" electricity_abs="0"
            CO_normed="352.969407" CO2_normed="15234.999300" HC_normed="1.965196" PMx_normed="0.294770" NOx_normed="6.502441" fuel_normed="6.548926" electricity_normed="0"
            traveltime="3.01" CO_perVeh="295.990739" CO2_perVeh="12775.664431" HC_perVeh="1.647961" PMx_perVeh="0.247186" NOx_perVeh="5.452774" fuel_perVeh="5.491755" electricity_perVeh="0"/>
        <edge id=":1110673556_3" sampledSeconds="363.87" CO_abs="37114.966947" CO2_abs="1291659.488301" HC_abs="199.189860" PMx_abs="25.432962" NOx_abs="555.881844" fuel_abs="555.238797" electricity_abs="0"
            CO_normed="1740.959625" CO2_normed="60588.145530" HC_normed="9.343441" PMx_normed="1.192989" NOx_normed="26.074868" fuel_normed="26.044704" electricity_normed="0"
            traveltime="1.82" CO_perVeh="185.871285" CO2_perVeh="6468.614382" HC_perVeh="0.997540" PMx_perVeh="0.127368" NOx_perVeh="2.783849" fuel_perVeh="2.780629" electricity_perVeh="0"/>
        <edge id=":1110673556_4" sampledSeconds="61.64" CO_abs="7316.236438" CO2_abs="281247.479801" HC_abs="39.933045" PMx_abs="5.641323" NOx_abs="121.557963" fuel_abs="120.897561" electricity_abs="0"
            CO_normed="209.659430" CO2_normed="8059.633763" HC_normed="1.144351" PMx_normed="0.161662" NOx_normed="3.483454" fuel_normed="3.464529" electricity_normed="0"
            traveltime="2.59" CO_perVeh="307.853213" CO2_perVeh="11834.355140" HC_perVeh="1.680306" PMx_perVeh="0.237376" NOx_perVeh="5.114926" fuel_perVeh="5.087138" electricity_perVeh="0"/>
        <edge id=":1110673556_5" sampledSeconds="22.66" CO_abs="1260.817745" CO2_abs="58282.205546" HC_abs="7.093912" PMx_abs="1.027508" NOx_abs="24.227650" fuel_abs="25.053299" electricity_abs="0"
            CO_normed="50.359163" CO2_normed="2327.888470" HC_normed="0.283343" PMx_normed="0.041040" NOx_normed="0.967693" fuel_normed="1.000671" electricity_normed="0"
            traveltime="1.57" CO_perVeh="87.167647" CO2_perVeh="4029.387050" HC_perVeh="0.490443" PMx_perVeh="0.071038" NOx_perVeh="1.674998" fuel_perVeh="1.732080" electricity_perVeh="0"/>
        <edge id=":1110673556_6" sampledSeconds="219.05" CO_abs="26642.083900" CO2_abs="1319923.026016" HC_abs="152.696692" PMx_abs="26.676060" NOx_abs="568.719107" fuel_abs="567.377980" electricity_abs="0"
            CO_normed="538.645826" CO2_normed="26686.014184" HC_normed="3.087200" PMx_normed="0.539333" NOx_normed="11.498281" fuel_normed="11.471167" electricity_normed="0"
            traveltime="2.55" CO_perVeh="310.447699" CO2_perVeh="15380.443487" HC_perVeh="1.779303" PMx_perVeh="0.310844" NOx_perVeh="6.627017" fuel_perVeh="6.611389" electricity_perVeh="0"/>
        <edge id=":1110673561_0" sampledSeconds="106.33" CO_abs="10301.985169" CO2_abs="721399.956429" HC_abs="64.257752" PMx_abs="14.530447" NOx_abs="305.212574" fuel_abs="310.095709" electricity_abs="0"
            CO_normed="261.693417" CO2_normed="18325.169055" HC_normed="1.632290" PMx_normed="0.369106" NOx_normed="7.753081" fuel_normed="7.877123" electricity_normed="0"
            traveltime="1.25" CO_perVeh="121.573424" CO2_perVeh="8513.219677" HC_perVeh="0.758304" PMx_perVeh="0.171473" NOx_perVeh="3.601805" fuel_perVeh="3.659430" electricity_perVeh="0"/>
        <edge id=":1110673561_1" sampledSeconds="5248.32" CO_abs="490899.676433" CO2_abs="34007000.635645" HC_abs="3058.043924" PMx_abs="710.753270" NOx_abs="14539.191983" fuel_abs="14617.967263" electricity_abs="0"
            CO_normed="12157.472094" CO2_normed="842207.035496" HC_normed="75.734586" PMx_normed="17.602299" NOx_normed="360.073207" fuel_normed="362.024132" electricity_normed="0"
            traveltime="1.19" CO_perVeh="111.503114" CO2_perVeh="7724.361312" HC_perVeh="0.694605" PMx_perVeh="0.161441" NOx_perVeh="3.302437" fuel_perVeh="3.320330" electricity_perVeh="0"/>
        <edge id=":1110673562_0" sampledSeconds="302.20" CO_abs="6736.836245" CO2_abs="515643.057798" HC_abs="42.444766" PMx_abs="7.068349" NOx_abs="197.635367" fuel_abs="221.654992" electricity_abs="0"
            CO_normed="10603.763814" CO2_normed="811620.914961" HC_normed="66.807958" PMx_normed="11.125564" NOx_normed="311.077585" fuel_normed="348.884417" electricity_normed="0"
            traveltime="0.03" CO_perVeh="0.603900" CO2_perVeh="46.222991" HC_perVeh="0.003805" PMx_perVeh="0.000634" NOx_perVeh="0.017716" fuel_perVeh="0.019869" electricity_perVeh="0"/>
        <edge id=":1110673564_0" sampledSeconds="27.72" CO_abs="372.003060" CO2_abs="47861.809761" HC_abs="2.775861" PMx_abs="0.600306" NOx_abs="17.537415" fuel_abs="20.573852" electricity_abs="0"
            CO_normed="1580.936154" CO2_normed="203402.803849" HC_normed="11.796835" PMx_normed="2.551176" NOx_normed="74.530392" fuel_normed="87.434620" electricity_normed="0"
            traveltime="7.829395e-03" CO_perVeh="0.105071" CO2_perVeh="13.518376" HC_perVeh="0.000784" PMx_perVeh="0.000170" NOx_perVeh="0.004953" fuel_perVeh="0.005811" electricity_perVeh="0"/>
        <edge id=":1110673588_0" sampledSeconds="62.99" CO_abs="1092.442518" CO2_abs="118974.429099" HC_abs="7.669182" PMx_abs="1.635255" NOx_abs="44.761055" fuel_abs="51.142181" electricity_abs="0"
            CO_normed="1857.062007" CO2_normed="202246.698031" HC_normed="13.036976" PMx_normed="2.779799" NOx_normed="76.090094" fuel_normed="86.937482" electricity_normed="0"
            traveltime="0.02" CO_perVeh="0.352401" CO2_perVeh="38.378848" HC_perVeh="0.002474" PMx_perVeh="0.000528" NOx_perVeh="0.014439" fuel_perVeh="0.016497" electricity_perVeh="0"/>
        <edge id=":1110673601_0" sampledSeconds="28.97" CO_abs="545.336933" CO2_abs="62285.153169" HC_abs="3.921894" PMx_abs="0.874204" NOx_abs="23.491001" fuel_abs="26.773769" electricity_abs="0"
            CO_normed="827.703324" CO2_normed="94535.369162" HC_normed="5.952585" PMx_normed="1.326853" NOx_normed="35.654250" fuel_normed="40.636781" electricity_normed="0"
            traveltime="0.02" CO_perVeh="0.415846" CO2_perVeh="47.495419" HC_perVeh="0.002991" PMx_perVeh="0.000667" NOx_perVeh="0.017913" fuel_perVeh="0.020416" electricity_perVeh="0"/>
        <edge id=":1110673617_0" sampledSeconds="853.89" CO_abs="34206.669780" CO2_abs="3366164.595230" HC_abs="236.577120" PMx_abs="64.179180" NOx_abs="1327.199645" fuel_abs="1446.956049" electricity_abs="0"
            CO_normed="48457.093301" CO2_normed="4768501.374426" HC_normed="335.134628" PMx_normed="90.916085" NOx_normed="1880.108103" fuel_normed="2049.754762" electricity_normed="0"
            traveltime="0.02" CO_perVeh="0.605940" CO2_perVeh="59.628559" HC_perVeh="0.004191" PMx_perVeh="0.001137" NOx_perVeh="0.023510" fuel_perVeh="0.025632" electricity_perVeh="0"/>
        <edge id=":1110673621_0" sampledSeconds="27.18" CO_abs="662.172349" CO2_abs="68466.296990" HC_abs="4.584919" PMx_abs="0.970793" NOx_abs="25.987810" fuel_abs="29.430809" electricity_abs="0"
            CO_normed="1125.638275" CO2_normed="116387.047179" HC_normed="7.793983" PMx_normed="1.650268" NOx_normed="44.177130" fuel_normed="50.029943" electricity_normed="0"
            traveltime="0.02" CO_perVeh="0.501646" CO2_perVeh="51.868407" HC_perVeh="0.003473" PMx_perVeh="0.000735" NOx_perVeh="0.019688" fuel_perVeh="0.022296" electricity_perVeh="0"/>
        <edge id=":1110673630_0" sampledSeconds="286.44" CO_abs="1286.194216" CO2_abs="116200.260513" HC_abs="8.506792" PMx_abs="1.525688" NOx_abs="43.785514" fuel_abs="49.949931" electricity_abs="0"
            CO_normed="38.987587" CO2_normed="3522.304577" HC_normed="0.257861" PMx_normed="0.046247" NOx_normed="1.327242" fuel_normed="1.514100" electricity_normed="0"
            traveltime="1.29" CO_perVeh="5.787383" CO2_perVeh="522.856793" HC_perVeh="0.038277" PMx_perVeh="0.006865" NOx_perVeh="0.197018" fuel_perVeh="0.224756" electricity_perVeh="0"/>
        <edge id=":1110673630_1" sampledSeconds="338.27" CO_abs="1395.221666" CO2_abs="114055.977938" HC_abs="8.942289" PMx_abs="1.468002" NOx_abs="42.996024" fuel_abs="49.028326" electricity_abs="0"
            CO_normed="51.560033" CO2_normed="4214.907337" HC_normed="0.330460" PMx_normed="0.054250" NOx_normed="1.588906" fuel_normed="1.811828" electricity_normed="0"
            traveltime="1.08" CO_perVeh="4.447692" CO2_perVeh="363.588010" HC_perVeh="0.028506" PMx_perVeh="0.004680" NOx_perVeh="0.137063" fuel_perVeh="0.156293" electricity_perVeh="0"/>
        <edge id=":1110673650_0" sampledSeconds="200.27" CO_abs="2884.821338" CO2_abs="380186.901711" HC_abs="21.798469" PMx_abs="5.052345" NOx_abs="140.761222" fuel_abs="163.426484" electricity_abs="0"
            CO_normed="4086.631573" CO2_normed="538571.930178" HC_normed="30.879663" PMx_normed="7.157140" NOx_normed="199.402037" fuel_normed="231.509599" electricity_normed="0"
            traveltime="0.02" CO_perVeh="0.333852" CO2_perVeh="43.997888" HC_perVeh="0.002523" PMx_perVeh="0.000585" NOx_perVeh="0.016290" fuel_perVeh="0.018913" electricity_perVeh="0"/>
        <edge id=":1110673655_0" sampledSeconds="20.44" CO_abs="348.341380" CO2_abs="46882.210374" HC_abs="2.633523" PMx_abs="0.608367" NOx_abs="17.248338" fuel_abs="20.152720" electricity_abs="0"
            CO_normed="493.459634" CO2_normed="66413.236276" HC_normed="3.730643" PMx_normed="0.861811" NOx_normed="24.433958" fuel_normed="28.548299" electricity_normed="0"
            traveltime="0.02" CO_perVeh="0.397953" CO2_perVeh="53.559265" HC_perVeh="0.003009" PMx_perVeh="0.000695" NOx_perVeh="0.019705" fuel_perVeh="0.023023" electricity_perVeh="0"/>
        <edge id=":1110673663_0" sampledSeconds="111.18" CO_abs="1796.592563" CO2_abs="214309.395316" HC_abs="13.098166" PMx_abs="2.909234" NOx_abs="80.097700" fuel_abs="92.122688" electricity_abs="0"
            CO_normed="46.612621" CO2_normed="5560.260418" HC_normed="0.339832" PMx_normed="0.075480" NOx_normed="2.078136" fuel_normed="2.390124" electricity_normed="0"
            traveltime="1.31" CO_perVeh="21.101827" CO2_perVeh="2517.164949" HC_perVeh="0.153844" PMx_perVeh="0.034170" NOx_perVeh="0.940785" fuel_perVeh="1.082024" electricity_perVeh="0"/>
        <edge id=":1110673663_1" sampledSeconds="170.90" CO_abs="2723.772710" CO2_abs="325270.207461" HC_abs="19.792862" PMx_abs="4.494253" NOx_abs="121.965603" fuel_abs="139.819993" electricity_abs="0"
            CO_normed="70.754715" CO2_normed="8449.457121" HC_normed="0.514154" PMx_normed="0.116746" NOx_normed="3.168268" fuel_normed="3.632067" electricity_normed="0"
            traveltime="1.28" CO_perVeh="20.328021" CO2_perVeh="2427.551866" HC_perVeh="0.147718" PMx_perVeh="0.033541" NOx_perVeh="0.910252" fuel_perVeh="1.043503" electricity_perVeh="0"/>