<?xml version="1.0" encoding="UTF-8"?>

<!-- generated on Mon Nov  9 21:32:59 2020 by Eclipse SUMO sumo Version 1.7.0
<configuration xmlns:xsi="http://www.w3.org/2001/XMLSchema-instance" xsi:noNamespaceSchemaLocation="http://sumo.dlr.de/xsd/sumoConfiguration.xsd">

    <input>
        <net-file value="../dataSets/Porto/6AM7AM_Routing_SaoBento/Porto.net.xml"/>
        <route-files value="../results/Porto/6AM7AM_Routing_SaoBento/cost_co-ttime/solution5/Porto.rou.xml"/>
        <additional-files value="moreOutputInfo.xml"/>
    </input>

    <output>
        <emission-output.precision value="6"/>
        <tripinfo-output value="../results/Porto/6AM7AM_Routing_SaoBento/cost_co-ttime/solution5/Porto-tripinfo"/>
    </output>

    <processing>
        <collision.action value="warn"/>
        <time-to-teleport value="-1"/>
    </processing>

    <emissions>
        <device.emissions.probability value="1"/>
    </emissions>

    <gui_only>
        <quit-on-end value="true"/>
        <start value="true"/>
    </gui_only>

</configuration>
-->

<meandata xmlns:xsi="http://www.w3.org/2001/XMLSchema-instance" xsi:noNamespaceSchemaLocation="http://sumo.dlr.de/xsd/meandata_file.xsd">
    <interval begin="0.00" end="4789.00" id="emissions-detector">
        <edge id=":1092997347_0" sampledSeconds="283.92" CO_abs="36016.877932" CO2_abs="1424416.980471" HC_abs="197.663864" PMx_abs="29.093428" NOx_abs="618.497991" fuel_abs="612.300885" electricity_abs="0"
            CO_normed="61533.419652" CO2_normed="2433560.398687" HC_normed="337.700940" PMx_normed="49.704978" NOx_normed="1056.679496" fuel_normed="1046.091985" electricity_normed="0"
            traveltime="0.08" CO_perVeh="9.545083" CO2_perVeh="377.494645" HC_perVeh="0.052384" PMx_perVeh="0.007710" NOx_perVeh="0.163912" fuel_perVeh="0.162270" electricity_perVeh="0"/>
        <edge id=":1103427051_0" sampledSeconds="10.89" CO_abs="821.944152" CO2_abs="46388.127242" HC_abs="4.845260" PMx_abs="0.916439" NOx_abs="19.837998" fuel_abs="19.940191" electricity_abs="0"
            CO_normed="2130.600260" CO2_normed="120244.855719" HC_normed="12.559627" PMx_normed="2.375546" NOx_normed="51.423013" fuel_normed="51.687911" electricity_normed="0"
            traveltime="0.03" CO_perVeh="2.252115" CO2_perVeh="127.102767" HC_perVeh="0.013276" PMx_perVeh="0.002511" NOx_perVeh="0.054356" fuel_perVeh="0.054636" electricity_perVeh="0"/>
        <edge id=":1105984386_0" sampledSeconds="22.78" CO_abs="433.430626" CO2_abs="35729.053839" HC_abs="2.785607" PMx_abs="0.463886" NOx_abs="13.493569" fuel_abs="15.358552" electricity_abs="0"
            CO_normed="33.555061" CO2_normed="2766.049510" HC_normed="0.215654" PMx_normed="0.035913" NOx_normed="1.044637" fuel_normed="1.189019" electricity_normed="0"
            traveltime="0.96" CO_perVeh="18.190748" CO2_perVeh="1499.520716" HC_perVeh="0.116910" PMx_perVeh="0.019469" NOx_perVeh="0.566315" fuel_perVeh="0.644587" electricity_perVeh="0"/>
        <edge id=":1105984390_0" sampledSeconds="23.53" CO_abs="32.052171" CO2_abs="2730.272148" HC_abs="0.207916" PMx_abs="0.034803" NOx_abs="1.026298" fuel_abs="1.173640" electricity_abs="0"
            CO_normed="1.918340" CO2_normed="163.408244" HC_normed="0.012444" PMx_normed="0.002083" NOx_normed="0.061424" fuel_normed="0.070243" electricity_normed="0"
            traveltime="1.07" CO_perVeh="1.453550" CO2_perVeh="123.816501" HC_perVeh="0.009429" PMx_perVeh="0.001578" NOx_perVeh="0.046542" fuel_perVeh="0.053224" electricity_perVeh="0"/>
        <edge id=":1105984390_1" sampledSeconds="645.54" CO_abs="14406.271883" CO2_abs="1871270.118486" HC_abs="110.242994" PMx_abs="33.062655" NOx_abs="699.998002" fuel_abs="804.373315" electricity_abs="0"
            CO_normed="824.792198" CO2_normed="107134.518041" HC_normed="6.311665" PMx_normed="1.892913" NOx_normed="40.076496" fuel_normed="46.052222" electricity_normed="0"
            traveltime="0.64" CO_perVeh="14.192067" CO2_perVeh="1843.446396" HC_perVeh="0.108604" PMx_perVeh="0.032571" NOx_perVeh="0.689590" fuel_perVeh="0.792413" electricity_perVeh="0"/>
        <edge id=":1105984395_0" sampledSeconds="8.93" CO_abs="205.781868" CO2_abs="15747.635667" HC_abs="1.296725" PMx_abs="0.217607" NOx_abs="6.050179" fuel_abs="6.769296" electricity_abs="0"
            CO_normed="168.142284" CO2_normed="12867.233878" HC_normed="1.059541" PMx_normed="0.177805" NOx_normed="4.943540" fuel_normed="5.531123" electricity_normed="0"
            traveltime="0.09" CO_perVeh="2.086853" CO2_perVeh="159.698245" HC_perVeh="0.013150" PMx_perVeh="0.002207" NOx_perVeh="0.061355" fuel_perVeh="0.068648" electricity_perVeh="0"/>
        <edge id=":1105984398_0" sampledSeconds="23.02" CO_abs="1651.377528" CO2_abs="111120.903915" HC_abs="10.148906" PMx_abs="2.052176" NOx_abs="46.187858" fuel_abs="47.765919" electricity_abs="0"
            CO_normed="102.678079" CO2_normed="6909.189882" HC_normed="0.631031" PMx_normed="0.127599" NOx_normed="2.871833" fuel_normed="2.969953" electricity_normed="0"
            traveltime="1.11" CO_perVeh="79.307868" CO2_perVeh="5336.612512" HC_perVeh="0.487404" PMx_perVeh="0.098556" NOx_perVeh="2.218185" fuel_perVeh="2.293972" electricity_perVeh="0"/>
        <edge id=":1105984398_1" sampledSeconds="455.38" CO_abs="8556.676667" CO2_abs="958912.722522" HC_abs="61.030706" PMx_abs="14.024086" NOx_abs="365.018611" fuel_abs="412.195532" electricity_abs="0"
            CO_normed="514.991839" CO2_normed="57713.087172" HC_normed="3.673192" PMx_normed="0.844053" NOx_normed="21.968997" fuel_normed="24.808386" electricity_normed="0"
            traveltime="0.96" CO_perVeh="17.980859" CO2_perVeh="2015.043408" HC_perVeh="0.128249" PMx_perVeh="0.029470" NOx_perVeh="0.767044" fuel_perVeh="0.866181" electricity_perVeh="0"/>
        <edge id=":1106006327_0" sampledSeconds="215.58" CO_abs="29115.350355" CO2_abs="944202.506293" HC_abs="154.800450" PMx_abs="19.704859" NOx_abs="413.343515" fuel_abs="405.879329" electricity_abs="0"
            CO_normed="2470.278749" CO2_normed="80110.435141" HC_normed="13.133974" PMx_normed="1.671850" NOx_normed="35.069944" fuel_normed="34.436648" electricity_normed="0"
            traveltime="2.09" CO_perVeh="282.893399" CO2_perVeh="9174.152243" HC_perVeh="1.504087" PMx_perVeh="0.191458" NOx_perVeh="4.016168" fuel_perVeh="3.943644" electricity_perVeh="0"/>
        <edge id=":1106006327_1" sampledSeconds="161.99" CO_abs="22050.806485" CO2_abs="736635.700366" HC_abs="117.773745" PMx_abs="15.402839" NOx_abs="322.593787" fuel_abs="316.653080" electricity_abs="0"
            CO_normed="1631.505093" CO2_normed="54502.537009" HC_normed="8.713897" PMx_normed="1.139632" NOx_normed="23.868216" fuel_normed="23.428672" electricity_normed="0"
            traveltime="2.30" CO_perVeh="313.039618" CO2_perVeh="10457.493175" HC_perVeh="1.671950" PMx_perVeh="0.218663" NOx_perVeh="4.579635" fuel_perVeh="4.495299" electricity_perVeh="0"/>
        <edge id=":1106006327_2" sampledSeconds="0.00" CO_abs="0" CO2_abs="0" HC_abs="0" PMx_abs="0" NOx_abs="0" fuel_abs="0" electricity_abs="0"
            CO_normed="0" CO2_normed="0" HC_normed="0" PMx_normed="0" NOx_normed="0" fuel_normed="0" electricity_normed="0"/>
        <edge id=":1106006327_3" sampledSeconds="0.00" CO_abs="0" CO2_abs="0" HC_abs="0" PMx_abs="0" NOx_abs="0" fuel_abs="0" electricity_abs="0"
            CO_normed="0" CO2_normed="0" HC_normed="0" PMx_normed="0" NOx_normed="0" fuel_normed="0" electricity_normed="0"/>
        <edge id=":1107381198_0" sampledSeconds="0.00" CO_abs="0" CO2_abs="0" HC_abs="0" PMx_abs="0" NOx_abs="0" fuel_abs="0" electricity_abs="0"
            CO_normed="0" CO2_normed="0" HC_normed="0" PMx_normed="0" NOx_normed="0" fuel_normed="0" electricity_normed="0"/>
        <edge id=":1107381198_1" sampledSeconds="36.31" CO_abs="1441.662582" CO2_abs="57242.132218" HC_abs="7.872938" PMx_abs="0.940439" NOx_abs="23.405972" fuel_abs="24.606485" electricity_abs="0"
            CO_normed="118.182169" CO2_normed="4692.498371" HC_normed="0.645394" PMx_normed="0.077094" NOx_normed="1.918735" fuel_normed="2.017149" electricity_normed="0"
            traveltime="1.49" CO_perVeh="59.357246" CO2_perVeh="2356.817315" HC_perVeh="0.324151" PMx_perVeh="0.038721" NOx_perVeh="0.963689" fuel_perVeh="1.013117" electricity_perVeh="0"/>
        <edge id=":1110338277_0" sampledSeconds="96.46" CO_abs="1499.031517" CO2_abs="184730.739056" HC_abs="11.059578" PMx_abs="2.541772" NOx_abs="69.125986" fuel_abs="79.407971" electricity_abs="0"
            CO_normed="4024.485771" CO2_normed="495951.034067" HC_normed="29.691914" PMx_normed="6.823956" NOx_normed="185.584188" fuel_normed="213.188480" electricity_normed="0"
            traveltime="0.02" CO_perVeh="0.337834" CO2_perVeh="41.632478" HC_perVeh="0.002492" PMx_perVeh="0.000573" NOx_perVeh="0.015579" fuel_perVeh="0.017896" electricity_perVeh="0"/>
        <edge id=":1110338293_0" sampledSeconds="123.42" CO_abs="6243.178103" CO2_abs="424098.199646" HC_abs="38.419043" PMx_abs="7.590074" NOx_abs="174.676111" fuel_abs="182.301220" electricity_abs="0"
            CO_normed="15643.795622" CO2_normed="1062680.809302" HC_normed="96.268222" PMx_normed="19.018769" NOx_normed="437.693326" fuel_normed="456.799883" electricity_normed="0"
            traveltime="0.03" CO_perVeh="1.431977" CO2_perVeh="97.274005" HC_perVeh="0.008812" PMx_perVeh="0.001741" NOx_perVeh="0.040065" fuel_perVeh="0.041814" electricity_perVeh="0"/>
        <edge id=":1110338295_0" sampledSeconds="0.00" CO_abs="0" CO2_abs="0" HC_abs="0" PMx_abs="0" NOx_abs="0" fuel_abs="0" electricity_abs="0"
            CO_normed="0" CO2_normed="0" HC_normed="0" PMx_normed="0" NOx_normed="0" fuel_normed="0" electricity_normed="0"/>
        <edge id=":1110673403_0" sampledSeconds="143.61" CO_abs="2354.122328" CO2_abs="285226.598560" HC_abs="17.240337" PMx_abs="3.973085" NOx_abs="107.071221" fuel_abs="122.606865" electricity_abs="0"
            CO_normed="5898.823958" CO2_normed="714704.360558" HC_normed="43.199842" PMx_normed="9.955528" NOx_normed="268.292891" fuel_normed="307.221212" electricity_normed="0"
            traveltime="0.02" CO_perVeh="0.377970" CO2_perVeh="45.795012" HC_perVeh="0.002768" PMx_perVeh="0.000638" NOx_perVeh="0.017191" fuel_perVeh="0.019685" electricity_perVeh="0"/>
        <edge id=":1110673412_0" sampledSeconds="252.66" CO_abs="44961.550873" CO2_abs="3066796.148858" HC_abs="279.775937" PMx_abs="67.405394" NOx_abs="1318.030318" fuel_abs="1318.264610" electricity_abs="0"
            CO_normed="116546.959730" CO2_normed="7949587.154389" HC_normed="725.220420" PMx_normed="174.724706" NOx_normed="3416.528642" fuel_normed="3417.135961" electricity_normed="0"
            traveltime="0.02" CO_perVeh="2.763899" CO2_perVeh="188.523603" HC_perVeh="0.017199" PMx_perVeh="0.004144" NOx_perVeh="0.081023" fuel_perVeh="0.081037" electricity_perVeh="0"/>
        <edge id=":1110673414_0" sampledSeconds="0.00" CO_abs="0" CO2_abs="0" HC_abs="0" PMx_abs="0" NOx_abs="0" fuel_abs="0" electricity_abs="0"
            CO_normed="0" CO2_normed="0" HC_normed="0" PMx_normed="0" NOx_normed="0" fuel_normed="0" electricity_normed="0"/>
        <edge id=":1110673414_1" sampledSeconds="14.13" CO_abs="1136.196215" CO2_abs="44664.633404" HC_abs="6.214276" PMx_abs="0.838006" NOx_abs="18.936999" fuel_abs="19.199688" electricity_abs="0"
            CO_normed="94.585214" CO2_normed="3718.208053" HC_normed="0.517321" PMx_normed="0.069762" NOx_normed="1.576453" fuel_normed="1.598321" electricity_normed="0"
            traveltime="1.54" CO_perVeh="124.091096" CO2_perVeh="4878.104011" HC_perVeh="0.678700" PMx_perVeh="0.091524" NOx_perVeh="2.068228" fuel_perVeh="2.096918" electricity_perVeh="0"/>
        <edge id=":1110673417_0" sampledSeconds="29.89" CO_abs="370.028505" CO2_abs="45514.057283" HC_abs="2.710396" PMx_abs="0.610567" NOx_abs="16.926392" fuel_abs="19.564600" electricity_abs="0"
            CO_normed="993.424379" CO2_normed="122192.678326" HC_normed="7.276666" PMx_normed="1.639204" NOx_normed="45.442690" fuel_normed="52.525550" electricity_normed="0"
            traveltime="0.02" CO_perVeh="0.274640" CO2_perVeh="33.781143" HC_perVeh="0.002012" PMx_perVeh="0.000453" NOx_perVeh="0.012563" fuel_perVeh="0.014521" electricity_perVeh="0"/>
        <edge id=":1110673446_0" sampledSeconds="333.45" CO_abs="3224.986259" CO2_abs="268053.802167" HC_abs="21.035797" PMx_abs="4.834382" NOx_abs="108.991091" fuel_abs="115.224071" electricity_abs="0"
            CO_normed="8080.984571" CO2_normed="671673.757779" HC_normed="52.710286" PMx_normed="12.113715" NOx_normed="273.103590" fuel_normed="288.721832" electricity_normed="0"
            traveltime="0.02" CO_perVeh="0.219958" CO2_perVeh="18.282420" HC_perVeh="0.001435" PMx_perVeh="0.000330" NOx_perVeh="0.007434" fuel_perVeh="0.007859" electricity_perVeh="0"/>
        <edge id=":1110673451_0" sampledSeconds="37.54" CO_abs="343.202544" CO2_abs="24611.400312" HC_abs="2.127053" PMx_abs="0.356154" NOx_abs="9.580299" fuel_abs="10.579476" electricity_abs="0"
            CO_normed="955.530158" CO2_normed="68522.030521" HC_normed="5.922051" PMx_normed="0.991590" NOx_normed="26.673066" fuel_normed="29.454933" electricity_normed="0"
            traveltime="0.03" CO_perVeh="0.246121" CO2_perVeh="17.649610" HC_perVeh="0.001525" PMx_perVeh="0.000255" NOx_perVeh="0.006870" fuel_perVeh="0.007587" electricity_perVeh="0"/>
        <edge id=":1110673464_0" sampledSeconds="324.97" CO_abs="736.592409" CO2_abs="53691.938898" HC_abs="4.584382" PMx_abs="0.769763" NOx_abs="20.833510" fuel_abs="23.080061" electricity_abs="0"
            CO_normed="39.214818" CO2_normed="2858.459572" HC_normed="0.244064" PMx_normed="0.040981" NOx_normed="1.109138" fuel_normed="1.228740" electricity_normed="0"
            traveltime="1.17" CO_perVeh="2.662684" CO2_perVeh="194.089275" HC_perVeh="0.016572" PMx_perVeh="0.002783" NOx_perVeh="0.075310" fuel_perVeh="0.083431" electricity_perVeh="0"/>
        <edge id=":1110673464_1" sampledSeconds="709.34" CO_abs="17060.227233" CO2_abs="2156967.739689" HC_abs="129.199145" PMx_abs="38.414386" NOx_abs="810.606659" fuel_abs="927.181383" electricity_abs="0"
            CO_normed="889.976408" CO2_normed="112521.971440" HC_normed="6.739898" PMx_normed="2.003953" NOx_normed="42.286705" fuel_normed="48.368029" electricity_normed="0"
            traveltime="0.70" CO_perVeh="16.843637" CO2_perVeh="2129.583724" HC_perVeh="0.127559" PMx_perVeh="0.037927" NOx_perVeh="0.800316" fuel_perVeh="0.915410" electricity_perVeh="0"/>
        <edge id=":1110673479_0" sampledSeconds="133.31" CO_abs="7162.614840" CO2_abs="497118.913152" HC_abs="44.321852" PMx_abs="8.833639" NOx_abs="204.116747" fuel_abs="213.689610" electricity_abs="0"
            CO_normed="17947.667170" CO2_normed="1245651.901822" HC_normed="111.059140" PMx_normed="22.134823" NOx_normed="511.463973" fuel_normed="535.451100" electricity_normed="0"
            traveltime="0.03" CO_perVeh="1.508872" CO2_perVeh="104.722754" HC_perVeh="0.009337" PMx_perVeh="0.001861" NOx_perVeh="0.042999" fuel_perVeh="0.045016" electricity_perVeh="0"/>
        <edge id=":1110673511_0" sampledSeconds="11.84" CO_abs="182.468087" CO2_abs="24488.577575" HC_abs="1.391811" PMx_abs="0.316109" NOx_abs="8.998695" fuel_abs="10.526631" electricity_abs="0"
            CO_normed="457.218009" CO2_normed="61362.065338" HC_normed="3.487519" PMx_normed="0.792089" NOx_normed="22.548411" fuel_normed="26.377024" electricity_normed="0"
            traveltime="0.02" CO_perVeh="0.361323" CO2_perVeh="48.492233" HC_perVeh="0.002756" PMx_perVeh="0.000626" NOx_perVeh="0.017819" fuel_perVeh="0.020845" electricity_perVeh="0"/>
        <edge id=":1110673517_0" sampledSeconds="16.87" CO_abs="834.561607" CO2_abs="58431.472417" HC_abs="5.177119" PMx_abs="1.040746" NOx_abs="23.993247" fuel_abs="25.117118" electricity_abs="0"
            CO_normed="2091.196343" CO2_normed="146414.213616" HC_normed="12.972527" PMx_normed="2.607841" NOx_normed="60.120894" fuel_normed="62.937025" electricity_normed="0"
            traveltime="0.03" CO_perVeh="1.339944" CO2_perVeh="93.815583" HC_perVeh="0.008312" PMx_perVeh="0.001671" NOx_perVeh="0.038523" fuel_perVeh="0.040327" electricity_perVeh="0"/>
        <edge id=":1110673534_0" sampledSeconds="476.27" CO_abs="3351.574232" CO2_abs="282650.206812" HC_abs="21.753662" PMx_abs="3.991368" NOx_abs="108.537865" fuel_abs="121.499971" electricity_abs="0"
            CO_normed="162.755454" CO2_normed="13725.747804" HC_normed="1.056377" PMx_normed="0.193824" NOx_normed="5.270696" fuel_normed="5.900148" electricity_normed="0"
            traveltime="1.43" CO_perVeh="10.096950" CO2_perVeh="851.511788" HC_perVeh="0.065535" PMx_perVeh="0.012024" NOx_perVeh="0.326981" fuel_perVeh="0.366031" electricity_perVeh="0"/>
        <edge id=":1110673534_1" sampledSeconds="183.95" CO_abs="2818.168095" CO2_abs="361126.505700" HC_abs="21.107880" PMx_abs="4.917534" NOx_abs="134.479781" fuel_abs="155.233105" electricity_abs="0"
            CO_normed="133.070410" CO2_normed="17051.946679" HC_normed="0.996688" PMx_normed="0.232200" NOx_normed="6.349969" fuel_normed="7.329915" electricity_normed="0"
            traveltime="1.22" CO_perVeh="18.711624" CO2_perVeh="2397.750351" HC_perVeh="0.140149" PMx_perVeh="0.032651" NOx_perVeh="0.892897" fuel_perVeh="1.030692" electricity_perVeh="0"/>
        <edge id=":1110673549_0" sampledSeconds="59.64" CO_abs="40.511097" CO2_abs="4334.920274" HC_abs="0.282798" PMx_abs="0.052127" NOx_abs="1.593897" fuel_abs="1.863414" electricity_abs="0"
            CO_normed="1.905702" CO2_normed="203.921024" HC_normed="0.013303" PMx_normed="0.002452" NOx_normed="0.074979" fuel_normed="0.087658" electricity_normed="0"
            traveltime="1.24" CO_perVeh="0.844014" CO2_perVeh="90.314371" HC_perVeh="0.005892" PMx_perVeh="0.001086" NOx_perVeh="0.033207" fuel_perVeh="0.038823" electricity_perVeh="0"/>
        <edge id=":1110673549_1" sampledSeconds="638.46" CO_abs="14293.181096" CO2_abs="1842300.721905" HC_abs="109.113662" PMx_abs="32.570167" NOx_abs="690.724982" fuel_abs="791.920631" electricity_abs="0"
            CO_normed="650.393986" CO2_normed="83831.674874" HC_normed="4.965086" PMx_normed="1.482066" NOx_normed="31.430608" fuel_normed="36.035394" electricity_normed="0"
            traveltime="0.80" CO_perVeh="17.992298" CO2_perVeh="2319.093559" HC_perVeh="0.137353" PMx_perVeh="0.040999" NOx_perVeh="0.869487" fuel_perVeh="0.996872" electricity_perVeh="0"/>
        <edge id=":1110673556_0" sampledSeconds="421.44" CO_abs="52325.523217" CO2_abs="2609973.600745" HC_abs="300.322617" PMx_abs="52.746220" NOx_abs="1124.870925" fuel_abs="1121.914748" electricity_abs="0"
            CO_normed="1825.256774" CO2_normed="91042.988235" HC_normed="10.476071" PMx_normed="1.839932" NOx_normed="39.238562" fuel_normed="39.135442" electricity_normed="0"
            traveltime="2.62" CO_perVeh="324.811333" CO2_perVeh="16201.443454" HC_perVeh="1.864256" PMx_perVeh="0.327423" NOx_perVeh="6.982650" fuel_perVeh="6.964300" electricity_perVeh="0"/>
        <edge id=":1110673556_2" sampledSeconds="250.77" CO_abs="24328.210885" CO2_abs="1040465.288141" HC_abs="135.217216" PMx_abs="20.135315" NOx_abs="444.190193" fuel_abs="447.255191" electricity_abs="0"
            CO_normed="887.339559" CO2_normed="37949.605697" HC_normed="4.931870" PMx_normed="0.734409" NOx_normed="16.201254" fuel_normed="16.313046" electricity_normed="0"
            traveltime="3.04" CO_perVeh="295.096536" CO2_perVeh="12620.644562" HC_perVeh="1.640159" PMx_perVeh="0.244238" NOx_perVeh="5.387942" fuel_perVeh="5.425120" electricity_perVeh="0"/>
        <edge id=":1110673556_3" sampledSeconds="411.28" CO_abs="35229.250435" CO2_abs="1257172.728881" HC_abs="189.695485" PMx_abs="24.085560" NOx_abs="536.735593" fuel_abs="540.414411" electricity_abs="0"
            CO_normed="2923.027283" CO2_normed="104309.633048" HC_normed="15.739338" PMx_normed="1.998417" NOx_normed="44.533811" fuel_normed="44.839048" electricity_normed="0"
            traveltime="1.74" CO_perVeh="149.109812" CO2_perVeh="5321.055301" HC_perVeh="0.802897" PMx_perVeh="0.101944" NOx_perVeh="2.271764" fuel_perVeh="2.287335" electricity_perVeh="0"/>
        <edge id=":1110673556_4" sampledSeconds="202.44" CO_abs="20932.509693" CO2_abs="841489.149290" HC_abs="115.066461" PMx_abs="16.446545" NOx_abs="360.793707" fuel_abs="361.723934" electricity_abs="0"
            CO_normed="1061.054798" CO2_normed="42654.517432" HC_normed="5.832641" PMx_normed="0.833664" NOx_normed="18.288390" fuel_normed="18.335542" electricity_normed="0"
            traveltime="2.40" CO_perVeh="247.724973" CO2_perVeh="9958.570675" HC_perVeh="1.361750" PMx_perVeh="0.194636" NOx_perVeh="4.269799" fuel_perVeh="4.280808" electricity_perVeh="0"/>
        <edge id=":1110673556_5" sampledSeconds="25.30" CO_abs="1866.923828" CO2_abs="71952.150263" HC_abs="10.171051" PMx_abs="1.322636" NOx_abs="30.326334" fuel_abs="30.929664" electricity_abs="0"
            CO_normed="131.899344" CO2_normed="5083.464710" HC_normed="0.718591" PMx_normed="0.093445" NOx_normed="2.142575" fuel_normed="2.185200" electricity_normed="0"
            traveltime="1.75" CO_perVeh="129.071277" CO2_perVeh="4974.469648" HC_perVeh="0.703184" PMx_perVeh="0.091441" NOx_perVeh="2.096635" fuel_perVeh="2.138347" electricity_perVeh="0"/>
        <edge id=":1110673556_6" sampledSeconds="540.98" CO_abs="63357.294684" CO2_abs="3151648.333288" HC_abs="363.373018" PMx_abs="63.389022" NOx_abs="1356.337855" fuel_abs="1354.757898" electricity_abs="0"
            CO_normed="2265.800023" CO2_normed="112710.066021" HC_normed="12.995040" PMx_normed="2.266935" NOx_normed="48.505707" fuel_normed="48.449204" electricity_normed="0"
            traveltime="2.57" CO_perVeh="300.460235" CO2_perVeh="14946.108466" HC_perVeh="1.723229" PMx_perVeh="0.300611" NOx_perVeh="6.432181" fuel_perVeh="6.424688" electricity_perVeh="0"/>
        <edge id=":1110673561_0" sampledSeconds="100.98" CO_abs="9694.888712" CO2_abs="692323.047858" HC_abs="60.818903" PMx_abs="14.058655" NOx_abs="293.050935" fuel_abs="297.596644" electricity_abs="0"
            CO_normed="435.616730" CO2_normed="31107.886989" HC_normed="2.732753" PMx_normed="0.631692" NOx_normed="13.167546" fuel_normed="13.371796" electricity_normed="0"
            traveltime="1.19" CO_perVeh="114.409097" CO2_perVeh="8170.083933" HC_perVeh="0.717722" PMx_perVeh="0.165906" NOx_perVeh="3.458285" fuel_perVeh="3.511929" electricity_perVeh="0"/>
        <edge id=":1110673561_1" sampledSeconds="1315.21" CO_abs="120378.919120" CO2_abs="8333390.157364" HC_abs="749.819352" PMx_abs="174.363587" NOx_abs="3564.071152" fuel_abs="3582.121763" electricity_abs="0"
            CO_normed="5273.401273" CO2_normed="365058.189471" HC_normed="32.847099" PMx_normed="7.638291" NOx_normed="156.130139" fuel_normed="156.920876" electricity_normed="0"
            traveltime="1.19" CO_perVeh="109.157772" CO2_perVeh="7556.591359" HC_perVeh="0.679925" PMx_perVeh="0.158110" NOx_perVeh="3.231845" fuel_perVeh="3.248213" electricity_perVeh="0"/>
        <edge id=":1110673562_0" sampledSeconds="103.97" CO_abs="2263.556091" CO2_abs="179550.667089" HC_abs="14.400050" PMx_abs="2.413676" NOx_abs="68.397901" fuel_abs="77.181896" electricity_abs="0"
            CO_normed="6302.098118" CO2_normed="499897.451352" HC_normed="40.092017" PMx_normed="6.720057" NOx_normed="190.430572" fuel_normed="214.886604" electricity_normed="0"
            traveltime="0.03" CO_perVeh="0.576993" CO2_perVeh="45.768465" HC_perVeh="0.003671" PMx_perVeh="0.000615" NOx_perVeh="0.017435" fuel_perVeh="0.019674" electricity_perVeh="0"/>
        <edge id=":1110673564_0" sampledSeconds="28.51" CO_abs="612.262322" CO2_abs="65965.646054" HC_abs="4.311827" PMx_abs="0.950097" NOx_abs="25.108128" fuel_abs="28.355842" electricity_abs="0"
            CO_normed="4602.514843" CO2_normed="495878.734171" HC_normed="32.412985" PMx_normed="7.142096" NOx_normed="188.743496" fuel_normed="213.157304" electricity_normed="0"
            traveltime="7.838723e-03" CO_perVeh="0.168320" CO2_perVeh="18.134886" HC_perVeh="0.001185" PMx_perVeh="0.000261" NOx_perVeh="0.006903" fuel_perVeh="0.007795" electricity_perVeh="0"/>
        <edge id=":1110673588_0" sampledSeconds="11.70" CO_abs="141.797133" CO2_abs="18154.908207" HC_abs="1.062490" PMx_abs="0.233843" NOx_abs="6.699537" fuel_abs="7.804051" electricity_abs="0"
            CO_normed="426.368493" CO2_normed="54589.826306" HC_normed="3.194790" PMx_normed="0.703139" NOx_normed="20.144776" fuel_normed="23.465928" electricity_normed="0"
            traveltime="0.02" CO_perVeh="0.236329" CO2_perVeh="30.258180" HC_perVeh="0.001771" PMx_perVeh="0.000390" NOx_perVeh="0.011166" fuel_perVeh="0.013007" electricity_perVeh="0"/>
        <edge id=":1110673601_0" sampledSeconds="29.56" CO_abs="517.577357" CO2_abs="59240.769603" HC_abs="3.709624" PMx_abs="0.815187" NOx_abs="22.270021" fuel_abs="25.465134" electricity_abs="0"
            CO_normed="1389.552310" CO2_normed="159045.111246" HC_normed="9.959316" PMx_normed="2.188553" NOx_normed="59.788859" fuel_normed="68.366856" electricity_normed="0"
            traveltime="0.02" CO_perVeh="0.384153" CO2_perVeh="43.969292" HC_perVeh="0.002753" PMx_perVeh="0.000605" NOx_perVeh="0.016529" fuel_perVeh="0.018901" electricity_perVeh="0"/>
        <edge id=":1110673617_0" sampledSeconds="238.28" CO_abs="5683.330576" CO2_abs="728643.775554" HC_abs="43.241883" PMx_abs="12.907761" NOx_abs="273.252598" fuel_abs="313.210545" electricity_abs="0"
            CO_normed="14240.961978" CO2_normed="1825793.549103" HC_normed="108.353017" PMx_normed="32.343524" NOx_normed="684.700600" fuel_normed="784.824919" electricity_normed="0"
            traveltime="0.01" CO_perVeh="0.348071" CO2_perVeh="44.625179" HC_perVeh="0.002648" PMx_perVeh="0.000791" NOx_perVeh="0.016735" fuel_perVeh="0.019182" electricity_perVeh="0"/>
        <edge id=":1110673621_0" sampledSeconds="25.75" CO_abs="595.671718" CO2_abs="65567.612720" HC_abs="4.229284" PMx_abs="0.947428" NOx_abs="24.940798" fuel_abs="28.184733" electricity_abs="0"
            CO_normed="1791.119803" CO2_normed="197154.650901" HC_normed="12.716995" PMx_normed="2.848813" NOx_normed="74.994255" fuel_normed="84.748414" electricity_normed="0"
            traveltime="0.02" CO_perVeh="0.451266" CO2_perVeh="49.672434" HC_perVeh="0.003204" PMx_perVeh="0.000718" NOx_perVeh="0.018895" fuel_perVeh="0.021352" electricity_perVeh="0"/>
        <edge id=":1110673630_0" sampledSeconds="54.36" CO_abs="325.672946" CO2_abs="26945.751857" HC_abs="2.105247" PMx_abs="0.398873" NOx_abs="10.464821" fuel_abs="11.582874" electricity_abs="0"
            CO_normed="17.461893" CO2_normed="1444.774128" HC_normed="0.112879" PMx_normed="0.021387" NOx_normed="0.561102" fuel_normed="0.621049" electricity_normed="0"
            traveltime="1.27" CO_perVeh="7.601821" CO2_perVeh="628.964651" HC_perVeh="0.049140" PMx_perVeh="0.009310" NOx_perVeh="0.244269" fuel_perVeh="0.270366" electricity_perVeh="0"/>
        <edge id=":1110673630_1" sampledSeconds="7.29" CO_abs="38.838859" CO2_abs="3539.991958" HC_abs="0.257764" PMx_abs="0.047313" NOx_abs="1.340676" fuel_abs="1.521702" electricity_abs="0"
            CO_normed="2.538787" CO2_normed="231.399331" HC_normed="0.016849" PMx_normed="0.003093" NOx_normed="0.087636" fuel_normed="0.099469" electricity_normed="0"
            traveltime="1.03" CO_perVeh="5.497192" CO2_perVeh="501.045016" HC_perVeh="0.036484" PMx_perVeh="0.006697" NOx_perVeh="0.189757" fuel_perVeh="0.215379" electricity_perVeh="0"/>
        <edge id=":1110673650_0" sampledSeconds="143.89" CO_abs="2051.724811" CO2_abs="260982.647379" HC_abs="15.297039" PMx_abs="3.555398" NOx_abs="97.270896" fuel_abs="112.185468" electricity_abs="0"
            CO_normed="5141.093700" CO2_normed="653955.265933" HC_normed="38.330438" PMx_normed="8.908911" NOx_normed="243.735801" fuel_normed="281.107875" electricity_normed="0"
            traveltime="0.02" CO_perVeh="0.329418" CO2_perVeh="41.902486" HC_perVeh="0.002456" PMx_perVeh="0.000571" NOx_perVeh="0.015617" fuel_perVeh="0.018012" electricity_perVeh="0"/>
        <edge id=":1110673655_0" sampledSeconds="45.24" CO_abs="652.268286" CO2_abs="78172.695558" HC_abs="4.761890" PMx_abs="1.042379" NOx_abs="29.102781" fuel_abs="33.603213" electricity_abs="0"
            CO_normed="1634.416253" CO2_normed="195880.632010" HC_normed="11.932070" PMx_normed="2.611933" NOx_normed="72.924070" fuel_normed="84.200994" electricity_normed="0"
            traveltime="0.02" CO_perVeh="0.349087" CO2_perVeh="41.837140" HC_perVeh="0.002549" PMx_perVeh="0.000558" NOx_perVeh="0.015575" fuel_perVeh="0.017984" electricity_perVeh="0"/>
        <edge id=":1110673663_0" sampledSeconds="108.19" CO_abs="1715.886537" CO2_abs="220953.104507" HC_abs="12.804529" PMx_abs="2.925178" NOx_abs="81.776867" fuel_abs="94.978558" electricity_abs="0"
            CO_normed="78.746695" CO2_normed="10140.138206" HC_normed="0.587635" PMx_normed="0.134244" NOx_normed="3.752963" fuel_normed="4.358824" electricity_normed="0"
            traveltime="1.27" CO_perVeh="20.153897" CO2_perVeh="2595.198448" HC_perVeh="0.150395" PMx_perVeh="0.034358" NOx_perVeh="0.960508" fuel_perVeh="1.115568" electricity_perVeh="0"/>
        <edge id=":1110673663_1" sampledSeconds="154.50" CO_abs="2593.652122" CO2_abs="317464.248356" HC_abs="19.084539" PMx_abs="4.422225" NOx_abs="119.080684" fuel_abs="136.464458" electricity_abs="0"
            CO_normed="119.175255" CO2_normed="14587.107656" HC_normed="0.876912" PMx_normed="0.203196" NOx_normed="5.471617" fuel_normed="6.270381" electricity_normed="0"
            traveltime="1.25" CO_perVeh="20.975190" CO2_perVeh="2567.373235" HC_perVeh="0.154339" PMx_perVeh="0.035763" NOx_perVeh="0.963020" fuel_perVeh="1.103605" electricity_perVeh="0"/>
        <edge id=":1110673666_0" sampledSeconds="190.67" CO_abs="4152.213380" CO2_abs="336976.266268" HC_abs="26.607435" PMx_abs="4.601035" NOx_abs="128.685802" fuel_abs="144.852904" electricity_abs="0"