<?xml version="1.0" encoding="UTF-8"?>

<!-- generated on Mon Nov  9 21:42:10 2020 by Eclipse SUMO sumo Version 1.7.0
<configuration xmlns:xsi="http://www.w3.org/2001/XMLSchema-instance" xsi:noNamespaceSchemaLocation="http://sumo.dlr.de/xsd/sumoConfiguration.xsd">

    <input>
        <net-file value="../dataSets/Porto/6AM7AM_Routing_SaoBento/Porto.net.xml"/>
        <route-files value="../results/Porto/6AM7AM_Routing_SaoBento/cost_co2-ttime/solution1/Porto.rou.xml"/>
        <additional-files value="moreOutputInfo.xml"/>
    </input>

    <output>
        <emission-output.precision value="6"/>
        <tripinfo-output value="../results/Porto/6AM7AM_Routing_SaoBento/cost_co2-ttime/solution1/Porto-tripinfo"/>
    </output>

    <processing>
        <collision.action value="warn"/>
        <time-to-teleport value="-1"/>
    </processing>

    <emissions>
        <device.emissions.probability value="1"/>
    </emissions>

    <gui_only>
        <quit-on-end value="true"/>
        <start value="true"/>
    </gui_only>

</configuration>
-->

<meandata xmlns:xsi="http://www.w3.org/2001/XMLSchema-instance" xsi:noNamespaceSchemaLocation="http://sumo.dlr.de/xsd/meandata_file.xsd">
    <interval begin="0.00" end="4700.00" id="emissions-detector">
        <edge id=":1092997347_0" sampledSeconds="269.60" CO_abs="34689.157006" CO2_abs="1371899.290271" HC_abs="190.390338" PMx_abs="28.096567" NOx_abs="596.270057" fuel_abs="589.725469" electricity_abs="0"
            CO_normed="60387.313937" CO2_normed="2388219.267396" HC_normed="331.433857" PMx_normed="48.910851" NOx_normed="1037.994296" fuel_normed="1026.601397" electricity_normed="0"
            traveltime="0.08" CO_perVeh="9.740141" CO2_perVeh="385.206600" HC_perVeh="0.053458" PMx_perVeh="0.007889" NOx_perVeh="0.167423" fuel_perVeh="0.165585" electricity_perVeh="0"/>
        <edge id=":1103427051_0" sampledSeconds="11.02" CO_abs="804.578750" CO2_abs="44759.163816" HC_abs="4.730483" PMx_abs="0.902355" NOx_abs="19.266724" fuel_abs="19.239953" electricity_abs="0"
            CO_normed="2125.079604" CO2_normed="118219.361510" HC_normed="12.494305" PMx_normed="2.383330" NOx_normed="50.887900" fuel_normed="50.817191" electricity_normed="0"
            traveltime="0.03" CO_perVeh="2.204534" CO2_perVeh="122.639432" HC_perVeh="0.012961" PMx_perVeh="0.002472" NOx_perVeh="0.052791" fuel_perVeh="0.052717" electricity_perVeh="0"/>
        <edge id=":1105984386_0" sampledSeconds="23.03" CO_abs="489.544444" CO2_abs="38395.801674" HC_abs="3.099216" PMx_abs="0.491046" NOx_abs="14.475157" fuel_abs="16.504914" electricity_abs="0"
            CO_normed="38.616912" CO2_normed="3028.789930" HC_normed="0.244477" PMx_normed="0.038735" NOx_normed="1.141849" fuel_normed="1.301963" electricity_normed="0"
            traveltime="0.97" CO_perVeh="20.545801" CO2_perVeh="1611.442057" HC_perVeh="0.130072" PMx_perVeh="0.020609" NOx_perVeh="0.607511" fuel_perVeh="0.692698" electricity_perVeh="0"/>
        <edge id=":1105984390_0" sampledSeconds="23.30" CO_abs="22.020714" CO2_abs="1853.241151" HC_abs="0.142204" PMx_abs="0.023042" NOx_abs="0.693387" fuel_abs="0.796639" electricity_abs="0"
            CO_normed="1.342908" CO2_normed="113.017823" HC_normed="0.008672" PMx_normed="0.001405" NOx_normed="0.042285" fuel_normed="0.048582" electricity_normed="0"
            traveltime="1.06" CO_perVeh="0.998629" CO2_perVeh="84.043576" HC_perVeh="0.006449" PMx_perVeh="0.001045" NOx_perVeh="0.031445" fuel_perVeh="0.036127" electricity_perVeh="0"/>
        <edge id=":1105984390_1" sampledSeconds="646.92" CO_abs="14509.288417" CO2_abs="1872678.591761" HC_abs="110.891131" PMx_abs="33.170493" NOx_abs="701.726669" fuel_abs="804.978662" electricity_abs="0"
            CO_normed="846.420222" CO2_normed="109245.400825" HC_normed="6.468994" PMx_normed="1.935048" NOx_normed="40.936235" fuel_normed="46.959589" electricity_normed="0"
            traveltime="0.64" CO_perVeh="14.279875" CO2_perVeh="1843.068778" HC_perVeh="0.109138" PMx_perVeh="0.032646" NOx_perVeh="0.690631" fuel_perVeh="0.792251" electricity_perVeh="0"/>
        <edge id=":1105984395_0" sampledSeconds="9.05" CO_abs="194.078581" CO2_abs="14563.793480" HC_abs="1.217347" PMx_abs="0.206979" NOx_abs="5.634831" fuel_abs="6.260403" electricity_abs="0"
            CO_normed="161.582537" CO2_normed="12125.267467" HC_normed="1.013517" PMx_normed="0.172323" NOx_normed="4.691349" fuel_normed="5.212176" electricity_normed="0"
            traveltime="0.09" CO_perVeh="1.968169" CO2_perVeh="147.692791" HC_perVeh="0.012345" PMx_perVeh="0.002099" NOx_perVeh="0.057143" fuel_perVeh="0.063487" electricity_perVeh="0"/>
        <edge id=":1105984398_0" sampledSeconds="23.06" CO_abs="1447.364155" CO2_abs="100648.630102" HC_abs="8.963644" PMx_abs="1.802041" NOx_abs="41.403846" fuel_abs="43.264408" electricity_abs="0"
            CO_normed="91.697217" CO2_normed="6376.556471" HC_normed="0.567888" PMx_normed="0.114168" NOx_normed="2.623125" fuel_normed="2.741000" electricity_normed="0"
            traveltime="1.10" CO_perVeh="69.045066" CO2_perVeh="4801.342722" HC_perVeh="0.427602" PMx_perVeh="0.085965" NOx_perVeh="1.975129" fuel_perVeh="2.063886" electricity_perVeh="0"/>
        <edge id=":1105984398_1" sampledSeconds="452.57" CO_abs="7931.373094" CO2_abs="904118.481959" HC_abs="56.913852" PMx_abs="13.127851" NOx_abs="343.340917" fuel_abs="388.641884" electricity_abs="0"
            CO_normed="486.396660" CO2_normed="55445.659252" HC_normed="3.490279" PMx_normed="0.805074" NOx_normed="21.055607" fuel_normed="23.833719" electricity_normed="0"
            traveltime="0.96" CO_perVeh="16.779373" CO2_perVeh="1912.725684" HC_perVeh="0.120405" PMx_perVeh="0.027773" NOx_perVeh="0.726362" fuel_perVeh="0.822199" electricity_perVeh="0"/>
        <edge id=":1106006327_0" sampledSeconds="358.29" CO_abs="48085.827496" CO2_abs="1554040.412450" HC_abs="255.522740" PMx_abs="32.390038" NOx_abs="680.070694" fuel_abs="668.027322" electricity_abs="0"
            CO_normed="4157.076485" CO2_normed="134348.626022" HC_normed="22.090242" PMx_normed="2.800157" NOx_normed="58.792913" fuel_normed="57.751750" electricity_normed="0"
            traveltime="2.10" CO_perVeh="282.013379" CO2_perVeh="9114.123859" HC_perVeh="1.498588" PMx_perVeh="0.189961" NOx_perVeh="3.988473" fuel_perVeh="3.917841" electricity_perVeh="0"/>
        <edge id=":1106006327_1" sampledSeconds="163.80" CO_abs="22091.519255" CO2_abs="730123.580832" HC_abs="117.788777" PMx_abs="15.218529" NOx_abs="319.453330" fuel_abs="313.854028" electricity_abs="0"
            CO_normed="1665.468867" CO2_normed="55043.660810" HC_normed="8.880038" PMx_normed="1.147317" NOx_normed="24.083431" fuel_normed="23.661302" electricity_normed="0"
            traveltime="2.33" CO_perVeh="313.617588" CO2_perVeh="10365.045245" HC_perVeh="1.672164" PMx_perVeh="0.216047" NOx_perVeh="4.535052" fuel_perVeh="4.455562" electricity_perVeh="0"/>
        <edge id=":1106006327_2" sampledSeconds="0.00" CO_abs="0" CO2_abs="0" HC_abs="0" PMx_abs="0" NOx_abs="0" fuel_abs="0" electricity_abs="0"
            CO_normed="0" CO2_normed="0" HC_normed="0" PMx_normed="0" NOx_normed="0" fuel_normed="0" electricity_normed="0"/>
        <edge id=":1106006327_3" sampledSeconds="0.00" CO_abs="0" CO2_abs="0" HC_abs="0" PMx_abs="0" NOx_abs="0" fuel_abs="0" electricity_abs="0"
            CO_normed="0" CO2_normed="0" HC_normed="0" PMx_normed="0" NOx_normed="0" fuel_normed="0" electricity_normed="0"/>
        <edge id=":1107381198_0" sampledSeconds="0.00" CO_abs="0" CO2_abs="0" HC_abs="0" PMx_abs="0" NOx_abs="0" fuel_abs="0" electricity_abs="0"
            CO_normed="0" CO2_normed="0" HC_normed="0" PMx_normed="0" NOx_normed="0" fuel_normed="0" electricity_normed="0"/>
        <edge id=":1107381198_1" sampledSeconds="36.32" CO_abs="1580.948276" CO2_abs="64136.572229" HC_abs="8.675553" PMx_abs="1.103773" NOx_abs="26.542679" fuel_abs="27.570069" electricity_abs="0"
            CO_normed="132.054428" CO2_normed="5357.239380" HC_normed="0.724657" PMx_normed="0.092197" NOx_normed="2.217073" fuel_normed="2.302890" electricity_normed="0"
            traveltime="1.50" CO_perVeh="65.092918" CO2_perVeh="2640.716777" HC_perVeh="0.357201" PMx_perVeh="0.045446" NOx_perVeh="1.092851" fuel_perVeh="1.135152" electricity_perVeh="0"/>
        <edge id=":1110338277_0" sampledSeconds="96.58" CO_abs="1613.869743" CO2_abs="197921.148888" HC_abs="11.898050" PMx_abs="2.729327" NOx_abs="74.115045" fuel_abs="85.077972" electricity_abs="0"
            CO_normed="4414.841241" CO2_normed="541425.635257" HC_normed="32.547857" PMx_normed="7.466244" NOx_normed="202.746324" fuel_normed="232.736093" electricity_normed="0"
            traveltime="0.02" CO_perVeh="0.363715" CO2_perVeh="44.605180" HC_perVeh="0.002681" PMx_perVeh="0.000615" NOx_perVeh="0.016703" fuel_perVeh="0.019174" electricity_perVeh="0"/>
        <edge id=":1110338293_0" sampledSeconds="123.24" CO_abs="6702.731541" CO2_abs="461438.247511" HC_abs="41.364904" PMx_abs="8.100616" NOx_abs="188.949230" fuel_abs="198.352242" electricity_abs="0"
            CO_normed="17113.357125" CO2_normed="1178140.206411" HC_normed="105.612520" PMx_normed="20.682424" NOx_normed="482.423565" fuel_normed="506.431256" electricity_normed="0"
            traveltime="0.03" CO_perVeh="1.537383" CO2_perVeh="105.838506" HC_perVeh="0.009488" PMx_perVeh="0.001858" NOx_perVeh="0.043339" fuel_perVeh="0.045495" electricity_perVeh="0"/>
        <edge id=":1110338295_0" sampledSeconds="0.00" CO_abs="0" CO2_abs="0" HC_abs="0" PMx_abs="0" NOx_abs="0" fuel_abs="0" electricity_abs="0"
            CO_normed="0" CO2_normed="0" HC_normed="0" PMx_normed="0" NOx_normed="0" fuel_normed="0" electricity_normed="0"/>
        <edge id=":1110673403_0" sampledSeconds="143.53" CO_abs="2223.418611" CO2_abs="273148.734589" HC_abs="16.340811" PMx_abs="3.720100" NOx_abs="102.021514" fuel_abs="117.415199" electricity_abs="0"
            CO_normed="5676.813474" CO2_normed="697401.024482" HC_normed="41.721219" PMx_normed="9.498128" NOx_normed="260.480460" fuel_normed="299.783487" electricity_normed="0"
            traveltime="0.02" CO_perVeh="0.356985" CO2_perVeh="43.855831" HC_perVeh="0.002624" PMx_perVeh="0.000597" NOx_perVeh="0.016380" fuel_perVeh="0.018852" electricity_perVeh="0"/>
        <edge id=":1110673412_0" sampledSeconds="252.14" CO_abs="44977.660473" CO2_abs="3069225.651707" HC_abs="279.902676" PMx_abs="67.434047" NOx_abs="1319.155777" fuel_abs="1319.308929" electricity_abs="0"
            CO_normed="118796.461997" CO2_normed="8106538.771933" HC_normed="739.288065" PMx_normed="178.109001" NOx_normed="3484.197211" fuel_normed="3484.601721" electricity_normed="0"
            traveltime="0.02" CO_perVeh="2.774560" CO2_perVeh="189.332870" HC_perVeh="0.017266" PMx_perVeh="0.004160" NOx_perVeh="0.081375" fuel_perVeh="0.081385" electricity_perVeh="0"/>
        <edge id=":1110673414_0" sampledSeconds="0.00" CO_abs="0" CO2_abs="0" HC_abs="0" PMx_abs="0" NOx_abs="0" fuel_abs="0" electricity_abs="0"
            CO_normed="0" CO2_normed="0" HC_normed="0" PMx_normed="0" NOx_normed="0" fuel_normed="0" electricity_normed="0"/>
        <edge id=":1110673414_1" sampledSeconds="135.68" CO_abs="9373.001094" CO2_abs="346417.243367" HC_abs="50.705323" PMx_abs="6.359531" NOx_abs="146.060724" fuel_abs="148.912751" electricity_abs="0"
            CO_normed="795.052047" CO2_normed="29384.370682" HC_normed="4.301010" PMx_normed="0.539439" NOx_normed="12.389402" fuel_normed="12.631321" electricity_normed="0"
            traveltime="1.62" CO_perVeh="111.674627" CO2_perVeh="4127.388452" HC_perVeh="0.604129" PMx_perVeh="0.075771" NOx_perVeh="1.740241" fuel_perVeh="1.774221" electricity_perVeh="0"/>
        <edge id=":1110673417_0" sampledSeconds="29.58" CO_abs="492.249767" CO2_abs="56003.786870" HC_abs="3.521759" PMx_abs="0.760425" NOx_abs="21.005305" fuel_abs="24.073708" electricity_abs="0"
            CO_normed="1346.579910" CO2_normed="153201.848580" HC_normed="9.633992" PMx_normed="2.080190" NOx_normed="57.461320" fuel_normed="65.855127" electricity_normed="0"
            traveltime="0.02" CO_perVeh="0.365354" CO2_perVeh="41.566760" HC_perVeh="0.002614" PMx_perVeh="0.000564" NOx_perVeh="0.015590" fuel_perVeh="0.017868" electricity_perVeh="0"/>
        <edge id=":1110673446_0" sampledSeconds="334.65" CO_abs="3420.453157" CO2_abs="278019.510708" HC_abs="22.168285" PMx_abs="5.040701" NOx_abs="113.400044" fuel_abs="119.507879" electricity_abs="0"
            CO_normed="8733.071890" CO2_normed="709837.048616" HC_normed="56.599875" PMx_normed="12.869875" NOx_normed="289.532026" fuel_normed="305.126500" electricity_normed="0"
            traveltime="0.02" CO_perVeh="0.233290" CO2_perVeh="18.962165" HC_perVeh="0.001512" PMx_perVeh="0.000344" NOx_perVeh="0.007734" fuel_perVeh="0.008151" electricity_perVeh="0"/>
        <edge id=":1110673451_0" sampledSeconds="37.26" CO_abs="227.559954" CO2_abs="17611.387284" HC_abs="1.437726" PMx_abs="0.238672" NOx_abs="6.729919" fuel_abs="7.570456" electricity_abs="0"
            CO_normed="645.560152" CO2_normed="49961.382367" HC_normed="4.078657" PMx_normed="0.677084" NOx_normed="19.091968" fuel_normed="21.476471" electricity_normed="0"
            traveltime="0.03" CO_perVeh="0.163190" CO2_perVeh="12.629680" HC_perVeh="0.001031" PMx_perVeh="0.000171" NOx_perVeh="0.004826" fuel_perVeh="0.005429" electricity_perVeh="0"/>
        <edge id=":1110673464_0" sampledSeconds="319.56" CO_abs="452.401506" CO2_abs="37473.563864" HC_abs="2.913006" PMx_abs="0.492080" NOx_abs="14.172838" fuel_abs="16.108441" electricity_abs="0"
            CO_normed="24.541098" CO2_normed="2032.801367" HC_normed="0.158020" PMx_normed="0.026694" NOx_normed="0.768824" fuel_normed="0.873823" electricity_normed="0"
            traveltime="1.16" CO_perVeh="1.635376" CO2_perVeh="135.462309" HC_perVeh="0.010530" PMx_perVeh="0.001779" NOx_perVeh="0.051233" fuel_perVeh="0.058230" electricity_perVeh="0"/>
        <edge id=":1110673464_1" sampledSeconds="710.01" CO_abs="16293.422642" CO2_abs="2094330.279073" HC_abs="124.426530" PMx_abs="37.099487" NOx_abs="786.229364" fuel_abs="900.256488" electricity_abs="0"
            CO_normed="866.069980" CO2_normed="111323.238954" HC_normed="6.613840" PMx_normed="1.972008" NOx_normed="41.791689" fuel_normed="47.852752" electricity_normed="0"
            traveltime="0.70" CO_perVeh="16.089803" CO2_perVeh="2068.157294" HC_perVeh="0.122872" PMx_perVeh="0.036636" NOx_perVeh="0.776404" fuel_perVeh="0.889006" electricity_perVeh="0"/>
        <edge id=":1110673479_0" sampledSeconds="133.23" CO_abs="7079.454737" CO2_abs="481285.037473" HC_abs="43.564469" PMx_abs="8.564698" NOx_abs="197.946865" fuel_abs="206.883400" electricity_abs="0"
            CO_normed="18075.203584" CO2_normed="1228812.861634" HC_normed="111.228430" PMx_normed="21.867315" NOx_normed="505.396250" fuel_normed="528.212937" electricity_normed="0"
            traveltime="0.03" CO_perVeh="1.491353" CO2_perVeh="101.387200" HC_perVeh="0.009177" PMx_perVeh="0.001804" NOx_perVeh="0.041699" fuel_perVeh="0.043582" electricity_perVeh="0"/>
        <edge id=":1110673511_0" sampledSeconds="11.77" CO_abs="191.958526" CO2_abs="24599.225967" HC_abs="1.433504" PMx_abs="0.322753" NOx_abs="9.104082" fuel_abs="10.574189" electricity_abs="0"
            CO_normed="490.106874" CO2_normed="62806.534383" HC_normed="3.660009" PMx_normed="0.824050" NOx_normed="23.244465" fuel_normed="26.997930" electricity_normed="0"
            traveltime="0.02" CO_perVeh="0.380116" CO2_perVeh="48.711339" HC_perVeh="0.002839" PMx_perVeh="0.000639" NOx_perVeh="0.018028" fuel_perVeh="0.020939" electricity_perVeh="0"/>
        <edge id=":1110673517_0" sampledSeconds="17.02" CO_abs="809.501655" CO2_abs="58634.186441" HC_abs="5.063961" PMx_abs="1.016419" NOx_abs="23.848966" fuel_abs="25.204279" electricity_abs="0"
            CO_normed="2066.812737" CO2_normed="149704.305806" HC_normed="12.929261" PMx_normed="2.595112" NOx_normed="60.890977" fuel_normed="64.351352" electricity_normed="0"
            traveltime="0.03" CO_perVeh="1.299708" CO2_perVeh="94.141054" HC_perVeh="0.008131" PMx_perVeh="0.001632" NOx_perVeh="0.038291" fuel_perVeh="0.040467" electricity_perVeh="0"/>
        <edge id=":1110673534_0" sampledSeconds="474.12" CO_abs="2979.149275" CO2_abs="266317.664350" HC_abs="19.652989" PMx_abs="3.563347" NOx_abs="100.797206" fuel_abs="114.479435" electricity_abs="0"
            CO_normed="147.409662" CO2_normed="13177.519265" HC_normed="0.972439" PMx_normed="0.176316" NOx_normed="4.987492" fuel_normed="5.664495" electricity_normed="0"
            traveltime="1.43" CO_perVeh="8.974983" CO2_perVeh="802.308384" HC_perVeh="0.059207" PMx_perVeh="0.010735" NOx_perVeh="0.303662" fuel_perVeh="0.344881" electricity_perVeh="0"/>
        <edge id=":1110673534_1" sampledSeconds="184.53" CO_abs="2849.605971" CO2_abs="355649.205265" HC_abs="21.093251" PMx_abs="4.809630" NOx_abs="132.462522" fuel_abs="152.878730" electricity_abs="0"
            CO_normed="137.102821" CO2_normed="17111.316409" HC_normed="1.014858" PMx_normed="0.231405" NOx_normed="6.373157" fuel_normed="7.355440" electricity_normed="0"
            traveltime="1.23" CO_perVeh="18.920361" CO2_perVeh="2361.383042" HC_perVeh="0.140052" PMx_perVeh="0.031934" NOx_perVeh="0.879504" fuel_perVeh="1.015060" electricity_perVeh="0"/>
        <edge id=":1110673549_0" sampledSeconds="60.58" CO_abs="40.870808" CO2_abs="3773.848864" HC_abs="0.269813" PMx_abs="0.037159" NOx_abs="1.343624" fuel_abs="1.622248" electricity_abs="0"
            CO_normed="1.959030" CO2_normed="180.889089" HC_normed="0.012933" PMx_normed="0.001781" NOx_normed="0.064403" fuel_normed="0.077758" electricity_normed="0"
            traveltime="1.26" CO_perVeh="0.851508" CO2_perVeh="78.624926" HC_perVeh="0.005621" PMx_perVeh="0.000774" NOx_perVeh="0.027993" fuel_perVeh="0.033798" electricity_perVeh="0"/>
        <edge id=":1110673549_1" sampledSeconds="638.60" CO_abs="13558.217472" CO2_abs="1840594.826348" HC_abs="105.524432" PMx_abs="32.051960" NOx_abs="684.444444" fuel_abs="791.187700" electricity_abs="0"
            CO_normed="628.633029" CO2_normed="85340.031102" HC_normed="4.892689" PMx_normed="1.486104" NOx_normed="31.734583" fuel_normed="36.683784" electricity_normed="0"
            traveltime="0.80" CO_perVeh="17.068792" CO2_perVeh="2317.172591" HC_perVeh="0.132847" PMx_perVeh="0.040351" NOx_perVeh="0.861665" fuel_perVeh="0.996047" electricity_perVeh="0"/>
        <edge id=":1110673556_0" sampledSeconds="409.26" CO_abs="50645.901171" CO2_abs="2577437.277955" HC_abs="291.937903" PMx_abs="52.063316" NOx_abs="1110.052441" fuel_abs="1107.928016" electricity_abs="0"
            CO_normed="1800.120889" CO2_normed="91610.546484" HC_normed="10.376427" PMx_normed="1.850500" NOx_normed="39.454893" fuel_normed="39.379383" electricity_normed="0"
            traveltime="2.54" CO_perVeh="314.385059" CO2_perVeh="15999.473828" HC_perVeh="1.812208" PMx_perVeh="0.323184" NOx_perVeh="6.890664" fuel_perVeh="6.877477" electricity_perVeh="0"/>
        <edge id=":1110673556_2" sampledSeconds="250.18" CO_abs="23381.257432" CO2_abs="1000021.195215" HC_abs="129.929051" PMx_abs="19.216499" NOx_abs="426.046072" fuel_abs="429.870069" electricity_abs="0"
            CO_normed="868.949454" CO2_normed="37165.147086" HC_normed="4.828730" PMx_normed="0.714169" NOx_normed="15.833729" fuel_normed="15.975846" electricity_normed="0"
            traveltime="3.03" CO_perVeh="283.610172" CO2_perVeh="12130.065465" HC_perVeh="1.576014" PMx_perVeh="0.233092" NOx_perVeh="5.167857" fuel_perVeh="5.214242" electricity_perVeh="0"/>
        <edge id=":1110673556_3" sampledSeconds="425.94" CO_abs="36144.994443" CO2_abs="1276567.658122" HC_abs="194.271193" PMx_abs="24.285018" NOx_abs="543.985687" fuel_abs="548.752183" electricity_abs="0"
            CO_normed="3055.797755" CO2_normed="107924.558951" HC_normed="16.424224" PMx_normed="2.053123" NOx_normed="45.990054" fuel_normed="46.393027" electricity_normed="0"
            traveltime="1.76" CO_perVeh="149.137053" CO2_perVeh="5267.217258" HC_perVeh="0.801578" PMx_perVeh="0.100202" NOx_perVeh="2.244527" fuel_perVeh="2.264194" electricity_perVeh="0"/>
        <edge id=":1110673556_4" sampledSeconds="190.49" CO_abs="19973.230925" CO2_abs="802430.900428" HC_abs="109.781193" PMx_abs="15.681960" NOx_abs="344.030185" fuel_abs="344.934303" electricity_abs="0"
            CO_normed="1031.601144" CO2_normed="41444.903825" HC_normed="5.670109" PMx_normed="0.809960" NOx_normed="17.768879" fuel_normed="17.815576" electricity_normed="0"
            traveltime="2.40" CO_perVeh="252.130588" CO2_perVeh="10129.426501" HC_perVeh="1.385815" PMx_perVeh="0.197960" NOx_perVeh="4.342839" fuel_perVeh="4.354252" electricity_perVeh="0"/>
        <edge id=":1110673556_5" sampledSeconds="24.55" CO_abs="1971.468678" CO2_abs="79838.589927" HC_abs="10.848526" PMx_abs="1.545878" NOx_abs="34.141335" fuel_abs="34.319559" electricity_abs="0"
            CO_normed="141.923037" CO2_normed="5747.458881" HC_normed="0.780969" PMx_normed="0.111285" NOx_normed="2.457783" fuel_normed="2.470613" electricity_normed="0"
            traveltime="1.70" CO_perVeh="136.299069" CO2_perVeh="5519.704983" HC_perVeh="0.750022" PMx_perVeh="0.106876" NOx_perVeh="2.360389" fuel_perVeh="2.372710" electricity_perVeh="0"/>
        <edge id=":1110673556_6" sampledSeconds="314.22" CO_abs="37929.871505" CO2_abs="1914756.521637" HC_abs="218.258645" PMx_abs="38.663322" NOx_abs="824.452288" fuel_abs="823.070718" electricity_abs="0"
            CO_normed="1382.144031" CO2_normed="69772.693462" HC_normed="7.953227" PMx_normed="1.408871" NOx_normed="30.042596" fuel_normed="29.992252" electricity_normed="0"
            traveltime="2.49" CO_perVeh="300.374070" CO2_perVeh="15163.331369" HC_perVeh="1.728433" PMx_perVeh="0.306182" NOx_perVeh="6.528999" fuel_perVeh="6.518058" electricity_perVeh="0"/>
        <edge id=":1110673561_0" sampledSeconds="99.79" CO_abs="9845.120567" CO2_abs="704464.422440" HC_abs="61.750586" PMx_abs="14.315561" NOx_abs="298.307870" fuel_abs="302.815594" electricity_abs="0"
            CO_normed="450.743778" CO2_normed="32252.825486" HC_normed="2.827156" PMx_normed="0.655416" NOx_normed="13.657569" fuel_normed="13.863949" electricity_normed="0"
            traveltime="1.18" CO_perVeh="116.181978" CO2_perVeh="8313.363938" HC_perVeh="0.728717" PMx_perVeh="0.168938" NOx_perVeh="3.520322" fuel_perVeh="3.573518" electricity_perVeh="0"/>
        <edge id=":1110673561_1" sampledSeconds="1318.81" CO_abs="120734.953504" CO2_abs="8372831.753445" HC_abs="752.307804" PMx_abs="174.685558" NOx_abs="3578.050574" fuel_abs="3599.076349" electricity_abs="0"
            CO_normed="5389.151324" CO2_normed="373731.517041" HC_normed="33.580173" PMx_normed="7.797302" NOx_normed="159.710634" fuel_normed="160.649145" electricity_normed="0"
            traveltime="1.19" CO_perVeh="109.397381" CO2_perVeh="7586.583974" HC_perVeh="0.681663" PMx_perVeh="0.158282" NOx_perVeh="3.242055" fuel_perVeh="3.261106" electricity_perVeh="0"/>
        <edge id=":1110673562_0" sampledSeconds="104.64" CO_abs="2168.641256" CO2_abs="172396.361109" HC_abs="13.792606" PMx_abs="2.252545" NOx_abs="65.237985" fuel_abs="74.106633" electricity_abs="0"
            CO_normed="6152.173775" CO2_normed="489067.691089" HC_normed="39.127959" PMx_normed="6.390199" NOx_normed="185.072298" fuel_normed="210.231583" electricity_normed="0"
            traveltime="0.03" CO_perVeh="0.552797" CO2_perVeh="43.944617" HC_perVeh="0.003516" PMx_perVeh="0.000574" NOx_perVeh="0.016629" fuel_perVeh="0.018890" electricity_perVeh="0"/>
        <edge id=":1110673564_0" sampledSeconds="28.50" CO_abs="414.849065" CO2_abs="52460.634525" HC_abs="3.049843" PMx_abs="0.689852" NOx_abs="19.389021" fuel_abs="22.550656" electricity_abs="0"
            CO_normed="3177.567309" CO2_normed="401826.136791" HC_normed="23.360503" PMx_normed="5.283975" NOx_normed="148.511647" fuel_normed="172.728426" electricity_normed="0"
            traveltime="7.836137e-03" CO_perVeh="0.114048" CO2_perVeh="14.422168" HC_perVeh="0.000838" PMx_perVeh="0.000190" NOx_perVeh="0.005330" fuel_perVeh="0.006199" electricity_perVeh="0"/>
        <edge id=":1110673588_0" sampledSeconds="11.54" CO_abs="233.659610" CO2_abs="28394.188254" HC_abs="1.711487" PMx_abs="0.401855" NOx_abs="10.691310" fuel_abs="12.205452" electricity_abs="0"
            CO_normed="715.893272" CO2_normed="86994.959758" HC_normed="5.243703" PMx_normed="1.231214" NOx_normed="32.756354" fuel_normed="37.395428" electricity_normed="0"
            traveltime="0.02" CO_perVeh="0.389433" CO2_perVeh="47.323647" HC_perVeh="0.002852" PMx_perVeh="0.000670" NOx_perVeh="0.017819" fuel_perVeh="0.020342" electricity_perVeh="0"/>
        <edge id=":1110673601_0" sampledSeconds="29.41" CO_abs="457.928559" CO2_abs="56165.343979" HC_abs="3.358120" PMx_abs="0.756361" NOx_abs="20.932201" fuel_abs="24.143141" electricity_abs="0"
            CO_normed="1252.692106" CO2_normed="153643.798118" HC_normed="9.186347" PMx_normed="2.069073" NOx_normed="57.261339" fuel_normed="66.045066" electricity_normed="0"
            traveltime="0.02" CO_perVeh="0.339881" CO2_perVeh="41.686670" HC_perVeh="0.002492" PMx_perVeh="0.000561" NOx_perVeh="0.015536" fuel_perVeh="0.017919" electricity_perVeh="0"/>
        <edge id=":1110673617_0" sampledSeconds="238.03" CO_abs="5958.770706" CO2_abs="747745.596564" HC_abs="45.073753" PMx_abs="13.345675" NOx_abs="281.585852" fuel_abs="321.421465" electricity_abs="0"
            CO_normed="15213.882655" CO2_normed="1909137.693355" HC_normed="115.081922" PMx_normed="34.074064" NOx_normed="718.942601" fuel_normed="820.650548" electricity_normed="0"
            traveltime="0.01" CO_perVeh="0.365078" CO2_perVeh="45.812411" HC_perVeh="0.002762" PMx_perVeh="0.000818" NOx_perVeh="0.017252" fuel_perVeh="0.019693" electricity_perVeh="0"/>
        <edge id=":1110673621_0" sampledSeconds="25.72" CO_abs="590.554991" CO2_abs="62237.985826" HC_abs="4.080077" PMx_abs="0.920034" NOx_abs="23.813814" fuel_abs="26.753447" electricity_abs="0"
            CO_normed="1809.359973" CO2_normed="190686.594870" HC_normed="12.500662" PMx_normed="2.818829" NOx_normed="72.961473" fuel_normed="81.968008" electricity_normed="0"
            traveltime="0.02" CO_perVeh="0.447390" CO2_perVeh="47.149989" HC_perVeh="0.003091" PMx_perVeh="0.000697" NOx_perVeh="0.018041" fuel_perVeh="0.020268" electricity_perVeh="0"/>
        <edge id=":1110673630_0" sampledSeconds="54.70" CO_abs="289.788865" CO2_abs="23642.847597" HC_abs="1.860313" PMx_abs="0.324956" NOx_abs="9.040611" fuel_abs="10.163130" electricity_abs="0"
            CO_normed="15.832093" CO2_normed="1291.684392" HC_normed="0.101635" PMx_normed="0.017753" NOx_normed="0.493917" fuel_normed="0.555244" electricity_normed="0"
            traveltime="1.28" CO_perVeh="6.764185" CO2_perVeh="551.865882" HC_perVeh="0.043423" PMx_perVeh="0.007585" NOx_perVeh="0.211024" fuel_perVeh="0.237225" electricity_perVeh="0"/>
        <edge id=":1110673630_1" sampledSeconds="7.28" CO_abs="9.287539" CO2_abs="866.843953" HC_abs="0.061100" PMx_abs="0.006373" NOx_abs="0.294922" fuel_abs="0.372630" electricity_abs="0"
            CO_normed="0.618596" CO2_normed="57.736137" HC_normed="0.004070" PMx_normed="0.000424" NOx_normed="0.019643" fuel_normed="0.024819" electricity_normed="0"
            traveltime="1.03" CO_perVeh="1.314544" CO2_perVeh="122.691760" HC_perVeh="0.008648" PMx_perVeh="0.000902" NOx_perVeh="0.041743" fuel_perVeh="0.052741" electricity_perVeh="0"/>
        <edge id=":1110673650_0" sampledSeconds="143.72" CO_abs="2149.607311" CO2_abs="269584.211958" HC_abs="15.935958" PMx_abs="3.711628" NOx_abs="100.757732" fuel_abs="115.882880" electricity_abs="0"
            CO_normed="5488.359092" CO2_normed="688300.115638" HC_normed="40.687552" PMx_normed="9.476497" NOx_normed="257.253783" fuel_normed="295.871184" electricity_normed="0"
            traveltime="0.02" CO_perVeh="0.345218" CO2_perVeh="43.294057" HC_perVeh="0.002559" PMx_perVeh="0.000596" NOx_perVeh="0.016181" fuel_perVeh="0.018610" electricity_perVeh="0"/>
        <edge id=":1110673655_0" sampledSeconds="44.82" CO_abs="708.511290" CO2_abs="77569.866109" HC_abs="5.007620" PMx_abs="1.083486" NOx_abs="29.291328" fuel_abs="33.344049" electricity_abs="0"
            CO_normed="1808.964996" CO2_normed="198050.721980" HC_normed="12.785413" PMx_normed="2.766348" NOx_normed="74.786368" fuel_normed="85.133741" electricity_normed="0"
            traveltime="0.02" CO_perVeh="0.379187" CO2_perVeh="41.514512" HC_perVeh="0.002680" PMx_perVeh="0.000580" NOx_perVeh="0.015676" fuel_perVeh="0.017845" electricity_perVeh="0"/>
        <edge id=":1110673663_0" sampledSeconds="107.98" CO_abs="2018.564025" CO2_abs="237869.674989" HC_abs="14.635309" PMx_abs="3.368348" NOx_abs="89.723938" fuel_abs="102.250080" electricity_abs="0"
            CO_normed="94.391584" CO2_normed="11123.202010" HC_normed="0.684373" PMx_normed="0.157510" NOx_normed="4.195648" fuel_normed="4.781393" electricity_normed="0"
            traveltime="1.27" CO_perVeh="23.708987" CO2_perVeh="2793.891549" HC_perVeh="0.171899" PMx_perVeh="0.039563" NOx_perVeh="1.053850" fuel_perVeh="1.200975" electricity_perVeh="0"/>
        <edge id=":1110673663_1" sampledSeconds="153.45" CO_abs="2215.820093" CO2_abs="285816.560957" HC_abs="16.588647" PMx_abs="3.924073" NOx_abs="106.545188" fuel_abs="122.860463" electricity_abs="0"
            CO_normed="103.742292" CO2_normed="13381.621228" HC_normed="0.776662" PMx_normed="0.183721" NOx_normed="4.988330" fuel_normed="5.752194" electricity_normed="0"
            traveltime="1.24" CO_perVeh="17.954082" CO2_perVeh="2315.880195" HC_perVeh="0.134413" PMx_perVeh="0.031796" NOx_perVeh="0.863302" fuel_perVeh="0.995499" electricity_perVeh="0"/>
        <edge id=":1110673666_0" sampledSeconds="191.72" CO_abs="4731.676400" CO2_abs="368061.604001" HC_abs="29.978426" PMx_abs="5.188207" NOx_abs="141.828098" fuel_abs="158.215170" electricity_abs="0"