<?xml version="1.0" encoding="UTF-8"?>

<!-- generated on Tue Nov 10 16:13:19 2020 by Eclipse SUMO sumo Version 1.7.0
<configuration xmlns:xsi="http://www.w3.org/2001/XMLSchema-instance" xsi:noNamespaceSchemaLocation="http://sumo.dlr.de/xsd/sumoConfiguration.xsd">

    <input>
        <net-file value="../dataSets/Porto/8AM9AM_Routing_SaoBento/Porto.net.xml"/>
        <route-files value="../results/Porto/8AM9AM_Routing_SaoBento/cost_co-cost_co2/solution6/Porto.rou.xml"/>
        <additional-files value="moreOutputInfo.xml"/>
    </input>

    <output>
        <emission-output.precision value="6"/>
        <tripinfo-output value="../results/Porto/8AM9AM_Routing_SaoBento/cost_co-cost_co2/solution6/Porto-tripinfo"/>
    </output>

    <processing>
        <collision.action value="warn"/>
        <time-to-teleport value="-1"/>
    </processing>

    <emissions>
        <device.emissions.probability value="1"/>
    </emissions>

    <gui_only>
        <quit-on-end value="true"/>
        <start value="true"/>
    </gui_only>

</configuration>
-->

<meandata xmlns:xsi="http://www.w3.org/2001/XMLSchema-instance" xsi:noNamespaceSchemaLocation="http://sumo.dlr.de/xsd/meandata_file.xsd">
    <interval begin="0.00" end="8472.00" id="emissions-detector">
        <edge id=":1092997347_0" sampledSeconds="598.20" CO_abs="73362.531760" CO2_abs="3125457.588493" HC_abs="408.008278" PMx_abs="63.349976" NOx_abs="1353.066354" fuel_abs="1343.507386" electricity_abs="0"
            CO_normed="70849.728071" CO2_normed="3018404.830505" HC_normed="394.033232" PMx_normed="61.180121" NOx_normed="1306.721305" fuel_normed="1297.489750" electricity_normed="0"
            traveltime="0.07" CO_perVeh="8.401423" CO2_perVeh="357.925117" HC_perVeh="0.046725" PMx_perVeh="0.007255" NOx_perVeh="0.154952" fuel_perVeh="0.153857" electricity_perVeh="0"/>
        <edge id=":1103427051_0" sampledSeconds="19.76" CO_abs="1518.256080" CO2_abs="84748.010519" HC_abs="8.916605" PMx_abs="1.619906" NOx_abs="35.893936" fuel_abs="36.429494" electricity_abs="0"
            CO_normed="2224.659686" CO2_normed="124178.974093" HC_normed="13.065260" PMx_normed="2.373604" NOx_normed="52.594416" fuel_normed="53.379155" electricity_normed="0"
            traveltime="0.03" CO_perVeh="2.361080" CO2_perVeh="131.793882" HC_perVeh="0.013866" PMx_perVeh="0.002519" NOx_perVeh="0.055820" fuel_perVeh="0.056652" electricity_perVeh="0"/>
        <edge id=":1105984386_0" sampledSeconds="10.47" CO_abs="263.597432" CO2_abs="18946.364019" HC_abs="1.634741" PMx_abs="0.274292" NOx_abs="7.374860" fuel_abs="8.144298" electricity_abs="0"
            CO_normed="11.535555" CO2_normed="829.131091" HC_normed="0.071540" PMx_normed="0.012004" NOx_normed="0.322739" fuel_normed="0.356411" electricity_normed="0"
            traveltime="1.00" CO_perVeh="25.286812" CO2_perVeh="1817.518224" HC_perVeh="0.156820" PMx_perVeh="0.026313" NOx_perVeh="0.707468" fuel_perVeh="0.781280" electricity_perVeh="0"/>
        <edge id=":1105984390_0" sampledSeconds="10.87" CO_abs="21.035980" CO2_abs="1679.298201" HC_abs="0.133219" PMx_abs="0.018062" NOx_abs="0.609391" fuel_abs="0.721872" electricity_abs="0"
            CO_normed="0.711688" CO2_normed="56.813918" HC_normed="0.004507" PMx_normed="0.000611" NOx_normed="0.020617" fuel_normed="0.024422" electricity_normed="0"
            traveltime="1.13" CO_perVeh="2.180506" CO2_perVeh="174.069369" HC_perVeh="0.013809" PMx_perVeh="0.001872" NOx_perVeh="0.063167" fuel_perVeh="0.074826" electricity_perVeh="0"/>
        <edge id=":1105984390_1" sampledSeconds="2398.46" CO_abs="58409.510305" CO2_abs="7091396.532551" HC_abs="435.328893" PMx_abs="127.299367" NOx_abs="2688.667551" fuel_abs="3048.264418" electricity_abs="0"
            CO_normed="1890.320276" CO2_normed="229500.480029" HC_normed="14.088648" PMx_normed="4.119818" NOx_normed="87.013960" fuel_normed="98.651675" electricity_normed="0"
            traveltime="0.65" CO_perVeh="15.778235" CO2_perVeh="1915.607875" HC_perVeh="0.117596" PMx_perVeh="0.034388" NOx_perVeh="0.726293" fuel_perVeh="0.823432" electricity_perVeh="0"/>
        <edge id=":1105984395_0" sampledSeconds="4.12" CO_abs="129.386218" CO2_abs="8827.696774" HC_abs="0.789499" PMx_abs="0.118639" NOx_abs="3.384700" fuel_abs="3.794699" electricity_abs="0"
            CO_normed="59.760847" CO2_normed="4077.332541" HC_normed="0.364653" PMx_normed="0.054797" NOx_normed="1.563324" fuel_normed="1.752694" electricity_normed="0"
            traveltime="0.10" CO_perVeh="2.999126" CO2_perVeh="204.622853" HC_perVeh="0.018300" PMx_perVeh="0.002750" NOx_perVeh="0.078456" fuel_perVeh="0.087960" electricity_perVeh="0"/>
        <edge id=":1105984398_0" sampledSeconds="9.96" CO_abs="680.539440" CO2_abs="46500.500997" HC_abs="4.190515" PMx_abs="0.812206" NOx_abs="19.024651" fuel_abs="19.988553" electricity_abs="0"
            CO_normed="23.919029" CO2_normed="1634.360603" HC_normed="0.147285" PMx_normed="0.028547" NOx_normed="0.668662" fuel_normed="0.702541" electricity_normed="0"
            traveltime="1.15" CO_perVeh="78.267077" CO2_perVeh="5347.902050" HC_perVeh="0.481940" PMx_perVeh="0.093410" NOx_perVeh="2.187976" fuel_perVeh="2.298832" electricity_perVeh="0"/>
        <edge id=":1105984398_1" sampledSeconds="643.80" CO_abs="12345.847957" CO2_abs="1438080.480053" HC_abs="89.290349" PMx_abs="20.707975" NOx_abs="544.643510" fuel_abs="618.169392" electricity_abs="0"
            CO_normed="420.024902" CO2_normed="48925.729140" HC_normed="3.037796" PMx_normed="0.704517" NOx_normed="18.529617" fuel_normed="21.031082" electricity_normed="0"
            traveltime="0.95" CO_perVeh="18.246979" CO2_perVeh="2125.461481" HC_perVeh="0.131970" PMx_perVeh="0.030606" NOx_perVeh="0.804975" fuel_perVeh="0.913645" electricity_perVeh="0"/>
        <edge id=":1106006327_0" sampledSeconds="544.36" CO_abs="73101.553445" CO2_abs="2364206.555684" HC_abs="388.485700" PMx_abs="49.229484" NOx_abs="1034.353464" fuel_abs="1016.289276" electricity_abs="0"
            CO_normed="3505.980028" CO2_normed="113388.301291" HC_normed="18.631931" PMx_normed="2.361066" NOx_normed="49.608010" fuel_normed="48.741644" electricity_normed="0"
            traveltime="2.10" CO_perVeh="281.588878" CO2_perVeh="9106.978459" HC_perVeh="1.496456" PMx_perVeh="0.189633" NOx_perVeh="3.984354" fuel_perVeh="3.914770" electricity_perVeh="0"/>
        <edge id=":1106006327_1" sampledSeconds="679.77" CO_abs="91931.267335" CO2_abs="3080919.358071" HC_abs="491.211385" PMx_abs="64.245479" NOx_abs="1348.228797" fuel_abs="1324.375950" electricity_abs="0"
            CO_normed="3844.909243" CO2_normed="128855.564149" HC_normed="20.544296" PMx_normed="2.686986" NOx_normed="56.387968" fuel_normed="55.390353" electricity_normed="0"
            traveltime="2.28" CO_perVeh="308.591013" CO2_perVeh="10341.900559" HC_perVeh="1.648878" PMx_perVeh="0.215657" NOx_perVeh="4.525678" fuel_perVeh="4.445610" electricity_perVeh="0"/>
        <edge id=":1106006327_2" sampledSeconds="0.00" CO_abs="0" CO2_abs="0" HC_abs="0" PMx_abs="0" NOx_abs="0" fuel_abs="0" electricity_abs="0"
            CO_normed="0" CO2_normed="0" HC_normed="0" PMx_normed="0" NOx_normed="0" fuel_normed="0" electricity_normed="0"/>
        <edge id=":1106006327_3" sampledSeconds="0.00" CO_abs="0" CO2_abs="0" HC_abs="0" PMx_abs="0" NOx_abs="0" fuel_abs="0" electricity_abs="0"
            CO_normed="0" CO2_normed="0" HC_normed="0" PMx_normed="0" NOx_normed="0" fuel_normed="0" electricity_normed="0"/>
        <edge id=":1107381198_0" sampledSeconds="0.00" CO_abs="0" CO2_abs="0" HC_abs="0" PMx_abs="0" NOx_abs="0" fuel_abs="0" electricity_abs="0"
            CO_normed="0" CO2_normed="0" HC_normed="0" PMx_normed="0" NOx_normed="0" fuel_normed="0" electricity_normed="0"/>
        <edge id=":1107381198_1" sampledSeconds="103.11" CO_abs="4968.450561" CO2_abs="194422.686884" HC_abs="27.088514" PMx_abs="3.315529" NOx_abs="80.299766" fuel_abs="83.575707" electricity_abs="0"
            CO_normed="230.233328" CO2_normed="9009.364516" HC_normed="1.255256" PMx_normed="0.153638" NOx_normed="3.721016" fuel_normed="3.872820" electricity_normed="0"
            traveltime="1.54" CO_perVeh="74.387232" CO2_perVeh="2910.880418" HC_perVeh="0.405567" PMx_perVeh="0.049640" NOx_perVeh="1.202241" fuel_perVeh="1.251289" electricity_perVeh="0"/>
        <edge id=":1110338277_0" sampledSeconds="160.06" CO_abs="2831.270623" CO2_abs="326158.734106" HC_abs="20.391899" PMx_abs="4.615372" NOx_abs="123.207378" fuel_abs="140.201846" electricity_abs="0"
            CO_normed="4296.748214" CO2_normed="494979.867624" HC_normed="30.946832" PMx_normed="7.004308" NOx_normed="186.980035" fuel_normed="212.770911" electricity_normed="0"
            traveltime="0.02" CO_perVeh="0.383996" CO2_perVeh="44.235835" HC_perVeh="0.002766" PMx_perVeh="0.000626" NOx_perVeh="0.016710" fuel_perVeh="0.019015" electricity_perVeh="0"/>
        <edge id=":1110338293_0" sampledSeconds="6684.66" CO_abs="633678.963691" CO2_abs="11076969.663157" HC_abs="3144.592116" PMx_abs="264.794030" NOx_abs="5009.111046" fuel_abs="4761.802817" electricity_abs="0"
            CO_normed="897562.271517" CO2_normed="15689758.729684" HC_normed="4454.096481" PMx_normed="375.062366" NOx_normed="7095.058138" fuel_normed="6744.763197" electricity_normed="0"
            traveltime="0.45" CO_perVeh="42.365230" CO2_perVeh="740.561689" HC_perVeh="0.210235" PMx_perVeh="0.017703" NOx_perVeh="0.334889" fuel_perVeh="0.318355" electricity_perVeh="0"/>
        <edge id=":1110338295_0" sampledSeconds="0.00" CO_abs="0" CO2_abs="0" HC_abs="0" PMx_abs="0" NOx_abs="0" fuel_abs="0" electricity_abs="0"
            CO_normed="0" CO2_normed="0" HC_normed="0" PMx_normed="0" NOx_normed="0" fuel_normed="0" electricity_normed="0"/>
        <edge id=":1110673403_0" sampledSeconds="201.64" CO_abs="3002.369143" CO2_abs="375505.469653" HC_abs="22.264953" PMx_abs="5.099253" NOx_abs="139.997280" fuel_abs="161.414073" electricity_abs="0"
            CO_normed="4252.647512" CO2_normed="531877.435768" HC_normed="31.536760" PMx_normed="7.222738" NOx_normed="198.296431" fuel_normed="228.631832" electricity_normed="0"
            traveltime="0.02" CO_perVeh="0.347001" CO2_perVeh="43.399330" HC_perVeh="0.002573" PMx_perVeh="0.000589" NOx_perVeh="0.016180" fuel_perVeh="0.018656" electricity_perVeh="0"/>
        <edge id=":1110673412_0" sampledSeconds="964.59" CO_abs="169967.694758" CO2_abs="11602519.932682" HC_abs="1057.841147" PMx_abs="254.829666" NOx_abs="4985.678373" fuel_abs="4987.351966" electricity_abs="0"
            CO_normed="249049.078966" CO2_normed="17000859.528204" HC_normed="1550.026101" PMx_normed="373.395037" NOx_normed="7305.380052" fuel_normed="7307.832322" electricity_normed="0"
            traveltime="0.02" CO_perVeh="2.747679" CO2_perVeh="187.565049" HC_perVeh="0.017101" PMx_perVeh="0.004120" NOx_perVeh="0.080598" fuel_perVeh="0.080625" electricity_perVeh="0"/>
        <edge id=":1110673414_0" sampledSeconds="0.00" CO_abs="0" CO2_abs="0" HC_abs="0" PMx_abs="0" NOx_abs="0" fuel_abs="0" electricity_abs="0"
            CO_normed="0" CO2_normed="0" HC_normed="0" PMx_normed="0" NOx_normed="0" fuel_normed="0" electricity_normed="0"/>
        <edge id=":1110673414_1" sampledSeconds="240.48" CO_abs="16402.101092" CO2_abs="638984.114927" HC_abs="89.565125" PMx_abs="11.968409" NOx_abs="270.825877" fuel_abs="274.675987" electricity_abs="0"
            CO_normed="771.841788" CO2_normed="30068.991696" HC_normed="4.214710" PMx_normed="0.563203" NOx_normed="12.744387" fuel_normed="12.925564" electricity_normed="0"
            traveltime="1.56" CO_perVeh="106.418380" CO2_perVeh="4145.789247" HC_perVeh="0.581107" PMx_perVeh="0.077652" NOx_perVeh="1.757144" fuel_perVeh="1.782124" electricity_perVeh="0"/>
        <edge id=":1110673417_0" sampledSeconds="28.92" CO_abs="421.115655" CO2_abs="50831.904922" HC_abs="3.082730" PMx_abs="0.685417" NOx_abs="18.968788" fuel_abs="21.850522" electricity_abs="0"
            CO_normed="639.086891" CO2_normed="77142.712851" HC_normed="4.678363" PMx_normed="1.040191" NOx_normed="28.787112" fuel_normed="33.160445" electricity_normed="0"
            traveltime="0.02" CO_perVeh="0.321126" CO2_perVeh="38.762360" HC_perVeh="0.002351" PMx_perVeh="0.000523" NOx_perVeh="0.014465" fuel_perVeh="0.016662" electricity_perVeh="0"/>
        <edge id=":1110673446_0" sampledSeconds="1330.70" CO_abs="14462.551420" CO2_abs="1175121.209367" HC_abs="93.688477" PMx_abs="21.410098" NOx_abs="479.817091" fuel_abs="505.130745" electricity_abs="0"
            CO_normed="20485.200311" CO2_normed="1664477.633664" HC_normed="132.703225" PMx_normed="30.325918" NOx_normed="679.627608" fuel_normed="715.482642" electricity_normed="0"
            traveltime="0.02" CO_perVeh="0.248070" CO2_perVeh="20.156329" HC_perVeh="0.001607" PMx_perVeh="0.000367" NOx_perVeh="0.008230" fuel_perVeh="0.008664" electricity_perVeh="0"/>
        <edge id=":1110673451_0" sampledSeconds="36.57" CO_abs="479.628145" CO2_abs="33283.515049" HC_abs="2.949895" PMx_abs="0.499081" NOx_abs="13.074729" fuel_abs="14.307263" electricity_abs="0"
            CO_normed="754.844420" CO2_normed="52381.987801" HC_normed="4.642579" PMx_normed="0.785460" NOx_normed="20.577162" fuel_normed="22.516940" electricity_normed="0"
            traveltime="0.03" CO_perVeh="0.353380" CO2_perVeh="24.522592" HC_perVeh="0.002173" PMx_perVeh="0.000368" NOx_perVeh="0.009633" fuel_perVeh="0.010541" electricity_perVeh="0"/>
        <edge id=":1110673464_0" sampledSeconds="1029.24" CO_abs="4025.891319" CO2_abs="284113.689556" HC_abs="24.858419" PMx_abs="4.187771" NOx_abs="111.106965" fuel_abs="122.129266" electricity_abs="0"
            CO_normed="121.155715" CO2_normed="8550.155573" HC_normed="0.748093" PMx_normed="0.126027" NOx_normed="3.343668" fuel_normed="3.675375" electricity_normed="0"
            traveltime="1.22" CO_perVeh="4.774149" CO2_perVeh="336.919473" HC_perVeh="0.029479" PMx_perVeh="0.004966" NOx_perVeh="0.131757" fuel_perVeh="0.144828" electricity_perVeh="0"/>
        <edge id=":1110673464_1" sampledSeconds="2600.26" CO_abs="63686.398337" CO2_abs="7799522.413549" HC_abs="475.808155" PMx_abs="139.187296" NOx_abs="2955.160003" fuel_abs="3352.655471" electricity_abs="0"
            CO_normed="1878.015887" CO2_normed="229996.159032" HC_normed="14.030865" PMx_normed="4.104424" NOx_normed="87.143214" fuel_normed="98.864756" electricity_normed="0"
            traveltime="0.72" CO_perVeh="17.553577" CO2_perVeh="2149.744982" HC_perVeh="0.131145" PMx_perVeh="0.038364" NOx_perVeh="0.814517" fuel_perVeh="0.924076" electricity_perVeh="0"/>
        <edge id=":1110673479_0" sampledSeconds="134.74" CO_abs="6151.812470" CO2_abs="427555.229273" HC_abs="38.047177" PMx_abs="7.420605" NOx_abs="174.405922" fuel_abs="183.787498" electricity_abs="0"
            CO_normed="8713.615397" CO2_normed="605602.307752" HC_normed="53.891186" PMx_normed="10.510772" NOx_normed="247.033884" fuel_normed="260.322235" electricity_normed="0"
            traveltime="0.03" CO_perVeh="1.300549" CO2_perVeh="90.389041" HC_perVeh="0.008044" PMx_perVeh="0.001569" NOx_perVeh="0.036871" fuel_perVeh="0.038854" electricity_perVeh="0"/>
        <edge id=":1110673511_0" sampledSeconds="63.19" CO_abs="1164.120149" CO2_abs="120690.896572" HC_abs="8.074873" PMx_abs="1.724223" NOx_abs="45.934045" fuel_abs="51.879963" electricity_abs="0"
            CO_normed="1648.895396" CO2_normed="170950.278431" HC_normed="11.437498" PMx_normed="2.442242" NOx_normed="65.062386" fuel_normed="73.484366" electricity_normed="0"
            traveltime="0.02" CO_perVeh="0.446165" CO2_perVeh="46.256492" HC_perVeh="0.003095" PMx_perVeh="0.000661" NOx_perVeh="0.017605" fuel_perVeh="0.019884" electricity_perVeh="0"/>
        <edge id=":1110673517_0" sampledSeconds="182.39" CO_abs="8272.829707" CO2_abs="580874.903905" HC_abs="51.324767" PMx_abs="10.171145" NOx_abs="237.356575" fuel_abs="249.692801" electricity_abs="0"
            CO_normed="11717.889104" CO2_normed="822768.985701" HC_normed="72.697970" PMx_normed="14.406722" NOx_normed="336.199114" fuel_normed="353.672523" electricity_normed="0"
            traveltime="0.03" CO_perVeh="1.266637" CO2_perVeh="88.936650" HC_perVeh="0.007858" PMx_perVeh="0.001557" NOx_perVeh="0.036341" fuel_perVeh="0.038230" electricity_perVeh="0"/>
        <edge id=":1110673534_0" sampledSeconds="739.01" CO_abs="5162.281313" CO2_abs="437045.816946" HC_abs="33.468825" PMx_abs="5.781317" NOx_abs="165.406896" fuel_abs="187.869010" electricity_abs="0"
            CO_normed="141.705682" CO2_normed="11996.997413" HC_normed="0.918726" PMx_normed="0.158698" NOx_normed="4.540453" fuel_normed="5.157043" electricity_normed="0"
            traveltime="1.46" CO_perVeh="10.180873" CO2_perVeh="861.926664" HC_perVeh="0.066006" PMx_perVeh="0.011402" NOx_perVeh="0.326210" fuel_perVeh="0.370509" electricity_perVeh="0"/>
        <edge id=":1110673534_1" sampledSeconds="200.86" CO_abs="2840.286958" CO2_abs="365406.355247" HC_abs="21.188148" PMx_abs="4.918295" NOx_abs="135.698959" fuel_abs="157.072891" electricity_abs="0"
            CO_normed="75.811608" CO2_normed="9753.255172" HC_normed="0.565544" PMx_normed="0.131277" NOx_normed="3.622013" fuel_normed="4.192516" electricity_normed="0"
            traveltime="1.23" CO_perVeh="17.361781" CO2_perVeh="2233.614077" HC_perVeh="0.129516" PMx_perVeh="0.030064" NOx_perVeh="0.829485" fuel_perVeh="0.960137" electricity_perVeh="0"/>
        <edge id=":1110673549_0" sampledSeconds="652.93" CO_abs="2102.907955" CO2_abs="198646.923601" HC_abs="14.046401" PMx_abs="2.773603" NOx_abs="75.157141" fuel_abs="85.390241" electricity_abs="0"
            CO_normed="55.919083" CO2_normed="5282.282481" HC_normed="0.373512" PMx_normed="0.073754" NOx_normed="1.998527" fuel_normed="2.270639" electricity_normed="0"
            traveltime="1.30" CO_perVeh="4.177977" CO2_perVeh="394.664071" HC_perVeh="0.027907" PMx_perVeh="0.005510" NOx_perVeh="0.149319" fuel_perVeh="0.169650" electricity_perVeh="0"/>
        <edge id=":1110673549_1" sampledSeconds="3196.19" CO_abs="70226.275602" CO2_abs="9210864.340189" HC_abs="539.584086" PMx_abs="161.993991" NOx_abs="3444.622517" fuel_abs="3959.328895" electricity_abs="0"
            CO_normed="1806.367651" CO2_normed="236922.821857" HC_normed="13.879239" PMx_normed="4.166826" NOx_normed="88.602943" fuel_normed="101.842274" electricity_normed="0"
            traveltime="0.81" CO_perVeh="17.713907" CO2_perVeh="2323.352506" HC_perVeh="0.136105" PMx_perVeh="0.040861" NOx_perVeh="0.868873" fuel_perVeh="0.998703" electricity_perVeh="0"/>
        <edge id=":1110673556_0" sampledSeconds="465.00" CO_abs="56255.150106" CO2_abs="2704859.115922" HC_abs="320.373747" PMx_abs="54.529438" NOx_abs="1165.668275" fuel_abs="1162.703786" electricity_abs="0"
            CO_normed="1109.255439" CO2_normed="53335.200093" HC_normed="6.317223" PMx_normed="1.075227" NOx_normed="22.984987" fuel_normed="22.926532" electricity_normed="0"
            traveltime="2.74" CO_perVeh="331.618701" CO2_perVeh="15944.884413" HC_perVeh="1.888572" PMx_perVeh="0.321446" NOx_perVeh="6.871502" fuel_perVeh="6.854027" electricity_perVeh="0"/>
        <edge id=":1110673556_2" sampledSeconds="177.27" CO_abs="18200.210268" CO2_abs="774525.946667" HC_abs="101.079567" PMx_abs="15.066470" NOx_abs="331.130429" fuel_abs="332.938267" electricity_abs="0"
            CO_normed="375.245046" CO2_normed="15968.882786" HC_normed="2.084020" PMx_normed="0.310635" NOx_normed="6.827122" fuel_normed="6.864395" electricity_normed="0"
            traveltime="3.07" CO_perVeh="314.707643" CO2_perVeh="13392.660381" HC_perVeh="1.747810" PMx_perVeh="0.260521" NOx_perVeh="5.725718" fuel_perVeh="5.756978" electricity_perVeh="0"/>
        <edge id=":1110673556_3" sampledSeconds="248.84" CO_abs="26780.109936" CO2_abs="926842.782129" HC_abs="143.658117" PMx_abs="18.551685" NOx_abs="400.812112" fuel_abs="398.416646" electricity_abs="0"
            CO_normed="1256.032021" CO2_normed="43470.479247" HC_normed="6.737806" PMx_normed="0.870105" NOx_normed="18.798760" fuel_normed="18.686408" electricity_normed="0"
            traveltime="1.86" CO_perVeh="199.647650" CO2_perVeh="6909.679750" HC_perVeh="1.070982" PMx_perVeh="0.138304" NOx_perVeh="2.988083" fuel_perVeh="2.970225" electricity_perVeh="0"/>
        <edge id=":1110673556_4" sampledSeconds="39.18" CO_abs="4729.852385" CO2_abs="176773.245093" HC_abs="25.700039" PMx_abs="3.582131" NOx_abs="76.659796" fuel_abs="75.988128" electricity_abs="0"
            CO_normed="135.526115" CO2_normed="5065.145638" HC_normed="0.736392" PMx_normed="0.102640" NOx_normed="2.196560" fuel_normed="2.177314" electricity_normed="0"
            traveltime="2.70" CO_perVeh="325.674208" CO2_perVeh="12171.730080" HC_perVeh="1.769577" PMx_perVeh="0.246648" NOx_perVeh="5.278414" fuel_perVeh="5.232166" electricity_perVeh="0"/>
        <edge id=":1110673556_5" sampledSeconds="22.76" CO_abs="1100.367636" CO2_abs="48577.800335" HC_abs="6.131564" PMx_abs="0.831315" NOx_abs="20.040176" fuel_abs="20.881825" electricity_abs="0"
            CO_normed="43.945330" CO2_normed="1940.049322" HC_normed="0.244876" PMx_normed="0.033200" NOx_normed="0.800344" fuel_normed="0.833956" electricity_normed="0"
            traveltime="1.57" CO_perVeh="76.074800" CO2_perVeh="3358.465208" HC_perVeh="0.423911" PMx_perVeh="0.057474" NOx_perVeh="1.385494" fuel_perVeh="1.443682" electricity_perVeh="0"/>
        <edge id=":1110673556_6" sampledSeconds="208.39" CO_abs="25617.351929" CO2_abs="1308509.388563" HC_abs="147.822921" PMx_abs="26.619376" NOx_abs="564.538952" fuel_abs="562.470845" electricity_abs="0"
            CO_normed="517.866808" CO2_normed="26452.132231" HC_normed="2.988310" PMx_normed="0.538123" NOx_normed="11.412420" fuel_normed="11.370612" electricity_normed="0"
            traveltime="2.43" CO_perVeh="298.506978" CO2_perVeh="15247.445727" HC_perVeh="1.722511" PMx_perVeh="0.310183" NOx_perVeh="6.578307" fuel_perVeh="6.554209" electricity_perVeh="0"/>
        <edge id=":1110673561_0" sampledSeconds="166.32" CO_abs="16196.104099" CO2_abs="1143092.989939" HC_abs="101.242016" PMx_abs="23.206491" NOx_abs="484.561701" fuel_abs="491.361223" electricity_abs="0"
            CO_normed="411.368632" CO2_normed="29033.685901" HC_normed="2.571470" PMx_normed="0.589427" NOx_normed="12.307496" fuel_normed="12.480198" electricity_normed="0"
            traveltime="1.22" CO_perVeh="119.127141" CO2_perVeh="8407.787379" HC_perVeh="0.744665" PMx_perVeh="0.170691" NOx_perVeh="3.564095" fuel_perVeh="3.614107" electricity_perVeh="0"/>
        <edge id=":1110673561_1" sampledSeconds="5256.01" CO_abs="491234.940421" CO2_abs="34075547.601725" HC_abs="3061.048487" PMx_abs="711.239147" NOx_abs="14562.138877" fuel_abs="14647.433201" electricity_abs="0"
            CO_normed="12164.339142" CO2_normed="843805.037781" HC_normed="75.800048" PMx_normed="17.612253" NOx_normed="360.598934" fuel_normed="362.711058" electricity_normed="0"
            traveltime="1.19" CO_perVeh="111.534945" CO2_perVeh="7736.856651" HC_perVeh="0.695011" PMx_perVeh="0.161487" NOx_perVeh="3.306335" fuel_perVeh="3.325701" electricity_perVeh="0"/>
        <edge id=":1110673562_0" sampledSeconds="300.65" CO_abs="6883.742346" CO2_abs="522045.334581" HC_abs="43.266693" PMx_abs="7.206211" NOx_abs="200.469955" fuel_abs="224.407055" electricity_abs="0"
            CO_normed="10833.714741" CO2_normed="821601.093140" HC_normed="68.093630" PMx_normed="11.341219" NOx_normed="315.501975" fuel_normed="353.174465" electricity_normed="0"
            traveltime="0.03" CO_perVeh="0.617069" CO2_perVeh="46.796945" HC_perVeh="0.003878" PMx_perVeh="0.000646" NOx_perVeh="0.017970" fuel_perVeh="0.020116" electricity_perVeh="0"/>
        <edge id=":1110673564_0" sampledSeconds="27.85" CO_abs="444.713763" CO2_abs="52190.369878" HC_abs="3.218853" PMx_abs="0.720057" NOx_abs="19.568916" fuel_abs="22.434456" electricity_abs="0"
            CO_normed="1889.718539" CO2_normed="221772.109965" HC_normed="13.677847" PMx_normed="3.059731" NOx_normed="83.154033" fuel_normed="95.330549" electricity_normed="0"
            traveltime="7.866359e-03" CO_perVeh="0.125608" CO2_perVeh="14.740960" HC_perVeh="0.000909" PMx_perVeh="0.000203" NOx_perVeh="0.005527" fuel_perVeh="0.006337" electricity_perVeh="0"/>
        <edge id=":1110673588_0" sampledSeconds="62.62" CO_abs="1172.238083" CO2_abs="123623.287860" HC_abs="8.191648" PMx_abs="1.784983" NOx_abs="47.118943" fuel_abs="53.140436" electricity_abs="0"
            CO_normed="1992.472662" CO2_normed="210124.568600" HC_normed="13.923481" PMx_normed="3.033966" NOx_normed="80.088855" fuel_normed="90.323687" electricity_normed="0"
            traveltime="0.02" CO_perVeh="0.378141" CO2_perVeh="39.878480" HC_perVeh="0.002642" PMx_perVeh="0.000576" NOx_perVeh="0.015200" fuel_perVeh="0.017142" electricity_perVeh="0"/>
        <edge id=":1110673601_0" sampledSeconds="28.84" CO_abs="502.900524" CO2_abs="60272.544394" HC_abs="3.664215" PMx_abs="0.835279" NOx_abs="22.609770" fuel_abs="25.908630" electricity_abs="0"
            CO_normed="763.203952" CO2_normed="91469.867049" HC_normed="5.560828" PMx_normed="1.267623" NOx_normed="34.312682" fuel_normed="39.319046" electricity_normed="0"
            traveltime="0.02" CO_perVeh="0.383486" CO2_perVeh="45.960708" HC_perVeh="0.002794" PMx_perVeh="0.000637" NOx_perVeh="0.017241" fuel_perVeh="0.019757" electricity_perVeh="0"/>
        <edge id=":1110673617_0" sampledSeconds="850.53" CO_abs="31597.297423" CO2_abs="3209402.695452" HC_abs="220.789078" PMx_abs="60.543395" NOx_abs="1257.509371" fuel_abs="1379.571956" electricity_abs="0"
            CO_normed="44755.378786" CO2_normed="4545896.169195" HC_normed="312.732405" PMx_normed="85.755517" NOx_normed="1781.174746" fuel_normed="1954.067927" electricity_normed="0"
            traveltime="0.02" CO_perVeh="0.560542" CO2_perVeh="56.935400" HC_perVeh="0.003917" PMx_perVeh="0.001074" NOx_perVeh="0.022308" fuel_perVeh="0.024474" electricity_perVeh="0"/>
        <edge id=":1110673621_0" sampledSeconds="42.07" CO_abs="1083.647563" CO2_abs="101748.584654" HC_abs="7.310791" PMx_abs="1.609675" NOx_abs="39.841453" fuel_abs="43.737296" electricity_abs="0"
            CO_normed="1841.893875" CO2_normed="172943.769950" HC_normed="12.426273" PMx_normed="2.735992" NOx_normed="67.719183" fuel_normed="74.341013" electricity_normed="0"
            traveltime="0.02" CO_perVeh="0.511160" CO2_perVeh="47.995135" HC_perVeh="0.003449" PMx_perVeh="0.000759" NOx_perVeh="0.018793" fuel_perVeh="0.020631" electricity_perVeh="0"/>
        <edge id=":1110673630_0" sampledSeconds="285.84" CO_abs="1157.069139" CO2_abs="111182.188296" HC_abs="7.788321" PMx_abs="1.354530" NOx_abs="41.137689" fuel_abs="47.792965" electricity_abs="0"
            CO_normed="35.069361" CO2_normed="3369.797142" HC_normed="0.236055" PMx_normed="0.041054" NOx_normed="1.246833" fuel_normed="1.448547" electricity_normed="0"
            traveltime="1.29" CO_perVeh="5.206369" CO2_perVeh="500.277384" HC_perVeh="0.035044" PMx_perVeh="0.006095" NOx_perVeh="0.185104" fuel_perVeh="0.215050" electricity_perVeh="0"/>
        <edge id=":1110673630_1" sampledSeconds="338.47" CO_abs="1108.312092" CO2_abs="95261.111029" HC_abs="7.211021" PMx_abs="1.219357" NOx_abs="35.775567" fuel_abs="40.949098" electricity_abs="0"
            CO_normed="40.952535" CO2_normed="3519.932665" HC_normed="0.266450" PMx_normed="0.045056" NOx_normed="1.321920" fuel_normed="1.513084" electricity_normed="0"
            traveltime="1.08" CO_perVeh="3.533081" CO2_perVeh="303.673673" HC_perVeh="0.022987" PMx_perVeh="0.003887" NOx_perVeh="0.114045" fuel_perVeh="0.130538" electricity_perVeh="0"/>
        <edge id=":1110673650_0" sampledSeconds="199.97" CO_abs="3052.316903" CO2_abs="371823.887642" HC_abs="22.348100" PMx_abs="5.089919" NOx_abs="139.043348" fuel_abs="159.831493" electricity_abs="0"
            CO_normed="4323.395047" CO2_normed="526662.730372" HC_normed="31.654533" PMx_normed="7.209518" NOx_normed="196.945252" fuel_normed="226.390217" electricity_normed="0"
            traveltime="0.02" CO_perVeh="0.353164" CO2_perVeh="43.021404" HC_perVeh="0.002586" PMx_perVeh="0.000589" NOx_perVeh="0.016088" fuel_perVeh="0.018493" electricity_perVeh="0"/>
        <edge id=":1110673655_0" sampledSeconds="20.70" CO_abs="346.884116" CO2_abs="43617.687153" HC_abs="2.571577" PMx_abs="0.554519" NOx_abs="16.055191" fuel_abs="18.749469" electricity_abs="0"
            CO_normed="491.337274" CO2_normed="61781.426562" HC_normed="3.642460" PMx_normed="0.785438" NOx_normed="22.741063" fuel_normed="26.557322" electricity_normed="0"
            traveltime="0.02" CO_perVeh="0.396288" CO2_perVeh="49.829816" HC_perVeh="0.002938" PMx_perVeh="0.000633" NOx_perVeh="0.018342" fuel_perVeh="0.021420" electricity_perVeh="0"/>
        <edge id=":1110673663_0" sampledSeconds="177.94" CO_abs="2601.341727" CO2_abs="327965.559973" HC_abs="19.336361" PMx_abs="4.354652" NOx_abs="121.627679" fuel_abs="140.978792" electricity_abs="0"
            CO_normed="67.483883" CO2_normed="8508.066909" HC_normed="0.501623" PMx_normed="0.112968" NOx_normed="3.155259" fuel_normed="3.657265" electricity_normed="0"
            traveltime="1.30" CO_perVeh="19.024248" CO2_perVeh="2398.492345" HC_perVeh="0.141412" PMx_perVeh="0.031847" NOx_perVeh="0.889493" fuel_perVeh="1.031012" electricity_perVeh="0"/>
        <edge id=":1110673663_1" sampledSeconds="170.63" CO_abs="2575.958706" CO2_abs="328479.344530" HC_abs="19.249749" PMx_abs="4.412799" NOx_abs="122.124099" fuel_abs="141.199547" electricity_abs="0"
            CO_normed="66.907091" CO2_normed="8531.812837" HC_normed="0.499987" PMx_normed="0.114617" NOx_normed="3.172011" fuel_normed="3.667470" electricity_normed="0"
            traveltime="1.28" CO_perVeh="19.262961" CO2_perVeh="2456.361080" HC_perVeh="0.143949" PMx_perVeh="0.032999" NOx_perVeh="0.913241" fuel_perVeh="1.055887" electricity_perVeh="0"/>