<?xml version="1.0" encoding="UTF-8"?>

<!-- generated on Mon Nov  9 23:36:31 2020 by Eclipse SUMO sumo Version 1.7.0
<configuration xmlns:xsi="http://www.w3.org/2001/XMLSchema-instance" xsi:noNamespaceSchemaLocation="http://sumo.dlr.de/xsd/sumoConfiguration.xsd">

    <input>
        <net-file value="../dataSets/Porto/6AM7AM_Routing_SaoBento/Porto.net.xml"/>
        <route-files value="../results/Porto/6AM7AM_Routing_SaoBento/cost_PMx-length/solution10/Porto.rou.xml"/>
        <additional-files value="moreOutputInfo.xml"/>
    </input>

    <output>
        <emission-output.precision value="6"/>
        <tripinfo-output value="../results/Porto/6AM7AM_Routing_SaoBento/cost_PMx-length/solution10/Porto-tripinfo"/>
    </output>

    <processing>
        <collision.action value="warn"/>
        <time-to-teleport value="-1"/>
    </processing>

    <emissions>
        <device.emissions.probability value="1"/>
    </emissions>

    <gui_only>
        <quit-on-end value="true"/>
        <start value="true"/>
    </gui_only>

</configuration>
-->

<meandata xmlns:xsi="http://www.w3.org/2001/XMLSchema-instance" xsi:noNamespaceSchemaLocation="http://sumo.dlr.de/xsd/meandata_file.xsd">
    <interval begin="0.00" end="4698.00" id="emissions-detector">
        <edge id=":1092997347_0" sampledSeconds="329.47" CO_abs="42275.297310" CO2_abs="1703355.404349" HC_abs="232.783132" PMx_abs="34.811705" NOx_abs="739.654379" fuel_abs="732.204850" electricity_abs="0"
            CO_normed="73624.690543" CO2_normed="2966484.507748" HC_normed="405.404270" PMx_normed="60.626445" NOx_normed="1288.147647" fuel_normed="1275.173894" electricity_normed="0"
            traveltime="0.07" CO_perVeh="9.431691" CO2_perVeh="380.021510" HC_perVeh="0.051934" PMx_perVeh="0.007767" NOx_perVeh="0.165018" fuel_perVeh="0.163356" electricity_perVeh="0"/>
        <edge id=":1103427051_0" sampledSeconds="10.98" CO_abs="869.299639" CO2_abs="48087.437520" HC_abs="5.103941" PMx_abs="0.967727" NOx_abs="20.694524" fuel_abs="20.670635" electricity_abs="0"
            CO_normed="2296.999972" CO2_normed="127064.176297" HC_normed="13.486433" PMx_normed="2.557080" NOx_normed="54.682319" fuel_normed="54.619196" electricity_normed="0"
            traveltime="0.03" CO_perVeh="2.381868" CO2_perVeh="131.758852" HC_perVeh="0.013985" PMx_perVeh="0.002652" NOx_perVeh="0.056703" fuel_perVeh="0.056637" electricity_perVeh="0"/>
        <edge id=":1105984386_0" sampledSeconds="76.27" CO_abs="1555.425799" CO2_abs="127742.830105" HC_abs="9.980316" PMx_abs="1.629463" NOx_abs="48.030681" fuel_abs="54.911802" electricity_abs="0"
            CO_normed="122.749450" CO2_normed="10081.073752" HC_normed="0.787616" PMx_normed="0.128592" NOx_normed="3.790435" fuel_normed="4.333472" electricity_normed="0"
            traveltime="0.95" CO_perVeh="19.342227" CO2_perVeh="1588.523744" HC_perVeh="0.124108" PMx_perVeh="0.020263" NOx_perVeh="0.597277" fuel_perVeh="0.682846" electricity_perVeh="0"/>
        <edge id=":1105984390_0" sampledSeconds="78.52" CO_abs="69.949160" CO2_abs="6016.992170" HC_abs="0.455288" PMx_abs="0.077487" NOx_abs="2.264262" fuel_abs="2.586473" electricity_abs="0"
            CO_normed="4.267587" CO2_normed="367.095698" HC_normed="0.027777" PMx_normed="0.004727" NOx_normed="0.138142" fuel_normed="0.157800" electricity_normed="0"
            traveltime="1.06" CO_perVeh="0.939899" CO2_perVeh="80.849671" HC_perVeh="0.006118" PMx_perVeh="0.001041" NOx_perVeh="0.030425" fuel_perVeh="0.034754" electricity_perVeh="0"/>
        <edge id=":1105984390_1" sampledSeconds="646.45" CO_abs="14121.790677" CO2_abs="1813995.211077" HC_abs="107.757930" PMx_abs="32.194880" NOx_abs="679.978443" fuel_abs="779.753350" electricity_abs="0"
            CO_normed="824.165692" CO2_normed="105867.071173" HC_normed="6.288890" PMx_normed="1.878934" NOx_normed="39.684408" fuel_normed="45.507399" electricity_normed="0"
            traveltime="0.64" CO_perVeh="13.899974" CO2_perVeh="1785.502018" HC_perVeh="0.106065" PMx_perVeh="0.031689" NOx_perVeh="0.669298" fuel_perVeh="0.767505" electricity_perVeh="0"/>
        <edge id=":1105984395_0" sampledSeconds="29.70" CO_abs="657.784696" CO2_abs="57136.463865" HC_abs="4.292693" PMx_abs="0.726951" NOx_abs="21.431041" fuel_abs="24.560775" electricity_abs="0"
            CO_normed="547.879973" CO2_normed="47589.924925" HC_normed="3.575457" PMx_normed="0.605489" NOx_normed="17.850275" fuel_normed="20.457084" electricity_normed="0"
            traveltime="0.09" CO_perVeh="1.976491" CO2_perVeh="171.681843" HC_perVeh="0.012899" PMx_perVeh="0.002184" NOx_perVeh="0.064395" fuel_perVeh="0.073799" electricity_perVeh="0"/>
        <edge id=":1105984398_0" sampledSeconds="76.18" CO_abs="4968.074782" CO2_abs="347997.272650" HC_abs="30.832013" PMx_abs="6.248044" NOx_abs="143.235221" fuel_abs="149.588629" electricity_abs="0"
            CO_normed="314.884521" CO2_normed="22056.623387" HC_normed="1.954182" PMx_normed="0.396011" NOx_normed="9.078477" fuel_normed="9.481166" electricity_normed="0"
            traveltime="1.09" CO_perVeh="71.130825" CO2_perVeh="4982.479978" HC_perVeh="0.441440" PMx_perVeh="0.089457" NOx_perVeh="2.050782" fuel_perVeh="2.141748" electricity_perVeh="0"/>
        <edge id=":1105984398_1" sampledSeconds="452.49" CO_abs="7846.887549" CO2_abs="975264.557789" HC_abs="58.002535" PMx_abs="13.500979" NOx_abs="365.029135" fuel_abs="419.225039" electricity_abs="0"
            CO_normed="481.420388" CO2_normed="59834.200405" HC_normed="3.558558" PMx_normed="0.828309" NOx_normed="22.395181" fuel_normed="25.720195" electricity_normed="0"
            traveltime="0.96" CO_perVeh="16.574605" CO2_perVeh="2060.004585" HC_perVeh="0.122516" PMx_perVeh="0.028517" NOx_perVeh="0.771034" fuel_perVeh="0.885509" electricity_perVeh="0"/>
        <edge id=":1106006327_0" sampledSeconds="38.50" CO_abs="5199.448557" CO2_abs="168916.859246" HC_abs="27.651701" PMx_abs="3.524805" NOx_abs="73.944091" fuel_abs="72.611388" electricity_abs="0"
            CO_normed="449.689816" CO2_normed="14609.278366" HC_normed="2.391540" PMx_normed="0.304853" NOx_normed="6.395275" fuel_normed="6.280012" electricity_normed="0"
            traveltime="2.09" CO_perVeh="282.066582" CO2_perVeh="9163.625844" HC_perVeh="1.500086" PMx_perVeh="0.191218" NOx_perVeh="4.011417" fuel_perVeh="3.939119" electricity_perVeh="0"/>
        <edge id=":1106006327_1" sampledSeconds="161.55" CO_abs="21852.420973" CO2_abs="729836.331558" HC_abs="116.702199" PMx_abs="15.222638" NOx_abs="319.397933" fuel_abs="313.730337" electricity_abs="0"
            CO_normed="1648.144702" CO2_normed="55045.428814" HC_normed="8.801867" PMx_normed="1.148116" NOx_normed="24.089505" fuel_normed="23.662046" electricity_normed="0"
            traveltime="2.29" CO_perVeh="310.223280" CO2_perVeh="10360.967372" HC_perVeh="1.656738" PMx_perVeh="0.216105" NOx_perVeh="4.534265" fuel_perVeh="4.453806" electricity_perVeh="0"/>
        <edge id=":1106006327_2" sampledSeconds="0.00" CO_abs="0" CO2_abs="0" HC_abs="0" PMx_abs="0" NOx_abs="0" fuel_abs="0" electricity_abs="0"
            CO_normed="0" CO2_normed="0" HC_normed="0" PMx_normed="0" NOx_normed="0" fuel_normed="0" electricity_normed="0"/>
        <edge id=":1106006327_3" sampledSeconds="0.00" CO_abs="0" CO2_abs="0" HC_abs="0" PMx_abs="0" NOx_abs="0" fuel_abs="0" electricity_abs="0"
            CO_normed="0" CO2_normed="0" HC_normed="0" PMx_normed="0" NOx_normed="0" fuel_normed="0" electricity_normed="0"/>
        <edge id=":1107381198_0" sampledSeconds="0.00" CO_abs="0" CO2_abs="0" HC_abs="0" PMx_abs="0" NOx_abs="0" fuel_abs="0" electricity_abs="0"
            CO_normed="0" CO2_normed="0" HC_normed="0" PMx_normed="0" NOx_normed="0" fuel_normed="0" electricity_normed="0"/>
        <edge id=":1107381198_1" sampledSeconds="36.81" CO_abs="1682.420547" CO2_abs="64712.361355" HC_abs="9.140192" PMx_abs="1.073324" NOx_abs="26.534487" fuel_abs="27.817716" electricity_abs="0"
            CO_normed="140.590092" CO2_normed="5407.635372" HC_normed="0.763793" PMx_normed="0.089691" NOx_normed="2.217333" fuel_normed="2.324565" electricity_normed="0"
            traveltime="1.52" CO_perVeh="69.269919" CO2_perVeh="2664.387364" HC_perVeh="0.376327" PMx_perVeh="0.044192" NOx_perVeh="1.092498" fuel_perVeh="1.145333" electricity_perVeh="0"/>
        <edge id=":1110338277_0" sampledSeconds="96.77" CO_abs="1534.775947" CO2_abs="186978.941697" HC_abs="11.264445" PMx_abs="2.557477" NOx_abs="69.931521" fuel_abs="80.374410" electricity_abs="0"
            CO_normed="4200.262581" CO2_normed="511710.294737" HC_normed="30.827711" PMx_normed="6.999116" NOx_normed="191.383473" fuel_normed="219.962808" electricity_normed="0"
            traveltime="0.02" CO_perVeh="0.345892" CO2_perVeh="42.139350" HC_perVeh="0.002539" PMx_perVeh="0.000576" NOx_perVeh="0.015760" fuel_perVeh="0.018114" electricity_perVeh="0"/>
        <edge id=":1110338293_0" sampledSeconds="123.36" CO_abs="6135.750316" CO2_abs="426409.449802" HC_abs="37.962719" PMx_abs="7.484411" NOx_abs="174.516483" fuel_abs="183.294845" electricity_abs="0"
            CO_normed="15672.414601" CO2_normed="1089168.454156" HC_normed="96.967355" PMx_normed="19.117269" NOx_normed="445.763687" fuel_normed="468.186067" electricity_normed="0"
            traveltime="0.03" CO_perVeh="1.407336" CO2_perVeh="97.804071" HC_perVeh="0.008707" PMx_perVeh="0.001717" NOx_perVeh="0.040028" fuel_perVeh="0.042042" electricity_perVeh="0"/>
        <edge id=":1110338295_0" sampledSeconds="0.00" CO_abs="0" CO2_abs="0" HC_abs="0" PMx_abs="0" NOx_abs="0" fuel_abs="0" electricity_abs="0"
            CO_normed="0" CO2_normed="0" HC_normed="0" PMx_normed="0" NOx_normed="0" fuel_normed="0" electricity_normed="0"/>
        <edge id=":1110673403_0" sampledSeconds="158.77" CO_abs="2217.681135" CO2_abs="288930.478027" HC_abs="16.624342" PMx_abs="3.836579" NOx_abs="106.993355" fuel_abs="124.199167" electricity_abs="0"
            CO_normed="5664.575057" CO2_normed="738008.883850" HC_normed="42.463198" PMx_normed="9.799692" NOx_normed="273.290817" fuel_normed="317.239253" electricity_normed="0"
            traveltime="0.02" CO_perVeh="0.322901" CO2_perVeh="42.069085" HC_perVeh="0.002421" PMx_perVeh="0.000559" NOx_perVeh="0.015579" fuel_perVeh="0.018084" electricity_perVeh="0"/>
        <edge id=":1110673412_0" sampledSeconds="252.67" CO_abs="44822.218484" CO2_abs="3059328.979368" HC_abs="278.959457" PMx_abs="67.197572" NOx_abs="1314.731104" fuel_abs="1315.054864" electricity_abs="0"
            CO_normed="118436.301978" CO2_normed="8083839.290179" HC_normed="737.110469" PMx_normed="177.559975" NOx_normed="3473.988912" fuel_normed="3474.844403" electricity_normed="0"
            traveltime="0.02" CO_perVeh="2.763404" CO2_perVeh="188.615446" HC_perVeh="0.017199" PMx_perVeh="0.004143" NOx_perVeh="0.081057" fuel_perVeh="0.081076" electricity_perVeh="0"/>
        <edge id=":1110673414_0" sampledSeconds="0.00" CO_abs="0" CO2_abs="0" HC_abs="0" PMx_abs="0" NOx_abs="0" fuel_abs="0" electricity_abs="0"
            CO_normed="0" CO2_normed="0" HC_normed="0" PMx_normed="0" NOx_normed="0" fuel_normed="0" electricity_normed="0"/>
        <edge id=":1110673414_1" sampledSeconds="318.88" CO_abs="22179.053703" CO2_abs="853048.863018" HC_abs="120.785635" PMx_abs="15.670785" NOx_abs="359.653223" fuel_abs="366.695324" electricity_abs="0"
            CO_normed="1882.108909" CO2_normed="72389.511591" HC_normed="10.249839" PMx_normed="1.329819" NOx_normed="30.520082" fuel_normed="31.117673" electricity_normed="0"
            traveltime="1.57" CO_perVeh="109.277287" CO2_perVeh="4203.013648" HC_perVeh="0.595117" PMx_perVeh="0.077211" NOx_perVeh="1.772029" fuel_perVeh="1.806726" electricity_perVeh="0"/>
        <edge id=":1110673417_0" sampledSeconds="29.57" CO_abs="613.103099" CO2_abs="65332.260074" HC_abs="4.303656" PMx_abs="0.963826" NOx_abs="25.018002" fuel_abs="28.083547" electricity_abs="0"
            CO_normed="1677.895729" CO2_normed="178796.551928" HC_normed="11.777931" PMx_normed="2.637730" NOx_normed="68.467438" fuel_normed="76.856997" electricity_normed="0"
            traveltime="0.02" CO_perVeh="0.455053" CO2_perVeh="48.490478" HC_perVeh="0.003194" PMx_perVeh="0.000715" NOx_perVeh="0.018569" fuel_perVeh="0.020844" electricity_perVeh="0"/>
        <edge id=":1110673446_0" sampledSeconds="334.79" CO_abs="3873.577183" CO2_abs="309092.368013" HC_abs="24.982166" PMx_abs="5.750429" NOx_abs="126.976119" fuel_abs="132.864519" electricity_abs="0"
            CO_normed="9894.194593" CO2_normed="789507.964272" HC_normed="63.811408" PMx_normed="14.688196" NOx_normed="324.332361" fuel_normed="339.372974" electricity_normed="0"
            traveltime="0.02" CO_perVeh="0.264195" CO2_perVeh="21.081427" HC_perVeh="0.001704" PMx_perVeh="0.000392" NOx_perVeh="0.008660" fuel_perVeh="0.009062" electricity_perVeh="0"/>
        <edge id=":1110673451_0" sampledSeconds="37.57" CO_abs="368.272882" CO2_abs="26277.188703" HC_abs="2.275159" PMx_abs="0.358942" NOx_abs="10.095932" fuel_abs="11.295566" electricity_abs="0"
            CO_normed="1045.190527" CO2_normed="74576.951052" HC_normed="6.457098" PMx_normed="1.018708" NOx_normed="28.653134" fuel_normed="32.057801" electricity_normed="0"
            traveltime="0.03" CO_perVeh="0.264105" CO2_perVeh="18.844560" HC_perVeh="0.001632" PMx_perVeh="0.000257" NOx_perVeh="0.007240" fuel_perVeh="0.008101" electricity_perVeh="0"/>
        <edge id=":1110673464_0" sampledSeconds="323.55" CO_abs="679.404740" CO2_abs="51588.686560" HC_abs="4.270172" PMx_abs="0.701630" NOx_abs="19.715752" fuel_abs="22.175995" electricity_abs="0"
            CO_normed="36.870868" CO2_normed="2799.685594" HC_normed="0.231740" PMx_normed="0.038077" NOx_normed="1.069961" fuel_normed="1.203477" electricity_normed="0"
            traveltime="1.17" CO_perVeh="2.455958" CO2_perVeh="186.486296" HC_perVeh="0.015436" PMx_perVeh="0.002536" NOx_perVeh="0.071270" fuel_perVeh="0.080163" electricity_perVeh="0"/>
        <edge id=":1110673464_1" sampledSeconds="745.39" CO_abs="17757.549244" CO2_abs="2241680.301531" HC_abs="134.357294" PMx_abs="39.912675" NOx_abs="842.924375" fuel_abs="963.595400" electricity_abs="0"
            CO_normed="944.296838" CO2_normed="119206.293072" HC_normed="7.144745" PMx_normed="2.122445" NOx_normed="44.824362" fuel_normed="51.241310" electricity_normed="0"
            traveltime="0.70" CO_perVeh="16.716343" CO2_perVeh="2110.240356" HC_perVeh="0.126479" PMx_perVeh="0.037572" NOx_perVeh="0.793500" fuel_perVeh="0.907095" electricity_perVeh="0"/>
        <edge id=":1110673479_0" sampledSeconds="132.98" CO_abs="7063.650997" CO2_abs="484594.313870" HC_abs="43.557218" PMx_abs="8.535695" NOx_abs="198.620471" fuel_abs="208.306005" electricity_abs="0"
            CO_normed="18042.531282" CO2_normed="1237788.796602" HC_normed="111.257263" PMx_normed="21.802541" NOx_normed="507.331981" fuel_normed="532.071533" electricity_normed="0"
            traveltime="0.03" CO_perVeh="1.488028" CO2_perVeh="102.084575" HC_perVeh="0.009176" PMx_perVeh="0.001798" NOx_perVeh="0.041841" fuel_perVeh="0.043882" electricity_perVeh="0"/>
        <edge id=":1110673511_0" sampledSeconds="11.77" CO_abs="225.020153" CO2_abs="26581.182572" HC_abs="1.637668" PMx_abs="0.378826" NOx_abs="10.032883" fuel_abs="11.426120" electricity_abs="0"
            CO_normed="574.764121" CO2_normed="67895.740923" HC_normed="4.183060" PMx_normed="0.967628" NOx_normed="25.626776" fuel_normed="29.185492" electricity_normed="0"
            traveltime="0.02" CO_perVeh="0.445584" CO2_perVeh="52.636005" HC_perVeh="0.003243" PMx_perVeh="0.000750" NOx_perVeh="0.019867" fuel_perVeh="0.022626" electricity_perVeh="0"/>
        <edge id=":1110673517_0" sampledSeconds="17.06" CO_abs="750.020488" CO2_abs="55201.422819" HC_abs="4.713280" PMx_abs="0.958535" NOx_abs="22.453073" fuel_abs="23.728672" electricity_abs="0"
            CO_normed="1915.761145" CO2_normed="140999.802859" HC_normed="12.039029" PMx_normed="2.448366" NOx_normed="57.351400" fuel_normed="60.609635" electricity_normed="0"
            traveltime="0.03" CO_perVeh="1.204207" CO2_perVeh="88.629526" HC_perVeh="0.007567" PMx_perVeh="0.001539" NOx_perVeh="0.036050" fuel_perVeh="0.038098" electricity_perVeh="0"/>
        <edge id=":1110673534_0" sampledSeconds="472.88" CO_abs="3573.854897" CO2_abs="314055.158685" HC_abs="23.496464" PMx_abs="4.440484" NOx_abs="120.394395" fuel_abs="134.999586" electricity_abs="0"
            CO_normed="176.911249" CO2_normed="15546.207623" HC_normed="1.163111" PMx_normed="0.219811" NOx_normed="5.959705" fuel_normed="6.682685" electricity_normed="0"
            traveltime="1.42" CO_perVeh="10.766632" CO2_perVeh="946.125766" HC_perVeh="0.070786" PMx_perVeh="0.013377" NOx_perVeh="0.362701" fuel_perVeh="0.406701" electricity_perVeh="0"/>
        <edge id=":1110673534_1" sampledSeconds="245.22" CO_abs="3757.068582" CO2_abs="485746.663302" HC_abs="28.150373" PMx_abs="6.523755" NOx_abs="180.356782" fuel_abs="208.802163" electricity_abs="0"
            CO_normed="180.840437" CO2_normed="23380.632247" HC_normed="1.354973" PMx_normed="0.314010" NOx_normed="8.681183" fuel_normed="10.050355" electricity_normed="0"
            traveltime="1.23" CO_perVeh="18.790182" CO2_perVeh="2429.358968" HC_perVeh="0.140788" PMx_perVeh="0.032627" NOx_perVeh="0.902016" fuel_perVeh="1.044280" electricity_perVeh="0"/>
        <edge id=":1110673549_0" sampledSeconds="59.96" CO_abs="19.117271" CO2_abs="4624.939504" HC_abs="0.189382" PMx_abs="0.039611" NOx_abs="1.555699" fuel_abs="1.988090" electricity_abs="0"
            CO_normed="0.916724" CO2_normed="221.778157" HC_normed="0.009081" PMx_normed="0.001899" NOx_normed="0.074600" fuel_normed="0.095334" electricity_normed="0"
            traveltime="1.25" CO_perVeh="0.398292" CO2_perVeh="96.356675" HC_perVeh="0.003946" PMx_perVeh="0.000825" NOx_perVeh="0.032412" fuel_perVeh="0.041420" electricity_perVeh="0"/>
        <edge id=":1110673549_1" sampledSeconds="638.80" CO_abs="14056.856969" CO2_abs="1880452.354644" HC_abs="108.977932" PMx_abs="32.927918" NOx_abs="700.916095" fuel_abs="808.320521" electricity_abs="0"
            CO_normed="652.030140" CO2_normed="87225.160940" HC_normed="5.054963" PMx_normed="1.527368" NOx_normed="32.512134" fuel_normed="37.494110" electricity_normed="0"
            traveltime="0.80" CO_perVeh="17.694798" CO2_perVeh="2367.116993" HC_perVeh="0.137182" PMx_perVeh="0.041450" NOx_perVeh="0.882315" fuel_perVeh="1.017515" electricity_perVeh="0"/>
        <edge id=":1110673556_0" sampledSeconds="417.77" CO_abs="51787.616098" CO2_abs="2597484.656800" HC_abs="297.598064" PMx_abs="52.547925" NOx_abs="1119.736787" fuel_abs="1116.545973" electricity_abs="0"
            CO_normed="1841.484780" CO2_normed="92362.399011" HC_normed="10.582111" PMx_normed="1.868520" NOx_normed="39.816049" fuel_normed="39.702589" electricity_normed="0"
            traveltime="2.59" CO_perVeh="321.472268" CO2_perVeh="16123.918180" HC_perVeh="1.847344" PMx_perVeh="0.326192" NOx_perVeh="6.950780" fuel_perVeh="6.930973" electricity_perVeh="0"/>
        <edge id=":1110673556_2" sampledSeconds="250.05" CO_abs="24727.802257" CO2_abs="1063964.851707" HC_abs="137.583824" PMx_abs="20.538129" NOx_abs="453.850815" fuel_abs="457.356686" electricity_abs="0"
            CO_normed="919.384157" CO2_normed="39558.405480" HC_normed="5.115391" PMx_normed="0.763611" NOx_normed="16.874255" fuel_normed="17.004604" electricity_normed="0"
            traveltime="3.03" CO_perVeh="299.943503" CO2_perVeh="12905.689765" HC_perVeh="1.668865" PMx_perVeh="0.249124" NOx_perVeh="5.505123" fuel_perVeh="5.547649" electricity_perVeh="0"/>
        <edge id=":1110673556_3" sampledSeconds="376.02" CO_abs="32520.459798" CO2_abs="1135924.577228" HC_abs="174.505288" PMx_abs="21.713796" NOx_abs="484.746966" fuel_abs="488.294743" electricity_abs="0"
            CO_normed="2750.540018" CO2_normed="96075.087093" HC_normed="14.759440" PMx_normed="1.836526" NOx_normed="40.999295" fuel_normed="41.299362" electricity_normed="0"
            traveltime="1.77" CO_perVeh="153.489055" CO2_perVeh="5361.301513" HC_perVeh="0.823625" PMx_perVeh="0.102484" NOx_perVeh="2.287894" fuel_perVeh="2.304638" electricity_perVeh="0"/>
        <edge id=":1110673556_4" sampledSeconds="171.96" CO_abs="17695.897499" CO2_abs="715913.765009" HC_abs="97.386589" PMx_abs="13.998709" NOx_abs="306.949919" fuel_abs="307.743787" electricity_abs="0"
            CO_normed="914.367816" CO2_normed="36992.105420" HC_normed="5.032079" PMx_normed="0.723330" NOx_normed="15.860463" fuel_normed="15.901483" electricity_normed="0"
            traveltime="2.37" CO_perVeh="243.690370" CO2_perVeh="9858.855172" HC_perVeh="1.341112" PMx_perVeh="0.192776" NOx_perVeh="4.227010" fuel_perVeh="4.237943" electricity_perVeh="0"/>
        <edge id=":1110673556_5" sampledSeconds="23.86" CO_abs="2111.845701" CO2_abs="89035.372926" HC_abs="11.693414" PMx_abs="1.657999" NOx_abs="37.636283" fuel_abs="38.272933" electricity_abs="0"
            CO_normed="152.093286" CO2_normed="6412.249944" HC_normed="0.842150" PMx_normed="0.119408" NOx_normed="2.710532" fuel_normed="2.756383" electricity_normed="0"
            traveltime="1.65" CO_perVeh="146.004147" CO2_perVeh="6155.531955" HC_perVeh="0.808434" PMx_perVeh="0.114627" NOx_perVeh="2.602015" fuel_perVeh="2.646030" electricity_perVeh="0"/>
        <edge id=":1110673556_6" sampledSeconds="312.96" CO_abs="36834.176059" CO2_abs="1865974.883538" HC_abs="212.070124" PMx_abs="37.446535" NOx_abs="801.829727" fuel_abs="802.101865" electricity_abs="0"
            CO_normed="1342.788880" CO2_normed="68024.063327" HC_normed="7.731011" PMx_normed="1.365112" NOx_normed="29.230681" fuel_normed="29.240602" electricity_normed="0"
            traveltime="2.48" CO_perVeh="291.697044" CO2_perVeh="14777.020036" HC_perVeh="1.679425" PMx_perVeh="0.296546" NOx_perVeh="6.349846" fuel_perVeh="6.352002" electricity_perVeh="0"/>
        <edge id=":1110673561_0" sampledSeconds="101.17" CO_abs="9600.735512" CO2_abs="691762.761908" HC_abs="60.377798" PMx_abs="13.988214" NOx_abs="292.433310" fuel_abs="297.355822" electricity_abs="0"
            CO_normed="439.742107" CO2_normed="31684.782283" HC_normed="2.765482" PMx_normed="0.640702" NOx_normed="13.394311" fuel_normed="13.619777" electricity_normed="0"
            traveltime="1.19" CO_perVeh="113.297998" CO2_perVeh="8163.472015" HC_perVeh="0.712517" PMx_perVeh="0.165075" NOx_perVeh="3.450997" fuel_perVeh="3.509087" electricity_perVeh="0"/>
        <edge id=":1110673561_1" sampledSeconds="1315.15" CO_abs="123966.673927" CO2_abs="8586915.831092" HC_abs="772.220034" PMx_abs="179.482252" NOx_abs="3671.533691" fuel_abs="3691.100389" electricity_abs="0"
            CO_normed="5535.758734" CO2_normed="383450.590391" HC_normed="34.483653" PMx_normed="8.014819" NOx_normed="163.953134" fuel_normed="164.826889" electricity_normed="0"
            traveltime="1.19" CO_perVeh="112.493262" CO2_perVeh="7792.176251" HC_perVeh="0.700749" PMx_perVeh="0.162871" NOx_perVeh="3.331724" fuel_perVeh="3.349480" electricity_perVeh="0"/>
        <edge id=":1110673562_0" sampledSeconds="104.69" CO_abs="2085.231520" CO2_abs="169656.934257" HC_abs="13.348912" PMx_abs="2.243263" NOx_abs="64.293027" fuel_abs="72.928982" electricity_abs="0"
            CO_normed="5918.068739" CO2_normed="481501.161507" HC_normed="37.885376" PMx_normed="6.366576" NOx_normed="182.469213" fuel_normed="206.978805" electricity_normed="0"
            traveltime="0.03" CO_perVeh="0.531535" CO2_perVeh="43.246325" HC_perVeh="0.003403" PMx_perVeh="0.000572" NOx_perVeh="0.016389" fuel_perVeh="0.018590" electricity_perVeh="0"/>
        <edge id=":1110673564_0" sampledSeconds="28.77" CO_abs="465.987746" CO2_abs="57382.776952" HC_abs="3.431806" PMx_abs="0.754895" NOx_abs="21.295872" fuel_abs="24.666490" electricity_abs="0"
            CO_normed="3570.787322" CO2_normed="439714.765915" HC_normed="26.297365" PMx_normed="5.784636" NOx_normed="163.186755" fuel_normed="189.015249" electricity_normed="0"
            traveltime="7.909075e-03" CO_perVeh="0.128107" CO2_perVeh="15.775334" HC_perVeh="0.000943" PMx_perVeh="0.000208" NOx_perVeh="0.005855" fuel_perVeh="0.006781" electricity_perVeh="0"/>
        <edge id=":1110673588_0" sampledSeconds="11.55" CO_abs="178.031715" CO2_abs="21642.862767" HC_abs="1.310938" PMx_abs="0.298174" NOx_abs="8.118285" fuel_abs="9.303357" electricity_abs="0"
            CO_normed="545.691082" CO2_normed="66338.276679" HC_normed="4.018201" PMx_normed="0.913943" NOx_normed="24.883631" fuel_normed="28.516035" electricity_normed="0"
            traveltime="0.02" CO_perVeh="0.296720" CO2_perVeh="36.071438" HC_perVeh="0.002185" PMx_perVeh="0.000497" NOx_perVeh="0.013530" fuel_perVeh="0.015506" electricity_perVeh="0"/>
        <edge id=":1110673601_0" sampledSeconds="29.70" CO_abs="600.944030" CO2_abs="63216.802119" HC_abs="4.192764" PMx_abs="0.934169" NOx_abs="24.214748" fuel_abs="27.174205" electricity_abs="0"
            CO_normed="1644.619678" CO2_normed="173007.121290" HC_normed="11.474449" PMx_normed="2.556565" NOx_normed="66.269150" fuel_normed="74.368378" electricity_normed="0"
            traveltime="0.02" CO_perVeh="0.446029" CO2_perVeh="46.920357" HC_perVeh="0.003112" PMx_perVeh="0.000693" NOx_perVeh="0.017973" fuel_perVeh="0.020169" electricity_perVeh="0"/>
        <edge id=":1110673617_0" sampledSeconds="248.08" CO_abs="6296.924573" CO2_abs="778911.508856" HC_abs="47.352479" PMx_abs="13.951819" NOx_abs="293.965802" fuel_abs="334.818223" electricity_abs="0"
            CO_normed="16084.098525" CO2_normed="1989556.855316" HC_normed="120.951415" PMx_normed="35.636830" NOx_normed="750.870504" fuel_normed="855.218961" electricity_normed="0"
            traveltime="0.01" CO_perVeh="0.371106" CO2_perVeh="45.904736" HC_perVeh="0.002791" PMx_perVeh="0.000822" NOx_perVeh="0.017325" fuel_perVeh="0.019732" electricity_perVeh="0"/>
        <edge id=":1110673621_0" sampledSeconds="25.66" CO_abs="593.645715" CO2_abs="68086.663440" HC_abs="4.264261" PMx_abs="0.952798" NOx_abs="25.660600" fuel_abs="29.267594" electricity_abs="0"
            CO_normed="1819.603723" CO2_normed="208694.753840" HC_normed="13.070533" PMx_normed="2.920455" NOx_normed="78.653179" fuel_normed="89.709101" electricity_normed="0"
            traveltime="0.02" CO_perVeh="0.449732" CO2_perVeh="51.580806" HC_perVeh="0.003231" PMx_perVeh="0.000722" NOx_perVeh="0.019440" fuel_perVeh="0.022172" electricity_perVeh="0"/>
        <edge id=":1110673630_0" sampledSeconds="53.83" CO_abs="301.558095" CO2_abs="29229.559396" HC_abs="2.040587" PMx_abs="0.380541" NOx_abs="10.956558" fuel_abs="12.564630" electricity_abs="0"
            CO_normed="16.482097" CO2_normed="1597.584152" HC_normed="0.111531" PMx_normed="0.020799" NOx_normed="0.598847" fuel_normed="0.686738" electricity_normed="0"
            traveltime="1.26" CO_perVeh="7.038899" CO2_perVeh="682.269617" HC_perVeh="0.047631" PMx_perVeh="0.008883" NOx_perVeh="0.255745" fuel_perVeh="0.293281" electricity_perVeh="0"/>
        <edge id=":1110673630_1" sampledSeconds="7.48" CO_abs="33.147576" CO2_abs="2371.834623" HC_abs="0.204441" PMx_abs="0.029826" NOx_abs="0.894657" fuel_abs="1.019566" electricity_abs="0"
            CO_normed="2.208734" CO2_normed="158.043287" HC_normed="0.013623" PMx_normed="0.001987" NOx_normed="0.059614" fuel_normed="0.067937" electricity_normed="0"
            traveltime="1.06" CO_perVeh="4.691657" CO2_perVeh="335.705824" HC_perVeh="0.028936" PMx_perVeh="0.004222" NOx_perVeh="0.126628" fuel_perVeh="0.144308" electricity_perVeh="0"/>
        <edge id=":1110673650_0" sampledSeconds="158.36" CO_abs="2481.065399" CO2_abs="316124.921185" HC_abs="18.510954" PMx_abs="4.296537" NOx_abs="117.757115" fuel_abs="135.888826" electricity_abs="0"
            CO_normed="6337.331798" CO2_normed="807471.063052" HC_normed="47.282129" PMx_normed="10.974552" NOx_normed="300.784456" fuel_normed="347.097894" electricity_normed="0"
            traveltime="0.02" CO_perVeh="0.361649" CO2_perVeh="46.079508" HC_perVeh="0.002698" PMx_perVeh="0.000626" NOx_perVeh="0.017165" fuel_perVeh="0.019808" electricity_perVeh="0"/>
        <edge id=":1110673655_0" sampledSeconds="45.05" CO_abs="820.112701" CO2_abs="90718.081088" HC_abs="5.803904" PMx_abs="1.272266" NOx_abs="34.249256" fuel_abs="38.995904" electricity_abs="0"
            CO_normed="2094.796172" CO2_normed="231719.236497" HC_normed="14.824788" PMx_normed="3.249722" NOx_normed="87.482134" fuel_normed="99.606395" electricity_normed="0"
            traveltime="0.02" CO_perVeh="0.438919" CO2_perVeh="48.551778" HC_perVeh="0.003106" PMx_perVeh="0.000681" NOx_perVeh="0.018330" fuel_perVeh="0.020870" electricity_perVeh="0"/>
        <edge id=":1110673663_0" sampledSeconds="108.37" CO_abs="1708.152018" CO2_abs="210271.278095" HC_abs="12.564723" PMx_abs="2.856838" NOx_abs="78.409981" fuel_abs="90.386831" electricity_abs="0"
            CO_normed="79.910180" CO2_normed="9836.838594" HC_normed="0.587799" PMx_normed="0.133648" NOx_normed="3.668149" fuel_normed="4.228446" electricity_normed="0"
            traveltime="1.27" CO_perVeh="20.063051" CO2_perVeh="2469.735358" HC_perVeh="0.147579" PMx_perVeh="0.033555" NOx_perVeh="0.920962" fuel_perVeh="1.061636" electricity_perVeh="0"/>
        <edge id=":1110673663_1" sampledSeconds="153.91" CO_abs="2627.435970" CO2_abs="337353.302114" HC_abs="19.676787" PMx_abs="4.665769" NOx_abs="125.977770" fuel_abs="145.013895" electricity_abs="0"
            CO_normed="123.066069" CO2_normed="15801.239455" HC_normed="0.921638" PMx_normed="0.218539" NOx_normed="5.900653" fuel_normed="6.792284" electricity_normed="0"
            traveltime="1.24" CO_perVeh="21.222783" CO2_perVeh="2724.928759" HC_perVeh="0.158937" PMx_perVeh="0.037687" NOx_perVeh="1.017570" fuel_perVeh="1.171331" electricity_perVeh="0"/>
        <edge id=":1110673666_0" sampledSeconds="255.23" CO_abs="5647.783481" CO2_abs="452459.490680" HC_abs="36.027771" PMx_abs="6.048095" NOx_abs="172.043179" fuel_abs="194.494872" electricity_abs="0"