<?xml version="1.0" encoding="UTF-8"?>

<!-- generated on Mon Nov  9 22:41:58 2020 by Eclipse SUMO sumo Version 1.7.0
<configuration xmlns:xsi="http://www.w3.org/2001/XMLSchema-instance" xsi:noNamespaceSchemaLocation="http://sumo.dlr.de/xsd/sumoConfiguration.xsd">

    <input>
        <net-file value="../dataSets/Porto/6AM7AM_Routing_SaoBento/Porto.net.xml"/>
        <route-files value="../results/Porto/6AM7AM_Routing_SaoBento/cost_co-length/solution12/Porto.rou.xml"/>
        <additional-files value="moreOutputInfo.xml"/>
    </input>

    <output>
        <emission-output.precision value="6"/>
        <tripinfo-output value="../results/Porto/6AM7AM_Routing_SaoBento/cost_co-length/solution12/Porto-tripinfo"/>
    </output>

    <processing>
        <collision.action value="warn"/>
        <time-to-teleport value="-1"/>
    </processing>

    <emissions>
        <device.emissions.probability value="1"/>
    </emissions>

    <gui_only>
        <quit-on-end value="true"/>
        <start value="true"/>
    </gui_only>

</configuration>
-->

<meandata xmlns:xsi="http://www.w3.org/2001/XMLSchema-instance" xsi:noNamespaceSchemaLocation="http://sumo.dlr.de/xsd/meandata_file.xsd">
    <interval begin="0.00" end="4789.00" id="emissions-detector">
        <edge id=":1092997347_0" sampledSeconds="269.14" CO_abs="34542.506808" CO2_abs="1360694.286117" HC_abs="189.438761" PMx_abs="27.789477" NOx_abs="590.881991" fuel_abs="584.909116" electricity_abs="0"
            CO_normed="59014.514563" CO2_normed="2324692.681155" HC_normed="323.648675" PMx_normed="47.477228" NOx_normed="1009.498646" fuel_normed="999.294225" electricity_normed="0"
            traveltime="0.08" CO_perVeh="9.708568" CO2_perVeh="382.438759" HC_perVeh="0.053244" PMx_perVeh="0.007811" NOx_perVeh="0.166074" fuel_perVeh="0.164395" electricity_perVeh="0"/>
        <edge id=":1103427051_0" sampledSeconds="10.80" CO_abs="1000.969198" CO2_abs="57437.282114" HC_abs="5.925021" PMx_abs="1.140424" NOx_abs="24.577112" fuel_abs="24.689710" electricity_abs="0"
            CO_normed="2594.659539" CO2_normed="148885.891959" HC_normed="15.358527" PMx_normed="2.956148" NOx_normed="63.707493" fuel_normed="63.999364" electricity_normed="0"
            traveltime="0.03" CO_perVeh="2.742640" CO2_perVeh="157.377285" HC_perVeh="0.016234" PMx_perVeh="0.003125" NOx_perVeh="0.067341" fuel_perVeh="0.067649" electricity_perVeh="0"/>
        <edge id=":1105984386_0" sampledSeconds="22.63" CO_abs="473.962093" CO2_abs="37699.166964" HC_abs="3.011361" PMx_abs="0.475437" NOx_abs="14.171013" fuel_abs="16.205461" electricity_abs="0"
            CO_normed="36.692900" CO2_normed="2918.570494" HC_normed="0.233132" PMx_normed="0.036807" NOx_normed="1.097083" fuel_normed="1.254584" electricity_normed="0"
            traveltime="0.95" CO_perVeh="19.891822" CO2_perVeh="1582.204838" HC_perVeh="0.126384" PMx_perVeh="0.019954" NOx_perVeh="0.594746" fuel_perVeh="0.680131" electricity_perVeh="0"/>
        <edge id=":1105984390_0" sampledSeconds="23.20" CO_abs="24.538415" CO2_abs="2768.025319" HC_abs="0.172727" PMx_abs="0.023771" NOx_abs="0.956401" fuel_abs="1.189880" electricity_abs="0"
            CO_normed="1.468637" CO2_normed="165.667791" HC_normed="0.010338" PMx_normed="0.001423" NOx_normed="0.057241" fuel_normed="0.071215" electricity_normed="0"
            traveltime="1.05" CO_perVeh="1.112805" CO2_perVeh="125.528589" HC_perVeh="0.007833" PMx_perVeh="0.001078" NOx_perVeh="0.043372" fuel_perVeh="0.053960" electricity_perVeh="0"/>
        <edge id=":1105984390_1" sampledSeconds="645.35" CO_abs="13983.402390" CO2_abs="1861528.883371" HC_abs="108.138962" PMx_abs="32.680794" NOx_abs="693.839645" fuel_abs="800.186160" electricity_abs="0"
            CO_normed="800.581947" CO2_normed="106576.809926" HC_normed="6.191204" PMx_normed="1.871051" NOx_normed="39.723915" fuel_normed="45.812498" electricity_normed="0"
            traveltime="0.64" CO_perVeh="13.773436" CO2_perVeh="1833.577232" HC_perVeh="0.106515" PMx_perVeh="0.032190" NOx_perVeh="0.683421" fuel_perVeh="0.788171" electricity_perVeh="0"/>
        <edge id=":1105984395_0" sampledSeconds="8.97" CO_abs="221.891014" CO2_abs="17528.517076" HC_abs="1.411151" PMx_abs="0.242399" NOx_abs="6.726225" fuel_abs="7.534822" electricity_abs="0"
            CO_normed="181.304904" CO2_normed="14322.374072" HC_normed="1.153037" PMx_normed="0.198062" NOx_normed="5.495930" fuel_normed="6.156627" electricity_normed="0"
            traveltime="0.09" CO_perVeh="2.250218" CO2_perVeh="177.758330" HC_perVeh="0.014311" PMx_perVeh="0.002458" NOx_perVeh="0.068211" fuel_perVeh="0.076411" electricity_perVeh="0"/>
        <edge id=":1105984398_0" sampledSeconds="23.97" CO_abs="1426.893524" CO2_abs="98961.390161" HC_abs="8.830669" PMx_abs="1.774921" NOx_abs="40.760228" fuel_abs="42.539133" electricity_abs="0"
            CO_normed="88.720285" CO2_normed="6153.145012" HC_normed="0.549067" PMx_normed="0.110360" NOx_normed="2.534358" fuel_normed="2.644965" electricity_normed="0"
            traveltime="1.11" CO_perVeh="66.142087" CO2_perVeh="4587.246920" HC_perVeh="0.409336" PMx_perVeh="0.082275" NOx_perVeh="1.889396" fuel_perVeh="1.971855" electricity_perVeh="0"/>
        <edge id=":1105984398_1" sampledSeconds="452.19" CO_abs="8104.430479" CO2_abs="967944.635789" HC_abs="59.094564" PMx_abs="13.671811" NOx_abs="364.575450" fuel_abs="416.078324" electricity_abs="0"
            CO_normed="487.772966" CO2_normed="58256.681584" HC_normed="3.556663" PMx_normed="0.822851" NOx_normed="21.942325" fuel_normed="25.042075" electricity_normed="0"
            traveltime="0.95" CO_perVeh="17.096886" CO2_perVeh="2041.949679" HC_perVeh="0.124664" PMx_perVeh="0.028842" NOx_perVeh="0.769098" fuel_perVeh="0.877748" electricity_perVeh="0"/>
        <edge id=":1106006327_0" sampledSeconds="37.90" CO_abs="5091.776873" CO2_abs="166920.872226" HC_abs="27.113957" PMx_abs="3.474158" NOx_abs="73.022641" fuel_abs="71.753357" electricity_abs="0"
            CO_normed="432.009509" CO2_normed="14162.326004" HC_normed="2.300471" PMx_normed="0.294763" NOx_normed="6.195573" fuel_normed="6.087881" electricity_normed="0"
            traveltime="2.06" CO_perVeh="276.225466" CO2_perVeh="9055.344893" HC_perVeh="1.470914" PMx_perVeh="0.188471" NOx_perVeh="3.961429" fuel_perVeh="3.892571" electricity_perVeh="0"/>
        <edge id=":1106006327_1" sampledSeconds="160.14" CO_abs="21770.965950" CO2_abs="732746.472192" HC_abs="116.410015" PMx_abs="15.308417" NOx_abs="320.823442" fuel_abs="314.981120" electricity_abs="0"
            CO_normed="1610.800124" CO2_normed="54214.779027" HC_normed="8.612997" PMx_normed="1.132646" NOx_normed="23.737231" fuel_normed="23.304966" electricity_normed="0"
            traveltime="2.27" CO_perVeh="309.066921" CO2_perVeh="10402.280569" HC_perVeh="1.652590" PMx_perVeh="0.217323" NOx_perVeh="4.554502" fuel_perVeh="4.471563" electricity_perVeh="0"/>
        <edge id=":1106006327_2" sampledSeconds="0.00" CO_abs="0" CO2_abs="0" HC_abs="0" PMx_abs="0" NOx_abs="0" fuel_abs="0" electricity_abs="0"
            CO_normed="0" CO2_normed="0" HC_normed="0" PMx_normed="0" NOx_normed="0" fuel_normed="0" electricity_normed="0"/>
        <edge id=":1106006327_3" sampledSeconds="0.00" CO_abs="0" CO2_abs="0" HC_abs="0" PMx_abs="0" NOx_abs="0" fuel_abs="0" electricity_abs="0"
            CO_normed="0" CO2_normed="0" HC_normed="0" PMx_normed="0" NOx_normed="0" fuel_normed="0" electricity_normed="0"/>
        <edge id=":1107381198_0" sampledSeconds="0.00" CO_abs="0" CO2_abs="0" HC_abs="0" PMx_abs="0" NOx_abs="0" fuel_abs="0" electricity_abs="0"
            CO_normed="0" CO2_normed="0" HC_normed="0" PMx_normed="0" NOx_normed="0" fuel_normed="0" electricity_normed="0"/>
        <edge id=":1107381198_1" sampledSeconds="36.54" CO_abs="1215.765644" CO2_abs="51826.390513" HC_abs="6.734479" PMx_abs="0.908249" NOx_abs="21.541791" fuel_abs="22.278276" electricity_abs="0"
            CO_normed="99.663973" CO2_normed="4248.535888" HC_normed="0.552068" PMx_normed="0.074455" NOx_normed="1.765916" fuel_normed="1.826291" electricity_normed="0"
            traveltime="1.50" CO_perVeh="50.056443" CO2_perVeh="2133.836211" HC_perVeh="0.277277" PMx_perVeh="0.037395" NOx_perVeh="0.886935" fuel_perVeh="0.917258" electricity_perVeh="0"/>
        <edge id=":1110338277_0" sampledSeconds="96.78" CO_abs="1483.964203" CO2_abs="190395.553342" HC_abs="11.107675" PMx_abs="2.543739" NOx_abs="70.663476" fuel_abs="81.843110" electricity_abs="0"
            CO_normed="3984.034193" CO2_normed="511159.496489" HC_normed="29.821040" PMx_normed="6.829236" NOx_normed="189.711926" fuel_normed="219.726155" electricity_normed="0"
            traveltime="0.02" CO_perVeh="0.334439" CO2_perVeh="42.909148" HC_perVeh="0.002503" PMx_perVeh="0.000573" NOx_perVeh="0.015925" fuel_perVeh="0.018445" electricity_perVeh="0"/>
        <edge id=":1110338293_0" sampledSeconds="123.88" CO_abs="6017.919282" CO2_abs="413606.452246" HC_abs="37.147159" PMx_abs="7.388956" NOx_abs="170.175778" fuel_abs="177.791247" electricity_abs="0"
            CO_normed="15079.355060" CO2_normed="1036391.193767" HC_normed="93.081210" PMx_normed="18.514819" NOx_normed="426.416649" fuel_normed="445.499053" electricity_normed="0"
            traveltime="0.03" CO_perVeh="1.380309" CO2_perVeh="94.867492" HC_perVeh="0.008520" PMx_perVeh="0.001695" NOx_perVeh="0.039033" fuel_perVeh="0.040779" electricity_perVeh="0"/>
        <edge id=":1110338295_0" sampledSeconds="0.00" CO_abs="0" CO2_abs="0" HC_abs="0" PMx_abs="0" NOx_abs="0" fuel_abs="0" electricity_abs="0"
            CO_normed="0" CO2_normed="0" HC_normed="0" PMx_normed="0" NOx_normed="0" fuel_normed="0" electricity_normed="0"/>
        <edge id=":1110673403_0" sampledSeconds="143.99" CO_abs="1873.526469" CO2_abs="245137.583416" HC_abs="14.114290" PMx_abs="3.281187" NOx_abs="90.917508" fuel_abs="105.374392" electricity_abs="0"
            CO_normed="4694.574573" CO2_normed="614251.618500" HC_normed="35.366774" PMx_normed="8.221808" NOx_normed="227.815848" fuel_normed="264.041073" electricity_normed="0"
            traveltime="0.02" CO_perVeh="0.300807" CO2_perVeh="39.358456" HC_perVeh="0.002266" PMx_perVeh="0.000527" NOx_perVeh="0.014597" fuel_perVeh="0.016919" electricity_perVeh="0"/>
        <edge id=":1110673412_0" sampledSeconds="252.67" CO_abs="44931.508935" CO2_abs="3066164.582703" HC_abs="279.626019" PMx_abs="67.366649" NOx_abs="1317.723766" fuel_abs="1317.993139" electricity_abs="0"
            CO_normed="116469.086604" CO2_normed="7947950.041928" HC_normed="724.831812" PMx_normed="174.624272" NOx_normed="3415.734016" fuel_normed="3416.432270" electricity_normed="0"
            traveltime="0.02" CO_perVeh="2.765731" CO2_perVeh="188.735878" HC_perVeh="0.017212" PMx_perVeh="0.004147" NOx_perVeh="0.081112" fuel_perVeh="0.081128" electricity_perVeh="0"/>
        <edge id=":1110673414_0" sampledSeconds="0.00" CO_abs="0" CO2_abs="0" HC_abs="0" PMx_abs="0" NOx_abs="0" fuel_abs="0" electricity_abs="0"
            CO_normed="0" CO2_normed="0" HC_normed="0" PMx_normed="0" NOx_normed="0" fuel_normed="0" electricity_normed="0"/>
        <edge id=":1110673414_1" sampledSeconds="14.30" CO_abs="1069.828876" CO2_abs="40938.506547" HC_abs="5.821722" PMx_abs="0.755032" NOx_abs="17.282527" fuel_abs="17.598006" electricity_abs="0"
            CO_normed="89.060315" CO2_normed="3408.018227" HC_normed="0.484642" PMx_normed="0.062854" NOx_normed="1.438723" fuel_normed="1.464986" electricity_normed="0"
            traveltime="1.56" CO_perVeh="116.842704" CO2_perVeh="4471.150388" HC_perVeh="0.635827" PMx_perVeh="0.082462" NOx_perVeh="1.887533" fuel_perVeh="1.921988" electricity_perVeh="0"/>
        <edge id=":1110673417_0" sampledSeconds="29.53" CO_abs="526.127420" CO2_abs="60656.487169" HC_abs="3.782933" PMx_abs="0.846728" NOx_abs="22.836463" fuel_abs="26.073675" electricity_abs="0"
            CO_normed="1412.506870" CO2_normed="162845.922059" HC_normed="10.156131" PMx_normed="2.273232" NOx_normed="61.309598" fuel_normed="70.000619" electricity_normed="0"
            traveltime="0.02" CO_perVeh="0.390499" CO2_perVeh="45.020057" HC_perVeh="0.002808" PMx_perVeh="0.000628" NOx_perVeh="0.016950" fuel_perVeh="0.019352" electricity_perVeh="0"/>
        <edge id=":1110673446_0" sampledSeconds="334.29" CO_abs="3203.181011" CO2_abs="261565.841470" HC_abs="20.783568" PMx_abs="4.766839" NOx_abs="106.748421" fuel_abs="112.435157" electricity_abs="0"
            CO_normed="8026.346237" CO2_normed="655416.600051" HC_normed="52.078267" PMx_normed="11.944471" NOx_normed="267.484036" fuel_normed="281.733532" electricity_normed="0"
            traveltime="0.02" CO_perVeh="0.218656" CO2_perVeh="17.855022" HC_perVeh="0.001419" PMx_perVeh="0.000325" NOx_perVeh="0.007287" fuel_perVeh="0.007675" electricity_perVeh="0"/>
        <edge id=":1110673451_0" sampledSeconds="37.28" CO_abs="426.785755" CO2_abs="31685.835392" HC_abs="2.665690" PMx_abs="0.433730" NOx_abs="12.162896" fuel_abs="13.620524" electricity_abs="0"
            CO_normed="1188.239034" CO2_normed="88218.376534" HC_normed="7.421704" PMx_normed="1.207572" NOx_normed="33.863426" fuel_normed="37.921692" electricity_normed="0"
            traveltime="0.03" CO_perVeh="0.306061" CO2_perVeh="22.722910" HC_perVeh="0.001912" PMx_perVeh="0.000311" NOx_perVeh="0.008722" fuel_perVeh="0.009768" electricity_perVeh="0"/>
        <edge id=":1110673464_0" sampledSeconds="321.65" CO_abs="587.137479" CO2_abs="45564.809742" HC_abs="3.715865" PMx_abs="0.633393" NOx_abs="17.490697" fuel_abs="19.586531" electricity_abs="0"
            CO_normed="31.258114" CO2_normed="2425.786240" HC_normed="0.197826" PMx_normed="0.033721" NOx_normed="0.931172" fuel_normed="1.042751" electricity_normed="0"
            traveltime="1.16" CO_perVeh="2.122425" CO2_perVeh="164.710776" HC_perVeh="0.013432" PMx_perVeh="0.002290" NOx_perVeh="0.063227" fuel_perVeh="0.070803" electricity_perVeh="0"/>
        <edge id=":1110673464_1" sampledSeconds="710.62" CO_abs="16900.134615" CO2_abs="2129891.275710" HC_abs="128.166219" PMx_abs="37.984402" NOx_abs="801.791597" fuel_abs="915.542381" electricity_abs="0"
            CO_normed="881.624898" CO2_normed="111109.480632" HC_normed="6.686014" PMx_normed="1.981522" NOx_normed="41.826852" fuel_normed="47.760860" electricity_normed="0"
            traveltime="0.70" CO_perVeh="16.672510" CO2_perVeh="2101.204188" HC_perVeh="0.126440" PMx_perVeh="0.037473" NOx_perVeh="0.790992" fuel_perVeh="0.903211" electricity_perVeh="0"/>
        <edge id=":1110673479_0" sampledSeconds="132.72" CO_abs="7074.737125" CO2_abs="488032.191921" HC_abs="43.688342" PMx_abs="8.608112" NOx_abs="200.070063" fuel_abs="209.783751" electricity_abs="0"
            CO_normed="17727.468261" CO2_normed="1222882.919827" HC_normed="109.471729" PMx_normed="21.569711" NOx_normed="501.324026" fuel_normed="525.664024" electricity_normed="0"
            traveltime="0.03" CO_perVeh="1.490368" CO2_perVeh="102.809149" HC_perVeh="0.009203" PMx_perVeh="0.001813" NOx_perVeh="0.042147" fuel_perVeh="0.044193" electricity_perVeh="0"/>
        <edge id=":1110673511_0" sampledSeconds="11.85" CO_abs="218.749261" CO2_abs="25824.665804" HC_abs="1.594357" PMx_abs="0.364321" NOx_abs="9.732576" fuel_abs="11.100931" electricity_abs="0"
            CO_normed="548.129282" CO2_normed="64709.958164" HC_normed="3.995048" PMx_normed="0.912896" NOx_normed="24.387329" fuel_normed="27.816073" electricity_normed="0"
            traveltime="0.02" CO_perVeh="0.433167" CO2_perVeh="51.137952" HC_perVeh="0.003157" PMx_perVeh="0.000721" NOx_perVeh="0.019272" fuel_perVeh="0.021982" electricity_perVeh="0"/>
        <edge id=":1110673517_0" sampledSeconds="17.16" CO_abs="795.035793" CO2_abs="58379.970372" HC_abs="4.985219" PMx_abs="0.973984" NOx_abs="23.492931" fuel_abs="25.095052" electricity_abs="0"
            CO_normed="1992.154838" CO2_normed="146285.162762" HC_normed="12.491674" PMx_normed="2.440553" NOx_normed="58.867233" fuel_normed="62.881735" electricity_normed="0"
            traveltime="0.03" CO_perVeh="1.276482" CO2_perVeh="93.732893" HC_perVeh="0.008004" PMx_perVeh="0.001564" NOx_perVeh="0.037719" fuel_perVeh="0.040292" electricity_perVeh="0"/>
        <edge id=":1110673534_0" sampledSeconds="475.88" CO_abs="3068.173440" CO2_abs="268538.112101" HC_abs="20.084021" PMx_abs="3.562628" NOx_abs="101.558194" fuel_abs="115.434004" electricity_abs="0"
            CO_normed="148.993257" CO2_normed="13040.451816" HC_normed="0.975298" PMx_normed="0.173004" NOx_normed="4.931757" fuel_normed="5.605579" electricity_normed="0"
            traveltime="1.43" CO_perVeh="9.243177" CO2_perVeh="808.997703" HC_perVeh="0.060505" PMx_perVeh="0.010733" NOx_perVeh="0.305954" fuel_perVeh="0.347756" electricity_perVeh="0"/>
        <edge id=":1110673534_1" sampledSeconds="184.16" CO_abs="2939.137534" CO2_abs="384024.212229" HC_abs="22.071301" PMx_abs="5.120637" NOx_abs="142.278616" fuel_abs="165.075968" electricity_abs="0"
            CO_normed="138.782437" CO2_normed="18133.148044" HC_normed="1.042180" PMx_normed="0.241790" NOx_normed="6.718220" fuel_normed="7.794683" electricity_normed="0"
            traveltime="1.22" CO_perVeh="19.514818" CO2_perVeh="2549.782902" HC_perVeh="0.146546" PMx_perVeh="0.033999" NOx_perVeh="0.944679" fuel_perVeh="1.096045" electricity_perVeh="0"/>
        <edge id=":1110673549_0" sampledSeconds="60.33" CO_abs="143.815920" CO2_abs="14017.924961" HC_abs="0.979035" PMx_abs="0.200002" NOx_abs="5.322917" fuel_abs="6.025728" electricity_abs="0"
            CO_normed="6.765312" CO2_normed="659.423803" HC_normed="0.046055" PMx_normed="0.009408" NOx_normed="0.250398" fuel_normed="0.283459" electricity_normed="0"
            traveltime="1.26" CO_perVeh="2.996282" CO2_perVeh="292.051526" HC_perVeh="0.020397" PMx_perVeh="0.004167" NOx_perVeh="0.110898" fuel_perVeh="0.125541" electricity_perVeh="0"/>
        <edge id=":1110673549_1" sampledSeconds="638.97" CO_abs="14054.657192" CO2_abs="1876491.896035" HC_abs="108.721782" PMx_abs="32.864213" NOx_abs="699.407777" fuel_abs="806.618094" electricity_abs="0"
            CO_normed="639.540243" CO2_normed="85387.503062" HC_normed="4.947254" PMx_normed="1.495446" NOx_normed="31.825708" fuel_normed="36.704185" electricity_normed="0"
            traveltime="0.80" CO_perVeh="17.692036" CO2_perVeh="2362.132452" HC_perVeh="0.136859" PMx_perVeh="0.041370" NOx_perVeh="0.880416" fuel_perVeh="1.015373" electricity_perVeh="0"/>
        <edge id=":1110673556_0" sampledSeconds="415.71" CO_abs="50802.946552" CO2_abs="2554158.505681" HC_abs="292.063209" PMx_abs="51.528230" NOx_abs="1099.914983" fuel_abs="1097.922079" electricity_abs="0"
            CO_normed="1772.145153" CO2_normed="89096.005690" HC_normed="10.187960" PMx_normed="1.797445" NOx_normed="38.368031" fuel_normed="38.298513" electricity_normed="0"
            traveltime="2.58" CO_perVeh="315.359920" CO2_perVeh="15854.970560" HC_perVeh="1.812986" PMx_perVeh="0.319862" NOx_perVeh="6.827736" fuel_perVeh="6.815365" electricity_perVeh="0"/>
        <edge id=":1110673556_2" sampledSeconds="245.46" CO_abs="23959.984409" CO2_abs="1040929.806167" HC_abs="133.524919" PMx_abs="19.936618" NOx_abs="442.915192" fuel_abs="447.454875" electricity_abs="0"
            CO_normed="873.908982" CO2_normed="37966.548383" HC_normed="4.870146" PMx_normed="0.727162" NOx_normed="16.154750" fuel_normed="16.320329" electricity_normed="0"
            traveltime="2.98" CO_perVeh="290.630298" CO2_perVeh="12626.291196" HC_perVeh="1.619633" PMx_perVeh="0.241828" NOx_perVeh="5.372482" fuel_perVeh="5.427547" electricity_perVeh="0"/>
        <edge id=":1110673556_3" sampledSeconds="415.67" CO_abs="34791.090274" CO2_abs="1236746.692242" HC_abs="187.184404" PMx_abs="23.511315" NOx_abs="526.886398" fuel_abs="531.634364" electricity_abs="0"
            CO_normed="2886.672433" CO2_normed="102614.852102" HC_normed="15.530990" PMx_normed="1.950771" NOx_normed="43.716608" fuel_normed="44.110554" electricity_normed="0"
            traveltime="1.74" CO_perVeh="145.379411" CO2_perVeh="5167.918121" HC_perVeh="0.782176" PMx_perVeh="0.098245" NOx_perVeh="2.201668" fuel_perVeh="2.221508" electricity_perVeh="0"/>
        <edge id=":1110673556_4" sampledSeconds="196.38" CO_abs="20740.874436" CO2_abs="836983.058487" HC_abs="114.094147" PMx_abs="16.377200" NOx_abs="358.981955" fuel_abs="359.786841" electricity_abs="0"
            CO_normed="1051.340936" CO2_normed="42426.106728" HC_normed="5.783355" PMx_normed="0.830149" NOx_normed="18.196553" fuel_normed="18.237352" electricity_normed="0"
            traveltime="2.40" CO_perVeh="253.375044" CO2_perVeh="10224.767503" HC_perVeh="1.393799" PMx_perVeh="0.200067" NOx_perVeh="4.385402" fuel_perVeh="4.395234" electricity_perVeh="0"/>
        <edge id=":1110673556_5" sampledSeconds="24.99" CO_abs="2257.278134" CO2_abs="89645.745771" HC_abs="12.374886" PMx_abs="1.716624" NOx_abs="38.206658" fuel_abs="38.535348" electricity_abs="0"
            CO_normed="159.478121" CO2_normed="6333.528370" HC_normed="0.874293" PMx_normed="0.121281" NOx_normed="2.699324" fuel_normed="2.722547" electricity_normed="0"
            traveltime="1.73" CO_perVeh="156.058735" CO2_perVeh="6197.730572" HC_perVeh="0.855548" PMx_perVeh="0.118680" NOx_perVeh="2.641448" fuel_perVeh="2.664172" electricity_perVeh="0"/>
        <edge id=":1110673556_6" sampledSeconds="489.45" CO_abs="57930.647023" CO2_abs="2825499.215604" HC_abs="330.925250" PMx_abs="57.093613" NOx_abs="1218.046765" fuel_abs="1214.560963" electricity_abs="0"
            CO_normed="2071.730841" CO2_normed="101046.236590" HC_normed="11.834635" PMx_normed="2.041797" NOx_normed="43.560105" fuel_normed="43.435445" electricity_normed="0"
            traveltime="2.63" CO_perVeh="310.873057" CO2_perVeh="15162.467964" HC_perVeh="1.775843" PMx_perVeh="0.306381" NOx_perVeh="6.536401" fuel_perVeh="6.517695" electricity_perVeh="0"/>
        <edge id=":1110673561_0" sampledSeconds="100.07" CO_abs="9766.988873" CO2_abs="696476.930228" HC_abs="61.264045" PMx_abs="14.205630" NOx_abs="295.273862" fuel_abs="299.382111" electricity_abs="0"
            CO_normed="438.856379" CO2_normed="31294.531798" HC_normed="2.752754" PMx_normed="0.638296" NOx_normed="13.267428" fuel_normed="13.452022" electricity_normed="0"
            traveltime="1.18" CO_perVeh="115.259949" CO2_perVeh="8219.103777" HC_perVeh="0.722975" PMx_perVeh="0.167640" NOx_perVeh="3.484518" fuel_perVeh="3.532999" electricity_perVeh="0"/>
        <edge id=":1110673561_1" sampledSeconds="1316.77" CO_abs="120125.721030" CO2_abs="8326811.816469" HC_abs="748.450691" PMx_abs="173.910050" NOx_abs="3559.269736" fuel_abs="3579.294394" electricity_abs="0"
            CO_normed="5262.309504" CO2_normed="364770.014170" HC_normed="32.787143" PMx_normed="7.618423" NOx_normed="155.919805" fuel_normed="156.797019" electricity_normed="0"
            traveltime="1.20" CO_perVeh="109.069259" CO2_perVeh="7560.405802" HC_perVeh="0.679563" PMx_perVeh="0.157903" NOx_perVeh="3.231672" fuel_perVeh="3.249853" electricity_perVeh="0"/>
        <edge id=":1110673562_0" sampledSeconds="103.98" CO_abs="2364.854450" CO2_abs="184537.256272" HC_abs="14.973747" PMx_abs="2.483701" NOx_abs="70.359054" fuel_abs="79.325462" electricity_abs="0"
            CO_normed="6584.128768" CO2_normed="513780.904218" HC_normed="41.689280" PMx_normed="6.915016" NOx_normed="195.890733" fuel_normed="220.854631" electricity_normed="0"
            traveltime="0.03" CO_perVeh="0.602812" CO2_perVeh="47.039387" HC_perVeh="0.003817" PMx_perVeh="0.000633" NOx_perVeh="0.017935" fuel_perVeh="0.020220" electricity_perVeh="0"/>
        <edge id=":1110673564_0" sampledSeconds="28.40" CO_abs="460.965533" CO2_abs="53304.167086" HC_abs="3.325935" PMx_abs="0.739190" NOx_abs="20.050996" fuel_abs="22.913228" electricity_abs="0"
            CO_normed="3465.182543" CO2_normed="400699.522884" HC_normed="25.001805" PMx_normed="5.556658" NOx_normed="150.727890" fuel_normed="172.243936" electricity_normed="0"
            traveltime="7.808438e-03" CO_perVeh="0.126726" CO2_perVeh="14.654067" HC_perVeh="0.000914" PMx_perVeh="0.000203" NOx_perVeh="0.005512" fuel_perVeh="0.006299" electricity_perVeh="0"/>
        <edge id=":1110673588_0" sampledSeconds="11.67" CO_abs="243.174592" CO2_abs="25239.400646" HC_abs="1.691791" PMx_abs="0.382166" NOx_abs="9.730421" fuel_abs="10.849330" electricity_abs="0"
            CO_normed="731.199442" CO2_normed="75892.121383" HC_normed="5.087029" PMx_normed="1.149131" NOx_normed="29.258314" fuel_normed="32.622750" electricity_normed="0"
            traveltime="0.02" CO_perVeh="0.405291" CO2_perVeh="42.065668" HC_perVeh="0.002820" PMx_perVeh="0.000637" NOx_perVeh="0.016217" fuel_perVeh="0.018082" electricity_perVeh="0"/>
        <edge id=":1110673601_0" sampledSeconds="29.40" CO_abs="584.051522" CO2_abs="65276.928303" HC_abs="4.166790" PMx_abs="0.936138" NOx_abs="24.769042" fuel_abs="28.059784" electricity_abs="0"
            CO_normed="1568.017093" CO2_normed="175250.530897" HC_normed="11.186680" PMx_normed="2.513271" NOx_normed="66.498040" fuel_normed="75.332774" electricity_normed="0"
            traveltime="0.02" CO_perVeh="0.433491" CO2_perVeh="48.449410" HC_perVeh="0.003093" PMx_perVeh="0.000695" NOx_perVeh="0.018384" fuel_perVeh="0.020826" electricity_perVeh="0"/>
        <edge id=":1110673617_0" sampledSeconds="238.37" CO_abs="6030.279116" CO2_abs="775079.445717" HC_abs="45.982264" PMx_abs="13.732463" NOx_abs="290.672336" fuel_abs="333.171105" electricity_abs="0"
            CO_normed="15110.325620" CO2_normed="1942149.373274" HC_normed="115.219705" PMx_normed="34.410015" NOx_normed="728.349975" fuel_normed="834.840939" electricity_normed="0"
            traveltime="0.01" CO_perVeh="0.369435" CO2_perVeh="47.483972" HC_perVeh="0.002817" PMx_perVeh="0.000841" NOx_perVeh="0.017808" fuel_perVeh="0.020411" electricity_perVeh="0"/>
        <edge id=":1110673621_0" sampledSeconds="25.65" CO_abs="479.291851" CO2_abs="56155.111157" HC_abs="3.468334" PMx_abs="0.793981" NOx_abs="21.186817" fuel_abs="24.138702" electricity_abs="0"
            CO_normed="1441.178255" CO2_normed="168852.286628" HC_normed="10.428900" PMx_normed="2.387415" NOx_normed="63.706446" fuel_normed="72.582442" electricity_normed="0"
            traveltime="0.02" CO_perVeh="0.363100" CO2_perVeh="42.541751" HC_perVeh="0.002628" PMx_perVeh="0.000602" NOx_perVeh="0.016051" fuel_perVeh="0.018287" electricity_perVeh="0"/>
        <edge id=":1110673630_0" sampledSeconds="54.64" CO_abs="162.457064" CO2_abs="15849.828684" HC_abs="1.098036" PMx_abs="0.187323" NOx_abs="5.818081" fuel_abs="6.813242" electricity_abs="0"
            CO_normed="8.710604" CO2_normed="849.834235" HC_normed="0.058874" PMx_normed="0.010044" NOx_normed="0.311953" fuel_normed="0.365312" electricity_normed="0"
            traveltime="1.28" CO_perVeh="3.792035" CO2_perVeh="369.963036" HC_perVeh="0.025630" PMx_perVeh="0.004372" NOx_perVeh="0.135804" fuel_perVeh="0.159033" electricity_perVeh="0"/>
        <edge id=":1110673630_1" sampledSeconds="7.22" CO_abs="57.630388" CO2_abs="6502.855358" HC_abs="0.407782" PMx_abs="0.066528" NOx_abs="2.314962" fuel_abs="2.795340" electricity_abs="0"
            CO_normed="3.767137" CO2_normed="425.073389" HC_normed="0.026656" PMx_normed="0.004349" NOx_normed="0.151323" fuel_normed="0.182724" electricity_normed="0"
            traveltime="1.02" CO_perVeh="8.156916" CO2_perVeh="920.404143" HC_perVeh="0.057717" PMx_perVeh="0.009416" NOx_perVeh="0.327656" fuel_perVeh="0.395648" electricity_perVeh="0"/>
        <edge id=":1110673650_0" sampledSeconds="143.03" CO_abs="2279.216669" CO2_abs="281249.168155" HC_abs="16.740234" PMx_abs="3.871790" NOx_abs="105.156544" fuel_abs="120.897171" electricity_abs="0"
            CO_normed="5711.129678" CO2_normed="704737.944844" HC_normed="41.946714" PMx_normed="9.701708" NOx_normed="263.495203" fuel_normed="302.937159" electricity_normed="0"
            traveltime="0.02" CO_perVeh="0.367153" CO2_perVeh="45.305713" HC_perVeh="0.002697" PMx_perVeh="0.000624" NOx_perVeh="0.016939" fuel_perVeh="0.019475" electricity_perVeh="0"/>
        <edge id=":1110673655_0" sampledSeconds="45.00" CO_abs="700.473543" CO2_abs="80470.557651" HC_abs="5.045269" PMx_abs="1.109415" NOx_abs="30.242228" fuel_abs="34.590934" electricity_abs="0"
            CO_normed="1755.206204" CO2_normed="201638.482315" HC_normed="12.642144" PMx_normed="2.779908" NOx_normed="75.779232" fuel_normed="86.675969" electricity_normed="0"
            traveltime="0.02" CO_perVeh="0.374886" CO2_perVeh="43.067019" HC_perVeh="0.002700" PMx_perVeh="0.000594" NOx_perVeh="0.016185" fuel_perVeh="0.018513" electricity_perVeh="0"/>
        <edge id=":1110673663_0" sampledSeconds="108.30" CO_abs="1835.998141" CO2_abs="224290.759699" HC_abs="13.420862" PMx_abs="3.070182" NOx_abs="83.823512" fuel_abs="96.413184" electricity_abs="0"
            CO_normed="84.258942" CO2_normed="10293.312270" HC_normed="0.615920" PMx_normed="0.140899" NOx_normed="3.846889" fuel_normed="4.424663" electricity_normed="0"
            traveltime="1.27" CO_perVeh="21.564664" CO2_perVeh="2634.400783" HC_perVeh="0.157634" PMx_perVeh="0.036061" NOx_perVeh="0.984547" fuel_perVeh="1.132418" electricity_perVeh="0"/>
        <edge id=":1110673663_1" sampledSeconds="154.55" CO_abs="2326.834450" CO2_abs="306167.695129" HC_abs="17.522718" PMx_abs="4.123918" NOx_abs="113.573806" fuel_abs="131.608638" electricity_abs="0"
            CO_normed="106.915298" CO2_normed="14068.044363" HC_normed="0.805148" PMx_normed="0.189489" NOx_normed="5.218582" fuel_normed="6.047262" electricity_normed="0"
            traveltime="1.25" CO_perVeh="18.839270" CO2_perVeh="2478.893989" HC_perVeh="0.141873" PMx_perVeh="0.033389" NOx_perVeh="0.919553" fuel_perVeh="1.065572" electricity_perVeh="0"/>
        <edge id=":1110673666_0" sampledSeconds="191.73" CO_abs="4423.612278" CO2_abs="343614.443674" HC_abs="27.980855" PMx_abs="4.666348" NOx_abs="131.282124" fuel_abs="147.706574" electricity_abs="0"