<?xml version="1.0" encoding="UTF-8"?>

<!-- generated on Tue Nov 10 16:44:41 2020 by Eclipse SUMO sumo Version 1.7.0
<configuration xmlns:xsi="http://www.w3.org/2001/XMLSchema-instance" xsi:noNamespaceSchemaLocation="http://sumo.dlr.de/xsd/sumoConfiguration.xsd">

    <input>
        <net-file value="../dataSets/Porto/8AM9AM_Routing_SaoBento/Porto.net.xml"/>
        <route-files value="../results/Porto/8AM9AM_Routing_SaoBento/cost_PMx-cost_co/solution4/Porto.rou.xml"/>
        <additional-files value="moreOutputInfo.xml"/>
    </input>

    <output>
        <emission-output.precision value="6"/>
        <tripinfo-output value="../results/Porto/8AM9AM_Routing_SaoBento/cost_PMx-cost_co/solution4/Porto-tripinfo"/>
    </output>

    <processing>
        <collision.action value="warn"/>
        <time-to-teleport value="-1"/>
    </processing>

    <emissions>
        <device.emissions.probability value="1"/>
    </emissions>

    <gui_only>
        <quit-on-end value="true"/>
        <start value="true"/>
    </gui_only>

</configuration>
-->

<meandata xmlns:xsi="http://www.w3.org/2001/XMLSchema-instance" xsi:noNamespaceSchemaLocation="http://sumo.dlr.de/xsd/meandata_file.xsd">
    <interval begin="0.00" end="10068.00" id="emissions-detector">
        <edge id=":1092997347_0" sampledSeconds="596.43" CO_abs="72207.802785" CO2_abs="3084687.537758" HC_abs="401.754710" PMx_abs="62.339867" NOx_abs="1334.324462" fuel_abs="1325.982098" electricity_abs="0"
            CO_normed="58680.086780" CO2_normed="2506789.092338" HC_normed="326.488279" PMx_normed="50.660852" NOx_normed="1084.346458" fuel_normed="1077.566988" electricity_normed="0"
            traveltime="0.07" CO_perVeh="8.254606" CO2_perVeh="352.633344" HC_perVeh="0.045928" PMx_perVeh="0.007127" NOx_perVeh="0.152536" fuel_perVeh="0.151583" electricity_perVeh="0"/>
        <edge id=":1103427051_0" sampledSeconds="19.57" CO_abs="1577.188111" CO2_abs="88063.211801" HC_abs="9.270869" PMx_abs="1.722522" NOx_abs="37.553790" fuel_abs="37.854495" electricity_abs="0"
            CO_normed="1944.664967" CO2_normed="108581.494967" HC_normed="11.430934" PMx_normed="2.123861" NOx_normed="46.303634" fuel_normed="46.674401" electricity_normed="0"
            traveltime="0.03" CO_perVeh="2.452727" CO2_perVeh="136.949439" HC_perVeh="0.014417" PMx_perVeh="0.002679" NOx_perVeh="0.058401" fuel_perVeh="0.058869" electricity_perVeh="0"/>
        <edge id=":1105984386_0" sampledSeconds="10.44" CO_abs="230.423869" CO2_abs="18486.093336" HC_abs="1.463937" PMx_abs="0.213329" NOx_abs="6.814183" fuel_abs="7.946509" electricity_abs="0"
            CO_normed="8.485306" CO2_normed="680.746168" HC_normed="0.053909" PMx_normed="0.007856" NOx_normed="0.250931" fuel_normed="0.292628" electricity_normed="0"
            traveltime="1.00" CO_perVeh="22.104483" CO2_perVeh="1773.364615" HC_perVeh="0.140435" PMx_perVeh="0.020465" NOx_perVeh="0.653682" fuel_perVeh="0.762306" electricity_perVeh="0"/>
        <edge id=":1105984390_0" sampledSeconds="10.56" CO_abs="20.489591" CO2_abs="1535.660878" HC_abs="0.127718" PMx_abs="0.017947" NOx_abs="0.569736" fuel_abs="0.660126" electricity_abs="0"
            CO_normed="0.583315" CO2_normed="43.718472" HC_normed="0.003636" PMx_normed="0.000511" NOx_normed="0.016220" fuel_normed="0.018793" electricity_normed="0"
            traveltime="1.09" CO_perVeh="2.123870" CO2_perVeh="159.180495" HC_perVeh="0.013239" PMx_perVeh="0.001860" NOx_perVeh="0.059057" fuel_perVeh="0.068426" electricity_perVeh="0"/>
        <edge id=":1105984390_1" sampledSeconds="2400.53" CO_abs="62016.905365" CO2_abs="7366877.051084" HC_abs="458.661056" PMx_abs="133.108508" NOx_abs="2803.382738" fuel_abs="3166.680180" electricity_abs="0"
            CO_normed="1688.902813" CO2_normed="200621.738544" HC_normed="12.490690" PMx_normed="3.624936" NOx_normed="76.344361" fuel_normed="86.238019" electricity_normed="0"
            traveltime="0.65" CO_perVeh="16.748647" CO2_perVeh="1989.541745" HC_perVeh="0.123869" PMx_perVeh="0.035948" NOx_perVeh="0.757098" fuel_perVeh="0.855212" electricity_perVeh="0"/>
        <edge id=":1105984395_0" sampledSeconds="4.29" CO_abs="20.657850" CO2_abs="1449.841013" HC_abs="0.127431" PMx_abs="0.021744" NOx_abs="0.569975" fuel_abs="0.623229" electricity_abs="0"
            CO_normed="8.028910" CO2_normed="563.497310" HC_normed="0.049527" PMx_normed="0.008451" NOx_normed="0.221527" fuel_normed="0.242225" electricity_normed="0"
            traveltime="0.10" CO_perVeh="0.478842" CO2_perVeh="33.606796" HC_perVeh="0.002954" PMx_perVeh="0.000504" NOx_perVeh="0.013212" fuel_perVeh="0.014446" electricity_perVeh="0"/>
        <edge id=":1105984398_0" sampledSeconds="10.86" CO_abs="588.778567" CO2_abs="42124.023404" HC_abs="3.656946" PMx_abs="0.662498" NOx_abs="16.740981" fuel_abs="18.107385" electricity_abs="0"
            CO_normed="17.413457" CO2_normed="1245.841629" HC_normed="0.108156" PMx_normed="0.019594" NOx_normed="0.495124" fuel_normed="0.535536" electricity_normed="0"
            traveltime="1.16" CO_perVeh="63.078334" CO2_perVeh="4512.924479" HC_perVeh="0.391784" PMx_perVeh="0.070976" NOx_perVeh="1.793532" fuel_perVeh="1.939921" electricity_perVeh="0"/>
        <edge id=":1105984398_1" sampledSeconds="646.97" CO_abs="12813.052371" CO2_abs="1426605.445819" HC_abs="91.268401" PMx_abs="21.119213" NOx_abs="544.675263" fuel_abs="613.236306" electricity_abs="0"
            CO_normed="366.817002" CO2_normed="40841.410554" HC_normed="2.612867" PMx_normed="0.604609" NOx_normed="15.593173" fuel_normed="17.555965" electricity_normed="0"
            traveltime="0.95" CO_perVeh="18.831615" CO2_perVeh="2096.712253" HC_perVeh="0.134139" PMx_perVeh="0.031039" NOx_perVeh="0.800521" fuel_perVeh="0.901286" electricity_perVeh="0"/>
        <edge id=":1106006327_0" sampledSeconds="67.10" CO_abs="9001.898738" CO2_abs="292608.400463" HC_abs="47.874359" PMx_abs="6.089193" NOx_abs="127.996867" fuel_abs="125.782030" electricity_abs="0"
            CO_normed="363.295230" CO2_normed="11808.979321" HC_normed="1.932095" PMx_normed="0.245745" NOx_normed="5.165649" fuel_normed="5.076264" electricity_normed="0"
            traveltime="2.08" CO_perVeh="279.055396" CO2_perVeh="9070.747798" HC_perVeh="1.484087" PMx_perVeh="0.188763" NOx_perVeh="3.967854" fuel_perVeh="3.899195" electricity_perVeh="0"/>
        <edge id=":1106006327_1" sampledSeconds="679.15" CO_abs="92218.006208" CO2_abs="3096642.806397" HC_abs="492.912722" PMx_abs="64.670230" NOx_abs="1355.677588" fuel_abs="1331.134595" electricity_abs="0"
            CO_normed="3245.497764" CO2_normed="108982.483121" HC_normed="17.347449" PMx_normed="2.275988" NOx_normed="47.711383" fuel_normed="46.847623" electricity_normed="0"
            traveltime="2.28" CO_perVeh="309.553526" CO2_perVeh="10394.680369" HC_perVeh="1.654589" PMx_perVeh="0.217082" NOx_perVeh="4.550682" fuel_perVeh="4.468297" electricity_perVeh="0"/>
        <edge id=":1106006327_2" sampledSeconds="0.00" CO_abs="0" CO2_abs="0" HC_abs="0" PMx_abs="0" NOx_abs="0" fuel_abs="0" electricity_abs="0"
            CO_normed="0" CO2_normed="0" HC_normed="0" PMx_normed="0" NOx_normed="0" fuel_normed="0" electricity_normed="0"/>
        <edge id=":1106006327_3" sampledSeconds="0.00" CO_abs="0" CO2_abs="0" HC_abs="0" PMx_abs="0" NOx_abs="0" fuel_abs="0" electricity_abs="0"
            CO_normed="0" CO2_normed="0" HC_normed="0" PMx_normed="0" NOx_normed="0" fuel_normed="0" electricity_normed="0"/>
        <edge id=":1107381198_0" sampledSeconds="0.00" CO_abs="0" CO2_abs="0" HC_abs="0" PMx_abs="0" NOx_abs="0" fuel_abs="0" electricity_abs="0"
            CO_normed="0" CO2_normed="0" HC_normed="0" PMx_normed="0" NOx_normed="0" fuel_normed="0" electricity_normed="0"/>
        <edge id=":1107381198_1" sampledSeconds="105.04" CO_abs="4787.484623" CO2_abs="189305.459416" HC_abs="26.164663" PMx_abs="3.312182" NOx_abs="78.731090" fuel_abs="81.375814" electricity_abs="0"
            CO_normed="186.679810" CO2_normed="7381.644013" HC_normed="1.020246" PMx_normed="0.129153" NOx_normed="3.069985" fuel_normed="3.173111" electricity_normed="0"
            traveltime="1.57" CO_perVeh="71.677825" CO2_perVeh="2834.265711" HC_perVeh="0.391735" PMx_perVeh="0.049590" NOx_perVeh="1.178755" fuel_perVeh="1.218352" electricity_perVeh="0"/>
        <edge id=":1110338277_0" sampledSeconds="161.10" CO_abs="2785.580104" CO2_abs="331081.648760" HC_abs="20.223802" PMx_abs="4.624342" NOx_abs="124.446392" fuel_abs="142.318026" electricity_abs="0"
            CO_normed="3557.270693" CO2_normed="422801.356325" HC_normed="25.826412" PMx_normed="5.905426" NOx_normed="158.921836" fuel_normed="181.744457" electricity_normed="0"
            traveltime="0.02" CO_perVeh="0.377282" CO2_perVeh="44.842045" HC_perVeh="0.002739" PMx_perVeh="0.000626" NOx_perVeh="0.016855" fuel_perVeh="0.019276" electricity_perVeh="0"/>
        <edge id=":1110338293_0" sampledSeconds="6672.99" CO_abs="627558.952624" CO2_abs="10964267.069139" HC_abs="3113.978371" PMx_abs="261.653750" NOx_abs="4956.185762" fuel_abs="4713.354735" electricity_abs="0"
            CO_normed="747984.448896" CO2_normed="13068256.339856" HC_normed="3711.535603" PMx_normed="311.863826" NOx_normed="5907.253591" fuel_normed="5617.824475" electricity_normed="0"
            traveltime="0.45" CO_perVeh="41.937610" CO2_perVeh="732.704317" HC_perVeh="0.208096" PMx_perVeh="0.017485" NOx_perVeh="0.331205" fuel_perVeh="0.314977" electricity_perVeh="0"/>
        <edge id=":1110338295_0" sampledSeconds="0.00" CO_abs="0" CO2_abs="0" HC_abs="0" PMx_abs="0" NOx_abs="0" fuel_abs="0" electricity_abs="0"
            CO_normed="0" CO2_normed="0" HC_normed="0" PMx_normed="0" NOx_normed="0" fuel_normed="0" electricity_normed="0"/>
        <edge id=":1110673403_0" sampledSeconds="200.34" CO_abs="3069.391209" CO2_abs="389862.039833" HC_abs="22.859054" PMx_abs="5.265375" NOx_abs="145.066644" fuel_abs="167.585368" electricity_abs="0"
            CO_normed="3658.392382" CO2_normed="464674.660111" HC_normed="27.245594" PMx_normed="6.275775" NOx_normed="172.904224" fuel_normed="199.744181" electricity_normed="0"
            traveltime="0.02" CO_perVeh="0.354747" CO2_perVeh="45.058602" HC_perVeh="0.002642" PMx_perVeh="0.000609" NOx_perVeh="0.016766" fuel_perVeh="0.019369" electricity_perVeh="0"/>
        <edge id=":1110673412_0" sampledSeconds="939.32" CO_abs="166486.609242" CO2_abs="11373252.341936" HC_abs="1036.419394" PMx_abs="249.874756" NOx_abs="4886.493017" fuel_abs="4888.801015" electricity_abs="0"
            CO_normed="205277.147559" CO2_normed="14023162.642640" HC_normed="1277.899873" PMx_normed="308.094311" NOx_normed="6025.021187" fuel_normed="6027.866937" electricity_normed="0"
            traveltime="0.02" CO_perVeh="2.748968" CO2_perVeh="187.791087" HC_perVeh="0.017113" PMx_perVeh="0.004126" NOx_perVeh="0.080684" fuel_perVeh="0.080722" electricity_perVeh="0"/>
        <edge id=":1110673414_0" sampledSeconds="0.00" CO_abs="0" CO2_abs="0" HC_abs="0" PMx_abs="0" NOx_abs="0" fuel_abs="0" electricity_abs="0"
            CO_normed="0" CO2_normed="0" HC_normed="0" PMx_normed="0" NOx_normed="0" fuel_normed="0" electricity_normed="0"/>
        <edge id=":1110673414_1" sampledSeconds="298.07" CO_abs="21496.865020" CO2_abs="835769.074514" HC_abs="117.311568" PMx_abs="15.483139" NOx_abs="353.136703" fuel_abs="359.266968" electricity_abs="0"
            CO_normed="851.229514" CO2_normed="33094.653678" HC_normed="4.645285" PMx_normed="0.613099" NOx_normed="13.983452" fuel_normed="14.226197" electricity_normed="0"
            traveltime="1.56" CO_perVeh="112.694741" CO2_perVeh="4381.419299" HC_perVeh="0.614992" PMx_perVeh="0.081169" NOx_perVeh="1.851277" fuel_perVeh="1.883414" electricity_perVeh="0"/>
        <edge id=":1110673417_0" sampledSeconds="29.10" CO_abs="465.456080" CO2_abs="61609.889806" HC_abs="3.526552" PMx_abs="0.769336" NOx_abs="22.540081" fuel_abs="26.483592" electricity_abs="0"
            CO_normed="594.401601" CO2_normed="78677.707057" HC_normed="4.503514" PMx_normed="0.982466" NOx_normed="28.784370" fuel_normed="33.820354" electricity_normed="0"
            traveltime="0.02" CO_perVeh="0.354933" CO2_perVeh="46.980498" HC_perVeh="0.002689" PMx_perVeh="0.000587" NOx_perVeh="0.017188" fuel_perVeh="0.020195" electricity_perVeh="0"/>
        <edge id=":1110673446_0" sampledSeconds="1313.12" CO_abs="14141.726212" CO2_abs="1141782.917780" HC_abs="91.451563" PMx_abs="20.937678" NOx_abs="467.170773" fuel_abs="490.800000" electricity_abs="0"
            CO_normed="16855.454365" CO2_normed="1360885.480071" HC_normed="109.000671" PMx_normed="24.955516" NOx_normed="556.818561" fuel_normed="584.982122" electricity_normed="0"
            traveltime="0.02" CO_perVeh="0.245333" CO2_perVeh="19.807812" HC_perVeh="0.001587" PMx_perVeh="0.000363" NOx_perVeh="0.008105" fuel_perVeh="0.008514" electricity_perVeh="0"/>
        <edge id=":1110673451_0" sampledSeconds="36.73" CO_abs="340.637382" CO2_abs="24302.304277" HC_abs="2.101960" PMx_abs="0.318939" NOx_abs="9.245403" fuel_abs="10.446659" electricity_abs="0"
            CO_normed="451.115590" CO2_normed="32184.219676" HC_normed="2.783685" PMx_normed="0.422380" NOx_normed="12.243945" fuel_normed="13.834802" electricity_normed="0"
            traveltime="0.03" CO_perVeh="0.250974" CO2_perVeh="17.905425" HC_perVeh="0.001549" PMx_perVeh="0.000235" NOx_perVeh="0.006812" fuel_perVeh="0.007697" electricity_perVeh="0"/>
        <edge id=":1110673464_0" sampledSeconds="1029.61" CO_abs="4052.129702" CO2_abs="298193.578187" HC_abs="25.258645" PMx_abs="4.139190" NOx_abs="114.761751" fuel_abs="128.181918" electricity_abs="0"
            CO_normed="102.614311" CO2_normed="7551.320155" HC_normed="0.639639" PMx_normed="0.104819" NOx_normed="2.906175" fuel_normed="3.246021" electricity_normed="0"
            traveltime="1.22" CO_perVeh="4.805262" CO2_perVeh="353.616112" HC_perVeh="0.029953" PMx_perVeh="0.004909" NOx_perVeh="0.136091" fuel_perVeh="0.152006" electricity_perVeh="0"/>
        <edge id=":1110673464_1" sampledSeconds="2609.96" CO_abs="65149.229266" CO2_abs="7857890.305706" HC_abs="484.071014" PMx_abs="140.743697" NOx_abs="2985.022596" fuel_abs="3377.744776" electricity_abs="0"
            CO_normed="1616.607522" CO2_normed="194985.032387" HC_normed="12.011698" PMx_normed="3.492402" NOx_normed="74.070101" fuel_normed="83.815076" electricity_normed="0"
            traveltime="0.72" CO_perVeh="17.963142" CO2_perVeh="2166.601171" HC_perVeh="0.133470" PMx_perVeh="0.038806" NOx_perVeh="0.823039" fuel_perVeh="0.931322" electricity_perVeh="0"/>
        <edge id=":1110673479_0" sampledSeconds="135.16" CO_abs="6229.897508" CO2_abs="430216.671077" HC_abs="38.464302" PMx_abs="7.479733" NOx_abs="175.635272" fuel_abs="184.931544" electricity_abs="0"
            CO_normed="7425.384396" CO2_normed="512773.147886" HC_normed="45.845414" PMx_normed="8.915057" NOx_normed="209.338822" fuel_normed="220.419004" electricity_normed="0"
            traveltime="0.03" CO_perVeh="1.317057" CO2_perVeh="90.951694" HC_perVeh="0.008132" PMx_perVeh="0.001581" NOx_perVeh="0.037131" fuel_perVeh="0.039096" electricity_perVeh="0"/>
        <edge id=":1110673511_0" sampledSeconds="63.72" CO_abs="1259.446323" CO2_abs="125163.524593" HC_abs="8.618645" PMx_abs="1.864894" NOx_abs="48.187990" fuel_abs="53.802479" electricity_abs="0"
            CO_normed="1501.127918" CO2_normed="149181.793317" HC_normed="10.272520" PMx_normed="2.222759" NOx_normed="57.435030" fuel_normed="64.126911" electricity_normed="0"
            traveltime="0.02" CO_perVeh="0.482701" CO2_perVeh="47.970690" HC_perVeh="0.003303" PMx_perVeh="0.000715" NOx_perVeh="0.018469" fuel_perVeh="0.020621" electricity_perVeh="0"/>
        <edge id=":1110673517_0" sampledSeconds="181.94" CO_abs="8507.969793" CO2_abs="605331.431684" HC_abs="52.951787" PMx_abs="10.471102" NOx_abs="246.436648" fuel_abs="260.205705" electricity_abs="0"
            CO_normed="10140.607620" CO2_normed="721491.575309" HC_normed="63.112976" PMx_normed="12.480455" NOx_normed="293.726636" fuel_normed="310.137908" electricity_normed="0"
            traveltime="0.03" CO_perVeh="1.302639" CO2_perVeh="92.681142" HC_perVeh="0.008107" PMx_perVeh="0.001603" NOx_perVeh="0.037731" fuel_perVeh="0.039840" electricity_perVeh="0"/>
        <edge id=":1110673534_0" sampledSeconds="660.63" CO_abs="4663.231596" CO2_abs="388603.556401" HC_abs="30.078000" PMx_abs="5.300226" NOx_abs="148.096505" fuel_abs="167.045377" electricity_abs="0"
            CO_normed="107.714786" CO2_normed="8976.253486" HC_normed="0.694764" PMx_normed="0.122429" NOx_normed="3.420843" fuel_normed="3.858538" electricity_normed="0"
            traveltime="1.45" CO_perVeh="10.253752" CO2_perVeh="854.481374" HC_perVeh="0.066137" PMx_perVeh="0.011654" NOx_perVeh="0.325642" fuel_perVeh="0.367308" electricity_perVeh="0"/>
        <edge id=":1110673534_1" sampledSeconds="264.23" CO_abs="4340.496245" CO2_abs="535364.384529" HC_abs="31.943383" PMx_abs="7.379106" NOx_abs="200.194815" fuel_abs="230.130603" electricity_abs="0"
            CO_normed="97.489000" CO2_normed="12024.463449" HC_normed="0.717459" PMx_normed="0.165737" NOx_normed="4.496443" fuel_normed="5.168810" electricity_normed="0"
            traveltime="1.23" CO_perVeh="20.138814" CO2_perVeh="2483.956436" HC_perVeh="0.148209" PMx_perVeh="0.034237" NOx_perVeh="0.928854" fuel_perVeh="1.067748" electricity_perVeh="0"/>
        <edge id=":1110673549_0" sampledSeconds="648.53" CO_abs="1502.141168" CO2_abs="151354.193805" HC_abs="10.286528" PMx_abs="2.141879" NOx_abs="57.167950" fuel_abs="65.060923" electricity_abs="0"
            CO_normed="33.611916" CO2_normed="3386.701952" HC_normed="0.230171" PMx_normed="0.047927" NOx_normed="1.279190" fuel_normed="1.455803" electricity_normed="0"
            traveltime="1.29" CO_perVeh="2.984396" CO2_perVeh="300.704693" HC_perVeh="0.020437" PMx_perVeh="0.004255" NOx_perVeh="0.113579" fuel_perVeh="0.129261" electricity_perVeh="0"/>
        <edge id=":1110673549_1" sampledSeconds="3197.67" CO_abs="70476.395997" CO2_abs="9153305.324412" HC_abs="539.592197" PMx_abs="161.378419" NOx_abs="3429.065076" fuel_abs="3934.586583" electricity_abs="0"
            CO_normed="1525.432300" CO2_normed="198119.489456" HC_normed="11.679249" PMx_normed="3.492969" NOx_normed="74.220688" fuel_normed="85.162491" electricity_normed="0"
            traveltime="0.81" CO_perVeh="17.784554" CO2_perVeh="2309.815172" HC_perVeh="0.136165" PMx_perVeh="0.040723" NOx_perVeh="0.865317" fuel_perVeh="0.992884" electricity_perVeh="0"/>
        <edge id=":1110673556_0" sampledSeconds="469.40" CO_abs="57110.164748" CO2_abs="2728395.690120" HC_abs="324.817231" PMx_abs="55.016008" NOx_abs="1175.873158" fuel_abs="1172.821454" electricity_abs="0"
            CO_normed="947.600830" CO2_normed="45270.925615" HC_normed="5.389532" PMx_normed="0.912854" NOx_normed="19.510684" fuel_normed="19.460049" electricity_normed="0"
            traveltime="2.77" CO_perVeh="336.658930" CO2_perVeh="16083.630255" HC_perVeh="1.914766" PMx_perVeh="0.324314" NOx_perVeh="6.931659" fuel_perVeh="6.913670" electricity_perVeh="0"/>
        <edge id=":1110673556_2" sampledSeconds="174.51" CO_abs="16453.088980" CO2_abs="703830.477947" HC_abs="91.451308" PMx_abs="13.619636" NOx_abs="300.435619" fuel_abs="302.549100" electricity_abs="0"
            CO_normed="285.449146" CO2_normed="12210.947703" HC_normed="1.586614" PMx_normed="0.236291" NOx_normed="5.212340" fuel_normed="5.249007" electricity_normed="0"
            traveltime="3.02" CO_perVeh="284.497419" CO2_perVeh="12170.234706" HC_perVeh="1.581324" PMx_perVeh="0.235503" NOx_perVeh="5.194961" fuel_perVeh="5.231506" electricity_perVeh="0"/>
        <edge id=":1110673556_3" sampledSeconds="189.79" CO_abs="20788.032876" CO2_abs="713710.882681" HC_abs="111.377884" PMx_abs="14.303003" NOx_abs="308.764692" fuel_abs="306.798961" electricity_abs="0"
            CO_normed="820.435589" CO2_normed="28167.831567" HC_normed="4.395720" PMx_normed="0.564493" NOx_normed="12.185931" fuel_normed="12.108350" electricity_normed="0"
            traveltime="1.89" CO_perVeh="206.635045" CO2_perVeh="7094.354768" HC_perVeh="1.107107" PMx_perVeh="0.142173" NOx_perVeh="3.069151" fuel_perVeh="3.049611" electricity_perVeh="0"/>
        <edge id=":1110673556_4" sampledSeconds="28.24" CO_abs="2900.133744" CO2_abs="115758.560808" HC_abs="15.921912" PMx_abs="2.259133" NOx_abs="49.577907" fuel_abs="49.760195" electricity_abs="0"
            CO_normed="69.925595" CO2_normed="2791.073424" HC_normed="0.383896" PMx_normed="0.054470" NOx_normed="1.195381" fuel_normed="1.199776" electricity_normed="0"
            traveltime="2.38" CO_perVeh="244.064144" CO2_perVeh="9741.796940" HC_perVeh="1.339927" PMx_perVeh="0.190120" NOx_perVeh="4.172287" fuel_perVeh="4.187627" electricity_perVeh="0"/>
        <edge id=":1110673556_5" sampledSeconds="22.68" CO_abs="1020.445401" CO2_abs="47018.679737" HC_abs="5.740529" PMx_abs="0.843306" NOx_abs="19.643882" fuel_abs="20.211519" electricity_abs="0"
            CO_normed="34.293155" CO2_normed="1580.112818" HC_normed="0.192917" PMx_normed="0.028340" NOx_normed="0.660154" fuel_normed="0.679230" electricity_normed="0"
            traveltime="1.57" CO_perVeh="70.549312" CO2_perVeh="3250.674155" HC_perVeh="0.396876" PMx_perVeh="0.058303" NOx_perVeh="1.358096" fuel_perVeh="1.397340" electricity_perVeh="0"/>
        <edge id=":1110673556_6" sampledSeconds="210.93" CO_abs="25206.398326" CO2_abs="1279071.021321" HC_abs="145.204902" PMx_abs="25.810526" NOx_abs="550.469560" fuel_abs="549.817044" electricity_abs="0"
            CO_normed="428.782821" CO2_normed="21758.113698" HC_normed="2.470062" PMx_normed="0.439060" NOx_normed="9.363967" fuel_normed="9.352867" electricity_normed="0"
            traveltime="2.46" CO_perVeh="293.718329" CO2_perVeh="14904.414251" HC_perVeh="1.692005" PMx_perVeh="0.300758" NOx_perVeh="6.414363" fuel_perVeh="6.406760" electricity_perVeh="0"/>
        <edge id=":1110673561_0" sampledSeconds="101.82" CO_abs="9890.648121" CO2_abs="712958.690329" HC_abs="62.174880" PMx_abs="14.297233" NOx_abs="300.851625" fuel_abs="306.467094" electricity_abs="0"
            CO_normed="211.391784" CO2_normed="15237.991254" HC_normed="1.328857" PMx_normed="0.305573" NOx_normed="6.430070" fuel_normed="6.550089" electricity_normed="0"
            traveltime="1.20" CO_perVeh="116.719350" CO2_perVeh="8413.611911" HC_perVeh="0.733725" PMx_perVeh="0.168721" NOx_perVeh="3.550344" fuel_perVeh="3.616612" electricity_perVeh="0"/>
        <edge id=":1110673561_1" sampledSeconds="5191.17" CO_abs="481999.985525" CO2_abs="33430139.553235" HC_abs="3003.459130" PMx_abs="698.179304" NOx_abs="14288.356083" fuel_abs="14370.002926" electricity_abs="0"
            CO_normed="10043.591387" CO2_normed="696594.754687" HC_normed="62.584060" PMx_normed="14.548191" NOx_normed="297.731150" fuel_normed="299.432452" electricity_normed="0"
            traveltime="1.19" CO_perVeh="110.688459" CO2_perVeh="7677.034766" HC_perVeh="0.689727" PMx_perVeh="0.160333" NOx_perVeh="3.281237" fuel_perVeh="3.299987" electricity_perVeh="0"/>
        <edge id=":1110673562_0" sampledSeconds="300.40" CO_abs="6503.910422" CO2_abs="504608.500394" HC_abs="41.113865" PMx_abs="6.800733" NOx_abs="192.567967" fuel_abs="216.911774" electricity_abs="0"
            CO_normed="8613.310055" CO2_normed="668267.117460" HC_normed="54.448238" PMx_normed="9.006401" NOx_normed="255.023132" fuel_normed="287.262315" electricity_normed="0"
            traveltime="0.03" CO_perVeh="0.583020" CO2_perVeh="45.233830" HC_perVeh="0.003686" PMx_perVeh="0.000610" NOx_perVeh="0.017262" fuel_perVeh="0.019444" electricity_perVeh="0"/>
        <edge id=":1110673564_0" sampledSeconds="27.93" CO_abs="436.812069" CO2_abs="49450.268003" HC_abs="3.103801" PMx_abs="0.689436" NOx_abs="18.627403" fuel_abs="21.256596" electricity_abs="0"
            CO_normed="1561.902513" CO2_normed="176818.598344" HC_normed="11.098216" PMx_normed="2.465207" NOx_normed="66.605733" fuel_normed="76.006898" electricity_normed="0"
            traveltime="7.889243e-03" CO_perVeh="0.123376" CO2_perVeh="13.967030" HC_perVeh="0.000877" PMx_perVeh="0.000195" NOx_perVeh="0.005261" fuel_perVeh="0.006004" electricity_perVeh="0"/>
        <edge id=":1110673588_0" sampledSeconds="62.80" CO_abs="1372.442862" CO2_abs="133810.990481" HC_abs="9.343572" PMx_abs="1.956463" NOx_abs="51.371406" fuel_abs="57.519730" electricity_abs="0"
            CO_normed="1962.969528" CO2_normed="191386.398782" HC_normed="13.363870" PMx_normed="2.798279" NOx_normed="73.475194" fuel_normed="82.268982" electricity_normed="0"
            traveltime="0.02" CO_perVeh="0.442724" CO2_perVeh="43.164836" HC_perVeh="0.003014" PMx_perVeh="0.000631" NOx_perVeh="0.016571" fuel_perVeh="0.018555" electricity_perVeh="0"/>
        <edge id=":1110673601_0" sampledSeconds="29.22" CO_abs="476.193166" CO2_abs="53563.297693" HC_abs="3.394890" PMx_abs="0.718642" NOx_abs="20.037733" fuel_abs="23.024661" electricity_abs="0"
            CO_normed="608.113186" CO2_normed="68401.963681" HC_normed="4.335378" PMx_normed="0.917728" NOx_normed="25.588796" fuel_normed="29.403193" electricity_normed="0"
            traveltime="0.02" CO_perVeh="0.363120" CO2_perVeh="40.844586" HC_perVeh="0.002589" PMx_perVeh="0.000548" NOx_perVeh="0.015280" fuel_perVeh="0.017557" electricity_perVeh="0"/>
        <edge id=":1110673617_0" sampledSeconds="854.02" CO_abs="32245.017099" CO2_abs="3284501.724682" HC_abs="225.460203" PMx_abs="61.789704" NOx_abs="1286.211740" fuel_abs="1411.853648" electricity_abs="0"
            CO_normed="38432.678307" CO2_normed="3914781.555044" HC_normed="268.724914" PMx_normed="73.646846" NOx_normed="1533.029487" fuel_normed="1682.781463" electricity_normed="0"
            traveltime="0.02" CO_perVeh="0.571638" CO2_perVeh="58.227491" HC_perVeh="0.003997" PMx_perVeh="0.001095" NOx_perVeh="0.022802" fuel_perVeh="0.025029" electricity_perVeh="0"/>
        <edge id=":1110673621_0" sampledSeconds="26.21" CO_abs="694.870405" CO2_abs="63422.278929" HC_abs="4.640833" PMx_abs="1.002041" NOx_abs="24.872253" fuel_abs="27.262495" electricity_abs="0"
            CO_normed="993.855168" CO2_normed="90711.245190" HC_normed="6.637663" PMx_normed="1.433194" NOx_normed="35.574141" fuel_normed="38.992842" electricity_normed="0"
            traveltime="0.02" CO_perVeh="0.526417" CO2_perVeh="48.047181" HC_perVeh="0.003516" PMx_perVeh="0.000759" NOx_perVeh="0.018843" fuel_perVeh="0.020653" electricity_perVeh="0"/>
        <edge id=":1110673630_0" sampledSeconds="286.56" CO_abs="1109.281730" CO2_abs="101146.498151" HC_abs="7.344709" PMx_abs="1.252403" NOx_abs="37.603264" fuel_abs="43.479019" electricity_abs="0"
            CO_normed="28.291315" CO2_normed="2579.657993" HC_normed="0.187321" PMx_normed="0.031941" NOx_normed="0.959040" fuel_normed="1.108897" electricity_normed="0"
            traveltime="1.29" CO_perVeh="4.991344" CO2_perVeh="455.120612" HC_perVeh="0.033048" PMx_perVeh="0.005635" NOx_perVeh="0.169200" fuel_perVeh="0.195639" electricity_perVeh="0"/>
        <edge id=":1110673630_1" sampledSeconds="337.99" CO_abs="1257.454472" CO2_abs="99918.885098" HC_abs="8.003086" PMx_abs="1.341465" NOx_abs="38.062913" fuel_abs="42.951269" electricity_abs="0"
            CO_normed="39.097926" CO2_normed="3106.769501" HC_normed="0.248839" PMx_normed="0.041710" NOx_normed="1.183487" fuel_normed="1.335480" electricity_normed="0"
            traveltime="1.08" CO_perVeh="4.008517" CO2_perVeh="318.521740" HC_perVeh="0.025512" PMx_perVeh="0.004276" NOx_perVeh="0.121337" fuel_perVeh="0.136920" electricity_perVeh="0"/>
        <edge id=":1110673650_0" sampledSeconds="199.42" CO_abs="3167.438628" CO2_abs="398306.881482" HC_abs="23.504781" PMx_abs="5.392535" NOx_abs="148.402722" fuel_abs="171.215449" electricity_abs="0"
            CO_normed="3775.254622" CO2_normed="474740.025604" HC_normed="28.015234" PMx_normed="6.427336" NOx_normed="176.880479" fuel_normed="204.070857" electricity_normed="0"
            traveltime="0.02" CO_perVeh="0.366183" CO2_perVeh="46.047727" HC_perVeh="0.002717" PMx_perVeh="0.000623" NOx_perVeh="0.017157" fuel_perVeh="0.019794" electricity_perVeh="0"/>
        <edge id=":1110673655_0" sampledSeconds="20.53" CO_abs="362.173291" CO2_abs="41553.797525" HC_abs="2.607348" PMx_abs="0.566416" NOx_abs="15.582212" fuel_abs="17.862253" electricity_abs="0"
            CO_normed="431.672575" CO2_normed="49527.768206" HC_normed="3.107686" PMx_normed="0.675109" NOx_normed="18.572362" fuel_normed="21.289932" electricity_normed="0"
            traveltime="0.02" CO_perVeh="0.413755" CO2_perVeh="47.471970" HC_perVeh="0.002979" PMx_perVeh="0.000647" NOx_perVeh="0.017801" fuel_perVeh="0.020406" electricity_perVeh="0"/>
        <edge id=":1110673663_0" sampledSeconds="110.83" CO_abs="1973.463841" CO2_abs="209013.635325" HC_abs="13.759771" PMx_abs="2.974024" NOx_abs="79.367930" fuel_abs="89.846196" electricity_abs="0"
            CO_normed="43.079888" CO2_normed="4562.680047" HC_normed="0.300370" PMx_normed="0.064922" NOx_normed="1.732569" fuel_normed="1.961305" electricity_normed="0"
            traveltime="1.30" CO_perVeh="23.179264" CO2_perVeh="2454.963750" HC_perVeh="0.161615" PMx_perVeh="0.034931" NOx_perVeh="0.932214" fuel_perVeh="1.055286" electricity_perVeh="0"/>
        <edge id=":1110673663_1" sampledSeconds="170.72" CO_abs="2417.686456" CO2_abs="317863.387048" HC_abs="18.239494" PMx_abs="4.139631" NOx_abs="117.225465" fuel_abs="136.636332" electricity_abs="0"
            CO_normed="52.841602" CO2_normed="6947.307170" HC_normed="0.398647" PMx_normed="0.090477" NOx_normed="2.562111" fuel_normed="2.986360" electricity_normed="0"
            traveltime="1.28" CO_perVeh="18.058892" CO2_perVeh="2374.278388" HC_perVeh="0.136240" PMx_perVeh="0.030921" NOx_perVeh="0.875615" fuel_perVeh="1.020604" electricity_perVeh="0"/>