<?xml version="1.0" encoding="UTF-8"?>

<!-- generated on Mon Nov  9 23:31:51 2020 by Eclipse SUMO sumo Version 1.7.0
<configuration xmlns:xsi="http://www.w3.org/2001/XMLSchema-instance" xsi:noNamespaceSchemaLocation="http://sumo.dlr.de/xsd/sumoConfiguration.xsd">

    <input>
        <net-file value="../dataSets/Porto/6AM7AM_Routing_SaoBento/Porto.net.xml"/>
        <route-files value="../results/Porto/6AM7AM_Routing_SaoBento/cost_PMx-length/solution7/Porto.rou.xml"/>
        <additional-files value="moreOutputInfo.xml"/>
    </input>

    <output>
        <emission-output.precision value="6"/>
        <tripinfo-output value="../results/Porto/6AM7AM_Routing_SaoBento/cost_PMx-length/solution7/Porto-tripinfo"/>
    </output>

    <processing>
        <collision.action value="warn"/>
        <time-to-teleport value="-1"/>
    </processing>

    <emissions>
        <device.emissions.probability value="1"/>
    </emissions>

    <gui_only>
        <quit-on-end value="true"/>
        <start value="true"/>
    </gui_only>

</configuration>
-->

<meandata xmlns:xsi="http://www.w3.org/2001/XMLSchema-instance" xsi:noNamespaceSchemaLocation="http://sumo.dlr.de/xsd/meandata_file.xsd">
    <interval begin="0.00" end="4698.00" id="emissions-detector">
        <edge id=":1092997347_0" sampledSeconds="304.07" CO_abs="39028.593039" CO2_abs="1538605.226687" HC_abs="214.065424" PMx_abs="31.394979" NOx_abs="667.946370" fuel_abs="661.386071" electricity_abs="0"
            CO_normed="67970.381468" CO2_normed="2679563.264867" HC_normed="372.806381" PMx_normed="54.676035" NOx_normed="1163.264316" fuel_normed="1151.839205" electricity_normed="0"
            traveltime="0.08" CO_perVeh="9.708862" CO2_perVeh="382.747752" HC_perVeh="0.053252" PMx_perVeh="0.007810" NOx_perVeh="0.166160" fuel_perVeh="0.164528" electricity_perVeh="0"/>
        <edge id=":1103427051_0" sampledSeconds="11.26" CO_abs="825.500402" CO2_abs="45736.487248" HC_abs="4.841175" PMx_abs="0.881717" NOx_abs="19.425586" fuel_abs="19.660125" electricity_abs="0"
            CO_normed="2181.266751" CO2_normed="120852.126432" HC_normed="12.792114" PMx_normed="2.329810" NOx_normed="51.329332" fuel_normed="51.949070" electricity_normed="0"
            traveltime="0.03" CO_perVeh="2.261859" CO2_perVeh="125.317284" HC_perVeh="0.013265" PMx_perVeh="0.002416" NOx_perVeh="0.053226" fuel_perVeh="0.053868" electricity_perVeh="0"/>
        <edge id=":1105984386_0" sampledSeconds="22.91" CO_abs="509.859280" CO2_abs="40502.576611" HC_abs="3.248216" PMx_abs="0.562117" NOx_abs="15.551783" fuel_abs="17.410465" electricity_abs="0"
            CO_normed="40.236536" CO2_normed="3196.339565" HC_normed="0.256339" PMx_normed="0.044361" NOx_normed="1.227299" fuel_normed="1.373981" electricity_normed="0"
            traveltime="0.96" CO_perVeh="21.398399" CO2_perVeh="1699.861769" HC_perVeh="0.136325" PMx_perVeh="0.023592" NOx_perVeh="0.652696" fuel_perVeh="0.730704" electricity_perVeh="0"/>
        <edge id=":1105984390_0" sampledSeconds="22.98" CO_abs="16.059958" CO2_abs="1791.128307" HC_abs="0.113462" PMx_abs="0.019893" NOx_abs="0.647913" fuel_abs="0.769938" electricity_abs="0"
            CO_normed="0.979815" CO2_normed="109.276442" HC_normed="0.006922" PMx_normed="0.001214" NOx_normed="0.039529" fuel_normed="0.046974" electricity_normed="0"
            traveltime="1.04" CO_perVeh="0.728311" CO2_perVeh="81.226789" HC_perVeh="0.005145" PMx_perVeh="0.000902" NOx_perVeh="0.029383" fuel_perVeh="0.034916" electricity_perVeh="0"/>
        <edge id=":1105984390_1" sampledSeconds="646.29" CO_abs="14285.796480" CO2_abs="1869360.978793" HC_abs="109.822121" PMx_abs="33.031834" NOx_abs="698.522011" fuel_abs="803.552679" electricity_abs="0"
            CO_normed="833.737280" CO2_normed="109098.287902" HC_normed="6.409359" PMx_normed="1.927780" NOx_normed="40.766634" fuel_normed="46.896358" electricity_normed="0"
            traveltime="0.64" CO_perVeh="14.062777" CO2_perVeh="1840.177867" HC_perVeh="0.108108" PMx_perVeh="0.032516" NOx_perVeh="0.687617" fuel_perVeh="0.791008" electricity_perVeh="0"/>
        <edge id=":1105984395_0" sampledSeconds="9.03" CO_abs="166.644753" CO2_abs="12803.515479" HC_abs="1.050285" PMx_abs="0.171726" NOx_abs="4.885333" fuel_abs="5.503741" electricity_abs="0"
            CO_normed="138.801227" CO2_normed="10664.264100" HC_normed="0.874800" PMx_normed="0.143033" NOx_normed="4.069076" fuel_normed="4.584159" electricity_normed="0"
            traveltime="0.09" CO_perVeh="1.689960" CO2_perVeh="129.841647" HC_perVeh="0.010651" PMx_perVeh="0.001741" NOx_perVeh="0.049543" fuel_perVeh="0.055814" electricity_perVeh="0"/>
        <edge id=":1105984398_0" sampledSeconds="23.55" CO_abs="1486.364071" CO2_abs="104733.164629" HC_abs="9.236883" PMx_abs="1.868381" NOx_abs="43.036628" fuel_abs="45.020163" electricity_abs="0"
            CO_normed="94.208131" CO2_normed="6638.155382" HC_normed="0.585448" PMx_normed="0.118421" NOx_normed="2.727730" fuel_normed="2.853450" electricity_normed="0"
            traveltime="1.10" CO_perVeh="69.342833" CO2_perVeh="4886.080361" HC_perVeh="0.430925" PMx_perVeh="0.087165" NOx_perVeh="2.007773" fuel_perVeh="2.100310" electricity_perVeh="0"/>
        <edge id=":1105984398_1" sampledSeconds="453.04" CO_abs="8286.552730" CO2_abs="974766.836316" HC_abs="60.153121" PMx_abs="13.921105" NOx_abs="368.325430" fuel_abs="419.010761" electricity_abs="0"
            CO_normed="508.394623" CO2_normed="59803.664315" HC_normed="3.690500" PMx_normed="0.854084" NOx_normed="22.597415" fuel_normed="25.707049" electricity_normed="0"
            traveltime="0.96" CO_perVeh="17.474770" CO2_perVeh="2055.598622" HC_perVeh="0.126852" PMx_perVeh="0.029357" NOx_perVeh="0.776729" fuel_perVeh="0.883614" electricity_perVeh="0"/>
        <edge id=":1106006327_0" sampledSeconds="37.67" CO_abs="5183.039252" CO2_abs="172227.073407" HC_abs="27.662921" PMx_abs="3.616491" NOx_abs="75.536553" fuel_abs="74.034197" electricity_abs="0"
            CO_normed="448.270608" CO2_normed="14895.572110" HC_normed="2.392510" PMx_normed="0.312783" NOx_normed="6.533004" fuel_normed="6.403068" electricity_normed="0"
            traveltime="2.04" CO_perVeh="281.176389" CO2_perVeh="9343.202733" HC_perVeh="1.500695" PMx_perVeh="0.196192" NOx_perVeh="4.097807" fuel_perVeh="4.016305" electricity_perVeh="0"/>
        <edge id=":1106006327_1" sampledSeconds="161.42" CO_abs="21677.828726" CO2_abs="722543.405602" HC_abs="115.725605" PMx_abs="15.028719" NOx_abs="315.958670" fuel_abs="310.595470" electricity_abs="0"
            CO_normed="1634.976674" CO2_normed="54495.384620" HC_normed="8.728211" PMx_normed="1.133490" NOx_normed="23.830111" fuel_normed="23.425609" electricity_normed="0"
            traveltime="2.29" CO_perVeh="307.744718" CO2_perVeh="10257.434888" HC_perVeh="1.642874" PMx_perVeh="0.213352" NOx_perVeh="4.485441" fuel_perVeh="4.409303" electricity_perVeh="0"/>
        <edge id=":1106006327_2" sampledSeconds="0.00" CO_abs="0" CO2_abs="0" HC_abs="0" PMx_abs="0" NOx_abs="0" fuel_abs="0" electricity_abs="0"
            CO_normed="0" CO2_normed="0" HC_normed="0" PMx_normed="0" NOx_normed="0" fuel_normed="0" electricity_normed="0"/>
        <edge id=":1106006327_3" sampledSeconds="0.00" CO_abs="0" CO2_abs="0" HC_abs="0" PMx_abs="0" NOx_abs="0" fuel_abs="0" electricity_abs="0"
            CO_normed="0" CO2_normed="0" HC_normed="0" PMx_normed="0" NOx_normed="0" fuel_normed="0" electricity_normed="0"/>
        <edge id=":1107381198_0" sampledSeconds="0.00" CO_abs="0" CO2_abs="0" HC_abs="0" PMx_abs="0" NOx_abs="0" fuel_abs="0" electricity_abs="0"
            CO_normed="0" CO2_normed="0" HC_normed="0" PMx_normed="0" NOx_normed="0" fuel_normed="0" electricity_normed="0"/>
        <edge id=":1107381198_1" sampledSeconds="35.11" CO_abs="1411.975702" CO2_abs="59255.168587" HC_abs="7.797050" PMx_abs="1.028269" NOx_abs="24.565868" fuel_abs="25.471671" electricity_abs="0"
            CO_normed="117.990591" CO2_normed="4951.609537" HC_normed="0.651554" PMx_normed="0.085926" NOx_normed="2.052827" fuel_normed="2.128519" electricity_normed="0"
            traveltime="1.45" CO_perVeh="58.134955" CO2_perVeh="2439.699605" HC_perVeh="0.321026" PMx_perVeh="0.042337" NOx_perVeh="1.011445" fuel_perVeh="1.048739" electricity_perVeh="0"/>
        <edge id=":1110338277_0" sampledSeconds="96.63" CO_abs="1351.838670" CO2_abs="168726.410127" HC_abs="10.027339" PMx_abs="2.303959" NOx_abs="62.977114" fuel_abs="72.528402" electricity_abs="0"
            CO_normed="3699.613219" CO2_normed="461758.101060" HC_normed="27.442088" PMx_normed="6.305306" NOx_normed="172.351162" fuel_normed="198.490427" electricity_normed="0"
            traveltime="0.02" CO_perVeh="0.304966" CO2_perVeh="38.063593" HC_perVeh="0.002262" PMx_perVeh="0.000520" NOx_perVeh="0.014207" fuel_perVeh="0.016362" electricity_perVeh="0"/>
        <edge id=":1110338293_0" sampledSeconds="124.23" CO_abs="5923.291870" CO2_abs="410963.712219" HC_abs="36.622803" PMx_abs="7.167834" NOx_abs="167.923217" fuel_abs="176.655471" electricity_abs="0"
            CO_normed="15129.736578" CO2_normed="1049715.740022" HC_normed="93.544835" PMx_normed="18.308645" NOx_normed="428.922649" fuel_normed="451.227257" electricity_normed="0"
            traveltime="0.03" CO_perVeh="1.358617" CO2_perVeh="94.262147" HC_perVeh="0.008400" PMx_perVeh="0.001644" NOx_perVeh="0.038516" fuel_perVeh="0.040519" electricity_perVeh="0"/>
        <edge id=":1110338295_0" sampledSeconds="0.00" CO_abs="0" CO2_abs="0" HC_abs="0" PMx_abs="0" NOx_abs="0" fuel_abs="0" electricity_abs="0"
            CO_normed="0" CO2_normed="0" HC_normed="0" PMx_normed="0" NOx_normed="0" fuel_normed="0" electricity_normed="0"/>
        <edge id=":1110673403_0" sampledSeconds="143.70" CO_abs="2194.263517" CO2_abs="286776.258158" HC_abs="16.484330" PMx_abs="3.803909" NOx_abs="106.179423" fuel_abs="123.273160" electricity_abs="0"
            CO_normed="5604.759941" CO2_normed="732506.406533" HC_normed="42.105569" PMx_normed="9.716243" NOx_normed="271.211807" fuel_normed="314.873973" electricity_normed="0"
            traveltime="0.02" CO_perVeh="0.352303" CO2_perVeh="46.043820" HC_perVeh="0.002647" PMx_perVeh="0.000611" NOx_perVeh="0.017048" fuel_perVeh="0.019792" electricity_perVeh="0"/>
        <edge id=":1110673412_0" sampledSeconds="253.28" CO_abs="44782.015712" CO2_abs="3052623.710919" HC_abs="278.623920" PMx_abs="67.097367" NOx_abs="1312.157955" fuel_abs="1312.172578" electricity_abs="0"
            CO_normed="118330.071903" CO2_normed="8066121.577273" HC_normed="736.223861" PMx_normed="177.295197" NOx_normed="3467.189734" fuel_normed="3467.228373" electricity_normed="0"
            traveltime="0.02" CO_perVeh="2.755774" CO2_perVeh="187.850883" HC_perVeh="0.017146" PMx_perVeh="0.004129" NOx_perVeh="0.080747" fuel_perVeh="0.080748" electricity_perVeh="0"/>
        <edge id=":1110673414_0" sampledSeconds="0.00" CO_abs="0" CO2_abs="0" HC_abs="0" PMx_abs="0" NOx_abs="0" fuel_abs="0" electricity_abs="0"
            CO_normed="0" CO2_normed="0" HC_normed="0" PMx_normed="0" NOx_normed="0" fuel_normed="0" electricity_normed="0"/>
        <edge id=":1110673414_1" sampledSeconds="232.75" CO_abs="16170.520842" CO2_abs="611415.898188" HC_abs="87.839633" PMx_abs="11.384218" NOx_abs="258.798393" fuel_abs="262.825916" electricity_abs="0"
            CO_normed="1372.226325" CO2_normed="51884.599075" HC_normed="7.454049" PMx_normed="0.966062" NOx_normed="21.961566" fuel_normed="22.303341" electricity_normed="0"
            traveltime="1.61" CO_perVeh="111.542131" CO2_perVeh="4217.466626" HC_perVeh="0.605906" PMx_perVeh="0.078527" NOx_perVeh="1.785157" fuel_perVeh="1.812939" electricity_perVeh="0"/>
        <edge id=":1110673417_0" sampledSeconds="29.88" CO_abs="503.979940" CO2_abs="64780.091936" HC_abs="3.777068" PMx_abs="0.844254" NOx_abs="23.920719" fuel_abs="27.846292" electricity_abs="0"
            CO_normed="1379.255446" CO2_normed="177285.418545" HC_normed="10.336803" PMx_normed="2.310494" NOx_normed="65.464476" fuel_normed="76.207695" electricity_normed="0"
            traveltime="0.02" CO_perVeh="0.374061" CO2_perVeh="48.080651" HC_perVeh="0.002803" PMx_perVeh="0.000627" NOx_perVeh="0.017754" fuel_perVeh="0.020668" electricity_perVeh="0"/>
        <edge id=":1110673446_0" sampledSeconds="333.25" CO_abs="3442.269467" CO2_abs="276689.939951" HC_abs="22.213016" PMx_abs="5.078322" NOx_abs="113.254311" fuel_abs="118.936290" electricity_abs="0"
            CO_normed="8792.514603" CO2_normed="706743.141637" HC_normed="56.738227" PMx_normed="12.971448" NOx_normed="289.283042" fuel_normed="303.796398" electricity_normed="0"
            traveltime="0.02" CO_perVeh="0.235264" CO2_perVeh="18.910553" HC_perVeh="0.001518" PMx_perVeh="0.000347" NOx_perVeh="0.007740" fuel_perVeh="0.008129" electricity_perVeh="0"/>
        <edge id=":1110673451_0" sampledSeconds="37.59" CO_abs="298.645974" CO2_abs="21686.268006" HC_abs="1.855652" PMx_abs="0.305845" NOx_abs="8.391527" fuel_abs="9.322085" electricity_abs="0"
            CO_normed="847.583296" CO2_normed="61547.518109" HC_normed="5.266503" PMx_normed="0.868016" NOx_normed="23.815884" fuel_normed="26.456889" electricity_normed="0"
            traveltime="0.03" CO_perVeh="0.214168" CO2_perVeh="15.551905" HC_perVeh="0.001331" PMx_perVeh="0.000219" NOx_perVeh="0.006018" fuel_perVeh="0.006685" electricity_perVeh="0"/>
        <edge id=":1110673464_0" sampledSeconds="324.10" CO_abs="524.496769" CO2_abs="43706.688437" HC_abs="3.385787" PMx_abs="0.586424" NOx_abs="16.603968" fuel_abs="18.787800" electricity_abs="0"
            CO_normed="28.464110" CO2_normed="2371.934510" HC_normed="0.183745" PMx_normed="0.031825" NOx_normed="0.901087" fuel_normed="1.019602" electricity_normed="0"
            traveltime="1.17" CO_perVeh="1.895987" CO2_perVeh="157.993912" HC_perVeh="0.012239" PMx_perVeh="0.002120" NOx_perVeh="0.060021" fuel_perVeh="0.067915" electricity_perVeh="0"/>
        <edge id=":1110673464_1" sampledSeconds="710.51" CO_abs="16098.223420" CO2_abs="2070699.347807" HC_abs="122.733357" PMx_abs="36.659040" NOx_abs="776.085875" fuel_abs="890.098729" electricity_abs="0"
            CO_normed="856.058528" CO2_normed="110114.003834" HC_normed="6.526617" PMx_normed="1.949425" NOx_normed="41.270078" fuel_normed="47.332963" electricity_normed="0"
            traveltime="0.70" CO_perVeh="15.882605" CO2_perVeh="2042.964547" HC_perVeh="0.121089" PMx_perVeh="0.036168" NOx_perVeh="0.765691" fuel_perVeh="0.878177" electricity_perVeh="0"/>
        <edge id=":1110673479_0" sampledSeconds="134.31" CO_abs="6898.550848" CO2_abs="473883.429222" HC_abs="42.564754" PMx_abs="8.402122" NOx_abs="194.571114" fuel_abs="203.701772" electricity_abs="0"
            CO_normed="17620.819535" CO2_normed="1210430.215127" HC_normed="108.722233" PMx_normed="21.461358" NOx_normed="496.988798" fuel_normed="520.311039" electricity_normed="0"
            traveltime="0.03" CO_perVeh="1.453251" CO2_perVeh="99.828449" HC_perVeh="0.008967" PMx_perVeh="0.001770" NOx_perVeh="0.040988" fuel_perVeh="0.042912" electricity_perVeh="0"/>
        <edge id=":1110673511_0" sampledSeconds="11.57" CO_abs="192.350840" CO2_abs="21618.580741" HC_abs="1.377657" PMx_abs="0.311855" NOx_abs="8.211780" fuel_abs="9.292908" electricity_abs="0"
            CO_normed="491.317599" CO2_normed="55219.874180" HC_normed="3.518919" PMx_normed="0.796566" NOx_normed="20.975172" fuel_normed="23.736676" electricity_normed="0"
            traveltime="0.02" CO_perVeh="0.380893" CO2_perVeh="42.809071" HC_perVeh="0.002728" PMx_perVeh="0.000618" NOx_perVeh="0.016261" fuel_perVeh="0.018402" electricity_perVeh="0"/>
        <edge id=":1110673517_0" sampledSeconds="17.44" CO_abs="543.184739" CO2_abs="39286.477382" HC_abs="3.396511" PMx_abs="0.681374" NOx_abs="15.991578" fuel_abs="16.887542" electricity_abs="0"
            CO_normed="1387.445054" CO2_normed="100348.601232" HC_normed="8.675635" PMx_normed="1.740419" NOx_normed="40.846943" fuel_normed="43.135485" electricity_normed="0"
            traveltime="0.03" CO_perVeh="0.872120" CO2_perVeh="63.077117" HC_perVeh="0.005453" PMx_perVeh="0.001094" NOx_perVeh="0.025676" fuel_perVeh="0.027114" electricity_perVeh="0"/>
        <edge id=":1110673534_0" sampledSeconds="476.20" CO_abs="2832.288406" CO2_abs="246440.670527" HC_abs="18.532237" PMx_abs="3.330657" NOx_abs="93.607190" fuel_abs="105.935103" electricity_abs="0"
            CO_normed="140.202580" CO2_normed="12199.187706" HC_normed="0.917374" PMx_normed="0.164873" NOx_normed="4.633698" fuel_normed="5.243949" electricity_normed="0"
            traveltime="1.43" CO_perVeh="8.532550" CO2_perVeh="742.426968" HC_perVeh="0.055830" PMx_perVeh="0.010034" NOx_perVeh="0.282001" fuel_perVeh="0.319140" electricity_perVeh="0"/>
        <edge id=":1110673534_1" sampledSeconds="184.40" CO_abs="2573.910536" CO2_abs="324457.921303" HC_abs="19.049045" PMx_abs="4.374871" NOx_abs="120.713439" fuel_abs="139.470889" electricity_abs="0"
            CO_normed="123.891033" CO2_normed="15617.258770" HC_normed="0.916895" PMx_normed="0.210577" NOx_normed="5.810347" fuel_normed="6.713206" electricity_normed="0"
            traveltime="1.22" CO_perVeh="17.089842" CO2_perVeh="2154.284115" HC_perVeh="0.126479" PMx_perVeh="0.029048" NOx_perVeh="0.801494" fuel_perVeh="0.926037" electricity_perVeh="0"/>
        <edge id=":1110673549_0" sampledSeconds="59.87" CO_abs="116.895129" CO2_abs="13157.425511" HC_abs="0.834264" PMx_abs="0.172744" NOx_abs="4.896124" fuel_abs="5.655843" electricity_abs="0"
            CO_normed="5.605433" CO2_normed="630.933567" HC_normed="0.040005" PMx_normed="0.008284" NOx_normed="0.234782" fuel_normed="0.271213" electricity_normed="0"
            traveltime="1.25" CO_perVeh="2.435410" CO2_perVeh="274.123753" HC_perVeh="0.017381" PMx_perVeh="0.003599" NOx_perVeh="0.102007" fuel_perVeh="0.117835" electricity_perVeh="0"/>
        <edge id=":1110673549_1" sampledSeconds="639.06" CO_abs="13351.373605" CO2_abs="1796855.342807" HC_abs="103.747473" PMx_abs="31.384562" NOx_abs="669.194523" fuel_abs="772.386043" electricity_abs="0"
            CO_normed="619.306152" CO2_normed="83347.496721" HC_normed="4.812347" PMx_normed="1.455779" NOx_normed="31.040723" fuel_normed="35.827282" electricity_normed="0"
            traveltime="0.80" CO_perVeh="16.816635" CO2_perVeh="2263.217372" HC_perVeh="0.130674" PMx_perVeh="0.039530" NOx_perVeh="0.842880" fuel_perVeh="0.972854" electricity_perVeh="0"/>
        <edge id=":1110673556_0" sampledSeconds="418.18" CO_abs="51358.083799" CO2_abs="2575755.581774" HC_abs="295.094902" PMx_abs="51.947998" NOx_abs="1109.293600" fuel_abs="1107.205839" electricity_abs="0"
            CO_normed="1826.211299" CO2_normed="91589.747865" HC_normed="10.493103" PMx_normed="1.847188" NOx_normed="39.444706" fuel_normed="39.370468" electricity_normed="0"
            traveltime="2.60" CO_perVeh="318.805941" CO2_perVeh="15989.034678" HC_perVeh="1.831805" PMx_perVeh="0.322468" NOx_perVeh="6.885954" fuel_perVeh="6.872994" electricity_perVeh="0"/>
        <edge id=":1110673556_2" sampledSeconds="246.27" CO_abs="23143.385999" CO2_abs="1000556.014594" HC_abs="128.864125" PMx_abs="19.209659" NOx_abs="426.076212" fuel_abs="430.099788" electricity_abs="0"
            CO_normed="860.475274" CO2_normed="37200.853456" HC_normed="4.791191" PMx_normed="0.714219" NOx_normed="15.841591" fuel_normed="15.991188" electricity_normed="0"
            traveltime="2.99" CO_perVeh="280.724837" CO2_perVeh="12136.552722" HC_perVeh="1.563097" PMx_perVeh="0.233009" NOx_perVeh="5.168223" fuel_perVeh="5.217028" electricity_perVeh="0"/>
        <edge id=":1110673556_3" sampledSeconds="418.65" CO_abs="35155.352643" CO2_abs="1249596.147312" HC_abs="189.144506" PMx_abs="23.769852" NOx_abs="532.457687" fuel_abs="537.157878" electricity_abs="0"
            CO_normed="2973.395976" CO2_normed="105689.287028" HC_normed="15.997607" PMx_normed="2.010425" NOx_normed="45.034609" fuel_normed="45.432145" electricity_normed="0"
            traveltime="1.75" CO_perVeh="146.901532" CO2_perVeh="5221.611356" HC_perVeh="0.790367" PMx_perVeh="0.099326" NOx_perVeh="2.224949" fuel_perVeh="2.244589" electricity_perVeh="0"/>
        <edge id=":1110673556_4" sampledSeconds="196.47" CO_abs="20212.262670" CO2_abs="814332.625936" HC_abs="111.150038" PMx_abs="15.913771" NOx_abs="349.162189" fuel_abs="350.050347" electricity_abs="0"
            CO_normed="1044.391361" CO2_normed="42077.523604" HC_normed="5.743253" PMx_normed="0.822283" NOx_normed="18.041621" fuel_normed="18.087513" electricity_normed="0"
            traveltime="2.40" CO_perVeh="246.917407" CO2_perVeh="9948.064881" HC_perVeh="1.357833" PMx_perVeh="0.194406" NOx_perVeh="4.265441" fuel_perVeh="4.276291" electricity_perVeh="0"/>
        <edge id=":1110673556_5" sampledSeconds="24.05" CO_abs="1649.774461" CO2_abs="67766.395157" HC_abs="9.098164" PMx_abs="1.294132" NOx_abs="28.849404" fuel_abs="29.130193" electricity_abs="0"
            CO_normed="118.815319" CO2_normed="4880.476706" HC_normed="0.655242" PMx_normed="0.093202" NOx_normed="2.077709" fuel_normed="2.097931" electricity_normed="0"
            traveltime="1.66" CO_perVeh="114.058481" CO2_perVeh="4685.084110" HC_perVeh="0.629009" PMx_perVeh="0.089471" NOx_perVeh="1.994527" fuel_perVeh="2.013939" electricity_perVeh="0"/>
        <edge id=":1110673556_6" sampledSeconds="305.85" CO_abs="36331.356261" CO2_abs="1868694.160244" HC_abs="209.904147" PMx_abs="37.695105" NOx_abs="803.951710" fuel_abs="803.270023" electricity_abs="0"
            CO_normed="1324.458598" CO2_normed="68123.194485" HC_normed="7.652050" PMx_normed="1.374174" NOx_normed="29.308038" fuel_normed="29.283187" electricity_normed="0"
            traveltime="2.42" CO_perVeh="287.715116" CO2_perVeh="14798.554520" HC_perVeh="1.662272" PMx_perVeh="0.298515" NOx_perVeh="6.366651" fuel_perVeh="6.361252" electricity_perVeh="0"/>
        <edge id=":1110673561_0" sampledSeconds="101.23" CO_abs="9464.122067" CO2_abs="679483.826392" HC_abs="59.450088" PMx_abs="13.753729" NOx_abs="287.391796" fuel_abs="292.077692" electricity_abs="0"
            CO_normed="433.484807" CO2_normed="31122.370688" HC_normed="2.722990" PMx_normed="0.629962" NOx_normed="13.163395" fuel_normed="13.378023" electricity_normed="0"
            traveltime="1.19" CO_perVeh="111.685826" CO2_perVeh="8018.568658" HC_perVeh="0.701569" PMx_perVeh="0.162307" NOx_perVeh="3.391502" fuel_perVeh="3.446800" electricity_perVeh="0"/>
        <edge id=":1110673561_1" sampledSeconds="1311.61" CO_abs="122328.049553" CO2_abs="8468579.403478" HC_abs="761.844143" PMx_abs="177.109548" NOx_abs="3621.403077" fuel_abs="3640.233186" electricity_abs="0"
            CO_normed="5462.585606" CO2_normed="378166.251528" HC_normed="34.020316" PMx_normed="7.908865" NOx_normed="161.714541" fuel_normed="162.555403" electricity_normed="0"
            traveltime="1.19" CO_perVeh="111.099320" CO2_perVeh="7691.232005" HC_perVeh="0.691913" PMx_perVeh="0.160852" NOx_perVeh="3.288987" fuel_perVeh="3.306089" electricity_perVeh="0"/>
        <edge id=":1110673562_0" sampledSeconds="103.90" CO_abs="2303.213875" CO2_abs="182770.239378" HC_abs="14.655388" PMx_abs="2.464207" NOx_abs="69.675411" fuel_abs="78.565854" electricity_abs="0"
            CO_normed="6536.721654" CO2_normed="518717.863992" HC_normed="41.593267" PMx_normed="6.993635" NOx_normed="197.744888" fuel_normed="222.976738" electricity_normed="0"
            traveltime="0.03" CO_perVeh="0.587100" CO2_perVeh="46.588966" HC_perVeh="0.003736" PMx_perVeh="0.000628" NOx_perVeh="0.017761" fuel_perVeh="0.020027" electricity_perVeh="0"/>
        <edge id=":1110673564_0" sampledSeconds="28.39" CO_abs="409.952574" CO2_abs="54036.810622" HC_abs="3.093529" PMx_abs="0.688956" NOx_abs="19.850569" fuel_abs="23.228211" electricity_abs="0"
            CO_normed="3141.399031" CO2_normed="414075.177180" HC_normed="23.705201" PMx_normed="5.279354" NOx_normed="152.111639" fuel_normed="177.993957" electricity_normed="0"
            traveltime="7.804755e-03" CO_perVeh="0.112702" CO2_perVeh="14.855481" HC_perVeh="0.000850" PMx_perVeh="0.000189" NOx_perVeh="0.005457" fuel_perVeh="0.006386" electricity_perVeh="0"/>
        <edge id=":1110673588_0" sampledSeconds="11.69" CO_abs="125.127399" CO2_abs="17591.126040" HC_abs="0.965979" PMx_abs="0.218909" NOx_abs="6.401061" fuel_abs="7.561708" electricity_abs="0"
            CO_normed="383.532256" CO2_normed="53919.160275" HC_normed="2.960854" PMx_normed="0.670986" NOx_normed="19.620110" fuel_normed="23.177648" electricity_normed="0"
            traveltime="0.02" CO_perVeh="0.208546" CO2_perVeh="29.318543" HC_perVeh="0.001610" PMx_perVeh="0.000365" NOx_perVeh="0.010668" fuel_perVeh="0.012603" electricity_perVeh="0"/>
        <edge id=":1110673601_0" sampledSeconds="29.95" CO_abs="480.384950" CO2_abs="56457.537738" HC_abs="3.481844" PMx_abs="0.757177" NOx_abs="21.069036" fuel_abs="24.268763" electricity_abs="0"
            CO_normed="1314.682403" CO2_normed="154508.860806" HC_normed="9.528856" PMx_normed="2.072188" NOx_normed="57.660197" fuel_normed="66.416975" electricity_normed="0"
            traveltime="0.02" CO_perVeh="0.356548" CO2_perVeh="41.903540" HC_perVeh="0.002584" PMx_perVeh="0.000562" NOx_perVeh="0.015638" fuel_perVeh="0.018013" electricity_perVeh="0"/>
        <edge id=":1110673617_0" sampledSeconds="238.88" CO_abs="5527.491289" CO2_abs="698774.327619" HC_abs="41.891272" PMx_abs="12.435040" NOx_abs="262.790321" fuel_abs="300.370993" electricity_abs="0"
            CO_normed="14118.751696" CO2_normed="1784864.182936" HC_normed="107.001971" PMx_normed="31.762555" NOx_normed="671.239644" fuel_normed="767.231143" electricity_normed="0"
            traveltime="0.01" CO_perVeh="0.338523" CO2_perVeh="42.795387" HC_perVeh="0.002566" PMx_perVeh="0.000762" NOx_perVeh="0.016094" fuel_perVeh="0.018396" electricity_perVeh="0"/>
        <edge id=":1110673621_0" sampledSeconds="25.83" CO_abs="469.611453" CO2_abs="54486.029662" HC_abs="3.394467" PMx_abs="0.766396" NOx_abs="20.545880" fuel_abs="23.421245" electricity_abs="0"
            CO_normed="1439.422078" CO2_normed="167006.987470" HC_normed="10.404497" PMx_normed="2.349107" NOx_normed="62.975877" fuel_normed="71.789258" electricity_normed="0"
            traveltime="0.02" CO_perVeh="0.355766" CO2_perVeh="41.277295" HC_perVeh="0.002572" PMx_perVeh="0.000581" NOx_perVeh="0.015565" fuel_perVeh="0.017743" electricity_perVeh="0"/>
        <edge id=":1110673630_0" sampledSeconds="53.74" CO_abs="202.723343" CO2_abs="18755.138306" HC_abs="1.351506" PMx_abs="0.248104" NOx_abs="7.077814" fuel_abs="8.062091" electricity_abs="0"
            CO_normed="11.080140" CO2_normed="1025.089407" HC_normed="0.073869" PMx_normed="0.013561" NOx_normed="0.386848" fuel_normed="0.440645" electricity_normed="0"
            traveltime="1.25" CO_perVeh="4.731921" CO2_perVeh="437.778102" HC_perVeh="0.031547" PMx_perVeh="0.005791" NOx_perVeh="0.165209" fuel_perVeh="0.188183" electricity_perVeh="0"/>
        <edge id=":1110673630_1" sampledSeconds="7.37" CO_abs="15.616801" CO2_abs="1162.547982" HC_abs="0.097627" PMx_abs="0.015997" NOx_abs="0.446989" fuel_abs="0.499735" electricity_abs="0"
            CO_normed="1.040600" CO2_normed="77.464467" HC_normed="0.006505" PMx_normed="0.001066" NOx_normed="0.029784" fuel_normed="0.033299" electricity_normed="0"
            traveltime="1.04" CO_perVeh="2.210378" CO2_perVeh="164.545253" HC_perVeh="0.013818" PMx_perVeh="0.002264" NOx_perVeh="0.063266" fuel_perVeh="0.070732" electricity_perVeh="0"/>
        <edge id=":1110673650_0" sampledSeconds="143.54" CO_abs="2684.065030" CO2_abs="315971.131726" HC_abs="19.518187" PMx_abs="4.450561" NOx_abs="119.064465" fuel_abs="135.822630" electricity_abs="0"
            CO_normed="6855.849373" CO2_normed="807078.241958" HC_normed="49.854884" PMx_normed="11.367971" NOx_normed="304.123793" fuel_normed="346.928812" electricity_normed="0"
            traveltime="0.02" CO_perVeh="0.430947" CO2_perVeh="50.731538" HC_perVeh="0.003134" PMx_perVeh="0.000715" NOx_perVeh="0.019117" fuel_perVeh="0.021807" electricity_perVeh="0"/>
        <edge id=":1110673655_0" sampledSeconds="45.02" CO_abs="731.951908" CO2_abs="84373.659797" HC_abs="5.278556" PMx_abs="1.176785" NOx_abs="31.777415" fuel_abs="36.268694" electricity_abs="0"
            CO_normed="1869.608961" CO2_normed="215513.818129" HC_normed="13.482902" PMx_normed="3.005837" NOx_normed="81.168365" fuel_normed="92.640342" electricity_normed="0"
            traveltime="0.02" CO_perVeh="0.391732" CO2_perVeh="45.155825" HC_perVeh="0.002825" PMx_perVeh="0.000630" NOx_perVeh="0.017007" fuel_perVeh="0.019411" electricity_perVeh="0"/>
        <edge id=":1110673663_0" sampledSeconds="108.67" CO_abs="1922.087469" CO2_abs="207624.092094" HC_abs="13.553695" PMx_abs="3.045880" NOx_abs="79.293035" fuel_abs="89.248739" electricity_abs="0"
            CO_normed="89.918435" CO2_normed="9712.998849" HC_normed="0.634064" PMx_normed="0.142491" NOx_normed="3.709459" fuel_normed="4.175204" electricity_normed="0"
            traveltime="1.28" CO_perVeh="22.575824" CO2_perVeh="2438.642909" HC_perVeh="0.159195" PMx_perVeh="0.035775" NOx_perVeh="0.931334" fuel_perVeh="1.048269" electricity_perVeh="0"/>
        <edge id=":1110673663_1" sampledSeconds="154.62" CO_abs="2677.295874" CO2_abs="329466.646388" HC_abs="19.800364" PMx_abs="4.638953" NOx_abs="123.779614" fuel_abs="141.623716" electricity_abs="0"
            CO_normed="125.401450" CO2_normed="15431.837600" HC_normed="0.927426" PMx_normed="0.217283" NOx_normed="5.797694" fuel_normed="6.633491" electricity_normed="0"
            traveltime="1.25" CO_perVeh="21.639893" CO2_perVeh="2662.994010" HC_perVeh="0.160041" PMx_perVeh="0.037495" NOx_perVeh="1.000479" fuel_perVeh="1.144708" electricity_perVeh="0"/>
        <edge id=":1110673666_0" sampledSeconds="192.07" CO_abs="3807.488482" CO2_abs="306250.636902" HC_abs="24.312849" PMx_abs="4.072834" NOx_abs="116.300081" fuel_abs="131.645349" electricity_abs="0"