<?xml version="1.0" encoding="UTF-8"?>

<!-- generated on Mon Nov  9 22:01:16 2020 by Eclipse SUMO sumo Version 1.7.0
<configuration xmlns:xsi="http://www.w3.org/2001/XMLSchema-instance" xsi:noNamespaceSchemaLocation="http://sumo.dlr.de/xsd/sumoConfiguration.xsd">

    <input>
        <net-file value="../dataSets/Porto/6AM7AM_Routing_SaoBento/Porto.net.xml"/>
        <route-files value="../results/Porto/6AM7AM_Routing_SaoBento/cost_PMx-ttime/solution10/Porto.rou.xml"/>
        <additional-files value="moreOutputInfo.xml"/>
    </input>

    <output>
        <emission-output.precision value="6"/>
        <tripinfo-output value="../results/Porto/6AM7AM_Routing_SaoBento/cost_PMx-ttime/solution10/Porto-tripinfo"/>
    </output>

    <processing>
        <collision.action value="warn"/>
        <time-to-teleport value="-1"/>
    </processing>

    <emissions>
        <device.emissions.probability value="1"/>
    </emissions>

    <gui_only>
        <quit-on-end value="true"/>
        <start value="true"/>
    </gui_only>

</configuration>
-->

<meandata xmlns:xsi="http://www.w3.org/2001/XMLSchema-instance" xsi:noNamespaceSchemaLocation="http://sumo.dlr.de/xsd/meandata_file.xsd">
    <interval begin="0.00" end="4702.00" id="emissions-detector">
        <edge id=":1092997347_0" sampledSeconds="329.63" CO_abs="41560.715246" CO2_abs="1666563.930847" HC_abs="228.619532" PMx_abs="33.886346" NOx_abs="722.566310" fuel_abs="716.390091" electricity_abs="0"
            CO_normed="72318.633698" CO2_normed="2899941.103906" HC_normed="397.814429" PMx_normed="58.964679" NOx_normed="1257.317348" fuel_normed="1246.570283" electricity_normed="0"
            traveltime="0.07" CO_perVeh="9.275407" CO2_perVeh="371.939185" HC_perVeh="0.051023" PMx_perVeh="0.007563" NOx_perVeh="0.161260" fuel_perVeh="0.159882" electricity_perVeh="0"/>
        <edge id=":1103427051_0" sampledSeconds="11.06" CO_abs="790.113921" CO2_abs="44187.517401" HC_abs="4.646734" PMx_abs="0.867683" NOx_abs="18.865811" fuel_abs="18.994261" electricity_abs="0"
            CO_normed="2085.986973" CO2_normed="116659.867879" HC_normed="12.267884" PMx_normed="2.290779" NOx_normed="49.807800" fuel_normed="50.146921" electricity_normed="0"
            traveltime="0.03" CO_perVeh="2.164900" CO2_perVeh="121.073130" HC_perVeh="0.012732" PMx_perVeh="0.002377" NOx_perVeh="0.051692" fuel_perVeh="0.052044" electricity_perVeh="0"/>
        <edge id=":1105984386_0" sampledSeconds="76.10" CO_abs="1604.273760" CO2_abs="130444.115756" HC_abs="10.277202" PMx_abs="1.737587" NOx_abs="49.558332" fuel_abs="56.072880" electricity_abs="0"
            CO_normed="126.496680" CO2_normed="10285.493622" HC_normed="0.810355" PMx_normed="0.137008" NOx_normed="3.907665" fuel_normed="4.421336" electricity_normed="0"
            traveltime="0.95" CO_perVeh="19.949667" CO2_perVeh="1622.115112" HC_perVeh="0.127800" PMx_perVeh="0.021607" NOx_perVeh="0.616274" fuel_perVeh="0.697285" electricity_perVeh="0"/>
        <edge id=":1105984390_0" sampledSeconds="78.53" CO_abs="62.398095" CO2_abs="7201.530622" HC_abs="0.446576" PMx_abs="0.078165" NOx_abs="2.555862" fuel_abs="3.095671" electricity_abs="0"
            CO_normed="3.803659" CO2_normed="438.990426" HC_normed="0.027222" PMx_normed="0.004765" NOx_normed="0.155800" fuel_normed="0.188706" electricity_normed="0"
            traveltime="1.06" CO_perVeh="0.838437" CO2_perVeh="96.766287" HC_perVeh="0.006001" PMx_perVeh="0.001050" NOx_perVeh="0.034343" fuel_perVeh="0.041596" electricity_perVeh="0"/>
        <edge id=":1105984390_1" sampledSeconds="645.73" CO_abs="14625.343840" CO2_abs="1844496.246057" HC_abs="110.925773" PMx_abs="32.931659" NOx_abs="693.484780" fuel_abs="792.864215" electricity_abs="0"
            CO_normed="852.827576" CO2_normed="107555.574799" HC_normed="6.468262" PMx_normed="1.920299" NOx_normed="40.438225" fuel_normed="46.233201" electricity_normed="0"
            traveltime="0.64" CO_perVeh="14.398343" CO2_perVeh="1815.867733" HC_perVeh="0.109204" PMx_perVeh="0.032421" NOx_perVeh="0.682721" fuel_perVeh="0.780558" electricity_perVeh="0"/>
        <edge id=":1105984395_0" sampledSeconds="30.13" CO_abs="609.026478" CO2_abs="48634.087783" HC_abs="3.884135" PMx_abs="0.664889" NOx_abs="18.596680" fuel_abs="20.905895" electricity_abs="0"
            CO_normed="506.836896" CO2_normed="40473.692050" HC_normed="3.232409" PMx_normed="0.553326" NOx_normed="15.476311" fuel_normed="17.398060" electricity_normed="0"
            traveltime="0.09" CO_perVeh="1.829984" CO2_perVeh="146.134172" HC_perVeh="0.011671" PMx_perVeh="0.001998" NOx_perVeh="0.055879" fuel_perVeh="0.062817" electricity_perVeh="0"/>
        <edge id=":1105984398_0" sampledSeconds="75.67" CO_abs="5485.654447" CO2_abs="382643.422102" HC_abs="34.010262" PMx_abs="6.893667" NOx_abs="157.638313" fuel_abs="164.481460" electricity_abs="0"
            CO_normed="347.393767" CO2_normed="24231.920028" HC_normed="2.153791" PMx_normed="0.436560" NOx_normed="9.982869" fuel_normed="10.416229" electricity_normed="0"
            traveltime="1.08" CO_perVeh="78.246861" CO2_perVeh="5457.989948" HC_perVeh="0.485119" PMx_perVeh="0.098331" NOx_perVeh="2.248538" fuel_perVeh="2.346148" electricity_perVeh="0"/>
        <edge id=":1105984398_1" sampledSeconds="451.82" CO_abs="8466.030901" CO2_abs="951797.000475" HC_abs="60.563025" PMx_abs="14.044751" NOx_abs="363.072673" fuel_abs="409.136594" electricity_abs="0"
            CO_normed="518.964065" CO2_normed="58344.748137" HC_normed="3.712487" PMx_normed="0.860937" NOx_normed="22.256199" fuel_normed="25.079898" electricity_normed="0"
            traveltime="0.95" CO_perVeh="17.873534" CO2_perVeh="2009.439412" HC_perVeh="0.127861" PMx_perVeh="0.029651" NOx_perVeh="0.766521" fuel_perVeh="0.863772" electricity_perVeh="0"/>
        <edge id=":1106006327_0" sampledSeconds="40.70" CO_abs="5475.732572" CO2_abs="171025.127436" HC_abs="28.953371" PMx_abs="3.570062" NOx_abs="74.861308" fuel_abs="73.517838" electricity_abs="0"
            CO_normed="473.182183" CO2_normed="14779.034971" HC_normed="2.501988" PMx_normed="0.308505" NOx_normed="6.469096" fuel_normed="6.353000" electricity_normed="0"
            traveltime="2.21" CO_perVeh="297.054804" CO2_perVeh="9277.997974" HC_perVeh="1.570701" PMx_perVeh="0.193673" NOx_perVeh="4.061176" fuel_perVeh="3.988293" electricity_perVeh="0"/>
        <edge id=":1106006327_1" sampledSeconds="160.51" CO_abs="21689.983204" CO2_abs="727368.024472" HC_abs="115.905281" PMx_abs="15.162452" NOx_abs="318.269832" fuel_abs="312.669237" electricity_abs="0"
            CO_normed="1634.501727" CO2_normed="54812.596250" HC_normed="8.734326" PMx_normed="1.142604" NOx_normed="23.984002" fuel_normed="23.561955" electricity_normed="0"
            traveltime="2.28" CO_perVeh="307.917267" CO2_perVeh="10325.926571" HC_perVeh="1.645425" PMx_perVeh="0.215251" NOx_perVeh="4.518250" fuel_perVeh="4.438743" electricity_perVeh="0"/>
        <edge id=":1106006327_2" sampledSeconds="0.00" CO_abs="0" CO2_abs="0" HC_abs="0" PMx_abs="0" NOx_abs="0" fuel_abs="0" electricity_abs="0"
            CO_normed="0" CO2_normed="0" HC_normed="0" PMx_normed="0" NOx_normed="0" fuel_normed="0" electricity_normed="0"/>
        <edge id=":1106006327_3" sampledSeconds="0.00" CO_abs="0" CO2_abs="0" HC_abs="0" PMx_abs="0" NOx_abs="0" fuel_abs="0" electricity_abs="0"
            CO_normed="0" CO2_normed="0" HC_normed="0" PMx_normed="0" NOx_normed="0" fuel_normed="0" electricity_normed="0"/>
        <edge id=":1107381198_0" sampledSeconds="0.00" CO_abs="0" CO2_abs="0" HC_abs="0" PMx_abs="0" NOx_abs="0" fuel_abs="0" electricity_abs="0"
            CO_normed="0" CO2_normed="0" HC_normed="0" PMx_normed="0" NOx_normed="0" fuel_normed="0" electricity_normed="0"/>
        <edge id=":1107381198_1" sampledSeconds="36.43" CO_abs="1414.251784" CO2_abs="57542.449222" HC_abs="7.763146" PMx_abs="0.981617" NOx_abs="23.756559" fuel_abs="24.735496" electricity_abs="0"
            CO_normed="118.080253" CO2_normed="4804.396960" HC_normed="0.648169" PMx_normed="0.081958" NOx_normed="1.983509" fuel_normed="2.065243" electricity_normed="0"
            traveltime="1.50" CO_perVeh="58.228668" CO2_perVeh="2369.182199" HC_perVeh="0.319630" PMx_perVeh="0.040416" NOx_perVeh="0.978123" fuel_perVeh="1.018429" electricity_perVeh="0"/>
        <edge id=":1110338277_0" sampledSeconds="96.56" CO_abs="1368.445460" CO2_abs="171259.770129" HC_abs="10.135093" PMx_abs="2.307445" NOx_abs="63.771801" fuel_abs="73.617423" electricity_abs="0"
            CO_normed="3741.875536" CO2_normed="468292.498985" HC_normed="27.713385" PMx_normed="6.309474" NOx_normed="174.377533" fuel_normed="201.299388" electricity_normed="0"
            traveltime="0.02" CO_perVeh="0.308404" CO2_perVeh="38.596547" HC_perVeh="0.002284" PMx_perVeh="0.000520" NOx_perVeh="0.014372" fuel_perVeh="0.016591" electricity_perVeh="0"/>
        <edge id=":1110338293_0" sampledSeconds="123.07" CO_abs="6657.096460" CO2_abs="450463.904318" HC_abs="40.925370" PMx_abs="8.070180" NOx_abs="185.612805" fuel_abs="193.634687" electricity_abs="0"
            CO_normed="16989.612402" CO2_normed="1149631.401917" HC_normed="104.445862" PMx_normed="20.595950" NOx_normed="473.703459" fuel_normed="494.176148" electricity_normed="0"
            traveltime="0.03" CO_perVeh="1.526915" CO2_perVeh="103.321359" HC_perVeh="0.009387" PMx_perVeh="0.001851" NOx_perVeh="0.042573" fuel_perVeh="0.044413" electricity_perVeh="0"/>
        <edge id=":1110338295_0" sampledSeconds="0.00" CO_abs="0" CO2_abs="0" HC_abs="0" PMx_abs="0" NOx_abs="0" fuel_abs="0" electricity_abs="0"
            CO_normed="0" CO2_normed="0" HC_normed="0" PMx_normed="0" NOx_normed="0" fuel_normed="0" electricity_normed="0"/>
        <edge id=":1110673403_0" sampledSeconds="158.70" CO_abs="2271.064459" CO2_abs="292163.251248" HC_abs="16.999759" PMx_abs="3.880137" NOx_abs="108.338201" fuel_abs="125.588822" electricity_abs="0"
            CO_normed="5795.996066" CO2_normed="745631.436619" HC_normed="43.385178" PMx_normed="9.902519" NOx_normed="276.490518" fuel_normed="320.515922" electricity_normed="0"
            traveltime="0.02" CO_perVeh="0.330673" CO2_perVeh="42.539786" HC_perVeh="0.002475" PMx_perVeh="0.000565" NOx_perVeh="0.015774" fuel_perVeh="0.018286" electricity_perVeh="0"/>
        <edge id=":1110673412_0" sampledSeconds="254.41" CO_abs="44744.640695" CO2_abs="3049038.590718" HC_abs="278.367711" PMx_abs="67.028749" NOx_abs="1310.745407" fuel_abs="1310.631502" electricity_abs="0"
            CO_normed="118130.734173" CO2_normed="8049794.604339" HC_normed="734.921134" PMx_normed="176.963212" NOx_normed="3460.510910" fuel_normed="3460.210189" electricity_normed="0"
            traveltime="0.02" CO_perVeh="2.750375" CO2_perVeh="187.419051" HC_perVeh="0.017111" PMx_perVeh="0.004120" NOx_perVeh="0.080569" fuel_perVeh="0.080562" electricity_perVeh="0"/>
        <edge id=":1110673414_0" sampledSeconds="0.00" CO_abs="0" CO2_abs="0" HC_abs="0" PMx_abs="0" NOx_abs="0" fuel_abs="0" electricity_abs="0"
            CO_normed="0" CO2_normed="0" HC_normed="0" PMx_normed="0" NOx_normed="0" fuel_normed="0" electricity_normed="0"/>
        <edge id=":1110673414_1" sampledSeconds="321.19" CO_abs="20331.143163" CO2_abs="778123.379892" HC_abs="110.637558" PMx_abs="14.337619" NOx_abs="328.369713" fuel_abs="334.487544" electricity_abs="0"
            CO_normed="1723.827974" CO2_normed="65975.180977" HC_normed="9.380688" PMx_normed="1.215652" NOx_normed="27.841666" fuel_normed="28.360382" electricity_normed="0"
            traveltime="1.58" CO_perVeh="100.172931" CO2_perVeh="3833.867043" HC_perVeh="0.545119" PMx_perVeh="0.070642" NOx_perVeh="1.617900" fuel_perVeh="1.648043" electricity_perVeh="0"/>
        <edge id=":1110673417_0" sampledSeconds="29.44" CO_abs="518.314862" CO2_abs="63451.614171" HC_abs="3.799269" PMx_abs="0.864245" NOx_abs="23.698946" fuel_abs="27.275192" electricity_abs="0"
            CO_normed="1417.279504" CO2_normed="173502.013593" HC_normed="10.388716" PMx_normed="2.363189" NOx_normed="64.802368" fuel_normed="74.581249" electricity_normed="0"
            traveltime="0.02" CO_perVeh="0.384700" CO2_perVeh="47.094637" HC_perVeh="0.002820" PMx_perVeh="0.000641" NOx_perVeh="0.017590" fuel_perVeh="0.020244" electricity_perVeh="0"/>
        <edge id=":1110673446_0" sampledSeconds="335.59" CO_abs="3541.768296" CO2_abs="280166.345704" HC_abs="22.770564" PMx_abs="5.188900" NOx_abs="115.098352" fuel_abs="120.430604" electricity_abs="0"
            CO_normed="9038.966301" CO2_normed="715014.068152" HC_normed="58.112882" PMx_normed="13.242620" NOx_normed="293.743136" fuel_normed="307.351606" electricity_normed="0"
            traveltime="0.02" CO_perVeh="0.241673" CO2_perVeh="19.117186" HC_perVeh="0.001554" PMx_perVeh="0.000354" NOx_perVeh="0.007854" fuel_perVeh="0.008218" electricity_perVeh="0"/>
        <edge id=":1110673451_0" sampledSeconds="37.28" CO_abs="335.524850" CO2_abs="24020.956746" HC_abs="2.078417" PMx_abs="0.346938" NOx_abs="9.345521" fuel_abs="10.325669" electricity_abs="0"
            CO_normed="951.438677" CO2_normed="68115.572794" HC_normed="5.893711" PMx_normed="0.983803" NOx_normed="26.500838" fuel_normed="29.280217" electricity_normed="0"
            traveltime="0.03" CO_perVeh="0.240615" CO2_perVeh="17.226184" HC_perVeh="0.001490" PMx_perVeh="0.000249" NOx_perVeh="0.006702" fuel_perVeh="0.007405" electricity_perVeh="0"/>
        <edge id=":1110673464_0" sampledSeconds="324.94" CO_abs="755.501527" CO2_abs="67210.497927" HC_abs="4.974466" PMx_abs="0.891955" NOx_abs="25.348497" fuel_abs="28.891155" electricity_abs="0"
            CO_normed="40.965714" CO2_normed="3644.368567" HC_normed="0.269731" PMx_normed="0.048365" NOx_normed="1.374477" fuel_normed="1.566571" electricity_normed="0"
            traveltime="1.17" CO_perVeh="2.731038" CO2_perVeh="242.957083" HC_perVeh="0.017982" PMx_perVeh="0.003224" NOx_perVeh="0.091631" fuel_perVeh="0.104438" electricity_perVeh="0"/>
        <edge id=":1110673464_1" sampledSeconds="744.80" CO_abs="17197.744772" CO2_abs="2198942.957704" HC_abs="130.893370" PMx_abs="38.995736" NOx_abs="825.420534" fuel_abs="945.224695" electricity_abs="0"
            CO_normed="913.750010" CO2_normed="116834.164914" HC_normed="6.954622" PMx_normed="2.071920" NOx_normed="43.856217" fuel_normed="50.221647" electricity_normed="0"
            traveltime="0.70" CO_perVeh="16.197612" CO2_perVeh="2071.063747" HC_perVeh="0.123281" PMx_perVeh="0.036728" NOx_perVeh="0.777418" fuel_perVeh="0.890255" electricity_perVeh="0"/>
        <edge id=":1110673479_0" sampledSeconds="134.85" CO_abs="6214.733030" CO2_abs="433430.683884" HC_abs="38.463879" PMx_abs="7.483327" NOx_abs="176.601578" fuel_abs="186.313138" electricity_abs="0"
            CO_normed="15860.654267" CO2_normed="1106160.826587" HC_normed="98.163877" PMx_normed="19.098240" NOx_normed="450.705857" fuel_normed="475.490781" electricity_normed="0"
            traveltime="0.03" CO_perVeh="1.309192" CO2_perVeh="91.306232" HC_perVeh="0.008103" PMx_perVeh="0.001576" NOx_perVeh="0.037203" fuel_perVeh="0.039249" electricity_perVeh="0"/>
        <edge id=":1110673511_0" sampledSeconds="11.61" CO_abs="281.526785" CO2_abs="31672.444042" HC_abs="2.013412" PMx_abs="0.451356" NOx_abs="12.006477" fuel_abs="13.614643" electricity_abs="0"
            CO_normed="718.486052" CO2_normed="80831.418227" HC_normed="5.138439" PMx_normed="1.151908" NOx_normed="30.641797" fuel_normed="34.746006" electricity_normed="0"
            traveltime="0.02" CO_perVeh="0.557479" CO2_perVeh="62.717711" HC_perVeh="0.003987" PMx_perVeh="0.000894" NOx_perVeh="0.023775" fuel_perVeh="0.026960" electricity_perVeh="0"/>
        <edge id=":1110673517_0" sampledSeconds="17.11" CO_abs="643.811861" CO2_abs="45008.120471" HC_abs="3.992261" PMx_abs="0.802355" NOx_abs="18.489878" fuel_abs="19.347009" electricity_abs="0"
            CO_normed="1643.075783" CO2_normed="114865.471215" HC_normed="10.188672" PMx_normed="2.047694" NOx_normed="47.188118" fuel_normed="49.375608" electricity_normed="0"
            traveltime="0.03" CO_perVeh="1.033682" CO2_perVeh="72.263506" HC_perVeh="0.006410" PMx_perVeh="0.001288" NOx_perVeh="0.029687" fuel_perVeh="0.031063" electricity_perVeh="0"/>
        <edge id=":1110673534_0" sampledSeconds="474.21" CO_abs="2876.493857" CO2_abs="266192.682200" HC_abs="19.170541" PMx_abs="3.467849" NOx_abs="99.954668" fuel_abs="114.425787" electricity_abs="0"
            CO_normed="142.269685" CO2_normed="13165.732652" HC_normed="0.948164" PMx_normed="0.171518" NOx_normed="4.943699" fuel_normed="5.659432" electricity_normed="0"
            traveltime="1.43" CO_perVeh="8.665728" CO2_perVeh="801.932315" HC_perVeh="0.057753" PMx_perVeh="0.010447" NOx_perVeh="0.301124" fuel_perVeh="0.344719" electricity_perVeh="0"/>
        <edge id=":1110673534_1" sampledSeconds="244.75" CO_abs="4455.145634" CO2_abs="526092.824513" HC_abs="32.371920" PMx_abs="7.487486" NOx_abs="198.502703" fuel_abs="226.144941" electricity_abs="0"
            CO_normed="214.258824" CO2_normed="25301.087641" HC_normed="1.556845" PMx_normed="0.360091" NOx_normed="9.546479" fuel_normed="10.875862" electricity_normed="0"
            traveltime="1.22" CO_perVeh="22.281466" CO2_perVeh="2631.141741" HC_perVeh="0.161901" PMx_perVeh="0.037447" NOx_perVeh="0.992769" fuel_perVeh="1.131016" electricity_perVeh="0"/>
        <edge id=":1110673549_0" sampledSeconds="60.06" CO_abs="63.515567" CO2_abs="9883.257320" HC_abs="0.517880" PMx_abs="0.129521" NOx_abs="3.601495" fuel_abs="4.248398" electricity_abs="0"
            CO_normed="3.043149" CO2_normed="473.525317" HC_normed="0.024813" PMx_normed="0.006206" NOx_normed="0.172554" fuel_normed="0.203549" electricity_normed="0"
            traveltime="1.25" CO_perVeh="1.323293" CO2_perVeh="205.909248" HC_perVeh="0.010790" PMx_perVeh="0.002698" NOx_perVeh="0.075034" fuel_perVeh="0.088512" electricity_perVeh="0"/>
        <edge id=":1110673549_1" sampledSeconds="638.42" CO_abs="13243.946789" CO2_abs="1804412.835667" HC_abs="103.154989" PMx_abs="31.380989" NOx_abs="670.456254" fuel_abs="775.634750" electricity_abs="0"
            CO_normed="613.800532" CO2_normed="83626.850462" HC_normed="4.780794" PMx_normed="1.454375" NOx_normed="31.072792" fuel_normed="35.947367" electricity_normed="0"
            traveltime="0.80" CO_perVeh="16.679040" CO2_perVeh="2272.424919" HC_perVeh="0.129910" PMx_perVeh="0.039520" NOx_perVeh="0.844353" fuel_perVeh="0.976812" electricity_perVeh="0"/>
        <edge id=":1110673556_0" sampledSeconds="418.96" CO_abs="51277.130637" CO2_abs="2569254.553182" HC_abs="294.552818" PMx_abs="51.721442" NOx_abs="1105.811304" fuel_abs="1104.411522" electricity_abs="0"
            CO_normed="1821.781621" CO2_normed="91280.862776" HC_normed="10.464917" PMx_normed="1.837567" NOx_normed="39.287431" fuel_normed="39.237699" electricity_normed="0"
            traveltime="2.60" CO_perVeh="318.303424" CO2_perVeh="15948.679462" HC_perVeh="1.828440" PMx_perVeh="0.321061" NOx_perVeh="6.864337" fuel_perVeh="6.855648" electricity_perVeh="0"/>
        <edge id=":1110673556_2" sampledSeconds="250.87" CO_abs="24360.602942" CO2_abs="1042599.274256" HC_abs="135.456741" PMx_abs="20.397155" NOx_abs="446.604509" fuel_abs="448.172148" electricity_abs="0"
            CO_normed="904.961113" CO2_normed="38731.052818" HC_normed="5.032022" PMx_normed="0.757725" NOx_normed="16.590711" fuel_normed="16.648946" electricity_normed="0"
            traveltime="3.04" CO_perVeh="295.489446" CO2_perVeh="12646.529405" HC_perVeh="1.643064" PMx_perVeh="0.247414" NOx_perVeh="5.417227" fuel_perVeh="5.436242" electricity_perVeh="0"/>
        <edge id=":1110673556_3" sampledSeconds="373.17" CO_abs="32722.600835" CO2_abs="1158468.328290" HC_abs="175.986861" PMx_abs="22.259725" NOx_abs="495.045968" fuel_abs="497.984975" electricity_abs="0"
            CO_normed="2765.282422" CO2_normed="97898.456198" HC_normed="14.872087" PMx_normed="1.881098" NOx_normed="41.834753" fuel_normed="42.083119" electricity_normed="0"
            traveltime="1.75" CO_perVeh="153.339590" CO2_perVeh="5428.635075" HC_perVeh="0.824682" PMx_perVeh="0.104310" NOx_perVeh="2.319808" fuel_perVeh="2.333580" electricity_perVeh="0"/>
        <edge id=":1110673556_4" sampledSeconds="170.16" CO_abs="17450.199563" CO2_abs="703427.855928" HC_abs="95.966688" PMx_abs="13.722502" NOx_abs="301.380019" fuel_abs="302.376679" electricity_abs="0"
            CO_normed="900.905261" CO2_normed="36316.023416" HC_normed="4.954493" PMx_normed="0.708455" NOx_normed="15.559412" fuel_normed="15.610867" electricity_normed="0"
            traveltime="2.39" CO_perVeh="244.759077" CO2_perVeh="9866.383041" HC_perVeh="1.346043" PMx_perVeh="0.192474" NOx_perVeh="4.227201" fuel_perVeh="4.241180" electricity_perVeh="0"/>
        <edge id=":1110673556_5" sampledSeconds="23.88" CO_abs="1674.169540" CO2_abs="70819.855214" HC_abs="9.281113" PMx_abs="1.346515" NOx_abs="30.109526" fuel_abs="30.442725" electricity_abs="0"
            CO_normed="120.469660" CO2_normed="5096.045331" HC_normed="0.667849" PMx_normed="0.096892" NOx_normed="2.166617" fuel_normed="2.190593" electricity_normed="0"
            traveltime="1.65" CO_perVeh="115.745055" CO2_perVeh="4896.187521" HC_perVeh="0.641657" PMx_perVeh="0.093092" NOx_perVeh="2.081646" fuel_perVeh="2.104682" electricity_perVeh="0"/>
        <edge id=":1110673556_6" sampledSeconds="312.72" CO_abs="37701.395758" CO2_abs="1907504.359929" HC_abs="217.029201" PMx_abs="38.400938" NOx_abs="820.368817" fuel_abs="819.953455" electricity_abs="0"
            CO_normed="1373.234143" CO2_normed="69478.863133" HC_normed="7.905063" PMx_normed="1.398714" NOx_normed="29.881081" fuel_normed="29.865952" electricity_normed="0"
            traveltime="2.48" CO_perVeh="298.564726" CO2_perVeh="15105.900082" HC_perVeh="1.718697" PMx_perVeh="0.304105" NOx_perVeh="6.496661" fuel_perVeh="6.493372" electricity_perVeh="0"/>
        <edge id=":1110673561_0" sampledSeconds="101.58" CO_abs="9252.738405" CO2_abs="676012.866526" HC_abs="58.386982" PMx_abs="13.526778" NOx_abs="284.653479" fuel_abs="290.585820" electricity_abs="0"
            CO_normed="423.442280" CO2_normed="30937.049838" HC_normed="2.672022" PMx_normed="0.619039" NOx_normed="13.026881" fuel_normed="13.298368" electricity_normed="0"
            traveltime="1.20" CO_perVeh="109.191294" CO2_perVeh="7977.607963" HC_perVeh="0.689023" PMx_perVeh="0.159629" NOx_perVeh="3.359187" fuel_perVeh="3.429195" electricity_perVeh="0"/>
        <edge id=":1110673561_1" sampledSeconds="1319.67" CO_abs="122955.471860" CO2_abs="8472034.910730" HC_abs="764.872161" PMx_abs="177.460069" NOx_abs="3626.102033" fuel_abs="3641.718476" electricity_abs="0"
            CO_normed="5485.932419" CO2_normed="377998.719964" HC_normed="34.126476" PMx_normed="7.917777" NOx_normed="161.786624" fuel_normed="162.483386" electricity_normed="0"
            traveltime="1.20" CO_perVeh="111.533184" CO2_perVeh="7685.001847" HC_perVeh="0.693817" PMx_perVeh="0.160974" NOx_perVeh="3.289245" fuel_perVeh="3.303411" electricity_perVeh="0"/>
        <edge id=":1110673562_0" sampledSeconds="104.57" CO_abs="2178.956494" CO2_abs="171615.940631" HC_abs="13.834765" PMx_abs="2.313162" NOx_abs="65.408345" fuel_abs="73.771068" electricity_abs="0"
            CO_normed="6178.807581" CO2_normed="486646.648605" HC_normed="39.230866" PMx_normed="6.559370" NOx_normed="185.476661" fuel_normed="209.190609" electricity_normed="0"
            traveltime="0.03" CO_perVeh="0.555427" CO2_perVeh="43.745734" HC_perVeh="0.003527" PMx_perVeh="0.000590" NOx_perVeh="0.016673" fuel_perVeh="0.018805" electricity_perVeh="0"/>
        <edge id=":1110673564_0" sampledSeconds="28.39" CO_abs="421.765383" CO2_abs="54337.820582" HC_abs="3.163000" PMx_abs="0.737424" NOx_abs="20.234068" fuel_abs="23.357545" electricity_abs="0"
            CO_normed="3229.169247" CO2_normed="416027.550180" HC_normed="24.216928" PMx_normed="5.645953" NOx_normed="154.918430" fuel_normed="178.832755" electricity_normed="0"
            traveltime="7.804616e-03" CO_perVeh="0.115949" CO2_perVeh="14.938232" HC_perVeh="0.000870" PMx_perVeh="0.000203" NOx_perVeh="0.005563" fuel_perVeh="0.006421" electricity_perVeh="0"/>
        <edge id=":1110673588_0" sampledSeconds="11.76" CO_abs="171.239719" CO2_abs="22893.889684" HC_abs="1.297469" PMx_abs="0.300735" NOx_abs="8.447330" fuel_abs="9.841131" electricity_abs="0"
            CO_normed="524.426191" CO2_normed="70113.145777" HC_normed="3.973535" PMx_normed="0.921009" NOx_normed="25.870173" fuel_normed="30.138726" electricity_normed="0"
            traveltime="0.02" CO_perVeh="0.285400" CO2_perVeh="38.156483" HC_perVeh="0.002162" PMx_perVeh="0.000501" NOx_perVeh="0.014079" fuel_perVeh="0.016402" electricity_perVeh="0"/>
        <edge id=":1110673601_0" sampledSeconds="29.50" CO_abs="563.999041" CO2_abs="63237.032413" HC_abs="4.024438" PMx_abs="0.902788" NOx_abs="23.959707" fuel_abs="27.182925" electricity_abs="0"
            CO_normed="1542.198266" CO2_normed="172915.261505" HC_normed="11.004419" PMx_normed="2.468582" NOx_normed="65.515392" fuel_normed="74.328955" electricity_normed="0"
            traveltime="0.02" CO_perVeh="0.418608" CO2_perVeh="46.935372" HC_perVeh="0.002987" PMx_perVeh="0.000670" NOx_perVeh="0.017783" fuel_perVeh="0.020176" electricity_perVeh="0"/>
        <edge id=":1110673617_0" sampledSeconds="248.35" CO_abs="6190.674652" CO2_abs="764733.401971" HC_abs="46.482414" PMx_abs="13.683022" NOx_abs="288.822661" fuel_abs="328.723698" electricity_abs="0"
            CO_normed="15799.254749" CO2_normed="1951680.311283" HC_normed="118.628024" PMx_normed="34.920516" NOx_normed="737.105897" fuel_normed="838.937554" electricity_normed="0"
            traveltime="0.01" CO_perVeh="0.364996" CO2_perVeh="45.087902" HC_perVeh="0.002741" PMx_perVeh="0.000807" NOx_perVeh="0.017029" fuel_perVeh="0.019381" electricity_perVeh="0"/>
        <edge id=":1110673621_0" sampledSeconds="25.73" CO_abs="651.394871" CO2_abs="69884.537610" HC_abs="4.565025" PMx_abs="1.023638" NOx_abs="26.678300" fuel_abs="30.040384" electricity_abs="0"
            CO_normed="1994.914108" CO2_normed="214023.254270" HC_normed="13.980511" PMx_normed="3.134917" NOx_normed="81.703004" fuel_normed="91.999475" electricity_normed="0"
            traveltime="0.02" CO_perVeh="0.493481" CO2_perVeh="52.942832" HC_perVeh="0.003458" PMx_perVeh="0.000775" NOx_perVeh="0.020211" fuel_perVeh="0.022758" electricity_perVeh="0"/>
        <edge id=":1110673630_0" sampledSeconds="54.16" CO_abs="271.454131" CO2_abs="33834.921702" HC_abs="1.978300" PMx_abs="0.397635" NOx_abs="12.251044" fuel_abs="14.544303" electricity_abs="0"
            CO_normed="14.824099" CO2_normed="1847.723737" HC_normed="0.108035" PMx_normed="0.021715" NOx_normed="0.669029" fuel_normed="0.794264" electricity_normed="0"
            traveltime="1.26" CO_perVeh="6.336220" CO2_perVeh="789.766919" HC_perVeh="0.046177" PMx_perVeh="0.009281" NOx_perVeh="0.285961" fuel_perVeh="0.339490" electricity_perVeh="0"/>
        <edge id=":1110673630_1" sampledSeconds="7.33" CO_abs="25.880834" CO2_abs="2492.867883" HC_abs="0.172709" PMx_abs="0.022103" NOx_abs="0.871549" fuel_abs="1.071601" electricity_abs="0"
            CO_normed="1.723060" CO2_normed="165.966830" HC_normed="0.011498" PMx_normed="0.001472" NOx_normed="0.058025" fuel_normed="0.071344" electricity_normed="0"
            traveltime="1.04" CO_perVeh="3.663133" CO2_perVeh="352.836685" HC_perVeh="0.024445" PMx_perVeh="0.003128" NOx_perVeh="0.123358" fuel_perVeh="0.151673" electricity_perVeh="0"/>
        <edge id=":1110673650_0" sampledSeconds="158.11" CO_abs="2512.659548" CO2_abs="314090.853937" HC_abs="18.624854" PMx_abs="4.257629" NOx_abs="117.036852" fuel_abs="135.014516" electricity_abs="0"
            CO_normed="6412.572219" CO2_normed="801592.991759" HC_normed="47.532592" PMx_normed="10.865919" NOx_normed="298.690391" fuel_normed="344.571287" electricity_normed="0"
            traveltime="0.02" CO_perVeh="0.366539" CO2_perVeh="45.818554" HC_perVeh="0.002717" PMx_perVeh="0.000621" NOx_perVeh="0.017073" fuel_perVeh="0.019695" electricity_perVeh="0"/>
        <edge id=":1110673655_0" sampledSeconds="44.58" CO_abs="868.598483" CO2_abs="96866.452026" HC_abs="6.179669" PMx_abs="1.363525" NOx_abs="36.616773" fuel_abs="41.638818" electricity_abs="0"
            CO_normed="2216.754956" CO2_normed="247213.403725" HC_normed="15.771166" PMx_normed="3.479861" NOx_normed="93.449866" fuel_normed="106.266657" electricity_normed="0"
            traveltime="0.02" CO_perVeh="0.464864" CO2_perVeh="51.841826" HC_perVeh="0.003307" PMx_perVeh="0.000730" NOx_perVeh="0.019597" fuel_perVeh="0.022285" electricity_perVeh="0"/>
        <edge id=":1110673663_0" sampledSeconds="108.34" CO_abs="1512.125080" CO2_abs="202414.971960" HC_abs="11.465311" PMx_abs="2.655197" NOx_abs="74.633732" fuel_abs="87.009786" electricity_abs="0"
            CO_normed="70.679537" CO2_normed="9461.252026" HC_normed="0.535910" PMx_normed="0.124109" NOx_normed="3.488519" fuel_normed="4.066999" electricity_normed="0"
            traveltime="1.27" CO_perVeh="17.760622" CO2_perVeh="2377.459336" HC_perVeh="0.134665" PMx_perVeh="0.031187" NOx_perVeh="0.876608" fuel_perVeh="1.021971" electricity_perVeh="0"/>
        <edge id=":1110673663_1" sampledSeconds="153.79" CO_abs="2474.189974" CO2_abs="320096.575880" HC_abs="18.631146" PMx_abs="4.289823" NOx_abs="118.830541" fuel_abs="137.596148" electricity_abs="0"
            CO_normed="115.789618" CO2_normed="14980.199774" HC_normed="0.871919" PMx_normed="0.200759" NOx_normed="5.561151" fuel_normed="6.439362" electricity_normed="0"
            traveltime="1.24" CO_perVeh="20.016689" CO2_perVeh="2589.644988" HC_perVeh="0.150730" PMx_perVeh="0.034706" NOx_perVeh="0.961363" fuel_perVeh="1.113180" electricity_perVeh="0"/>
        <edge id=":1110673666_0" sampledSeconds="252.12" CO_abs="6078.827968" CO2_abs="484853.947682" HC_abs="38.722280" PMx_abs="6.452494" NOx_abs="184.183458" fuel_abs="208.420064" electricity_abs="0"