<?xml version="1.0" encoding="UTF-8"?>

<!-- generated on Tue Nov 10 01:41:02 2020 by Eclipse SUMO sumo Version 1.7.0
<configuration xmlns:xsi="http://www.w3.org/2001/XMLSchema-instance" xsi:noNamespaceSchemaLocation="http://sumo.dlr.de/xsd/sumoConfiguration.xsd">

    <input>
        <net-file value="../dataSets/Porto/6AM7AM_Routing_SaoBento/Porto.net.xml"/>
        <route-files value="../results/Porto/6AM7AM_Routing_SaoBento/cost_PMx-cost_co2/solution10/Porto.rou.xml"/>
        <additional-files value="moreOutputInfo.xml"/>
    </input>

    <output>
        <emission-output.precision value="6"/>
        <tripinfo-output value="../results/Porto/6AM7AM_Routing_SaoBento/cost_PMx-cost_co2/solution10/Porto-tripinfo"/>
    </output>

    <processing>
        <collision.action value="warn"/>
        <time-to-teleport value="-1"/>
    </processing>

    <emissions>
        <device.emissions.probability value="1"/>
    </emissions>

    <gui_only>
        <quit-on-end value="true"/>
        <start value="true"/>
    </gui_only>

</configuration>
-->

<meandata xmlns:xsi="http://www.w3.org/2001/XMLSchema-instance" xsi:noNamespaceSchemaLocation="http://sumo.dlr.de/xsd/meandata_file.xsd">
    <interval begin="0.00" end="4703.00" id="emissions-detector">
        <edge id=":1092997347_0" sampledSeconds="336.52" CO_abs="42551.885922" CO2_abs="1682403.514050" HC_abs="233.490799" PMx_abs="34.228939" NOx_abs="729.696350" fuel_abs="723.199368" electricity_abs="0"
            CO_normed="74027.598110" CO2_normed="2926880.642230" HC_normed="406.204394" PMx_normed="59.548151" NOx_normed="1269.454149" fuel_normed="1258.151337" electricity_normed="0"
            traveltime="0.08" CO_perVeh="9.495059" CO2_perVeh="375.412757" HC_perVeh="0.052101" PMx_perVeh="0.007638" NOx_perVeh="0.162825" fuel_perVeh="0.161375" electricity_perVeh="0"/>
        <edge id=":1103427051_0" sampledSeconds="11.27" CO_abs="785.039835" CO2_abs="43550.905233" HC_abs="4.603895" PMx_abs="0.832588" NOx_abs="18.452601" fuel_abs="18.720649" electricity_abs="0"
            CO_normed="2072.150136" CO2_normed="114954.694244" HC_normed="12.152201" PMx_normed="2.197655" NOx_normed="48.706523" fuel_normed="49.414046" electricity_normed="0"
            traveltime="0.03" CO_perVeh="2.150997" CO2_perVeh="119.328822" HC_perVeh="0.012615" PMx_perVeh="0.002281" NOx_perVeh="0.050560" fuel_perVeh="0.051294" electricity_perVeh="0"/>
        <edge id=":1105984386_0" sampledSeconds="76.37" CO_abs="1654.728444" CO2_abs="130739.690081" HC_abs="10.524910" PMx_abs="1.810681" NOx_abs="50.162655" fuel_abs="56.199865" electricity_abs="0"
            CO_normed="130.447279" CO2_normed="10306.607639" HC_normed="0.829711" PMx_normed="0.142741" NOx_normed="3.954475" fuel_normed="4.430406" electricity_normed="0"
            traveltime="0.95" CO_perVeh="20.577088" CO2_perVeh="1625.790675" HC_perVeh="0.130881" PMx_perVeh="0.022516" NOx_perVeh="0.623789" fuel_perVeh="0.698864" electricity_perVeh="0"/>
        <edge id=":1105984390_0" sampledSeconds="79.58" CO_abs="160.450701" CO2_abs="12496.877941" HC_abs="1.019286" PMx_abs="0.185895" NOx_abs="4.847333" fuel_abs="5.371903" electricity_abs="0"
            CO_normed="9.778663" CO2_normed="761.621878" HC_normed="0.062120" PMx_normed="0.011329" NOx_normed="0.295421" fuel_normed="0.327390" electricity_normed="0"
            traveltime="1.07" CO_perVeh="2.155959" CO2_perVeh="167.919194" HC_perVeh="0.013696" PMx_perVeh="0.002498" NOx_perVeh="0.065133" fuel_perVeh="0.072182" electricity_perVeh="0"/>
        <edge id=":1105984390_1" sampledSeconds="646.18" CO_abs="14285.011571" CO2_abs="1908894.720117" HC_abs="110.775719" PMx_abs="33.480267" NOx_abs="711.603705" fuel_abs="820.546564" electricity_abs="0"
            CO_normed="832.805131" CO2_normed="111287.086485" HC_normed="6.458139" PMx_normed="1.951874" NOx_normed="41.485946" fuel_normed="47.837230" electricity_normed="0"
            traveltime="0.64" CO_perVeh="14.069360" CO2_perVeh="1880.077414" HC_perVeh="0.109103" PMx_perVeh="0.032975" NOx_perVeh="0.700861" fuel_perVeh="0.808159" electricity_perVeh="0"/>
        <edge id=":1105984395_0" sampledSeconds="30.09" CO_abs="470.080103" CO2_abs="41053.543786" HC_abs="3.072510" PMx_abs="0.520234" NOx_abs="15.380398" fuel_abs="17.647346" electricity_abs="0"
            CO_normed="391.121387" CO2_normed="34157.835801" HC_normed="2.556424" PMx_normed="0.432851" NOx_normed="12.796974" fuel_normed="14.683145" electricity_normed="0"
            traveltime="0.09" CO_perVeh="1.412482" CO2_perVeh="123.356393" HC_perVeh="0.009232" PMx_perVeh="0.001563" NOx_perVeh="0.046215" fuel_perVeh="0.053026" electricity_perVeh="0"/>
        <edge id=":1105984398_0" sampledSeconds="77.31" CO_abs="4940.919668" CO2_abs="350786.102191" HC_abs="30.762631" PMx_abs="6.220293" NOx_abs="143.790557" fuel_abs="150.787494" electricity_abs="0"
            CO_normed="312.830446" CO2_normed="22209.746412" HC_normed="1.947712" PMx_normed="0.393833" NOx_normed="9.103986" fuel_normed="9.546992" electricity_normed="0"
            traveltime="1.09" CO_perVeh="69.569185" CO2_perVeh="4939.141880" HC_perVeh="0.433144" PMx_perVeh="0.087583" NOx_perVeh="2.024601" fuel_perVeh="2.123120" electricity_perVeh="0"/>
        <edge id=":1105984398_1" sampledSeconds="455.27" CO_abs="8604.878225" CO2_abs="986214.863955" HC_abs="61.886155" PMx_abs="14.285384" NOx_abs="374.354149" fuel_abs="423.931620" electricity_abs="0"
            CO_normed="527.363189" CO2_normed="60441.693950" HC_normed="3.792788" PMx_normed="0.875502" NOx_normed="22.942869" fuel_normed="25.981301" electricity_normed="0"
            traveltime="0.95" CO_perVeh="18.007451" CO2_perVeh="2063.854389" HC_perVeh="0.129509" PMx_perVeh="0.029895" NOx_perVeh="0.783412" fuel_perVeh="0.887163" electricity_perVeh="0"/>
        <edge id=":1106006327_0" sampledSeconds="38.12" CO_abs="5159.893127" CO2_abs="169070.919924" HC_abs="27.476700" PMx_abs="3.529404" NOx_abs="74.029384" fuel_abs="72.677572" electricity_abs="0"
            CO_normed="445.794295" CO2_normed="14607.056725" HC_normed="2.373878" PMx_normed="0.304927" NOx_normed="6.395845" fuel_normed="6.279054" electricity_normed="0"
            traveltime="2.07" CO_perVeh="279.920727" CO2_perVeh="9171.983533" HC_perVeh="1.490592" PMx_perVeh="0.191468" NOx_perVeh="4.016044" fuel_perVeh="3.942709" electricity_perVeh="0"/>
        <edge id=":1106006327_1" sampledSeconds="161.78" CO_abs="21803.732500" CO2_abs="726589.850090" HC_abs="116.398439" PMx_abs="15.134631" NOx_abs="317.856629" fuel_abs="312.334863" electricity_abs="0"
            CO_normed="1642.724216" CO2_normed="54742.312670" HC_normed="8.769624" PMx_normed="1.140265" NOx_normed="23.947770" fuel_normed="23.531753" electricity_normed="0"
            traveltime="2.30" CO_perVeh="309.532084" CO2_perVeh="10314.879383" HC_perVeh="1.652426" PMx_perVeh="0.214856" NOx_perVeh="4.512385" fuel_perVeh="4.433996" electricity_perVeh="0"/>
        <edge id=":1106006327_2" sampledSeconds="0.00" CO_abs="0" CO2_abs="0" HC_abs="0" PMx_abs="0" NOx_abs="0" fuel_abs="0" electricity_abs="0"
            CO_normed="0" CO2_normed="0" HC_normed="0" PMx_normed="0" NOx_normed="0" fuel_normed="0" electricity_normed="0"/>
        <edge id=":1106006327_3" sampledSeconds="0.00" CO_abs="0" CO2_abs="0" HC_abs="0" PMx_abs="0" NOx_abs="0" fuel_abs="0" electricity_abs="0"
            CO_normed="0" CO2_normed="0" HC_normed="0" PMx_normed="0" NOx_normed="0" fuel_normed="0" electricity_normed="0"/>
        <edge id=":1107381198_0" sampledSeconds="0.00" CO_abs="0" CO2_abs="0" HC_abs="0" PMx_abs="0" NOx_abs="0" fuel_abs="0" electricity_abs="0"
            CO_normed="0" CO2_normed="0" HC_normed="0" PMx_normed="0" NOx_normed="0" fuel_normed="0" electricity_normed="0"/>
        <edge id=":1107381198_1" sampledSeconds="36.07" CO_abs="1298.953436" CO2_abs="54580.944991" HC_abs="7.174641" PMx_abs="0.947809" NOx_abs="22.636008" fuel_abs="23.462388" electricity_abs="0"
            CO_normed="108.430577" CO2_normed="4556.162833" HC_normed="0.598906" PMx_normed="0.079119" NOx_normed="1.889548" fuel_normed="1.958531" electricity_normed="0"
            traveltime="1.48" CO_perVeh="53.481515" CO2_perVeh="2247.248858" HC_perVeh="0.295400" PMx_perVeh="0.039024" NOx_perVeh="0.931987" fuel_perVeh="0.966012" electricity_perVeh="0"/>
        <edge id=":1110338277_0" sampledSeconds="96.65" CO_abs="1487.350228" CO2_abs="190333.143281" HC_abs="11.109699" PMx_abs="2.510509" NOx_abs="70.485018" fuel_abs="81.816329" electricity_abs="0"
            CO_normed="4066.143814" CO2_normed="520336.043721" HC_normed="30.371886" PMx_normed="6.863274" NOx_normed="192.693164" fuel_normed="223.670896" electricity_normed="0"
            traveltime="0.02" CO_perVeh="0.336104" CO2_perVeh="43.010504" HC_perVeh="0.002511" PMx_perVeh="0.000567" NOx_perVeh="0.015928" fuel_perVeh="0.018488" electricity_perVeh="0"/>
        <edge id=":1110338293_0" sampledSeconds="123.76" CO_abs="6103.917501" CO2_abs="422560.377868" HC_abs="37.725012" PMx_abs="7.411313" NOx_abs="172.937630" fuel_abs="181.640322" electricity_abs="0"
            CO_normed="15574.529026" CO2_normed="1078189.354544" HC_normed="96.257740" PMx_normed="18.910430" NOx_normed="441.261228" fuel_normed="463.466695" electricity_normed="0"
            traveltime="0.03" CO_perVeh="1.400035" CO2_perVeh="96.921223" HC_perVeh="0.008653" PMx_perVeh="0.001700" NOx_perVeh="0.039666" fuel_perVeh="0.041662" electricity_perVeh="0"/>
        <edge id=":1110338295_0" sampledSeconds="0.00" CO_abs="0" CO2_abs="0" HC_abs="0" PMx_abs="0" NOx_abs="0" fuel_abs="0" electricity_abs="0"
            CO_normed="0" CO2_normed="0" HC_normed="0" PMx_normed="0" NOx_normed="0" fuel_normed="0" electricity_normed="0"/>
        <edge id=":1110673403_0" sampledSeconds="158.36" CO_abs="2489.903871" CO2_abs="311555.713454" HC_abs="18.436986" PMx_abs="4.288946" NOx_abs="116.462601" fuel_abs="133.924661" electricity_abs="0"
            CO_normed="6353.146174" CO2_normed="794953.978619" HC_normed="47.043129" PMx_normed="10.943515" NOx_normed="297.161644" fuel_normed="341.717187" electricity_normed="0"
            traveltime="0.02" CO_perVeh="0.362537" CO2_perVeh="45.363383" HC_perVeh="0.002684" PMx_perVeh="0.000624" NOx_perVeh="0.016957" fuel_perVeh="0.019500" electricity_perVeh="0"/>
        <edge id=":1110673412_0" sampledSeconds="252.18" CO_abs="44919.863659" CO2_abs="3062654.679680" HC_abs="279.475875" PMx_abs="67.319703" NOx_abs="1316.381173" fuel_abs="1316.484393" electricity_abs="0"
            CO_normed="118568.125388" CO2_normed="8084023.291698" HC_normed="737.689919" PMx_normed="177.693572" NOx_normed="3474.650974" fuel_normed="3474.923426" electricity_normed="0"
            traveltime="0.02" CO_perVeh="2.767836" CO2_perVeh="188.712173" HC_perVeh="0.017221" PMx_perVeh="0.004148" NOx_perVeh="0.081112" fuel_perVeh="0.081118" electricity_perVeh="0"/>
        <edge id=":1110673414_0" sampledSeconds="0.00" CO_abs="0" CO2_abs="0" HC_abs="0" PMx_abs="0" NOx_abs="0" fuel_abs="0" electricity_abs="0"
            CO_normed="0" CO2_normed="0" HC_normed="0" PMx_normed="0" NOx_normed="0" fuel_normed="0" electricity_normed="0"/>
        <edge id=":1110673414_1" sampledSeconds="317.22" CO_abs="20932.003438" CO2_abs="810912.543471" HC_abs="114.122986" PMx_abs="14.836769" NOx_abs="341.473156" fuel_abs="348.582385" electricity_abs="0"
            CO_normed="1774.396079" CO2_normed="68740.674622" HC_normed="9.674152" PMx_normed="1.257706" NOx_normed="28.946519" fuel_normed="29.549165" electricity_normed="0"
            traveltime="1.56" CO_perVeh="103.133009" CO2_perVeh="3995.405932" HC_perVeh="0.562290" PMx_perVeh="0.073101" NOx_perVeh="1.682455" fuel_perVeh="1.717483" electricity_perVeh="0"/>
        <edge id=":1110673417_0" sampledSeconds="29.67" CO_abs="500.285278" CO2_abs="58408.194302" HC_abs="3.601435" PMx_abs="0.806179" NOx_abs="21.879524" fuel_abs="25.107240" electricity_abs="0"
            CO_normed="1367.688558" CO2_normed="159677.333227" HC_normed="9.845665" PMx_normed="2.203947" NOx_normed="59.814622" fuel_normed="68.638608" electricity_normed="0"
            traveltime="0.02" CO_perVeh="0.371318" CO2_perVeh="43.351344" HC_perVeh="0.002673" PMx_perVeh="0.000598" NOx_perVeh="0.016239" fuel_perVeh="0.018635" electricity_perVeh="0"/>
        <edge id=":1110673446_0" sampledSeconds="333.48" CO_abs="3466.187594" CO2_abs="283917.992527" HC_abs="22.531400" PMx_abs="5.182107" NOx_abs="115.900703" fuel_abs="122.043306" electricity_abs="0"
            CO_normed="8844.195435" CO2_normed="724434.597134" HC_normed="57.490283" PMx_normed="13.222472" NOx_normed="295.727926" fuel_normed="311.401163" electricity_normed="0"
            traveltime="0.02" CO_perVeh="0.236468" CO2_perVeh="19.369306" HC_perVeh="0.001537" PMx_perVeh="0.000354" NOx_perVeh="0.007907" fuel_perVeh="0.008326" electricity_perVeh="0"/>
        <edge id=":1110673451_0" sampledSeconds="36.94" CO_abs="466.268768" CO2_abs="33716.843693" HC_abs="2.895557" PMx_abs="0.483079" NOx_abs="13.082127" fuel_abs="14.493554" electricity_abs="0"
            CO_normed="1321.904509" CO2_normed="95589.605762" HC_normed="8.209105" PMx_normed="1.369563" NOx_normed="37.088743" fuel_normed="41.090236" electricity_normed="0"
            traveltime="0.03" CO_perVeh="0.334383" CO2_perVeh="24.179903" HC_perVeh="0.002077" PMx_perVeh="0.000346" NOx_perVeh="0.009382" fuel_perVeh="0.010394" electricity_perVeh="0"/>
        <edge id=":1110673464_0" sampledSeconds="323.21" CO_abs="449.100139" CO2_abs="40727.646415" HC_abs="2.960122" PMx_abs="0.519770" NOx_abs="15.228858" fuel_abs="17.507238" electricity_abs="0"
            CO_normed="24.346471" CO2_normed="2207.913927" HC_normed="0.160473" PMx_normed="0.028178" NOx_normed="0.825582" fuel_normed="0.949097" electricity_normed="0"
            traveltime="1.17" CO_perVeh="1.623438" CO2_perVeh="147.225068" HC_perVeh="0.010700" PMx_perVeh="0.001879" NOx_perVeh="0.055050" fuel_perVeh="0.063286" electricity_perVeh="0"/>
        <edge id=":1110673464_1" sampledSeconds="745.79" CO_abs="18219.410818" CO2_abs="2255173.953805" HC_abs="137.020689" PMx_abs="40.404205" NOx_abs="851.064514" fuel_abs="969.395513" electricity_abs="0"
            CO_normed="967.827303" CO2_normed="119796.350606" HC_normed="7.278631" PMx_normed="2.146298" NOx_normed="45.209117" fuel_normed="51.494939" electricity_normed="0"
            traveltime="0.70" CO_perVeh="17.131424" CO2_perVeh="2120.504448" HC_perVeh="0.128838" PMx_perVeh="0.037991" NOx_perVeh="0.800243" fuel_perVeh="0.911507" electricity_perVeh="0"/>
        <edge id=":1110673479_0" sampledSeconds="133.72" CO_abs="6804.383081" CO2_abs="472495.052527" HC_abs="42.091982" PMx_abs="8.299520" NOx_abs="193.399365" fuel_abs="203.105035" electricity_abs="0"
            CO_normed="17361.810965" CO2_normed="1205600.814443" HC_normed="107.400336" PMx_normed="21.176747" NOx_normed="493.470631" fuel_normed="518.235259" electricity_normed="0"
            traveltime="0.03" CO_perVeh="1.433414" CO2_perVeh="99.535959" HC_perVeh="0.008867" PMx_perVeh="0.001748" NOx_perVeh="0.040742" fuel_perVeh="0.042786" electricity_perVeh="0"/>
        <edge id=":1110673511_0" sampledSeconds="11.85" CO_abs="154.496932" CO2_abs="19159.023329" HC_abs="1.145602" PMx_abs="0.262917" NOx_abs="7.172686" fuel_abs="8.235658" electricity_abs="0"
            CO_normed="394.208629" CO2_normed="48885.451828" HC_normed="2.923075" PMx_normed="0.670848" NOx_normed="18.301559" fuel_normed="21.013799" electricity_normed="0"
            traveltime="0.02" CO_perVeh="0.305935" CO2_perVeh="37.938660" HC_perVeh="0.002269" PMx_perVeh="0.000521" NOx_perVeh="0.014203" fuel_perVeh="0.016308" electricity_perVeh="0"/>
        <edge id=":1110673517_0" sampledSeconds="17.00" CO_abs="718.344982" CO2_abs="51467.805613" HC_abs="4.485111" PMx_abs="0.918242" NOx_abs="21.112203" fuel_abs="22.123731" electricity_abs="0"
            CO_normed="1832.902357" CO2_normed="131323.339858" HC_normed="11.444042" PMx_normed="2.342953" NOx_normed="53.869111" fuel_normed="56.450089" electricity_normed="0"
            traveltime="0.03" CO_perVeh="1.153350" CO2_perVeh="82.634957" HC_perVeh="0.007201" PMx_perVeh="0.001474" NOx_perVeh="0.033897" fuel_perVeh="0.035521" electricity_perVeh="0"/>
        <edge id=":1110673534_0" sampledSeconds="475.63" CO_abs="2729.058472" CO2_abs="229635.419326" HC_abs="17.681809" PMx_abs="3.144652" NOx_abs="87.573278" fuel_abs="98.711195" electricity_abs="0"
            CO_normed="134.948918" CO2_normed="11355.217072" HC_normed="0.874346" PMx_normed="0.155500" NOx_normed="4.330402" fuel_normed="4.881159" electricity_normed="0"
            traveltime="1.43" CO_perVeh="8.221573" CO2_perVeh="691.800609" HC_perVeh="0.053268" PMx_perVeh="0.009474" NOx_perVeh="0.263824" fuel_perVeh="0.297378" electricity_perVeh="0"/>
        <edge id=":1110673534_1" sampledSeconds="245.67" CO_abs="3786.953712" CO2_abs="474771.693187" HC_abs="28.001287" PMx_abs="6.367728" NOx_abs="176.441625" fuel_abs="204.084566" electricity_abs="0"
            CO_normed="182.085119" CO2_normed="22828.074236" HC_normed="1.346364" PMx_normed="0.306174" NOx_normed="8.483704" fuel_normed="9.812838" electricity_normed="0"
            traveltime="1.23" CO_perVeh="18.939646" CO2_perVeh="2374.469981" HC_perVeh="0.140043" PMx_perVeh="0.031847" NOx_perVeh="0.882435" fuel_perVeh="1.020686" electricity_perVeh="0"/>
        <edge id=":1110673549_0" sampledSeconds="60.07" CO_abs="29.689462" CO2_abs="5214.485658" HC_abs="0.249850" PMx_abs="0.038620" NOx_abs="1.732498" fuel_abs="2.241528" electricity_abs="0"
            CO_normed="1.422175" CO2_normed="249.782624" HC_normed="0.011968" PMx_normed="0.001850" NOx_normed="0.082990" fuel_normed="0.107373" electricity_normed="0"
            traveltime="1.25" CO_perVeh="0.618555" CO2_perVeh="108.639367" HC_perVeh="0.005205" PMx_perVeh="0.000805" NOx_perVeh="0.036095" fuel_perVeh="0.046700" electricity_perVeh="0"/>
        <edge id=":1110673549_1" sampledSeconds="639.45" CO_abs="12703.190396" CO2_abs="1789073.623699" HC_abs="100.270549" PMx_abs="30.808589" NOx_abs="661.834076" fuel_abs="769.041317" electricity_abs="0"
            CO_normed="588.613592" CO2_normed="82898.312876" HC_normed="4.646125" PMx_normed="1.427543" NOx_normed="30.666669" fuel_normed="35.634211" electricity_normed="0"
            traveltime="0.80" CO_perVeh="15.990807" CO2_perVeh="2252.090203" HC_perVeh="0.126221" PMx_perVeh="0.038782" NOx_perVeh="0.833118" fuel_perVeh="0.968071" electricity_perVeh="0"/>
        <edge id=":1110673556_0" sampledSeconds="419.47" CO_abs="51838.392673" CO2_abs="2592471.721391" HC_abs="297.697883" PMx_abs="52.418076" NOx_abs="1117.528277" fuel_abs="1114.391288" electricity_abs="0"
            CO_normed="1841.330618" CO2_normed="92086.141363" HC_normed="10.574406" PMx_normed="1.861921" NOx_normed="39.695271" fuel_normed="39.583843" electricity_normed="0"
            traveltime="2.60" CO_perVeh="321.787465" CO2_perVeh="16092.800321" HC_perVeh="1.847963" PMx_perVeh="0.325386" NOx_perVeh="6.937071" fuel_perVeh="6.917598" electricity_perVeh="0"/>
        <edge id=":1110673556_2" sampledSeconds="247.94" CO_abs="24317.765972" CO2_abs="1052600.108239" HC_abs="135.442247" PMx_abs="20.251712" NOx_abs="448.511628" fuel_abs="452.471413" electricity_abs="0"
            CO_normed="903.177697" CO2_normed="39094.254926" HC_normed="5.030413" PMx_normed="0.752162" NOx_normed="16.658015" fuel_normed="16.805084" electricity_normed="0"
            traveltime="3.01" CO_perVeh="294.969841" CO2_perVeh="12767.837605" HC_perVeh="1.642889" PMx_perVeh="0.245649" NOx_perVeh="5.440360" fuel_perVeh="5.488392" electricity_perVeh="0"/>
        <edge id=":1110673556_3" sampledSeconds="376.77" CO_abs="32749.120955" CO2_abs="1157955.331843" HC_abs="176.088311" PMx_abs="22.219428" NOx_abs="494.645435" fuel_abs="497.764535" electricity_abs="0"
            CO_normed="2766.935093" CO2_normed="97834.297554" HC_normed="14.877496" PMx_normed="1.877294" NOx_normed="41.792017" fuel_normed="42.055546" electricity_normed="0"
            traveltime="1.75" CO_perVeh="152.375468" CO2_perVeh="5387.747242" HC_perVeh="0.819306" PMx_perVeh="0.103383" NOx_perVeh="2.301492" fuel_perVeh="2.316004" electricity_perVeh="0"/>
        <edge id=":1110673556_4" sampledSeconds="168.55" CO_abs="17652.815118" CO2_abs="704477.171229" HC_abs="96.911292" PMx_abs="13.761139" NOx_abs="301.995499" fuel_abs="302.827858" electricity_abs="0"
            CO_normed="911.171954" CO2_normed="36362.463242" HC_normed="5.002197" PMx_normed="0.710298" NOx_normed="15.587872" fuel_normed="15.630836" electricity_normed="0"
            traveltime="2.41" CO_perVeh="252.270557" CO2_perVeh="10067.450854" HC_perVeh="1.384927" PMx_perVeh="0.196656" NOx_perVeh="4.315718" fuel_perVeh="4.327613" electricity_perVeh="0"/>
        <edge id=":1110673556_5" sampledSeconds="23.97" CO_abs="1928.117786" CO2_abs="81582.172597" HC_abs="10.692809" PMx_abs="1.568546" NOx_abs="34.794893" fuel_abs="35.069004" electricity_abs="0"
            CO_normed="138.713732" CO2_normed="5869.230433" HC_normed="0.769268" PMx_normed="0.112845" NOx_normed="2.503234" fuel_normed="2.522954" electricity_normed="0"
            traveltime="1.66" CO_perVeh="133.301970" CO2_perVeh="5640.248970" HC_perVeh="0.739256" PMx_perVeh="0.108443" NOx_perVeh="2.405573" fuel_perVeh="2.424524" electricity_perVeh="0"/>
        <edge id=":1110673556_6" sampledSeconds="307.79" CO_abs="37025.896393" CO2_abs="1900156.476466" HC_abs="213.796470" PMx_abs="38.261790" NOx_abs="817.268444" fuel_abs="816.794451" electricity_abs="0"
            CO_normed="1348.343022" CO2_normed="69196.507718" HC_normed="7.785658" PMx_normed="1.393350" NOx_normed="29.761824" fuel_normed="29.744563" electricity_normed="0"
            traveltime="2.44" CO_perVeh="293.216343" CO2_perVeh="15047.763517" HC_perVeh="1.693102" PMx_perVeh="0.303004" NOx_perVeh="6.472131" fuel_perVeh="6.468378" electricity_perVeh="0"/>
        <edge id=":1110673561_0" sampledSeconds="100.50" CO_abs="9908.542636" CO2_abs="699842.783471" HC_abs="61.965609" PMx_abs="14.281187" NOx_abs="296.983580" fuel_abs="300.828972" electricity_abs="0"
            CO_normed="453.358083" CO2_normed="32020.792015" HC_normed="2.835191" PMx_normed="0.653425" NOx_normed="13.588265" fuel_normed="13.764208" electricity_normed="0"
            traveltime="1.19" CO_perVeh="116.930420" CO2_perVeh="8258.824112" HC_perVeh="0.731254" PMx_perVeh="0.168532" NOx_perVeh="3.504695" fuel_perVeh="3.550074" electricity_perVeh="0"/>
        <edge id=":1110673561_1" sampledSeconds="1310.34" CO_abs="122289.249877" CO2_abs="8471500.066337" HC_abs="761.892047" PMx_abs="177.205666" NOx_abs="3622.676085" fuel_abs="3641.488563" electricity_abs="0"
            CO_normed="5455.047286" CO2_normed="377894.487807" HC_normed="33.986284" PMx_normed="7.904745" NOx_normed="161.599400" fuel_normed="162.438582" electricity_normed="0"
            traveltime="1.19" CO_perVeh="111.167471" CO2_perVeh="7701.046811" HC_perVeh="0.692601" PMx_perVeh="0.161089" NOx_perVeh="3.293206" fuel_perVeh="3.310308" electricity_perVeh="0"/>
        <edge id=":1110673562_0" sampledSeconds="104.43" CO_abs="2136.970987" CO2_abs="175714.113108" HC_abs="13.724191" PMx_abs="2.278044" NOx_abs="66.272357" fuel_abs="75.532784" electricity_abs="0"
            CO_normed="6058.461939" CO2_normed="498161.777896" HC_normed="38.909039" PMx_normed="6.458415" NOx_normed="187.886760" fuel_normed="214.140716" electricity_normed="0"
            traveltime="0.03" CO_perVeh="0.544724" CO2_perVeh="44.790327" HC_perVeh="0.003498" PMx_perVeh="0.000581" NOx_perVeh="0.016893" fuel_perVeh="0.019254" electricity_perVeh="0"/>
        <edge id=":1110673564_0" sampledSeconds="28.59" CO_abs="507.220582" CO2_abs="59128.448879" HC_abs="3.633001" PMx_abs="0.827689" NOx_abs="22.226935" fuel_abs="25.416827" electricity_abs="0"
            CO_normed="3882.615551" CO2_normed="452609.857465" HC_normed="27.809489" PMx_normed="6.335703" NOx_normed="170.140263" fuel_normed="194.557890" electricity_normed="0"
            traveltime="7.859616e-03" CO_perVeh="0.139447" CO2_perVeh="16.255805" HC_perVeh="0.000999" PMx_perVeh="0.000228" NOx_perVeh="0.006111" fuel_perVeh="0.006988" electricity_perVeh="0"/>
        <edge id=":1110673588_0" sampledSeconds="11.68" CO_abs="211.864729" CO2_abs="26116.469841" HC_abs="1.559235" PMx_abs="0.352390" NOx_abs="9.734761" fuel_abs="11.226381" electricity_abs="0"
            CO_normed="648.703403" CO2_normed="79965.376507" HC_normed="4.774184" PMx_normed="1.078975" NOx_normed="29.806627" fuel_normed="34.373779" electricity_normed="0"
            traveltime="0.02" CO_perVeh="0.353108" CO2_perVeh="43.527450" HC_perVeh="0.002599" PMx_perVeh="0.000587" NOx_perVeh="0.016225" fuel_perVeh="0.018711" electricity_perVeh="0"/>
        <edge id=":1110673601_0" sampledSeconds="29.80" CO_abs="490.632607" CO2_abs="59097.955806" HC_abs="3.598688" PMx_abs="0.807201" NOx_abs="22.096228" fuel_abs="25.403743" electricity_abs="0"
            CO_normed="1341.299918" CO2_normed="161563.015173" HC_normed="9.838155" PMx_normed="2.206740" NOx_normed="60.407052" fuel_normed="69.449193" electricity_normed="0"
            traveltime="0.02" CO_perVeh="0.364154" CO2_perVeh="43.863294" HC_perVeh="0.002671" PMx_perVeh="0.000599" NOx_perVeh="0.016400" fuel_perVeh="0.018855" electricity_perVeh="0"/>
        <edge id=":1110673617_0" sampledSeconds="247.74" CO_abs="6629.007946" CO2_abs="803465.567893" HC_abs="49.443847" PMx_abs="14.476393" NOx_abs="304.208017" fuel_abs="345.372821" electricity_abs="0"
            CO_normed="16914.330288" CO2_normed="2050092.880017" HC_normed="126.159082" PMx_normed="36.937427" NOx_normed="776.205868" fuel_normed="881.240453" electricity_normed="0"
            traveltime="0.01" CO_perVeh="0.390677" CO2_perVeh="47.351817" HC_perVeh="0.002914" PMx_perVeh="0.000853" NOx_perVeh="0.017928" fuel_perVeh="0.020354" electricity_perVeh="0"/>
        <edge id=":1110673621_0" sampledSeconds="25.88" CO_abs="535.552712" CO2_abs="58830.251330" HC_abs="3.799205" PMx_abs="0.845075" NOx_abs="22.335003" fuel_abs="25.288637" electricity_abs="0"
            CO_normed="1639.795674" CO2_normed="180130.899245" HC_normed="11.632693" PMx_normed="2.587514" NOx_normed="68.386995" fuel_normed="77.430656" electricity_normed="0"
            traveltime="0.02" CO_perVeh="0.405722" CO2_perVeh="44.568372" HC_perVeh="0.002878" PMx_perVeh="0.000640" NOx_perVeh="0.016920" fuel_perVeh="0.019158" electricity_perVeh="0"/>
        <edge id=":1110673630_0" sampledSeconds="54.09" CO_abs="244.498051" CO2_abs="21819.563947" HC_abs="1.616103" PMx_abs="0.313232" NOx_abs="8.399872" fuel_abs="9.379335" electricity_abs="0"
            CO_normed="13.349190" CO2_normed="1191.312162" HC_normed="0.088237" PMx_normed="0.017102" NOx_normed="0.458619" fuel_normed="0.512096" electricity_normed="0"
            traveltime="1.26" CO_perVeh="5.707017" CO2_perVeh="509.307217" HC_perVeh="0.037723" PMx_perVeh="0.007311" NOx_perVeh="0.196068" fuel_perVeh="0.218930" electricity_perVeh="0"/>
        <edge id=":1110673630_1" sampledSeconds="7.39" CO_abs="14.626304" CO2_abs="1494.064936" HC_abs="0.098869" PMx_abs="0.009869" NOx_abs="0.499650" fuel_abs="0.642253" electricity_abs="0"
            CO_normed="0.973563" CO2_normed="99.448710" HC_normed="0.006581" PMx_normed="0.000657" NOx_normed="0.033258" fuel_normed="0.042750" electricity_normed="0"
            traveltime="1.05" CO_perVeh="2.070185" CO2_perVeh="211.467652" HC_perVeh="0.013994" PMx_perVeh="0.001397" NOx_perVeh="0.070720" fuel_perVeh="0.090904" electricity_perVeh="0"/>
        <edge id=":1110673650_0" sampledSeconds="157.95" CO_abs="2582.968674" CO2_abs="309462.992951" HC_abs="18.804963" PMx_abs="4.347570" NOx_abs="116.371200" fuel_abs="133.025032" electricity_abs="0"
            CO_normed="6590.606865" CO2_normed="789614.270765" HC_normed="47.982045" PMx_normed="11.093097" NOx_normed="296.928428" fuel_normed="339.421728" electricity_normed="0"
            traveltime="0.02" CO_perVeh="0.376087" CO2_perVeh="45.058677" HC_perVeh="0.002738" PMx_perVeh="0.000633" NOx_perVeh="0.016944" fuel_perVeh="0.019369" electricity_perVeh="0"/>
        <edge id=":1110673655_0" sampledSeconds="45.07" CO_abs="769.072290" CO2_abs="86029.610254" HC_abs="5.471127" PMx_abs="1.192884" NOx_abs="32.419990" fuel_abs="36.980539" electricity_abs="0"
            CO_normed="1962.336271" CO2_normed="219509.955996" HC_normed="13.959924" PMx_normed="3.043719" NOx_normed="82.721641" fuel_normed="94.358168" electricity_normed="0"
            traveltime="0.02" CO_perVeh="0.411599" CO2_perVeh="46.042071" HC_perVeh="0.002928" PMx_perVeh="0.000638" NOx_perVeh="0.017351" fuel_perVeh="0.019792" electricity_perVeh="0"/>
        <edge id=":1110673663_0" sampledSeconds="108.81" CO_abs="1707.290878" CO2_abs="208950.411063" HC_abs="12.450367" PMx_abs="2.838736" NOx_abs="77.952095" fuel_abs="89.819035" electricity_abs="0"
            CO_normed="79.784981" CO2_normed="9764.653895" HC_normed="0.581830" PMx_normed="0.132660" NOx_normed="3.642851" fuel_normed="4.197416" electricity_normed="0"
            traveltime="1.28" CO_perVeh="20.052937" CO2_perVeh="2454.221151" HC_perVeh="0.146235" PMx_perVeh="0.033342" NOx_perVeh="0.915584" fuel_perVeh="1.054967" electricity_perVeh="0"/>
        <edge id=":1110673663_1" sampledSeconds="154.44" CO_abs="2320.884927" CO2_abs="292451.679083" HC_abs="17.256611" PMx_abs="3.978352" NOx_abs="109.020177" fuel_abs="125.712707" electricity_abs="0"
            CO_normed="108.592000" CO2_normed="13683.536086" HC_normed="0.807420" PMx_normed="0.186143" NOx_normed="5.100950" fuel_normed="5.881978" electricity_normed="0"
            traveltime="1.25" CO_perVeh="18.828828" CO2_perVeh="2372.596085" HC_perVeh="0.139999" PMx_perVeh="0.032275" NOx_perVeh="0.884457" fuel_perVeh="1.019880" electricity_perVeh="0"/>
        <edge id=":1110673666_0" sampledSeconds="255.36" CO_abs="5646.570146" CO2_abs="447170.014853" HC_abs="35.915669" PMx_abs="6.064453" NOx_abs="170.651143" fuel_abs="192.221047" electricity_abs="0"