<?xml version="1.0" encoding="UTF-8"?>

<!-- generated on Tue Nov 10 15:15:24 2020 by Eclipse SUMO sumo Version 1.7.0
<configuration xmlns:xsi="http://www.w3.org/2001/XMLSchema-instance" xsi:noNamespaceSchemaLocation="http://sumo.dlr.de/xsd/sumoConfiguration.xsd">

    <input>
        <net-file value="../dataSets/Porto/8AM9AM_Routing_SaoBento/Porto.net.xml"/>
        <route-files value="../results/Porto/8AM9AM_Routing_SaoBento/cost_nox-length/solution6/Porto.rou.xml"/>
        <additional-files value="moreOutputInfo.xml"/>
    </input>

    <output>
        <emission-output.precision value="6"/>
        <tripinfo-output value="../results/Porto/8AM9AM_Routing_SaoBento/cost_nox-length/solution6/Porto-tripinfo"/>
    </output>

    <processing>
        <collision.action value="warn"/>
        <time-to-teleport value="-1"/>
    </processing>

    <emissions>
        <device.emissions.probability value="1"/>
    </emissions>

    <gui_only>
        <quit-on-end value="true"/>
        <start value="true"/>
    </gui_only>

</configuration>
-->

<meandata xmlns:xsi="http://www.w3.org/2001/XMLSchema-instance" xsi:noNamespaceSchemaLocation="http://sumo.dlr.de/xsd/meandata_file.xsd">
    <interval begin="0.00" end="8471.00" id="emissions-detector">
        <edge id=":1092997347_0" sampledSeconds="585.98" CO_abs="71064.764583" CO2_abs="3054250.837933" HC_abs="395.824033" PMx_abs="61.615140" NOx_abs="1320.318763" fuel_abs="1312.898407" electricity_abs="0"
            CO_normed="68638.765548" CO2_normed="2949985.248216" HC_normed="382.311448" PMx_normed="59.511731" NOx_normed="1275.245905" fuel_normed="1268.078864" electricity_normed="0"
            traveltime="0.07" CO_perVeh="8.149716" CO2_perVeh="350.261861" HC_perVeh="0.045393" PMx_perVeh="0.007066" NOx_perVeh="0.151414" fuel_perVeh="0.150563" electricity_perVeh="0"/>
        <edge id=":1103427051_0" sampledSeconds="19.27" CO_abs="1580.832848" CO2_abs="89443.265194" HC_abs="9.321959" PMx_abs="1.753348" NOx_abs="38.142507" fuel_abs="38.447698" electricity_abs="0"
            CO_normed="2316.625181" CO2_normed="131074.275601" HC_normed="13.660828" PMx_normed="2.569437" NOx_normed="55.895785" fuel_normed="56.343025" electricity_normed="0"
            traveltime="0.03" CO_perVeh="2.458395" CO2_perVeh="139.095597" HC_perVeh="0.014497" PMx_perVeh="0.002727" NOx_perVeh="0.059316" fuel_perVeh="0.059791" electricity_perVeh="0"/>
        <edge id=":1105984386_0" sampledSeconds="10.49" CO_abs="135.598394" CO2_abs="10151.620536" HC_abs="0.844632" PMx_abs="0.116576" NOx_abs="3.748966" fuel_abs="4.363825" electricity_abs="0"
            CO_normed="5.934760" CO2_normed="444.307828" HC_normed="0.036967" PMx_normed="0.005102" NOx_normed="0.164082" fuel_normed="0.190992" electricity_normed="0"
            traveltime="1.01" CO_perVeh="13.007908" CO2_perVeh="973.841488" HC_perVeh="0.081025" PMx_perVeh="0.011183" NOx_perVeh="0.359637" fuel_perVeh="0.418620" electricity_perVeh="0"/>
        <edge id=":1105984390_0" sampledSeconds="10.91" CO_abs="0" CO2_abs="0" HC_abs="0" PMx_abs="0" NOx_abs="0" fuel_abs="0" electricity_abs="0"
            CO_normed="0" CO2_normed="0" HC_normed="0" PMx_normed="0" NOx_normed="0" fuel_normed="0" electricity_normed="0"
            traveltime="1.13" CO_perVeh="0" CO2_perVeh="0" HC_perVeh="0" PMx_perVeh="0" NOx_perVeh="0" fuel_perVeh="0" electricity_perVeh="0"/>
        <edge id=":1105984390_1" sampledSeconds="2401.32" CO_abs="62265.468289" CO2_abs="7272503.100772" HC_abs="456.960701" PMx_abs="131.891992" NOx_abs="2775.474983" fuel_abs="3126.112712" electricity_abs="0"
            CO_normed="2015.349406" CO2_normed="235389.457520" HC_normed="14.790469" PMx_normed="4.268954" NOx_normed="89.833932" fuel_normed="101.183040" electricity_normed="0"
            traveltime="0.65" CO_perVeh="16.817709" CO2_perVeh="1964.280431" HC_perVeh="0.123424" PMx_perVeh="0.035624" NOx_perVeh="0.749647" fuel_perVeh="0.844353" electricity_perVeh="0"/>
        <edge id=":1105984395_0" sampledSeconds="4.22" CO_abs="64.754801" CO2_abs="4910.106707" HC_abs="0.405604" PMx_abs="0.060640" NOx_abs="1.839958" fuel_abs="2.110675" electricity_abs="0"
            CO_normed="29.912449" CO2_normed="2268.145559" HC_normed="0.187362" PMx_normed="0.028012" NOx_normed="0.849939" fuel_normed="0.974993" electricity_normed="0"
            traveltime="0.10" CO_perVeh="1.500993" CO2_perVeh="113.814517" HC_perVeh="0.009402" PMx_perVeh="0.001406" NOx_perVeh="0.042650" fuel_perVeh="0.048925" electricity_perVeh="0"/>
        <edge id=":1105984398_0" sampledSeconds="10.76" CO_abs="686.810113" CO2_abs="44750.482872" HC_abs="4.185285" PMx_abs="0.827397" NOx_abs="18.640831" fuel_abs="19.236250" electricity_abs="0"
            CO_normed="24.142275" CO2_normed="1573.038109" HC_normed="0.147118" PMx_normed="0.029084" NOx_normed="0.655250" fuel_normed="0.676179" electricity_normed="0"
            traveltime="1.16" CO_perVeh="74.232336" CO2_perVeh="4836.755934" HC_perVeh="0.452357" PMx_perVeh="0.089427" NOx_perVeh="2.014753" fuel_perVeh="2.079107" electricity_perVeh="0"/>
        <edge id=":1105984398_1" sampledSeconds="645.70" CO_abs="12458.829807" CO2_abs="1453595.873484" HC_abs="90.165222" PMx_abs="20.908339" NOx_abs="550.218417" fuel_abs="624.838832" electricity_abs="0"
            CO_normed="423.918758" CO2_normed="49459.424884" HC_normed="3.067923" PMx_normed="0.711418" NOx_normed="18.721494" fuel_normed="21.260496" electricity_normed="0"
            traveltime="0.95" CO_perVeh="18.323831" CO2_perVeh="2137.876974" HC_perVeh="0.132611" PMx_perVeh="0.030751" NOx_perVeh="0.809234" fuel_perVeh="0.918982" electricity_perVeh="0"/>
        <edge id=":1106006327_0" sampledSeconds="852.82" CO_abs="115305.063246" CO2_abs="3742954.360384" HC_abs="613.155875" PMx_abs="78.179924" NOx_abs="1638.989534" fuel_abs="1608.963762" electricity_abs="0"
            CO_normed="5530.730229" CO2_normed="179534.794416" HC_normed="29.410675" PMx_normed="3.749983" NOx_normed="78.615880" fuel_normed="77.175661" electricity_normed="0"
            traveltime="2.10" CO_perVeh="283.255543" CO2_perVeh="9194.848352" HC_perVeh="1.506263" PMx_perVeh="0.192055" NOx_perVeh="4.026301" fuel_perVeh="3.952540" electricity_perVeh="0"/>
        <edge id=":1106006327_1" sampledSeconds="680.87" CO_abs="92118.509389" CO2_abs="3083917.931083" HC_abs="492.134869" PMx_abs="64.322488" NOx_abs="1349.607284" fuel_abs="1325.664993" electricity_abs="0"
            CO_normed="3853.195220" CO2_normed="128996.201862" HC_normed="20.585350" PMx_normed="2.690524" NOx_normed="56.452285" fuel_normed="55.450811" electricity_normed="0"
            traveltime="2.29" CO_perVeh="309.219539" CO2_perVeh="10351.966042" HC_perVeh="1.651978" PMx_perVeh="0.215915" NOx_perVeh="4.530305" fuel_perVeh="4.449937" electricity_perVeh="0"/>
        <edge id=":1106006327_2" sampledSeconds="0.00" CO_abs="0" CO2_abs="0" HC_abs="0" PMx_abs="0" NOx_abs="0" fuel_abs="0" electricity_abs="0"
            CO_normed="0" CO2_normed="0" HC_normed="0" PMx_normed="0" NOx_normed="0" fuel_normed="0" electricity_normed="0"/>
        <edge id=":1106006327_3" sampledSeconds="0.00" CO_abs="0" CO2_abs="0" HC_abs="0" PMx_abs="0" NOx_abs="0" fuel_abs="0" electricity_abs="0"
            CO_normed="0" CO2_normed="0" HC_normed="0" PMx_normed="0" NOx_normed="0" fuel_normed="0" electricity_normed="0"/>
        <edge id=":1107381198_0" sampledSeconds="0.00" CO_abs="0" CO2_abs="0" HC_abs="0" PMx_abs="0" NOx_abs="0" fuel_abs="0" electricity_abs="0"
            CO_normed="0" CO2_normed="0" HC_normed="0" PMx_normed="0" NOx_normed="0" fuel_normed="0" electricity_normed="0"/>
        <edge id=":1107381198_1" sampledSeconds="104.49" CO_abs="4402.252382" CO2_abs="172756.917135" HC_abs="24.023971" PMx_abs="3.001738" NOx_abs="71.708499" fuel_abs="74.262234" electricity_abs="0"
            CO_normed="204.020318" CO2_normed="8006.338151" HC_normed="1.113380" PMx_normed="0.139114" NOx_normed="3.323297" fuel_normed="3.441648" electricity_normed="0"
            traveltime="1.56" CO_perVeh="65.910159" CO2_perVeh="2586.502302" HC_perVeh="0.359685" PMx_perVeh="0.044942" NOx_perVeh="1.073614" fuel_perVeh="1.111848" electricity_perVeh="0"/>
        <edge id=":1110338277_0" sampledSeconds="161.14" CO_abs="2272.736659" CO2_abs="290850.860110" HC_abs="16.960265" PMx_abs="3.864098" NOx_abs="107.869625" fuel_abs="125.024684" electricity_abs="0"
            CO_normed="3449.521887" CO2_normed="441448.596218" HC_normed="25.742007" PMx_normed="5.864863" NOx_normed="163.722722" fuel_normed="189.760385" electricity_normed="0"
            traveltime="0.02" CO_perVeh="0.307822" CO2_perVeh="39.393144" HC_perVeh="0.002297" PMx_perVeh="0.000523" NOx_perVeh="0.014610" fuel_perVeh="0.016933" electricity_perVeh="0"/>
        <edge id=":1110338293_0" sampledSeconds="6656.71" CO_abs="634517.288683" CO2_abs="11090582.832464" HC_abs="3148.627120" PMx_abs="264.688392" NOx_abs="5013.556358" fuel_abs="4767.655487" electricity_abs="0"
            CO_normed="898855.797922" CO2_normed="15710895.288581" HC_normed="4460.338264" PMx_normed="374.956995" NOx_normed="7102.192929" fuel_normed="6753.850295" electricity_normed="0"
            traveltime="0.44" CO_perVeh="42.400558" CO2_perVeh="741.109679" HC_perVeh="0.210402" PMx_perVeh="0.017687" NOx_perVeh="0.335023" fuel_perVeh="0.318591" electricity_perVeh="0"/>
        <edge id=":1110338295_0" sampledSeconds="0.00" CO_abs="0" CO2_abs="0" HC_abs="0" PMx_abs="0" NOx_abs="0" fuel_abs="0" electricity_abs="0"
            CO_normed="0" CO2_normed="0" HC_normed="0" PMx_normed="0" NOx_normed="0" fuel_normed="0" electricity_normed="0"/>
        <edge id=":1110673403_0" sampledSeconds="200.44" CO_abs="3368.263540" CO2_abs="413532.729468" HC_abs="24.831448" PMx_abs="5.654413" NOx_abs="154.546413" fuel_abs="177.760386" electricity_abs="0"
            CO_normed="4771.474734" CO2_normed="585809.556559" HC_normed="35.176174" PMx_normed="8.010029" NOx_normed="218.930110" fuel_normed="251.814972" electricity_normed="0"
            traveltime="0.02" CO_perVeh="0.389290" CO2_perVeh="47.794359" HC_perVeh="0.002870" PMx_perVeh="0.000654" NOx_perVeh="0.017862" fuel_perVeh="0.020545" electricity_perVeh="0"/>
        <edge id=":1110673412_0" sampledSeconds="941.88" CO_abs="167886.789239" CO2_abs="11458138.434805" HC_abs="1044.836795" PMx_abs="251.758907" NOx_abs="4924.309495" fuel_abs="4925.289340" electricity_abs="0"
            CO_normed="246029.024485" CO2_normed="16791283.187386" HC_normed="1531.151907" PMx_normed="368.939085" NOx_normed="7216.309674" fuel_normed="7217.745584" electricity_normed="0"
            traveltime="0.02" CO_perVeh="2.769189" CO2_perVeh="188.994948" HC_perVeh="0.017234" PMx_perVeh="0.004153" NOx_perVeh="0.081223" fuel_perVeh="0.081240" electricity_perVeh="0"/>
        <edge id=":1110673414_0" sampledSeconds="0.00" CO_abs="0" CO2_abs="0" HC_abs="0" PMx_abs="0" NOx_abs="0" fuel_abs="0" electricity_abs="0"
            CO_normed="0" CO2_normed="0" HC_normed="0" PMx_normed="0" NOx_normed="0" fuel_normed="0" electricity_normed="0"/>
        <edge id=":1110673414_1" sampledSeconds="237.98" CO_abs="16041.917639" CO2_abs="628623.697837" HC_abs="87.653095" PMx_abs="11.599938" NOx_abs="265.303352" fuel_abs="270.222607" electricity_abs="0"
            CO_normed="754.981572" CO2_normed="29584.948507" HC_normed="4.125222" PMx_normed="0.545928" NOx_normed="12.485985" fuel_normed="12.717500" electricity_normed="0"
            traveltime="1.54" CO_perVeh="104.081476" CO2_perVeh="4078.569883" HC_perVeh="0.568702" PMx_perVeh="0.075261" NOx_perVeh="1.721313" fuel_perVeh="1.753230" electricity_perVeh="0"/>
        <edge id=":1110673417_0" sampledSeconds="28.95" CO_abs="396.888902" CO2_abs="52760.232472" HC_abs="3.010973" PMx_abs="0.679504" NOx_abs="19.391956" fuel_abs="22.679454" electricity_abs="0"
            CO_normed="602.391373" CO2_normed="80078.603007" HC_normed="4.570005" PMx_normed="1.031341" NOx_normed="29.432788" fuel_normed="34.422497" electricity_normed="0"
            traveltime="0.02" CO_perVeh="0.302647" CO2_perVeh="40.232210" HC_perVeh="0.002296" PMx_perVeh="0.000518" NOx_perVeh="0.014787" fuel_perVeh="0.017294" electricity_perVeh="0"/>
        <edge id=":1110673446_0" sampledSeconds="1315.98" CO_abs="13970.805762" CO2_abs="1135159.605148" HC_abs="90.519765" PMx_abs="20.781431" NOx_abs="464.050432" fuel_abs="487.952940" electricity_abs="0"
            CO_normed="19791.012767" CO2_normed="1608064.604152" HC_normed="128.230100" PMx_normed="29.438930" NOx_normed="657.372823" fuel_normed="691.233063" electricity_normed="0"
            traveltime="0.02" CO_perVeh="0.242348" CO2_perVeh="19.691312" HC_perVeh="0.001570" PMx_perVeh="0.000360" NOx_perVeh="0.008050" fuel_perVeh="0.008464" electricity_perVeh="0"/>
        <edge id=":1110673451_0" sampledSeconds="36.99" CO_abs="276.027095" CO2_abs="20821.126663" HC_abs="1.732309" PMx_abs="0.287295" NOx_abs="7.994059" fuel_abs="8.950197" electricity_abs="0"
            CO_normed="434.465974" CO2_normed="32772.402571" HC_normed="2.726650" PMx_normed="0.452201" NOx_normed="12.582629" fuel_normed="14.087588" electricity_normed="0"
            traveltime="0.03" CO_perVeh="0.203371" CO2_perVeh="15.340567" HC_perVeh="0.001276" PMx_perVeh="0.000212" NOx_perVeh="0.005890" fuel_perVeh="0.006594" electricity_perVeh="0"/>
        <edge id=":1110673464_0" sampledSeconds="1027.04" CO_abs="3341.378645" CO2_abs="256837.259188" HC_abs="21.059551" PMx_abs="3.488759" NOx_abs="98.101712" fuel_abs="110.404445" electricity_abs="0"
            CO_normed="100.567769" CO2_normed="7730.207452" HC_normed="0.633844" PMx_normed="0.105004" NOx_normed="2.952635" fuel_normed="3.322918" electricity_normed="0"
            traveltime="1.22" CO_perVeh="3.962407" CO2_perVeh="304.573044" HC_perVeh="0.024974" PMx_perVeh="0.004137" NOx_perVeh="0.116335" fuel_perVeh="0.130924" electricity_perVeh="0"/>
        <edge id=":1110673464_1" sampledSeconds="2606.24" CO_abs="59772.288527" CO2_abs="7460479.307816" HC_abs="449.677009" PMx_abs="132.207670" NOx_abs="2818.858881" fuel_abs="3206.917064" electricity_abs="0"
            CO_normed="1762.802762" CO2_normed="220024.259673" HC_normed="13.261863" PMx_normed="3.899065" NOx_normed="83.133712" fuel_normed="94.578314" electricity_normed="0"
            traveltime="0.72" CO_perVeh="16.480324" CO2_perVeh="2056.991962" HC_perVeh="0.123984" PMx_perVeh="0.036452" NOx_perVeh="0.777211" fuel_perVeh="0.884206" electricity_perVeh="0"/>
        <edge id=":1110673479_0" sampledSeconds="135.53" CO_abs="5864.147971" CO2_abs="406929.530457" HC_abs="36.241145" PMx_abs="7.004508" NOx_abs="165.654338" fuel_abs="174.921495" electricity_abs="0"
            CO_normed="8307.139140" CO2_normed="576455.479340" HC_normed="51.339127" PMx_normed="9.922570" NOx_normed="234.665571" fuel_normed="247.793405" electricity_normed="0"
            traveltime="0.03" CO_perVeh="1.239734" CO2_perVeh="86.028582" HC_perVeh="0.007662" PMx_perVeh="0.001481" NOx_perVeh="0.035021" fuel_perVeh="0.036980" electricity_perVeh="0"/>
        <edge id=":1110673511_0" sampledSeconds="63.18" CO_abs="1080.036383" CO2_abs="119236.214252" HC_abs="7.635138" PMx_abs="1.659471" NOx_abs="44.967339" fuel_abs="51.254673" electricity_abs="0"
            CO_normed="1529.977168" CO2_normed="168909.759299" HC_normed="10.815920" PMx_normed="2.350804" NOx_normed="63.700634" fuel_normed="72.607257" electricity_normed="0"
            traveltime="0.02" CO_perVeh="0.413939" CO2_perVeh="45.698964" HC_perVeh="0.002926" PMx_perVeh="0.000636" NOx_perVeh="0.017234" fuel_perVeh="0.019644" electricity_perVeh="0"/>
        <edge id=":1110673517_0" sampledSeconds="182.51" CO_abs="8582.832989" CO2_abs="606269.392239" HC_abs="53.323230" PMx_abs="10.550921" NOx_abs="247.351759" fuel_abs="260.608836" electricity_abs="0"
            CO_normed="12158.422367" CO2_normed="858839.889844" HC_normed="75.537571" PMx_normed="14.946411" NOx_normed="350.397958" fuel_normed="369.177905" electricity_normed="0"
            traveltime="0.03" CO_perVeh="1.314107" CO2_perVeh="92.825130" HC_perVeh="0.008164" PMx_perVeh="0.001615" NOx_perVeh="0.037872" fuel_perVeh="0.039901" electricity_perVeh="0"/>
        <edge id=":1110673534_0" sampledSeconds="659.74" CO_abs="3989.319412" CO2_abs="333772.075809" HC_abs="25.788164" PMx_abs="4.497072" NOx_abs="126.839541" fuel_abs="143.475559" electricity_abs="0"
            CO_normed="109.520564" CO2_normed="9163.193599" HC_normed="0.707974" PMx_normed="0.123460" NOx_normed="3.482182" fuel_normed="3.938898" electricity_normed="0"
            traveltime="1.45" CO_perVeh="8.771920" CO2_perVeh="733.915110" HC_perVeh="0.056704" PMx_perVeh="0.009888" NOx_perVeh="0.278901" fuel_perVeh="0.315481" electricity_perVeh="0"/>
        <edge id=":1110673534_1" sampledSeconds="264.16" CO_abs="4285.360479" CO2_abs="528223.917667" HC_abs="31.519476" PMx_abs="7.310431" NOx_abs="197.745345" fuel_abs="227.061168" electricity_abs="0"
            CO_normed="114.396336" CO2_normed="14100.769634" HC_normed="0.841402" PMx_normed="0.195150" NOx_normed="5.278749" fuel_normed="6.061326" electricity_normed="0"
            traveltime="1.23" CO_perVeh="19.882998" CO2_perVeh="2450.826461" HC_perVeh="0.146242" PMx_perVeh="0.033919" NOx_perVeh="0.917489" fuel_perVeh="1.053507" electricity_perVeh="0"/>
        <edge id=":1110673549_0" sampledSeconds="655.20" CO_abs="1755.740756" CO2_abs="158381.761355" HC_abs="11.662327" PMx_abs="2.325056" NOx_abs="60.806176" fuel_abs="68.081778" electricity_abs="0"
            CO_normed="46.692963" CO2_normed="4212.076133" HC_normed="0.310153" PMx_normed="0.061834" NOx_normed="1.617107" fuel_normed="1.810598" electricity_normed="0"
            traveltime="1.30" CO_perVeh="3.488238" CO2_perVeh="314.666794" HC_perVeh="0.023170" PMx_perVeh="0.004619" NOx_perVeh="0.120807" fuel_perVeh="0.135262" electricity_perVeh="0"/>
        <edge id=":1110673549_1" sampledSeconds="3196.88" CO_abs="69198.897104" CO2_abs="9076389.592898" HC_abs="532.013890" PMx_abs="159.711015" NOx_abs="3393.846914" fuel_abs="3901.524390" electricity_abs="0"
            CO_normed="1780.151435" CO2_normed="233491.408620" HC_normed="13.686133" PMx_normed="4.108588" NOx_normed="87.307193" fuel_normed="100.367268" electricity_normed="0"
            traveltime="0.81" CO_perVeh="17.453100" CO2_perVeh="2289.214777" HC_perVeh="0.134183" PMx_perVeh="0.040282" NOx_perVeh="0.855984" fuel_perVeh="0.984029" electricity_perVeh="0"/>
        <edge id=":1110673556_0" sampledSeconds="469.47" CO_abs="57353.265681" CO2_abs="2740915.948980" HC_abs="326.237135" PMx_abs="55.366994" NOx_abs="1182.160453" fuel_abs="1178.203188" electricity_abs="0"
            CO_normed="1131.041906" CO2_normed="54052.559374" HC_normed="6.433598" PMx_normed="1.091871" NOx_normed="23.312936" fuel_normed="23.234896" electricity_normed="0"
            traveltime="2.77" CO_perVeh="338.092269" CO2_perVeh="16157.449467" HC_perVeh="1.923138" PMx_perVeh="0.326383" NOx_perVeh="6.968728" fuel_perVeh="6.945400" electricity_perVeh="0"/>
        <edge id=":1110673556_2" sampledSeconds="174.89" CO_abs="17492.465386" CO2_abs="748374.755027" HC_abs="97.222687" PMx_abs="14.441112" NOx_abs="319.185560" fuel_abs="321.696997" electricity_abs="0"
            CO_normed="360.695605" CO2_normed="15431.528890" HC_normed="2.004737" PMx_normed="0.297777" NOx_normed="6.581624" fuel_normed="6.633410" electricity_normed="0"
            traveltime="3.02" CO_perVeh="302.469722" CO2_perVeh="12940.468908" HC_perVeh="1.681119" PMx_perVeh="0.249707" NOx_perVeh="5.519174" fuel_perVeh="5.562601" electricity_perVeh="0"/>
        <edge id=":1110673556_3" sampledSeconds="344.01" CO_abs="35048.749329" CO2_abs="1204602.572448" HC_abs="187.755579" PMx_abs="23.835903" NOx_abs="519.203093" fuel_abs="517.816294" electricity_abs="0"
            CO_normed="1644.039117" CO2_normed="56504.548316" HC_normed="8.807091" PMx_normed="1.118076" NOx_normed="24.354370" fuel_normed="24.289319" electricity_normed="0"
            traveltime="1.85" CO_perVeh="188.472163" CO2_perVeh="6477.664858" HC_perVeh="1.009642" PMx_perVeh="0.128176" NOx_perVeh="2.791978" fuel_perVeh="2.784520" electricity_perVeh="0"/>
        <edge id=":1110673556_4" sampledSeconds="90.77" CO_abs="10571.985387" CO2_abs="409117.396194" HC_abs="57.759131" PMx_abs="8.150979" NOx_abs="176.443259" fuel_abs="175.863987" electricity_abs="0"
            CO_normed="302.958556" CO2_normed="11723.967737" HC_normed="1.655188" PMx_normed="0.233580" NOx_normed="5.056287" fuel_normed="5.039687" electricity_normed="0"
            traveltime="2.55" CO_perVeh="296.565928" CO2_perVeh="11476.584167" HC_perVeh="1.620262" PMx_perVeh="0.228652" NOx_perVeh="4.949596" fuel_perVeh="4.933346" electricity_perVeh="0"/>
        <edge id=":1110673556_5" sampledSeconds="22.34" CO_abs="1459.952999" CO2_abs="66638.359993" HC_abs="8.193107" PMx_abs="1.170613" NOx_abs="27.683693" fuel_abs="28.645313" electricity_abs="0"
            CO_normed="58.312957" CO2_normed="2661.647212" HC_normed="0.327246" PMx_normed="0.046756" NOx_normed="1.105733" fuel_normed="1.144142" electricity_normed="0"
            traveltime="1.54" CO_perVeh="100.935022" CO2_perVeh="4607.096493" HC_perVeh="0.566437" PMx_perVeh="0.080931" NOx_perVeh="1.913934" fuel_perVeh="1.980417" electricity_perVeh="0"/>
        <edge id=":1110673556_6" sampledSeconds="217.80" CO_abs="26707.424696" CO2_abs="1331502.102133" HC_abs="153.269677" PMx_abs="26.882154" NOx_abs="573.501869" fuel_abs="572.355227" electricity_abs="0"
            CO_normed="539.966877" CO2_normed="26920.118282" HC_normed="3.098784" PMx_normed="0.543500" NOx_normed="11.594978" fuel_normed="11.571796" electricity_normed="0"
            traveltime="2.54" CO_perVeh="311.209084" CO2_perVeh="15515.369026" HC_perVeh="1.785980" PMx_perVeh="0.313245" NOx_perVeh="6.682748" fuel_perVeh="6.669387" electricity_perVeh="0"/>
        <edge id=":1110673561_0" sampledSeconds="103.35" CO_abs="9814.318559" CO2_abs="692040.229268" HC_abs="61.355886" PMx_abs="14.035177" NOx_abs="293.451518" fuel_abs="297.475143" electricity_abs="0"
            CO_normed="249.305597" CO2_normed="17579.366454" HC_normed="1.558576" PMx_normed="0.356525" NOx_normed="7.454324" fuel_normed="7.556533" electricity_normed="0"
            traveltime="1.22" CO_perVeh="115.818485" CO2_perVeh="8166.746400" HC_perVeh="0.724059" PMx_perVeh="0.165629" NOx_perVeh="3.463013" fuel_perVeh="3.510495" electricity_perVeh="0"/>
        <edge id=":1110673561_1" sampledSeconds="5199.89" CO_abs="480740.933845" CO2_abs="33392913.430247" HC_abs="2996.674886" PMx_abs="696.363639" NOx_abs="14265.507858" fuel_abs="14354.002210" electricity_abs="0"
            CO_normed="11905.883764" CO2_normed="826998.738524" HC_normed="74.214739" PMx_normed="17.245930" NOx_normed="353.295229" fuel_normed="355.486853" electricity_normed="0"
            traveltime="1.19" CO_perVeh="110.465915" CO2_perVeh="7673.111414" HC_perVeh="0.688584" PMx_perVeh="0.160012" NOx_perVeh="3.277966" fuel_perVeh="3.298300" electricity_perVeh="0"/>
        <edge id=":1110673562_0" sampledSeconds="301.59" CO_abs="6837.108758" CO2_abs="530397.660426" HC_abs="43.245189" PMx_abs="7.283440" NOx_abs="203.255715" fuel_abs="227.997338" electricity_abs="0"
            CO_normed="10761.592504" CO2_normed="834844.623502" HC_normed="68.067821" PMx_normed="11.464117" NOx_normed="319.924000" fuel_normed="358.867254" electricity_normed="0"
            traveltime="0.03" CO_perVeh="0.612890" CO2_perVeh="47.545764" HC_perVeh="0.003877" PMx_perVeh="0.000653" NOx_perVeh="0.018220" fuel_perVeh="0.020438" electricity_perVeh="0"/>
        <edge id=":1110673564_0" sampledSeconds="27.68" CO_abs="465.554354" CO2_abs="55171.208858" HC_abs="3.394478" PMx_abs="0.773123" NOx_abs="20.767138" fuel_abs="23.715773" electricity_abs="0"
            CO_normed="1978.509827" CO2_normed="234466.239983" HC_normed="14.425832" PMx_normed="3.285613" NOx_normed="88.256046" fuel_normed="100.787137" electricity_normed="0"
            traveltime="7.818832e-03" CO_perVeh="0.131494" CO2_perVeh="15.582886" HC_perVeh="0.000959" PMx_perVeh="0.000218" NOx_perVeh="0.005866" fuel_perVeh="0.006698" electricity_perVeh="0"/>
        <edge id=":1110673588_0" sampledSeconds="62.77" CO_abs="1149.009114" CO2_abs="123750.906336" HC_abs="8.068427" PMx_abs="1.753178" NOx_abs="46.927634" fuel_abs="53.195323" electricity_abs="0"
            CO_normed="1953.220546" CO2_normed="210366.314631" HC_normed="13.715660" PMx_normed="2.980258" NOx_normed="79.773101" fuel_normed="90.427654" electricity_normed="0"
            traveltime="0.02" CO_perVeh="0.370648" CO2_perVeh="39.919647" HC_perVeh="0.002603" PMx_perVeh="0.000566" NOx_perVeh="0.015138" fuel_perVeh="0.017160" electricity_perVeh="0"/>
        <edge id=":1110673601_0" sampledSeconds="28.89" CO_abs="438.677571" CO2_abs="58071.212471" HC_abs="3.298054" PMx_abs="0.752797" NOx_abs="21.371558" fuel_abs="24.962415" electricity_abs="0"
            CO_normed="665.817519" CO2_normed="88139.520084" HC_normed="5.005731" PMx_normed="1.142583" NOx_normed="32.437395" fuel_normed="37.887539" electricity_normed="0"
            traveltime="0.02" CO_perVeh="0.334513" CO2_perVeh="44.282087" HC_perVeh="0.002515" PMx_perVeh="0.000574" NOx_perVeh="0.016297" fuel_perVeh="0.019035" electricity_perVeh="0"/>
        <edge id=":1110673617_0" sampledSeconds="851.60" CO_abs="32930.383844" CO2_abs="3294604.172565" HC_abs="228.987084" PMx_abs="62.480425" NOx_abs="1295.062211" fuel_abs="1416.195802" electricity_abs="0"
            CO_normed="46649.109448" CO2_normed="4667129.036805" HC_normed="324.382601" PMx_normed="88.509633" NOx_normed="1834.582285" fuel_normed="2006.179864" electricity_normed="0"
            traveltime="0.02" CO_perVeh="0.583573" CO2_perVeh="58.385081" HC_perVeh="0.004058" PMx_perVeh="0.001107" NOx_perVeh="0.022950" fuel_perVeh="0.025097" electricity_perVeh="0"/>
        <edge id=":1110673621_0" sampledSeconds="26.42" CO_abs="625.583020" CO2_abs="61475.972079" HC_abs="4.285475" PMx_abs="0.960514" NOx_abs="23.946784" fuel_abs="26.425848" electricity_abs="0"
            CO_normed="1063.439439" CO2_normed="104504.072475" HC_normed="7.284954" PMx_normed="1.632794" NOx_normed="40.707554" fuel_normed="44.921758" electricity_normed="0"
            traveltime="0.02" CO_perVeh="0.473927" CO2_perVeh="46.572706" HC_perVeh="0.003247" PMx_perVeh="0.000728" NOx_perVeh="0.018142" fuel_perVeh="0.020020" electricity_perVeh="0"/>
        <edge id=":1110673630_0" sampledSeconds="285.73" CO_abs="1452.651791" CO2_abs="133080.489031" HC_abs="9.646957" PMx_abs="1.724607" NOx_abs="50.001269" fuel_abs="57.206096" electricity_abs="0"
            CO_normed="44.033310" CO2_normed="4033.984206" HC_normed="0.292422" PMx_normed="0.052277" NOx_normed="1.515657" fuel_normed="1.734052" electricity_normed="0"
            traveltime="1.29" CO_perVeh="6.536378" CO2_perVeh="598.811374" HC_perVeh="0.043408" PMx_perVeh="0.007760" NOx_perVeh="0.224987" fuel_perVeh="0.257406" electricity_perVeh="0"/>
        <edge id=":1110673630_1" sampledSeconds="338.35" CO_abs="1076.203487" CO2_abs="92398.288648" HC_abs="6.992336" PMx_abs="1.144239" NOx_abs="34.450162" fuel_abs="39.718541" electricity_abs="0"
            CO_normed="39.770804" CO2_normed="3414.553378" HC_normed="0.258400" PMx_normed="0.042285" NOx_normed="1.273096" fuel_normed="1.467788" electricity_normed="0"
            traveltime="1.08" CO_perVeh="3.430732" CO2_perVeh="294.548179" HC_perVeh="0.022290" PMx_perVeh="0.003648" NOx_perVeh="0.109821" fuel_perVeh="0.126615" electricity_perVeh="0"/>
        <edge id=":1110673650_0" sampledSeconds="199.59" CO_abs="3164.017372" CO2_abs="388773.415109" HC_abs="23.326228" PMx_abs="5.337665" NOx_abs="145.414578" fuel_abs="167.117359" electricity_abs="0"
            CO_normed="4482.140062" CO2_normed="550735.566203" HC_normed="33.043883" PMx_normed="7.561325" NOx_normed="205.993972" fuel_normed="236.738083" electricity_normed="0"
            traveltime="0.02" CO_perVeh="0.365686" CO2_perVeh="44.933014" HC_perVeh="0.002696" PMx_perVeh="0.000617" NOx_perVeh="0.016806" fuel_perVeh="0.019315" electricity_perVeh="0"/>
        <edge id=":1110673655_0" sampledSeconds="20.92" CO_abs="251.574530" CO2_abs="28989.243389" HC_abs="1.810603" PMx_abs="0.385080" NOx_abs="10.806424" fuel_abs="12.461287" electricity_abs="0"
            CO_normed="356.379927" CO2_normed="41066.098533" HC_normed="2.564896" PMx_normed="0.545503" NOx_normed="15.308357" fuel_normed="17.652632" electricity_normed="0"
            traveltime="0.02" CO_perVeh="0.287404" CO2_perVeh="33.117948" HC_perVeh="0.002068" PMx_perVeh="0.000440" NOx_perVeh="0.012345" fuel_perVeh="0.014236" electricity_perVeh="0"/>
        <edge id=":1110673663_0" sampledSeconds="111.32" CO_abs="1963.154864" CO2_abs="222975.205216" HC_abs="14.037596" PMx_abs="3.063604" NOx_abs="83.777156" fuel_abs="95.847758" electricity_abs="0"
            CO_normed="50.934082" CO2_normed="5785.094984" HC_normed="0.364206" PMx_normed="0.079485" NOx_normed="2.173600" fuel_normed="2.486771" electricity_normed="0"
            traveltime="1.31" CO_perVeh="23.058180" CO2_perVeh="2618.948975" HC_perVeh="0.164878" PMx_perVeh="0.035983" NOx_perVeh="0.984002" fuel_perVeh="1.125777" electricity_perVeh="0"/>
        <edge id=":1110673663_1" sampledSeconds="170.50" CO_abs="2609.228627" CO2_abs="330733.931630" HC_abs="19.384871" PMx_abs="4.403792" NOx_abs="122.771623" fuel_abs="142.168755" electricity_abs="0"
            CO_normed="67.779234" CO2_normed="8591.386822" HC_normed="0.503556" PMx_normed="0.114396" NOx_normed="3.189206" fuel_normed="3.693080" electricity_normed="0"
            traveltime="1.27" CO_perVeh="19.502465" CO2_perVeh="2472.043539" HC_perVeh="0.144891" PMx_perVeh="0.032916" NOx_perVeh="0.917646" fuel_perVeh="1.062629" electricity_perVeh="0"/>
        <edge id=":1110673666_0" sampledSeconds="275.87" CO_abs="5799.055857" CO2_abs="470730.744077" HC_abs="37.115767" PMx_abs="6.182473" NOx_abs="178.170915" fuel_abs="202.349092" electricity_abs="0"