<?xml version="1.0" encoding="UTF-8"?>

<!-- generated on Wed Sep 30 00:39:39 2020 by Eclipse SUMO Version 1.1.0
<configuration xmlns:xsi="http://www.w3.org/2001/XMLSchema-instance" xsi:noNamespaceSchemaLocation="http://sumo.dlr.de/xsd/sumoConfiguration.xsd">

    <input>
        <net-file value="../dataSets/Angeja_Estarreja/angeja_estarreja.net.xml"/>
        <route-files value="../results/angeja_estarreja/cost_co-length/solution3/angeja_estarreja.rou.xml"/>
        <additional-files value="moreOutputInfo.xml"/>
    </input>

    <output>
        <emission-output.precision value="6"/>
        <tripinfo-output value="../results/angeja_estarreja/cost_co-length/solution3/angeja_estarreja-tripinfo"/>
    </output>

    <processing>
        <collision.action value="warn"/>
        <time-to-teleport value="-1"/>
    </processing>

    <emissions>
        <device.emissions.probability value="1"/>
    </emissions>

    <gui_only>
        <quit-on-end value="true"/>
        <start value="true"/>
    </gui_only>

</configuration>
-->

<meandata xmlns:xsi="http://www.w3.org/2001/XMLSchema-instance" xsi:noNamespaceSchemaLocation="http://sumo.dlr.de/xsd/meandata_file.xsd">
    <interval begin="0.00" end="19079.00" id="emissions-detector">
        <edge id=":10_0" sampledSeconds="398.24" CO_abs="38902.351550" CO2_abs="2157363.258802" HC_abs="228.329366" PMx_abs="42.243330" NOx_abs="919.797893" fuel_abs="927.355621" electricity_abs="0"
            CO_normed="419.694171" CO2_normed="23274.500082" HC_normed="2.463309" PMx_normed="0.455738" NOx_normed="9.923149" fuel_normed="10.004684" electricity_normed="0"
            traveltime="1.89" CO_perVeh="184.298921" CO2_perVeh="10220.454677" HC_perVeh="1.081705" PMx_perVeh="0.200127" NOx_perVeh="4.357520" fuel_perVeh="4.393324" electricity_perVeh="0"/>
        <edge id=":10_1" sampledSeconds="0.00" CO_abs="0" CO2_abs="0" HC_abs="0" PMx_abs="0" NOx_abs="0" fuel_abs="0" electricity_abs="0"
            CO_normed="0" CO2_normed="0" HC_normed="0" PMx_normed="0" NOx_normed="0" fuel_normed="0" electricity_normed="0"/>
        <edge id=":100_0" sampledSeconds="0.00" CO_abs="0" CO2_abs="0" HC_abs="0" PMx_abs="0" NOx_abs="0" fuel_abs="0" electricity_abs="0"
            CO_normed="0" CO2_normed="0" HC_normed="0" PMx_normed="0" NOx_normed="0" fuel_normed="0" electricity_normed="0"/>
        <edge id=":100_1" sampledSeconds="911.85" CO_abs="21200.991960" CO2_abs="2769877.700892" HC_abs="163.869405" PMx_abs="49.615901" NOx_abs="1028.891952" fuel_abs="1190.643806" electricity_abs="0"
            CO_normed="135.331422" CO2_normed="17680.846633" HC_normed="1.046021" PMx_normed="0.316711" NOx_normed="6.567684" fuel_normed="7.600188" electricity_normed="0"
            traveltime="1.37" CO_perVeh="31.877575" CO2_perVeh="4164.757162" HC_perVeh="0.246392" PMx_perVeh="0.074602" NOx_perVeh="1.547030" fuel_perVeh="1.790239" electricity_perVeh="0"/>
        <edge id=":101_0" sampledSeconds="438.61" CO_abs="9994.638986" CO2_abs="1256719.608279" HC_abs="76.065535" PMx_abs="22.754336" NOx_abs="469.534173" fuel_abs="540.206140" electricity_abs="0"
            CO_normed="230.829839" CO2_normed="29024.398456" HC_normed="1.756761" PMx_normed="0.525520" NOx_normed="10.844063" fuel_normed="12.476258" electricity_normed="0"
            traveltime="0.38" CO_perVeh="8.634079" CO2_perVeh="1085.643676" HC_perVeh="0.065711" PMx_perVeh="0.019657" NOx_perVeh="0.405617" fuel_perVeh="0.466668" electricity_perVeh="0"/>
        <edge id=":102_0" sampledSeconds="341.30" CO_abs="7931.927603" CO2_abs="999688.609197" HC_abs="60.425605" PMx_abs="18.090357" NOx_abs="373.323906" fuel_abs="429.720310" electricity_abs="0"
            CO_normed="184.773896" CO2_normed="23287.701060" HC_normed="1.407612" PMx_normed="0.421414" NOx_normed="8.696564" fuel_normed="10.010315" electricity_normed="0"
            traveltime="0.38" CO_perVeh="8.725827" CO2_perVeh="1099.746550" HC_perVeh="0.066474" PMx_perVeh="0.019901" NOx_perVeh="0.410690" fuel_perVeh="0.472731" electricity_perVeh="0"/>
        <edge id=":103_0" sampledSeconds="434.32" CO_abs="10001.527457" CO2_abs="1276693.965568" HC_abs="76.607133" PMx_abs="23.024025" NOx_abs="475.885598" fuel_abs="548.792271" electricity_abs="0"
            CO_normed="234.432244" CO2_normed="29925.252121" HC_normed="1.795644" PMx_normed="0.539675" NOx_normed="11.154589" fuel_normed="12.863495" electricity_normed="0"
            traveltime="0.37" CO_perVeh="8.592930" CO2_perVeh="1096.886628" HC_perVeh="0.065818" PMx_perVeh="0.019781" NOx_perVeh="0.408863" fuel_perVeh="0.471501" electricity_perVeh="0"/>
        <edge id=":104_0" sampledSeconds="340.80" CO_abs="8766.584499" CO2_abs="1047421.114847" HC_abs="65.389559" PMx_abs="19.239997" NOx_abs="394.700554" fuel_abs="450.238100" electricity_abs="0"
            CO_normed="204.469622" CO2_normed="24429.787859" HC_normed="1.525130" PMx_normed="0.448749" NOx_normed="9.205897" fuel_normed="10.501241" electricity_normed="0"
            traveltime="0.37" CO_perVeh="9.639617" CO2_perVeh="1151.729944" HC_perVeh="0.071901" PMx_perVeh="0.021156" NOx_perVeh="0.434007" fuel_perVeh="0.495076" electricity_perVeh="0"/>
        <edge id=":105_0" sampledSeconds="168.50" CO_abs="4332.849995" CO2_abs="527722.443351" HC_abs="32.574190" PMx_abs="9.642483" NOx_abs="198.233883" fuel_abs="226.843615" electricity_abs="0"
            CO_normed="3716.189619" CO2_normed="452615.868962" HC_normed="27.938163" PMx_normed="8.270144" NOx_normed="170.020818" fuel_normed="194.558752" electricity_normed="0"
            traveltime="0.01" CO_perVeh="0.262017" CO2_perVeh="31.912496" HC_perVeh="0.001970" PMx_perVeh="0.000583" NOx_perVeh="0.011988" fuel_perVeh="0.013718" electricity_perVeh="0"/>
        <edge id=":106_0" sampledSeconds="134.37" CO_abs="3361.686081" CO2_abs="401548.500712" HC_abs="25.077706" PMx_abs="7.378870" NOx_abs="151.287131" fuel_abs="172.607210" electricity_abs="0"
            CO_normed="2046.173025" CO2_normed="244412.384257" HC_normed="15.264163" PMx_normed="4.491331" NOx_normed="92.084638" fuel_normed="105.061629" electricity_normed="0"
            traveltime="0.01" CO_perVeh="0.359433" CO2_perVeh="42.933807" HC_perVeh="0.002681" PMx_perVeh="0.000789" NOx_perVeh="0.016176" fuel_perVeh="0.018455" electricity_perVeh="0"/>
        <edge id=":107_0" sampledSeconds="438.56" CO_abs="11158.157259" CO2_abs="1373663.228010" HC_abs="84.161880" PMx_abs="25.004350" NOx_abs="515.131545" fuel_abs="590.474719" electricity_abs="0"
            CO_normed="257.701718" CO2_normed="31725.254075" HC_normed="1.943749" PMx_normed="0.577485" NOx_normed="11.897151" fuel_normed="13.637229" electricity_normed="0"
            traveltime="0.38" CO_perVeh="9.639203" CO2_perVeh="1186.667197" HC_perVeh="0.072705" PMx_perVeh="0.021601" NOx_perVeh="0.445007" fuel_perVeh="0.510094" electricity_perVeh="0"/>
        <edge id=":108_0" sampledSeconds="93.60" CO_abs="7874.448910" CO2_abs="574616.724143" HC_abs="49.681390" PMx_abs="11.505955" NOx_abs="242.154540" fuel_abs="247.000417" electricity_abs="0"
            CO_normed="123.509805" CO2_normed="9012.795714" HC_normed="0.779247" PMx_normed="0.180470" NOx_normed="3.798165" fuel_normed="3.874172" electricity_normed="0"
            traveltime="0.86" CO_perVeh="71.967157" CO2_perVeh="5251.609680" HC_perVeh="0.454054" PMx_perVeh="0.105157" NOx_perVeh="2.213129" fuel_perVeh="2.257417" electricity_perVeh="0"/>
        <edge id=":108_1" sampledSeconds="403.01" CO_abs="9757.117862" CO2_abs="1194201.761115" HC_abs="73.475364" PMx_abs="21.781647" NOx_abs="448.340102" fuel_abs="513.332446" electricity_abs="0"
            CO_normed="142.717994" CO2_normed="17467.666427" HC_normed="1.074729" PMx_normed="0.318602" NOx_normed="6.557900" fuel_normed="7.508547" electricity_normed="0"
            traveltime="0.60" CO_perVeh="14.494440" CO2_perVeh="1774.016297" HC_perVeh="0.109149" PMx_perVeh="0.032357" NOx_perVeh="0.666020" fuel_perVeh="0.762568" electricity_perVeh="0"/>
        <edge id=":109_0" sampledSeconds="307.92" CO_abs="101.433697" CO2_abs="23990.907664" HC_abs="0.982677" PMx_abs="0.267354" NOx_abs="8.324266" fuel_abs="10.312719" electricity_abs="0"
            CO_normed="1.525055" CO2_normed="360.703076" HC_normed="0.014775" PMx_normed="0.004020" NOx_normed="0.125155" fuel_normed="0.155052" electricity_normed="0"
            traveltime="0.86" CO_perVeh="0.281929" CO2_perVeh="66.681260" HC_perVeh="0.002731" PMx_perVeh="0.000743" NOx_perVeh="0.023137" fuel_perVeh="0.028664" electricity_perVeh="0"/>
        <edge id=":109_1" sampledSeconds="523.85" CO_abs="13449.680501" CO2_abs="1656426.985265" HC_abs="101.502322" PMx_abs="30.166317" NOx_abs="620.884189" fuel_abs="712.021888" electricity_abs="0"
            CO_normed="131.902733" CO2_normed="16244.790772" HC_normed="0.995446" PMx_normed="0.295845" NOx_normed="6.089090" fuel_normed="6.982889" electricity_normed="0"
            traveltime="0.89" CO_perVeh="22.901603" CO2_perVeh="2820.500686" HC_perVeh="0.172834" PMx_perVeh="0.051366" NOx_perVeh="1.057218" fuel_perVeh="1.212404" electricity_perVeh="0"/>
        <edge id=":11_0" sampledSeconds="284.21" CO_abs="17536.974657" CO2_abs="1268491.272817" HC_abs="109.812948" PMx_abs="22.761208" NOx_abs="520.886081" fuel_abs="545.267918" electricity_abs="0"
            CO_normed="181.317072" CO2_normed="13115.097018" HC_normed="1.135370" PMx_normed="0.235331" NOx_normed="5.385509" fuel_normed="5.637596" electricity_normed="0"
            traveltime="1.59" CO_perVeh="97.994441" CO2_perVeh="7088.172002" HC_perVeh="0.613621" PMx_perVeh="0.127187" NOx_perVeh="2.910647" fuel_perVeh="3.046890" electricity_perVeh="0"/>
        <edge id=":11_1" sampledSeconds="50.65" CO_abs="1257.041280" CO2_abs="104176.663784" HC_abs="8.124422" PMx_abs="1.518088" NOx_abs="40.358943" fuel_abs="44.781305" electricity_abs="0"
            CO_normed="13.325283" CO2_normed="1104.326098" HC_normed="0.086123" PMx_normed="0.016093" NOx_normed="0.427826" fuel_normed="0.474705" electricity_normed="0"
            traveltime="1.67" CO_perVeh="41.343930" CO2_perVeh="3426.357382" HC_perVeh="0.267211" PMx_perVeh="0.049930" NOx_perVeh="1.327401" fuel_perVeh="1.472851" electricity_perVeh="0"/>
        <edge id=":110_0" sampledSeconds="94.61" CO_abs="0" CO2_abs="0" HC_abs="0" PMx_abs="0" NOx_abs="0" fuel_abs="0" electricity_abs="0"
            CO_normed="0" CO2_normed="0" HC_normed="0" PMx_normed="0" NOx_normed="0" fuel_normed="0" electricity_normed="0"
            traveltime="0.93" CO_perVeh="0" CO2_perVeh="0" HC_perVeh="0" PMx_perVeh="0" NOx_perVeh="0" fuel_perVeh="0" electricity_perVeh="0"/>
        <edge id=":110_1" sampledSeconds="443.88" CO_abs="10687.025411" CO2_abs="1336013.047285" HC_abs="81.115675" PMx_abs="24.226031" NOx_abs="499.544546" fuel_abs="574.290730" electricity_abs="0"
            CO_normed="137.178611" CO2_normed="17149.057536" HC_normed="1.041200" PMx_normed="0.310965" NOx_normed="6.412152" fuel_normed="7.371593" electricity_normed="0"
            traveltime="0.68" CO_perVeh="16.416881" CO2_perVeh="2052.317361" HC_perVeh="0.124606" PMx_perVeh="0.037215" NOx_perVeh="0.767376" fuel_perVeh="0.882197" electricity_perVeh="0"/>
        <edge id=":111_0" sampledSeconds="341.14" CO_abs="7337.961118" CO2_abs="925475.040474" HC_abs="55.927697" PMx_abs="16.743515" NOx_abs="345.669343" fuel_abs="397.819294" electricity_abs="0"
            CO_normed="169.472893" CO2_normed="21374.184153" HC_normed="1.291671" PMx_normed="0.386698" NOx_normed="7.983360" fuel_normed="9.187782" electricity_normed="0"
            traveltime="0.38" CO_perVeh="8.155032" CO2_perVeh="1028.525307" HC_perVeh="0.062155" PMx_perVeh="0.018608" NOx_perVeh="0.384159" fuel_perVeh="0.442116" electricity_perVeh="0"/>
        <edge id=":114_0" sampledSeconds="106.74" CO_abs="11011.623143" CO2_abs="785613.036308" HC_abs="69.074403" PMx_abs="16.067368" NOx_abs="333.392298" fuel_abs="337.697379" electricity_abs="0"
            CO_normed="146.322087" CO2_normed="10439.200281" HC_normed="0.917858" PMx_normed="0.213503" NOx_normed="4.430106" fuel_normed="4.487312" electricity_normed="0"
            traveltime="0.99" CO_perVeh="101.869799" CO2_perVeh="7267.797072" HC_perVeh="0.639015" PMx_perVeh="0.148641" NOx_perVeh="3.084251" fuel_perVeh="3.124078" electricity_perVeh="0"/>
        <edge id=":114_1" sampledSeconds="416.34" CO_abs="10592.313879" CO2_abs="1277558.311966" HC_abs="79.269033" PMx_abs="23.393312" NOx_abs="480.761661" fuel_abs="549.163524" electricity_abs="0"
            CO_normed="139.863859" CO2_normed="16869.235294" HC_normed="1.046690" PMx_normed="0.308892" NOx_normed="6.348111" fuel_normed="7.251308" electricity_normed="0"
            traveltime="0.66" CO_perVeh="16.878564" CO2_perVeh="2035.754397" HC_perVeh="0.126313" PMx_perVeh="0.037277" NOx_perVeh="0.766081" fuel_perVeh="0.875077" electricity_perVeh="0"/>
        <edge id=":115_0" sampledSeconds="80.10" CO_abs="111.515298" CO2_abs="13261.600316" HC_abs="0.812714" PMx_abs="0.176595" NOx_abs="4.948278" fuel_abs="5.700614" electricity_abs="0"
            CO_normed="2.519967" CO2_normed="299.679028" HC_normed="0.018365" PMx_normed="0.003991" NOx_normed="0.111819" fuel_normed="0.128820" electricity_normed="0"
            traveltime="0.63" CO_perVeh="0.877535" CO2_perVeh="104.358084" HC_perVeh="0.006395" PMx_perVeh="0.001390" NOx_perVeh="0.038939" fuel_perVeh="0.044859" electricity_perVeh="0"/>
        <edge id=":115_1" sampledSeconds="72.38" CO_abs="1094.357600" CO2_abs="170774.530769" HC_abs="8.789333" PMx_abs="2.508395" NOx_abs="63.210863" fuel_abs="73.408439" electricity_abs="0"
            CO_normed="22.084854" CO2_normed="3446.342078" HC_normed="0.177375" PMx_normed="0.050621" NOx_normed="1.275637" fuel_normed="1.481430" electricity_normed="0"
            traveltime="0.59" CO_perVeh="8.959149" CO2_perVeh="1398.075355" HC_perVeh="0.071955" PMx_perVeh="0.020535" NOx_perVeh="0.517487" fuel_perVeh="0.600971" electricity_perVeh="0"/>
        <edge id=":116_0" sampledSeconds="74.88" CO_abs="108.239109" CO2_abs="13083.024612" HC_abs="0.795022" PMx_abs="0.179125" NOx_abs="4.901649" fuel_abs="5.623844" electricity_abs="0"
            CO_normed="2.730420" CO2_normed="330.030026" HC_normed="0.020055" PMx_normed="0.004519" NOx_normed="0.123648" fuel_normed="0.141866" electricity_normed="0"
            traveltime="0.57" CO_perVeh="0.817287" CO2_perVeh="98.786655" HC_perVeh="0.006003" PMx_perVeh="0.001353" NOx_perVeh="0.037011" fuel_perVeh="0.042464" electricity_perVeh="0"/>
        <edge id=":117_0" sampledSeconds="238.94" CO_abs="13447.964985" CO2_abs="1115843.594964" HC_abs="87.699105" PMx_abs="20.491404" NOx_abs="455.572583" fuel_abs="479.649634" electricity_abs="0"
            CO_normed="303.890404" CO2_normed="25215.276927" HC_normed="1.981781" PMx_normed="0.463055" NOx_normed="10.294802" fuel_normed="10.838883" electricity_normed="0"
            traveltime="0.60" CO_perVeh="33.909891" CO2_perVeh="2813.669946" HC_perVeh="0.221139" PMx_perVeh="0.051670" NOx_perVeh="1.148755" fuel_perVeh="1.209467" electricity_perVeh="0"/>
        <edge id=":117_1" sampledSeconds="75.93" CO_abs="5025.446819" CO2_abs="403732.593525" HC_abs="32.515956" PMx_abs="7.540655" NOx_abs="165.945903" fuel_abs="173.545919" electricity_abs="0"
            CO_normed="107.025645" CO2_normed="8598.188905" HC_normed="0.692484" PMx_normed="0.160591" NOx_normed="3.534107" fuel_normed="3.695963" electricity_normed="0"
            traveltime="0.64" CO_perVeh="42.487341" CO2_perVeh="3413.333186" HC_perVeh="0.274904" PMx_perVeh="0.063752" NOx_perVeh="1.402980" fuel_perVeh="1.467234" electricity_perVeh="0"/>
        <edge id=":118_0" sampledSeconds="898.90" CO_abs="12810.142893" CO2_abs="1974851.108341" HC_abs="103.111282" PMx_abs="29.362534" NOx_abs="733.107033" fuel_abs="848.901135" electricity_abs="0"
            CO_normed="38.866936" CO2_normed="5991.846707" HC_normed="0.312847" PMx_normed="0.089088" NOx_normed="2.224302" fuel_normed="2.575630" electricity_normed="0"
            traveltime="3.92" CO_perVeh="55.873930" CO2_perVeh="8613.697252" HC_perVeh="0.449740" PMx_perVeh="0.128070" NOx_perVeh="3.197589" fuel_perVeh="3.702647" electricity_perVeh="0"/>
        <edge id=":118_4" sampledSeconds="283.19" CO_abs="4069.053195" CO2_abs="605835.756065" HC_abs="32.063631" PMx_abs="9.018091" NOx_abs="225.191984" fuel_abs="260.422035" electricity_abs="0"
            CO_normed="12.369681" CO2_normed="1841.704923" HC_normed="0.097472" PMx_normed="0.027414" NOx_normed="0.684570" fuel_normed="0.791668" electricity_normed="0"
            traveltime="3.93" CO_perVeh="56.414902" CO2_perVeh="8399.537492" HC_perVeh="0.444542" PMx_perVeh="0.125030" NOx_perVeh="3.122147" fuel_perVeh="3.610590" electricity_perVeh="0"/>
        <edge id=":118_5" sampledSeconds="238.47" CO_abs="3923.248612" CO2_abs="584529.758694" HC_abs="31.094061" PMx_abs="8.897295" NOx_abs="218.266407" fuel_abs="251.263279" electricity_abs="0"
            CO_normed="12.044816" CO2_normed="1794.572313" HC_normed="0.095462" PMx_normed="0.027316" NOx_normed="0.670102" fuel_normed="0.771407" electricity_normed="0"
            traveltime="3.82" CO_perVeh="62.789468" CO2_perVeh="9355.082045" HC_perVeh="0.497644" PMx_perVeh="0.142396" NOx_perVeh="3.493236" fuel_perVeh="4.021333" electricity_perVeh="0"/>
        <edge id=":119_0" sampledSeconds="139.19" CO_abs="2251.822627" CO2_abs="342967.017352" HC_abs="18.094737" PMx_abs="5.130845" NOx_abs="127.670737" fuel_abs="147.426321" electricity_abs="0"
            CO_normed="48.283462" CO2_normed="7353.880650" HC_normed="0.387986" PMx_normed="0.110015" NOx_normed="2.737509" fuel_normed="3.161107" electricity_normed="0"
            traveltime="0.56" CO_perVeh="9.027400" CO2_perVeh="1374.930850" HC_perVeh="0.072541" PMx_perVeh="0.020569" NOx_perVeh="0.511823" fuel_perVeh="0.591022" electricity_perVeh="0"/>
        <edge id=":12_0" sampledSeconds="600.85" CO_abs="54902.420869" CO2_abs="3098729.242489" HC_abs="323.559171" PMx_abs="60.652970" NOx_abs="1320.176742" fuel_abs="1332.006759" electricity_abs="0"
            CO_normed="514.373897" CO2_normed="29031.605724" HC_normed="3.031385" PMx_normed="0.568250" NOx_normed="12.368570" fuel_normed="12.479404" electricity_normed="0"
            traveltime="2.12" CO_perVeh="194.059139" CO2_perVeh="10952.827224" HC_perVeh="1.143658" PMx_perVeh="0.214385" NOx_perVeh="4.666322" fuel_perVeh="4.708136" electricity_perVeh="0"/>
        <edge id=":12_1" sampledSeconds="56.15" CO_abs="1023.629588" CO2_abs="87553.047887" HC_abs="6.659381" PMx_abs="1.168318" NOx_abs="33.185023" fuel_abs="37.635630" electricity_abs="0"
            CO_normed="9.580743" CO2_normed="819.459764" HC_normed="0.062329" PMx_normed="0.010935" NOx_normed="0.310598" fuel_normed="0.352254" electricity_normed="0"
            traveltime="1.89" CO_perVeh="34.518220" CO2_perVeh="2952.411089" HC_perVeh="0.224564" PMx_perVeh="0.039397" NOx_perVeh="1.119045" fuel_perVeh="1.269126" electricity_perVeh="0"/>
        <edge id=":120_0" sampledSeconds="38.99" CO_abs="567.474526" CO2_abs="93039.262607" HC_abs="4.668281" PMx_abs="1.352776" NOx_abs="34.229165" fuel_abs="39.993487" electricity_abs="0"
            CO_normed="446.151156" CO2_normed="73147.908125" HC_normed="3.670224" PMx_normed="1.063559" NOx_normed="26.911132" fuel_normed="31.443068" electricity_normed="0"
            traveltime="0.02" CO_perVeh="0.218347" CO2_perVeh="35.798674" HC_perVeh="0.001796" PMx_perVeh="0.000521" NOx_perVeh="0.013170" fuel_perVeh="0.015388" electricity_perVeh="0"/>
        <edge id=":121_0" sampledSeconds="373.25" CO_abs="53137.464038" CO2_abs="1422151.272034" HC_abs="275.350871" PMx_abs="30.700702" NOx_abs="628.961627" fuel_abs="611.339039" electricity_abs="0"
            CO_normed="30383.218506" CO2_normed="813165.129886" HC_normed="157.441568" PMx_normed="17.554209" NOx_normed="359.630985" fuel_normed="349.554649" electricity_normed="0"
            traveltime="0.12" CO_perVeh="16.372013" CO2_perVeh="438.174443" HC_perVeh="0.084837" PMx_perVeh="0.009459" NOx_perVeh="0.193787" fuel_perVeh="0.188358" electricity_perVeh="0"/>
        <edge id=":122_0" sampledSeconds="134.86" CO_abs="1108.080812" CO2_abs="112219.069572" HC_abs="7.691462" PMx_abs="1.990197" NOx_abs="44.490117" fuel_abs="48.237781" electricity_abs="0"
            CO_normed="24.397061" CO2_normed="2470.772360" HC_normed="0.169346" PMx_normed="0.043819" NOx_normed="0.979557" fuel_normed="1.062071" electricity_normed="0"
            traveltime="0.54" CO_perVeh="4.424892" CO2_perVeh="448.123669" HC_perVeh="0.030714" PMx_perVeh="0.007947" NOx_perVeh="0.177662" fuel_perVeh="0.192628" electricity_perVeh="0"/>
        <edge id=":123_0" sampledSeconds="315.35" CO_abs="40740.276140" CO2_abs="2480770.527865" HC_abs="245.077540" PMx_abs="50.971123" NOx_abs="1064.912429" fuel_abs="1066.367970" electricity_abs="0"
            CO_normed="155.360700" CO2_normed="9460.275751" HC_normed="0.934589" PMx_normed="0.194375" NOx_normed="4.060982" fuel_normed="4.066533" electricity_normed="0"
            traveltime="4.29" CO_perVeh="554.803577" CO2_perVeh="33783.285046" HC_perVeh="3.337481" PMx_perVeh="0.694128" NOx_perVeh="14.502043" fuel_perVeh="14.521864" electricity_perVeh="0"/>
        <edge id=":123_1" sampledSeconds="0.00" CO_abs="0" CO2_abs="0" HC_abs="0" PMx_abs="0" NOx_abs="0" fuel_abs="0" electricity_abs="0"
            CO_normed="0" CO2_normed="0" HC_normed="0" PMx_normed="0" NOx_normed="0" fuel_normed="0" electricity_normed="0"/>
        <edge id=":123_2" sampledSeconds="258.39" CO_abs="34526.716475" CO2_abs="2151001.420558" HC_abs="208.959008" PMx_abs="44.457122" NOx_abs="924.018389" fuel_abs="924.614580" electricity_abs="0"
            CO_normed="132.928306" CO2_normed="8281.383323" HC_normed="0.804495" PMx_normed="0.171160" NOx_normed="3.557483" fuel_normed="3.559778" electricity_normed="0"
            traveltime="4.06" CO_perVeh="542.691135" CO2_perVeh="33809.453132" HC_perVeh="3.284419" PMx_perVeh="0.698777" NOx_perVeh="14.523727" fuel_perVeh="14.533097" electricity_perVeh="0"/>
        <edge id=":123_3" sampledSeconds="469.44" CO_abs="22771.710882" CO2_abs="2124055.421979" HC_abs="154.096618" PMx_abs="39.776894" NOx_abs="853.677112" fuel_abs="913.031581" electricity_abs="0"
            CO_normed="89.703015" CO2_normed="8367.143623" HC_normed="0.607022" PMx_normed="0.156690" NOx_normed="3.362831" fuel_normed="3.596642" electricity_normed="0"
            traveltime="2.81" CO_perVeh="136.297915" CO2_perVeh="12713.332173" HC_perVeh="0.922331" PMx_perVeh="0.238081" NOx_perVeh="5.109603" fuel_perVeh="5.464864" electricity_perVeh="0"/>
        <edge id=":123_5" sampledSeconds="0.00" CO_abs="0" CO2_abs="0" HC_abs="0" PMx_abs="0" NOx_abs="0" fuel_abs="0" electricity_abs="0"
            CO_normed="0" CO2_normed="0" HC_normed="0" PMx_normed="0" NOx_normed="0" fuel_normed="0" electricity_normed="0"/>
        <edge id=":123_6" sampledSeconds="194.48" CO_abs="9256.224150" CO2_abs="899765.527272" HC_abs="63.271941" PMx_abs="16.550117" NOx_abs="358.855083" fuel_abs="386.767079" electricity_abs="0"
            CO_normed="35.219781" CO2_normed="3423.593037" HC_normed="0.240749" PMx_normed="0.062973" NOx_normed="1.365438" fuel_normed="1.471642" electricity_normed="0"
            traveltime="2.91" CO_perVeh="138.477273" CO2_perVeh="13460.896631" HC_perVeh="0.946577" PMx_perVeh="0.247597" NOx_perVeh="5.368633" fuel_perVeh="5.786209" electricity_perVeh="0"/>
        <edge id=":124_0" sampledSeconds="118.90" CO_abs="4191.459152" CO2_abs="377022.662954" HC_abs="27.988016" PMx_abs="7.148351" NOx_abs="152.511301" fuel_abs="162.064261" electricity_abs="0"
            CO_normed="98.124417" CO2_normed="8826.312657" HC_normed="0.655215" PMx_normed="0.167347" NOx_normed="3.570375" fuel_normed="3.794016" electricity_normed="0"
            traveltime="0.46" CO_perVeh="16.292003" CO2_perVeh="1465.469233" HC_perVeh="0.108788" PMx_perVeh="0.027785" NOx_perVeh="0.592804" fuel_perVeh="0.629936" electricity_perVeh="0"/>
        <edge id=":125_0" sampledSeconds="141.50" CO_abs="5319.915777" CO2_abs="540559.287405" HC_abs="36.986815" PMx_abs="10.055128" NOx_abs="213.014613" fuel_abs="232.361097" electricity_abs="0"
            CO_normed="334.603435" CO2_normed="33999.221389" HC_normed="2.326337" PMx_normed="0.632431" NOx_normed="13.397848" fuel_normed="14.614671" electricity_normed="0"
            traveltime="0.16" CO_perVeh="6.092669" CO2_perVeh="619.079161" HC_perVeh="0.042359" PMx_perVeh="0.011516" NOx_perVeh="0.243956" fuel_perVeh="0.266113" electricity_perVeh="0"/>
        <edge id=":125_3" sampledSeconds="0.00" CO_abs="0" CO2_abs="0" HC_abs="0" PMx_abs="0" NOx_abs="0" fuel_abs="0" electricity_abs="0"
            CO_normed="0" CO2_normed="0" HC_normed="0" PMx_normed="0" NOx_normed="0" fuel_normed="0" electricity_normed="0"/>
        <edge id=":126_0" sampledSeconds="27.37" CO_abs="156.504815" CO2_abs="11381.611153" HC_abs="0.971040" PMx_abs="0.151006" NOx_abs="4.340734" fuel_abs="4.892527" electricity_abs="0"
            CO_normed="5.153710" CO2_normed="374.796921" HC_normed="0.031976" PMx_normed="0.004973" NOx_normed="0.142941" fuel_normed="0.161111" electricity_normed="0"
            traveltime="0.57" CO_perVeh="3.257330" CO2_perVeh="236.885142" HC_perVeh="0.020210" PMx_perVeh="0.003143" NOx_perVeh="0.090344" fuel_perVeh="0.101828" electricity_perVeh="0"/>
        <edge id=":126_1" sampledSeconds="80.65" CO_abs="1565.030763" CO2_abs="228916.341242" HC_abs="12.324710" PMx_abs="3.733891" NOx_abs="85.157720" fuel_abs="98.400761" electricity_abs="0"
            CO_normed="45.854705" CO2_normed="6707.146947" HC_normed="0.361109" PMx_normed="0.109401" NOx_normed="2.495083" fuel_normed="2.883099" electricity_normed="0"
            traveltime="0.35" CO_perVeh="6.772157" CO2_perVeh="990.560340" HC_perVeh="0.053331" PMx_perVeh="0.016157" NOx_perVeh="0.368492" fuel_perVeh="0.425797" electricity_perVeh="0"/>
        <edge id=":127_0" sampledSeconds="234.80" CO_abs="5529.146507" CO2_abs="694118.937714" HC_abs="41.364755" PMx_abs="11.978579" NOx_abs="263.817231" fuel_abs="298.369866" electricity_abs="0"
            CO_normed="127.854151" CO2_normed="16050.576189" HC_normed="0.956505" PMx_normed="0.276989" NOx_normed="6.100422" fuel_normed="6.899406" electricity_normed="0"
            traveltime="0.44" CO_perVeh="10.339638" CO2_perVeh="1298.019180" HC_perVeh="0.077353" PMx_perVeh="0.022400" NOx_perVeh="0.493345" fuel_perVeh="0.557959" electricity_perVeh="0"/>
        <edge id=":128_0" sampledSeconds="229.20" CO_abs="222.683581" CO2_abs="38697.475306" HC_abs="1.887681" PMx_abs="0.554896" NOx_abs="14.083383" fuel_abs="16.634355" electricity_abs="0"
            CO_normed="3.441275" CO2_normed="598.017455" HC_normed="0.029172" PMx_normed="0.008575" NOx_normed="0.217640" fuel_normed="0.257062" electricity_normed="0"
            traveltime="0.75" CO_perVeh="0.732038" CO2_perVeh="127.212074" HC_perVeh="0.006205" PMx_perVeh="0.001824" NOx_perVeh="0.046297" fuel_perVeh="0.054683" electricity_perVeh="0"/>
        <edge id=":128_1" sampledSeconds="141.42" CO_abs="153.779765" CO2_abs="19334.793672" HC_abs="1.140347" PMx_abs="0.267967" NOx_abs="7.244661" fuel_abs="8.311208" electricity_abs="0"
            CO_normed="2.454871" CO2_normed="308.651902" HC_normed="0.018204" PMx_normed="0.004278" NOx_normed="0.115650" fuel_normed="0.132676" electricity_normed="0"
            traveltime="0.85" CO_perVeh="0.921822" CO2_perVeh="115.901098" HC_perVeh="0.006836" PMx_perVeh="0.001606" NOx_perVeh="0.043428" fuel_perVeh="0.049821" electricity_perVeh="0"/>
        <edge id=":129_0" sampledSeconds="105.02" CO_abs="5574.122046" CO2_abs="500855.817635" HC_abs="37.270186" PMx_abs="9.414094" NOx_abs="202.861101" fuel_abs="215.294359" electricity_abs="0"
            CO_normed="129.848922" CO2_normed="11667.413681" HC_normed="0.868207" PMx_normed="0.219301" NOx_normed="4.725640" fuel_normed="5.015272" electricity_normed="0"
            traveltime="0.50" CO_perVeh="26.418413" CO2_perVeh="2373.793700" HC_perVeh="0.176641" PMx_perVeh="0.044618" NOx_perVeh="0.961455" fuel_perVeh="1.020382" electricity_perVeh="0"/>
        <edge id=":13_0" sampledSeconds="60.11" CO_abs="5138.946980" CO2_abs="362682.488046" HC_abs="32.071510" PMx_abs="7.061864" NOx_abs="152.334181" fuel_abs="155.900331" electricity_abs="0"
            CO_normed="36.330590" CO2_normed="2564.040645" HC_normed="0.226735" PMx_normed="0.049925" NOx_normed="1.076950" fuel_normed="1.102162" electricity_normed="0"
            traveltime="2.13" CO_perVeh="181.772814" CO2_perVeh="12828.662540" HC_perVeh="1.134421" PMx_perVeh="0.249789" NOx_perVeh="5.388305" fuel_perVeh="5.514445" electricity_perVeh="0"/>
        <edge id=":13_1" sampledSeconds="542.53" CO_abs="12967.363950" CO2_abs="979032.685148" HC_abs="81.482648" PMx_abs="13.934589" NOx_abs="378.739439" fuel_abs="420.847604" electricity_abs="0"
            CO_normed="129.186942" CO2_normed="9753.581318" HC_normed="0.811768" PMx_normed="0.138823" NOx_normed="3.773179" fuel_normed="4.192681" electricity_normed="0"
            traveltime="1.89" CO_perVeh="45.272183" CO2_perVeh="3418.038294" HC_perVeh="0.284475" PMx_perVeh="0.048649" NOx_perVeh="1.322270" fuel_perVeh="1.469280" electricity_perVeh="0"/>
        <edge id=":132_0" sampledSeconds="41.19" CO_abs="379.414469" CO2_abs="70864.345069" HC_abs="3.327620" PMx_abs="0.987348" NOx_abs="25.754379" fuel_abs="30.461493" electricity_abs="0"
            CO_normed="715.913879" CO2_normed="133713.319486" HC_normed="6.278857" PMx_normed="1.863019" NOx_normed="48.595715" fuel_normed="57.477528" electricity_normed="0"
            traveltime="6.385216e-03" CO_perVeh="0.058819" CO2_perVeh="10.985869" HC_perVeh="0.000516" PMx_perVeh="0.000153" NOx_perVeh="0.003993" fuel_perVeh="0.004722" electricity_perVeh="0"/>
        <edge id=":133_0" sampledSeconds="44.86" CO_abs="722.302083" CO2_abs="95546.024308" HC_abs="5.437482" PMx_abs="1.303196" NOx_abs="35.540117" fuel_abs="41.071194" electricity_abs="0"