<?xml version="1.0" encoding="UTF-8"?>

<!-- generated on Fri Oct  2 15:43:08 2020 by Eclipse SUMO Version 1.1.0
<configuration xmlns:xsi="http://www.w3.org/2001/XMLSchema-instance" xsi:noNamespaceSchemaLocation="http://sumo.dlr.de/xsd/sumoConfiguration.xsd">

    <input>
        <net-file value="../dataSets/Angeja_Estarreja/angeja_estarreja.net.xml"/>
        <route-files value="../results/angeja_estarreja/cost_nox-length/solution17/angeja_estarreja.rou.xml"/>
        <additional-files value="moreOutputInfo.xml"/>
    </input>

    <output>
        <emission-output.precision value="6"/>
        <tripinfo-output value="../results/angeja_estarreja/cost_nox-length/solution17/angeja_estarreja-tripinfo"/>
    </output>

    <processing>
        <collision.action value="warn"/>
        <time-to-teleport value="-1"/>
    </processing>

    <emissions>
        <device.emissions.probability value="1"/>
    </emissions>

    <gui_only>
        <quit-on-end value="true"/>
        <start value="true"/>
    </gui_only>

</configuration>
-->

<meandata xmlns:xsi="http://www.w3.org/2001/XMLSchema-instance" xsi:noNamespaceSchemaLocation="http://sumo.dlr.de/xsd/meandata_file.xsd">
    <interval begin="0.00" end="19080.00" id="emissions-detector">
        <edge id=":10_0" sampledSeconds="419.01" CO_abs="42326.846108" CO2_abs="2332499.717512" HC_abs="248.063100" PMx_abs="45.654503" NOx_abs="994.581283" fuel_abs="1002.639317" electricity_abs="0"
            CO_normed="456.615059" CO2_normed="25162.623575" HC_normed="2.676064" PMx_normed="0.492513" NOx_normed="10.729379" fuel_normed="10.816308" electricity_normed="0"
            traveltime="1.90" CO_perVeh="192.408756" CO2_perVeh="10603.043015" HC_perVeh="1.127642" PMx_perVeh="0.207536" NOx_perVeh="4.521153" fuel_perVeh="4.557783" electricity_perVeh="0"/>
        <edge id=":10_1" sampledSeconds="0.00" CO_abs="0" CO2_abs="0" HC_abs="0" PMx_abs="0" NOx_abs="0" fuel_abs="0" electricity_abs="0"
            CO_normed="0" CO2_normed="0" HC_normed="0" PMx_normed="0" NOx_normed="0" fuel_normed="0" electricity_normed="0"/>
        <edge id=":100_0" sampledSeconds="0.00" CO_abs="0" CO2_abs="0" HC_abs="0" PMx_abs="0" NOx_abs="0" fuel_abs="0" electricity_abs="0"
            CO_normed="0" CO2_normed="0" HC_normed="0" PMx_normed="0" NOx_normed="0" fuel_normed="0" electricity_normed="0"/>
        <edge id=":100_1" sampledSeconds="911.90" CO_abs="20839.792141" CO2_abs="2725173.405080" HC_abs="161.104956" PMx_abs="48.803590" NOx_abs="1011.965215" fuel_abs="1171.427493" electricity_abs="0"
            CO_normed="133.018818" CO2_normed="17394.575823" HC_normed="1.028321" PMx_normed="0.311510" NOx_normed="6.459297" fuel_normed="7.477133" electricity_normed="0"
            traveltime="1.37" CO_perVeh="31.334479" CO2_perVeh="4097.540282" HC_perVeh="0.242236" PMx_perVeh="0.073381" NOx_perVeh="1.521580" fuel_perVeh="1.761345" electricity_perVeh="0"/>
        <edge id=":101_0" sampledSeconds="438.37" CO_abs="11068.418998" CO2_abs="1356207.368353" HC_abs="83.378993" PMx_abs="24.735181" NOx_abs="508.848133" fuel_abs="582.971231" electricity_abs="0"
            CO_normed="255.615783" CO2_normed="31320.463000" HC_normed="1.925567" PMx_normed="0.571238" NOx_normed="11.751418" fuel_normed="13.463228" electricity_normed="0"
            traveltime="0.38" CO_perVeh="9.561677" CO2_perVeh="1171.587047" HC_perVeh="0.072029" PMx_perVeh="0.021368" NOx_perVeh="0.439579" fuel_perVeh="0.503611" electricity_perVeh="0"/>
        <edge id=":102_0" sampledSeconds="341.26" CO_abs="8154.551306" CO2_abs="1047744.291405" HC_abs="62.569448" PMx_abs="18.849939" NOx_abs="390.123055" fuel_abs="450.377317" electricity_abs="0"
            CO_normed="189.949949" CO2_normed="24405.876809" HC_normed="1.457476" PMx_normed="0.439085" NOx_normed="9.087423" fuel_normed="10.490969" electricity_normed="0"
            traveltime="0.38" CO_perVeh="8.970721" CO2_perVeh="1152.610502" HC_perVeh="0.068832" PMx_perVeh="0.020737" NOx_perVeh="0.429170" fuel_perVeh="0.495455" electricity_perVeh="0"/>
        <edge id=":103_0" sampledSeconds="434.57" CO_abs="9783.921659" CO2_abs="1253377.634689" HC_abs="74.990858" PMx_abs="22.570996" NOx_abs="466.893340" fuel_abs="538.769667" electricity_abs="0"
            CO_normed="229.319622" CO2_normed="29377.185859" HC_normed="1.757667" PMx_normed="0.529028" NOx_normed="10.943240" fuel_normed="12.627907" electricity_normed="0"
            traveltime="0.37" CO_perVeh="8.405969" CO2_perVeh="1076.853863" HC_perVeh="0.064429" PMx_perVeh="0.019392" NOx_perVeh="0.401137" fuel_perVeh="0.462890" electricity_perVeh="0"/>
        <edge id=":104_0" sampledSeconds="340.97" CO_abs="8745.625752" CO2_abs="1049416.320128" HC_abs="65.345944" PMx_abs="19.255956" NOx_abs="395.094951" fuel_abs="451.095770" electricity_abs="0"
            CO_normed="203.970095" CO2_normed="24475.040701" HC_normed="1.524033" PMx_normed="0.449098" NOx_normed="9.214613" fuel_normed="10.520693" electricity_normed="0"
            traveltime="0.37" CO_perVeh="9.616560" CO2_perVeh="1153.922628" HC_perVeh="0.071853" PMx_perVeh="0.021174" NOx_perVeh="0.434441" fuel_perVeh="0.496018" electricity_perVeh="0"/>
        <edge id=":105_0" sampledSeconds="168.51" CO_abs="4099.970024" CO2_abs="512068.763092" HC_abs="31.119704" PMx_abs="9.289172" NOx_abs="191.527987" fuel_abs="220.114870" electricity_abs="0"
            CO_normed="3516.269317" CO2_normed="439167.035241" HC_normed="26.689283" PMx_normed="7.966700" NOx_normed="164.260710" fuel_normed="188.777762" electricity_normed="0"
            traveltime="0.01" CO_perVeh="0.247934" CO2_perVeh="30.965885" HC_perVeh="0.001882" PMx_perVeh="0.000562" NOx_perVeh="0.011582" fuel_perVeh="0.013311" electricity_perVeh="0"/>
        <edge id=":106_0" sampledSeconds="134.49" CO_abs="3257.041443" CO2_abs="395298.019117" HC_abs="24.444382" PMx_abs="7.229179" NOx_abs="148.555863" fuel_abs="169.920439" electricity_abs="0"
            CO_normed="1982.374585" CO2_normed="240595.264222" HC_normed="14.877895" PMx_normed="4.399987" NOx_normed="90.417446" fuel_normed="103.420840" electricity_normed="0"
            traveltime="0.01" CO_perVeh="0.348243" CO2_perVeh="42.265275" HC_perVeh="0.002614" PMx_perVeh="0.000773" NOx_perVeh="0.015884" fuel_perVeh="0.018168" electricity_perVeh="0"/>
        <edge id=":107_0" sampledSeconds="438.22" CO_abs="11455.960645" CO2_abs="1393211.692330" HC_abs="86.004914" PMx_abs="25.455776" NOx_abs="523.399983" fuel_abs="598.877646" electricity_abs="0"
            CO_normed="264.565729" CO2_normed="32175.046589" HC_normed="1.986211" PMx_normed="0.587880" NOx_normed="12.087480" fuel_normed="13.830573" electricity_normed="0"
            traveltime="0.38" CO_perVeh="9.896467" CO2_perVeh="1203.554539" HC_perVeh="0.074297" PMx_perVeh="0.021990" NOx_perVeh="0.452150" fuel_perVeh="0.517353" electricity_perVeh="0"/>
        <edge id=":108_0" sampledSeconds="93.73" CO_abs="8081.306316" CO2_abs="591419.676151" HC_abs="51.021484" PMx_abs="11.850399" NOx_abs="249.188054" fuel_abs="254.223184" electricity_abs="0"
            CO_normed="126.747695" CO2_normed="9275.861857" HC_normed="0.800224" PMx_normed="0.185862" NOx_normed="3.908280" fuel_normed="3.987252" electricity_normed="0"
            traveltime="0.85" CO_perVeh="73.539027" CO2_perVeh="5381.856058" HC_perVeh="0.464290" PMx_perVeh="0.107837" NOx_perVeh="2.267585" fuel_perVeh="2.313404" electricity_perVeh="0"/>
        <edge id=":108_1" sampledSeconds="402.85" CO_abs="10181.795674" CO2_abs="1228259.085610" HC_abs="76.230010" PMx_abs="22.496546" NOx_abs="462.158197" fuel_abs="527.972059" electricity_abs="0"
            CO_normed="148.921979" CO2_normed="17964.883510" HC_normed="1.114963" PMx_normed="0.329041" NOx_normed="6.759664" fuel_normed="7.722277" electricity_normed="0"
            traveltime="0.60" CO_perVeh="15.125310" CO2_perVeh="1824.609296" HC_perVeh="0.113242" PMx_perVeh="0.033419" NOx_perVeh="0.686547" fuel_perVeh="0.784316" electricity_perVeh="0"/>
        <edge id=":109_0" sampledSeconds="307.70" CO_abs="100.882838" CO2_abs="17157.817970" HC_abs="0.851241" PMx_abs="0.218044" NOx_abs="6.202235" fuel_abs="7.375429" electricity_abs="0"
            CO_normed="1.516693" CO2_normed="257.954115" HC_normed="0.012798" PMx_normed="0.003278" NOx_normed="0.093246" fuel_normed="0.110884" electricity_normed="0"
            traveltime="0.86" CO_perVeh="0.280398" CO2_perVeh="47.689105" HC_perVeh="0.002366" PMx_perVeh="0.000606" NOx_perVeh="0.017239" fuel_perVeh="0.020500" electricity_perVeh="0"/>
        <edge id=":109_1" sampledSeconds="524.31" CO_abs="12017.041125" CO2_abs="1535794.224901" HC_abs="91.949876" PMx_abs="27.666963" NOx_abs="572.153087" fuel_abs="660.167627" electricity_abs="0"
            CO_normed="117.846479" CO2_normed="15060.940502" HC_normed="0.901717" PMx_normed="0.271319" NOx_normed="5.610884" fuel_normed="6.474009" electricity_normed="0"
            traveltime="0.89" CO_perVeh="20.462192" CO2_perVeh="2615.096006" HC_perVeh="0.156569" PMx_perVeh="0.047110" NOx_perVeh="0.974242" fuel_perVeh="1.124110" electricity_perVeh="0"/>
        <edge id=":11_0" sampledSeconds="299.42" CO_abs="18263.078799" CO2_abs="1306433.681886" HC_abs="114.051779" PMx_abs="23.681177" NOx_abs="538.247169" fuel_abs="561.577452" electricity_abs="0"
            CO_normed="188.814462" CO2_normed="13506.680609" HC_normed="1.179134" PMx_normed="0.244830" NOx_normed="5.564716" fuel_normed="5.805918" electricity_normed="0"
            traveltime="1.59" CO_perVeh="97.257423" CO2_perVeh="6957.226348" HC_perVeh="0.607366" PMx_perVeh="0.126111" NOx_perVeh="2.866359" fuel_perVeh="2.990601" electricity_perVeh="0"/>
        <edge id=":11_1" sampledSeconds="51.05" CO_abs="936.312542" CO2_abs="81790.766859" HC_abs="6.134795" PMx_abs="1.109744" NOx_abs="31.093905" fuel_abs="35.158608" electricity_abs="0"
            CO_normed="9.924873" CO2_normed="866.978661" HC_normed="0.065029" PMx_normed="0.011763" NOx_normed="0.329594" fuel_normed="0.372680" electricity_normed="0"
            traveltime="1.68" CO_perVeh="30.795202" CO2_perVeh="2690.088045" HC_perVeh="0.201773" PMx_perVeh="0.036499" NOx_perVeh="1.022675" fuel_perVeh="1.156362" electricity_perVeh="0"/>
        <edge id=":110_0" sampledSeconds="94.65" CO_abs="0" CO2_abs="0" HC_abs="0" PMx_abs="0" NOx_abs="0" fuel_abs="0" electricity_abs="0"
            CO_normed="0" CO2_normed="0" HC_normed="0" PMx_normed="0" NOx_normed="0" fuel_normed="0" electricity_normed="0"
            traveltime="0.93" CO_perVeh="0" CO2_perVeh="0" HC_perVeh="0" PMx_perVeh="0" NOx_perVeh="0" fuel_perVeh="0" electricity_perVeh="0"/>
        <edge id=":110_1" sampledSeconds="443.58" CO_abs="11287.964549" CO2_abs="1377199.183176" HC_abs="84.885766" PMx_abs="25.148137" NOx_abs="517.085236" fuel_abs="591.994624" electricity_abs="0"
            CO_normed="144.884669" CO2_normed="17676.796087" HC_normed="1.089536" PMx_normed="0.322784" NOx_normed="6.636956" fuel_normed="7.598442" electricity_normed="0"
            traveltime="0.68" CO_perVeh="17.340016" CO2_perVeh="2115.585693" HC_perVeh="0.130397" PMx_perVeh="0.038631" NOx_perVeh="0.794321" fuel_perVeh="0.909393" electricity_perVeh="0"/>
        <edge id=":111_0" sampledSeconds="340.68" CO_abs="7904.551353" CO2_abs="1018378.649979" HC_abs="60.753321" PMx_abs="18.317549" NOx_abs="378.973311" fuel_abs="437.754386" electricity_abs="0"
            CO_normed="182.548933" CO2_normed="23518.594258" HC_normed="1.403047" PMx_normed="0.423028" NOx_normed="8.752068" fuel_normed="10.109568" electricity_normed="0"
            traveltime="0.38" CO_perVeh="8.784702" CO2_perVeh="1131.772360" HC_perVeh="0.067518" PMx_perVeh="0.020357" NOx_perVeh="0.421171" fuel_perVeh="0.486497" electricity_perVeh="0"/>
        <edge id=":114_0" sampledSeconds="107.16" CO_abs="10831.368990" CO2_abs="770005.543313" HC_abs="67.879010" PMx_abs="15.754969" NOx_abs="326.909795" fuel_abs="330.988479" electricity_abs="0"
            CO_normed="143.919333" CO2_normed="10231.272167" HC_normed="0.901927" PMx_normed="0.209341" NOx_normed="4.343739" fuel_normed="4.397934" electricity_normed="0"
            traveltime="0.99" CO_perVeh="100.202247" CO2_perVeh="7123.410349" HC_perVeh="0.627957" PMx_perVeh="0.145751" NOx_perVeh="3.024280" fuel_perVeh="3.062013" electricity_perVeh="0"/>
        <edge id=":114_1" sampledSeconds="415.95" CO_abs="11197.912782" CO2_abs="1349019.334063" HC_abs="83.737072" PMx_abs="24.705782" NOx_abs="507.698710" fuel_abs="579.881327" electricity_abs="0"
            CO_normed="147.852605" CO2_normed="17811.892920" HC_normed="1.105630" PMx_normed="0.326205" NOx_normed="6.703444" fuel_normed="7.656513" electricity_normed="0"
            traveltime="0.66" CO_perVeh="17.843569" CO2_perVeh="2149.625590" HC_perVeh="0.133433" PMx_perVeh="0.039368" NOx_perVeh="0.809004" fuel_perVeh="0.924025" electricity_perVeh="0"/>
        <edge id=":115_0" sampledSeconds="80.03" CO_abs="160.197407" CO2_abs="17539.815313" HC_abs="1.135836" PMx_abs="0.252178" NOx_abs="6.676483" fuel_abs="7.539623" electricity_abs="0"
            CO_normed="3.619871" CO2_normed="396.335223" HC_normed="0.025666" PMx_normed="0.005698" NOx_normed="0.150864" fuel_normed="0.170368" electricity_normed="0"
            traveltime="0.63" CO_perVeh="1.260624" CO2_perVeh="138.024180" HC_perVeh="0.008938" PMx_perVeh="0.001984" NOx_perVeh="0.052539" fuel_perVeh="0.059331" electricity_perVeh="0"/>
        <edge id=":115_1" sampledSeconds="72.23" CO_abs="1172.776555" CO2_abs="177178.654848" HC_abs="9.320054" PMx_abs="2.632698" NOx_abs="65.849839" fuel_abs="76.161273" electricity_abs="0"
            CO_normed="23.666160" CO2_normed="3575.394104" HC_normed="0.188075" PMx_normed="0.053127" NOx_normed="1.328823" fuel_normed="1.536904" electricity_normed="0"
            traveltime="0.59" CO_perVeh="9.601139" CO2_perVeh="1450.503829" HC_perVeh="0.076300" PMx_perVeh="0.021553" NOx_perVeh="0.539091" fuel_perVeh="0.623507" electricity_perVeh="0"/>
        <edge id=":116_0" sampledSeconds="74.85" CO_abs="101.780600" CO2_abs="12638.362347" HC_abs="0.754836" PMx_abs="0.169650" NOx_abs="4.709103" fuel_abs="5.432706" electricity_abs="0"
            CO_normed="2.567365" CO2_normed="318.796346" HC_normed="0.019040" PMx_normed="0.004279" NOx_normed="0.118785" fuel_normed="0.137037" electricity_normed="0"
            traveltime="0.57" CO_perVeh="0.768520" CO2_perVeh="95.429121" HC_perVeh="0.005700" PMx_perVeh="0.001281" NOx_perVeh="0.035557" fuel_perVeh="0.041021" electricity_perVeh="0"/>
        <edge id=":117_0" sampledSeconds="239.28" CO_abs="13625.043679" CO2_abs="1120314.648538" HC_abs="88.683703" PMx_abs="20.660231" NOx_abs="458.198011" fuel_abs="481.571493" electricity_abs="0"
            CO_normed="307.875803" CO2_normed="25314.984714" HC_normed="2.003925" PMx_normed="0.466845" NOx_normed="10.353587" fuel_normed="10.881742" electricity_normed="0"
            traveltime="0.60" CO_perVeh="34.416252" CO2_perVeh="2829.864803" HC_perVeh="0.224011" PMx_perVeh="0.052187" NOx_perVeh="1.157388" fuel_perVeh="1.216428" electricity_perVeh="0"/>
        <edge id=":117_1" sampledSeconds="76.15" CO_abs="4647.967599" CO2_abs="379050.831757" HC_abs="30.201908" PMx_abs="7.028542" NOx_abs="155.369442" fuel_abs="162.936403" electricity_abs="0"
            CO_normed="98.981379" CO2_normed="8072.124702" HC_normed="0.643169" PMx_normed="0.149677" NOx_normed="3.308690" fuel_normed="3.469833" electricity_normed="0"
            traveltime="0.64" CO_perVeh="39.295965" CO2_perVeh="3204.662700" HC_perVeh="0.255340" PMx_perVeh="0.059422" NOx_perVeh="1.313562" fuel_perVeh="1.377536" electricity_perVeh="0"/>
        <edge id=":118_0" sampledSeconds="897.49" CO_abs="12770.653560" CO2_abs="2051770.471008" HC_abs="103.937025" PMx_abs="30.041871" NOx_abs="757.047243" fuel_abs="881.965653" electricity_abs="0"
            CO_normed="38.745092" CO2_normed="6224.899565" HC_normed="0.315336" PMx_normed="0.091145" NOx_normed="2.296818" fuel_normed="2.675810" electricity_normed="0"
            traveltime="3.91" CO_perVeh="55.701690" CO2_perVeh="8949.196014" HC_perVeh="0.453342" PMx_perVeh="0.131033" NOx_perVeh="3.302009" fuel_perVeh="3.846865" electricity_perVeh="0"/>
        <edge id=":118_4" sampledSeconds="282.97" CO_abs="3500.490264" CO2_abs="577645.543066" HC_abs="28.934022" PMx_abs="8.348735" NOx_abs="212.267637" fuel_abs="248.304473" electricity_abs="0"
            CO_normed="10.640726" CO2_normed="1755.916306" HC_normed="0.087953" PMx_normed="0.025378" NOx_normed="0.645247" fuel_normed="0.754791" electricity_normed="0"
            traveltime="3.92" CO_perVeh="48.532129" CO2_perVeh="8008.697650" HC_perVeh="0.401152" PMx_perVeh="0.115750" NOx_perVeh="2.942959" fuel_perVeh="3.442588" electricity_perVeh="0"/>
        <edge id=":118_5" sampledSeconds="238.19" CO_abs="3931.450937" CO2_abs="566556.346577" HC_abs="30.603438" PMx_abs="8.717993" NOx_abs="212.259196" fuel_abs="243.537241" electricity_abs="0"
            CO_normed="12.069365" CO2_normed="1739.300747" HC_normed="0.093951" PMx_normed="0.026764" NOx_normed="0.651626" fuel_normed="0.747648" electricity_normed="0"
            traveltime="3.81" CO_perVeh="62.920742" CO2_perVeh="9067.427324" HC_perVeh="0.489791" PMx_perVeh="0.139527" NOx_perVeh="3.397093" fuel_perVeh="3.897682" electricity_perVeh="0"/>
        <edge id=":119_0" sampledSeconds="139.08" CO_abs="2200.057083" CO2_abs="330838.020638" HC_abs="17.614290" PMx_abs="4.999914" NOx_abs="123.452313" fuel_abs="142.212557" electricity_abs="0"
            CO_normed="47.171035" CO2_normed="7093.439551" HC_normed="0.377665" PMx_normed="0.107202" NOx_normed="2.646919" fuel_normed="3.049154" electricity_normed="0"
            traveltime="0.56" CO_perVeh="8.819873" CO2_perVeh="1326.306128" HC_perVeh="0.070614" PMx_perVeh="0.020044" NOx_perVeh="0.494912" fuel_perVeh="0.570120" electricity_perVeh="0"/>
        <edge id=":12_0" sampledSeconds="601.47" CO_abs="53392.209863" CO2_abs="3027156.675096" HC_abs="314.926423" PMx_abs="58.903345" NOx_abs="1287.236677" fuel_abs="1301.241221" electricity_abs="0"
            CO_normed="500.198702" CO2_normed="28359.564886" HC_normed="2.950352" PMx_normed="0.551829" NOx_normed="12.059327" fuel_normed="12.190527" electricity_normed="0"
            traveltime="2.13" CO_perVeh="188.745923" CO2_perVeh="10701.251779" HC_perVeh="1.113291" PMx_perVeh="0.208228" NOx_perVeh="4.550489" fuel_perVeh="4.599996" electricity_perVeh="0"/>
        <edge id=":12_1" sampledSeconds="56.34" CO_abs="953.536010" CO2_abs="81715.485769" HC_abs="6.201984" PMx_abs="1.065260" NOx_abs="30.822656" fuel_abs="35.126326" electricity_abs="0"
            CO_normed="8.924229" CO2_normed="764.782549" HC_normed="0.058045" PMx_normed="0.009970" NOx_normed="0.288472" fuel_normed="0.328750" electricity_normed="0"
            traveltime="1.90" CO_perVeh="32.154566" CO2_perVeh="2755.560339" HC_perVeh="0.209140" PMx_perVeh="0.035922" NOx_perVeh="1.039383" fuel_perVeh="1.184509" electricity_perVeh="0"/>
        <edge id=":120_0" sampledSeconds="39.12" CO_abs="493.663477" CO2_abs="78313.577373" HC_abs="3.988803" PMx_abs="1.153903" NOx_abs="28.903671" fuel_abs="33.663550" electricity_abs="0"
            CO_normed="388.100218" CO2_normed="61567.277809" HC_normed="3.135852" PMx_normed="0.907156" NOx_normed="22.723012" fuel_normed="26.465055" electricity_normed="0"
            traveltime="0.02" CO_perVeh="0.189947" CO2_perVeh="30.132679" HC_perVeh="0.001535" PMx_perVeh="0.000444" NOx_perVeh="0.011121" fuel_perVeh="0.012953" electricity_perVeh="0"/>
        <edge id=":121_0" sampledSeconds="378.08" CO_abs="53797.044549" CO2_abs="1430257.653457" HC_abs="278.536232" PMx_abs="30.885823" NOx_abs="632.572590" fuel_abs="614.824017" electricity_abs="0"
            CO_normed="30758.744739" CO2_normed="817757.377620" HC_normed="159.254563" PMx_normed="17.659133" NOx_normed="361.676724" fuel_normed="351.528883" electricity_normed="0"
            traveltime="0.12" CO_perVeh="16.549249" CO2_perVeh="439.981240" HC_perVeh="0.085684" PMx_perVeh="0.009501" NOx_perVeh="0.194594" fuel_perVeh="0.189134" electricity_perVeh="0"/>
        <edge id=":122_0" sampledSeconds="134.59" CO_abs="1091.233119" CO2_abs="111619.377705" HC_abs="7.582589" PMx_abs="1.969242" NOx_abs="44.120979" fuel_abs="47.980011" electricity_abs="0"
            CO_normed="24.024859" CO2_normed="2457.439900" HC_normed="0.166940" PMx_normed="0.043355" NOx_normed="0.971378" fuel_normed="1.056340" electricity_normed="0"
            traveltime="0.54" CO_perVeh="4.366453" CO2_perVeh="446.633024" HC_perVeh="0.030341" PMx_perVeh="0.007880" NOx_perVeh="0.176545" fuel_perVeh="0.191987" electricity_perVeh="0"/>
        <edge id=":123_0" sampledSeconds="314.69" CO_abs="40908.141432" CO2_abs="2490240.575844" HC_abs="246.077663" PMx_abs="51.241796" NOx_abs="1069.462295" fuel_abs="1070.438597" electricity_abs="0"
            CO_normed="155.992669" CO2_normed="9495.891520" HC_normed="0.938354" PMx_normed="0.195397" NOx_normed="4.078119" fuel_normed="4.081842" electricity_normed="0"
            traveltime="4.29" CO_perVeh="557.089576" CO2_perVeh="33912.248740" HC_perVeh="3.351101" PMx_perVeh="0.697814" NOx_perVeh="14.564003" fuel_perVeh="14.577298" electricity_perVeh="0"/>
        <edge id=":123_1" sampledSeconds="0.00" CO_abs="0" CO2_abs="0" HC_abs="0" PMx_abs="0" NOx_abs="0" fuel_abs="0" electricity_abs="0"
            CO_normed="0" CO2_normed="0" HC_normed="0" PMx_normed="0" NOx_normed="0" fuel_normed="0" electricity_normed="0"/>
        <edge id=":123_2" sampledSeconds="256.85" CO_abs="34223.144467" CO2_abs="2141795.588126" HC_abs="207.357926" PMx_abs="44.242884" NOx_abs="919.741186" fuel_abs="920.657345" electricity_abs="0"
            CO_normed="131.752644" CO2_normed="8245.508572" HC_normed="0.798289" PMx_normed="0.170327" NOx_normed="3.540830" fuel_normed="3.544357" electricity_normed="0"
            traveltime="4.04" CO_perVeh="537.919588" CO2_perVeh="33664.755803" HC_perVeh="3.259253" PMx_perVeh="0.695410" NOx_perVeh="14.456497" fuel_perVeh="14.470898" electricity_perVeh="0"/>
        <edge id=":123_3" sampledSeconds="469.25" CO_abs="21881.276410" CO2_abs="2110389.764386" HC_abs="149.790965" PMx_abs="39.009567" NOx_abs="843.209524" fuel_abs="907.157700" electricity_abs="0"
            CO_normed="86.190871" CO2_normed="8312.875741" HC_normed="0.590030" PMx_normed="0.153660" NOx_normed="3.321422" fuel_normed="3.573316" electricity_normed="0"
            traveltime="2.81" CO_perVeh="130.968327" CO2_perVeh="12631.539936" HC_perVeh="0.896560" PMx_perVeh="0.233488" NOx_perVeh="5.046951" fuel_perVeh="5.429707" electricity_perVeh="0"/>
        <edge id=":123_5" sampledSeconds="0.00" CO_abs="0" CO2_abs="0" HC_abs="0" PMx_abs="0" NOx_abs="0" fuel_abs="0" electricity_abs="0"
            CO_normed="0" CO2_normed="0" HC_normed="0" PMx_normed="0" NOx_normed="0" fuel_normed="0" electricity_normed="0"/>
        <edge id=":123_6" sampledSeconds="194.96" CO_abs="9065.447481" CO2_abs="877910.930270" HC_abs="61.997531" PMx_abs="16.163102" NOx_abs="350.498720" fuel_abs="377.372811" electricity_abs="0"
            CO_normed="34.492071" CO2_normed="3340.261580" HC_normed="0.235887" PMx_normed="0.061497" NOx_normed="1.333572" fuel_normed="1.435822" electricity_normed="0"
            traveltime="2.92" CO_perVeh="135.623168" CO2_perVeh="13133.942038" HC_perVeh="0.927511" PMx_perVeh="0.241807" NOx_perVeh="5.243618" fuel_perVeh="5.645667" electricity_perVeh="0"/>
        <edge id=":124_0" sampledSeconds="118.78" CO_abs="4062.515748" CO2_abs="365866.368284" HC_abs="27.158363" PMx_abs="6.935726" NOx_abs="147.976095" fuel_abs="157.268699" electricity_abs="0"
            CO_normed="95.100795" CO2_normed="8564.688616" HC_normed="0.635759" PMx_normed="0.162361" NOx_normed="3.464022" fuel_normed="3.681556" electricity_normed="0"
            traveltime="0.46" CO_perVeh="15.803393" CO2_perVeh="1423.238819" HC_perVeh="0.105647" PMx_perVeh="0.026980" NOx_perVeh="0.575635" fuel_perVeh="0.611783" electricity_perVeh="0"/>
        <edge id=":125_0" sampledSeconds="141.29" CO_abs="5280.579279" CO2_abs="545855.950673" HC_abs="36.864562" PMx_abs="10.073366" NOx_abs="214.335787" fuel_abs="234.637944" electricity_abs="0"
            CO_normed="332.111904" CO2_normed="34330.562935" HC_normed="2.318526" PMx_normed="0.633545" NOx_normed="13.480238" fuel_normed="14.757103" electricity_normed="0"
            traveltime="0.16" CO_perVeh="6.047619" CO2_perVeh="625.145200" HC_perVeh="0.042219" PMx_perVeh="0.011537" NOx_perVeh="0.245470" fuel_perVeh="0.268721" electricity_perVeh="0"/>
        <edge id=":125_3" sampledSeconds="0.00" CO_abs="0" CO2_abs="0" HC_abs="0" PMx_abs="0" NOx_abs="0" fuel_abs="0" electricity_abs="0"
            CO_normed="0" CO2_normed="0" HC_normed="0" PMx_normed="0" NOx_normed="0" fuel_normed="0" electricity_normed="0"/>
        <edge id=":126_0" sampledSeconds="27.07" CO_abs="132.392869" CO2_abs="9680.243286" HC_abs="0.826043" PMx_abs="0.145699" NOx_abs="3.798816" fuel_abs="4.161147" electricity_abs="0"
            CO_normed="4.359474" CO2_normed="318.754101" HC_normed="0.027200" PMx_normed="0.004798" NOx_normed="0.125089" fuel_normed="0.137020" electricity_normed="0"
            traveltime="0.57" CO_perVeh="2.777628" CO2_perVeh="203.093343" HC_perVeh="0.017331" PMx_perVeh="0.003057" NOx_perVeh="0.079700" fuel_perVeh="0.087302" electricity_perVeh="0"/>
        <edge id=":126_1" sampledSeconds="80.96" CO_abs="1180.295902" CO2_abs="197749.265705" HC_abs="9.850029" PMx_abs="3.100170" NOx_abs="72.336293" fuel_abs="85.003535" electricity_abs="0"
            CO_normed="34.580332" CO2_normed="5793.661834" HC_normed="0.288586" PMx_normed="0.090829" NOx_normed="2.119310" fuel_normed="2.490435" electricity_normed="0"
            traveltime="0.35" CO_perVeh="5.107343" CO2_perVeh="855.695049" HC_perVeh="0.042623" PMx_perVeh="0.013415" NOx_perVeh="0.313012" fuel_perVeh="0.367825" electricity_perVeh="0"/>
        <edge id=":127_0" sampledSeconds="234.56" CO_abs="4749.314200" CO2_abs="642051.074248" HC_abs="36.292145" PMx_abs="10.744621" NOx_abs="241.118971" fuel_abs="275.988509" electricity_abs="0"
            CO_normed="109.815811" CO2_normed="14845.798054" HC_normed="0.839164" PMx_normed="0.248442" NOx_normed="5.575263" fuel_normed="6.381532" electricity_normed="0"
            traveltime="0.44" CO_perVeh="8.881332" CO2_perVeh="1200.651017" HC_perVeh="0.067867" PMx_perVeh="0.020093" NOx_perVeh="0.450898" fuel_perVeh="0.516105" electricity_perVeh="0"/>
        <edge id=":128_0" sampledSeconds="229.67" CO_abs="395.779442" CO2_abs="55821.445759" HC_abs="3.051710" PMx_abs="0.861967" NOx_abs="20.836659" fuel_abs="23.995156" electricity_abs="0"
            CO_normed="6.115919" CO2_normed="862.600185" HC_normed="0.047158" PMx_normed="0.013320" NOx_normed="0.321986" fuel_normed="0.370793" electricity_normed="0"
            traveltime="0.76" CO_perVeh="1.301065" CO2_perVeh="183.504527" HC_perVeh="0.010032" PMx_perVeh="0.002834" NOx_perVeh="0.068497" fuel_perVeh="0.078880" electricity_perVeh="0"/>
        <edge id=":128_1" sampledSeconds="142.58" CO_abs="243.105369" CO2_abs="28070.260621" HC_abs="1.740780" PMx_abs="0.408413" NOx_abs="10.664971" fuel_abs="12.066199" electricity_abs="0"
            CO_normed="3.880621" CO2_normed="448.077461" HC_normed="0.027788" PMx_normed="0.006519" NOx_normed="0.170242" fuel_normed="0.192609" electricity_normed="0"
            traveltime="0.85" CO_perVeh="1.457278" CO2_perVeh="168.265256" HC_perVeh="0.010435" PMx_perVeh="0.002448" NOx_perVeh="0.063930" fuel_perVeh="0.072330" electricity_perVeh="0"/>
        <edge id=":129_0" sampledSeconds="105.82" CO_abs="4954.427523" CO2_abs="460770.483444" HC_abs="33.481694" PMx_abs="8.505983" NOx_abs="185.438808" fuel_abs="198.063668" electricity_abs="0"
            CO_normed="115.407117" CO2_normed="10733.065070" HC_normed="0.779914" PMx_normed="0.198136" NOx_normed="4.319562" fuel_normed="4.613642" electricity_normed="0"
            traveltime="0.50" CO_perVeh="23.481386" CO2_perVeh="2183.810255" HC_perVeh="0.158686" PMx_perVeh="0.040314" NOx_perVeh="0.878883" fuel_perVeh="0.938718" electricity_perVeh="0"/>
        <edge id=":13_0" sampledSeconds="59.86" CO_abs="5259.448375" CO2_abs="371606.959115" HC_abs="32.839649" PMx_abs="7.264215" NOx_abs="156.243088" fuel_abs="159.736500" electricity_abs="0"
            CO_normed="37.180545" CO2_normed="2626.995901" HC_normed="0.232153" PMx_normed="0.051353" NOx_normed="1.104527" fuel_normed="1.129223" electricity_normed="0"
            traveltime="2.12" CO_perVeh="186.035143" CO2_perVeh="13144.335426" HC_perVeh="1.161591" PMx_perVeh="0.256947" NOx_perVeh="5.526569" fuel_perVeh="5.650137" electricity_perVeh="0"/>
        <edge id=":13_1" sampledSeconds="545.88" CO_abs="12650.311886" CO2_abs="959311.905063" HC_abs="79.556023" PMx_abs="13.482037" NOx_abs="369.970206" fuel_abs="412.370635" electricity_abs="0"
            CO_normed="126.021716" CO2_normed="9556.612790" HC_normed="0.792533" PMx_normed="0.134307" NOx_normed="3.685623" fuel_normed="4.108014" electricity_normed="0"
            traveltime="1.91" CO_perVeh="44.165247" CO2_perVeh="3349.185989" HC_perVeh="0.277749" PMx_perVeh="0.047069" NOx_perVeh="1.291654" fuel_perVeh="1.439684" electricity_perVeh="0"/>
        <edge id=":132_0" sampledSeconds="41.12" CO_abs="501.749796" CO2_abs="82120.911559" HC_abs="4.131520" PMx_abs="1.190342" NOx_abs="30.282052" fuel_abs="35.300166" electricity_abs="0"
            CO_normed="946.697728" CO2_normed="154945.116149" HC_normed="7.795322" PMx_normed="2.245929" NOx_normed="57.135948" fuel_normed="66.604087" electricity_normed="0"
            traveltime="6.374750e-03" CO_perVeh="0.077785" CO2_perVeh="12.730937" HC_perVeh="0.000640" PMx_perVeh="0.000185" NOx_perVeh="0.004695" fuel_perVeh="0.005472" electricity_perVeh="0"/>
        <edge id=":133_0" sampledSeconds="44.76" CO_abs="646.141449" CO2_abs="87716.954214" HC_abs="4.908165" PMx_abs="1.169339" NOx_abs="32.451686" fuel_abs="37.705835" electricity_abs="0"