<?xml version="1.0" encoding="UTF-8"?>

<!-- generated on Mon Nov  9 23:13:00 2020 by Eclipse SUMO sumo Version 1.7.0
<configuration xmlns:xsi="http://www.w3.org/2001/XMLSchema-instance" xsi:noNamespaceSchemaLocation="http://sumo.dlr.de/xsd/sumoConfiguration.xsd">

    <input>
        <net-file value="../dataSets/Porto/6AM7AM_Routing_SaoBento/Porto.net.xml"/>
        <route-files value="../results/Porto/6AM7AM_Routing_SaoBento/cost_co2-length/solution11/Porto.rou.xml"/>
        <additional-files value="moreOutputInfo.xml"/>
    </input>

    <output>
        <emission-output.precision value="6"/>
        <tripinfo-output value="../results/Porto/6AM7AM_Routing_SaoBento/cost_co2-length/solution11/Porto-tripinfo"/>
    </output>

    <processing>
        <collision.action value="warn"/>
        <time-to-teleport value="-1"/>
    </processing>

    <emissions>
        <device.emissions.probability value="1"/>
    </emissions>

    <gui_only>
        <quit-on-end value="true"/>
        <start value="true"/>
    </gui_only>

</configuration>
-->

<meandata xmlns:xsi="http://www.w3.org/2001/XMLSchema-instance" xsi:noNamespaceSchemaLocation="http://sumo.dlr.de/xsd/meandata_file.xsd">
    <interval begin="0.00" end="4699.00" id="emissions-detector">
        <edge id=":1092997347_0" sampledSeconds="266.61" CO_abs="34392.295912" CO2_abs="1365827.997612" HC_abs="188.891230" PMx_abs="27.923061" NOx_abs="593.228730" fuel_abs="587.115621" electricity_abs="0"
            CO_normed="59883.275593" CO2_normed="2378156.276675" HC_normed="328.894170" PMx_normed="48.619155" NOx_normed="1032.919687" fuel_normed="1022.275646" electricity_normed="0"
            traveltime="0.07" CO_perVeh="9.654734" CO2_perVeh="383.420331" HC_perVeh="0.053026" PMx_perVeh="0.007839" NOx_perVeh="0.166533" fuel_perVeh="0.164817" electricity_perVeh="0"/>
        <edge id=":1103427051_0" sampledSeconds="11.12" CO_abs="812.976446" CO2_abs="45962.944187" HC_abs="4.791626" PMx_abs="0.893180" NOx_abs="19.551623" fuel_abs="19.757446" electricity_abs="0"
            CO_normed="2147.716833" CO2_normed="121424.660474" HC_normed="12.658491" PMx_normed="2.359598" NOx_normed="51.651374" fuel_normed="52.195115" electricity_normed="0"
            traveltime="0.03" CO_perVeh="2.227543" CO2_perVeh="125.937772" HC_perVeh="0.013129" PMx_perVeh="0.002447" NOx_perVeh="0.053571" fuel_perVeh="0.054135" electricity_perVeh="0"/>
        <edge id=":1105984386_0" sampledSeconds="23.14" CO_abs="370.659588" CO2_abs="30210.278459" HC_abs="2.368330" PMx_abs="0.362569" NOx_abs="11.229426" fuel_abs="12.986289" electricity_abs="0"
            CO_normed="29.245097" CO2_normed="2383.595485" HC_normed="0.186862" PMx_normed="0.028607" NOx_normed="0.886003" fuel_normed="1.024620" electricity_normed="0"
            traveltime="0.97" CO_perVeh="15.556296" CO2_perVeh="1267.901988" HC_perVeh="0.099397" PMx_perVeh="0.015217" NOx_perVeh="0.471290" fuel_perVeh="0.545025" electricity_perVeh="0"/>
        <edge id=":1105984390_0" sampledSeconds="23.43" CO_abs="0" CO2_abs="0" HC_abs="0" PMx_abs="0" NOx_abs="0" fuel_abs="0" electricity_abs="0"
            CO_normed="0" CO2_normed="0" HC_normed="0" PMx_normed="0" NOx_normed="0" fuel_normed="0" electricity_normed="0"
            traveltime="1.06" CO_perVeh="0" CO2_perVeh="0" HC_perVeh="0" PMx_perVeh="0" NOx_perVeh="0" fuel_perVeh="0" electricity_perVeh="0"/>
        <edge id=":1105984390_1" sampledSeconds="646.39" CO_abs="15006.247459" CO2_abs="1902204.846080" HC_abs="113.968204" PMx_abs="33.911751" NOx_abs="714.470527" fuel_abs="817.670528" electricity_abs="0"
            CO_normed="875.597340" CO2_normed="110991.472573" HC_normed="6.649914" PMx_normed="1.978712" NOx_normed="41.688536" fuel_normed="47.710138" electricity_normed="0"
            traveltime="0.64" CO_perVeh="14.765092" CO2_perVeh="1871.635799" HC_perVeh="0.112137" PMx_perVeh="0.033367" NOx_perVeh="0.702989" fuel_perVeh="0.804530" electricity_perVeh="0"/>
        <edge id=":1105984395_0" sampledSeconds="9.12" CO_abs="128.020149" CO2_abs="10963.487935" HC_abs="0.830445" PMx_abs="0.132689" NOx_abs="4.074267" fuel_abs="4.712794" electricity_abs="0"
            CO_normed="106.607451" CO2_normed="9129.730786" HC_normed="0.691544" PMx_normed="0.110496" NOx_normed="3.392804" fuel_normed="3.924531" electricity_normed="0"
            traveltime="0.09" CO_perVeh="1.298264" CO2_perVeh="111.181756" HC_perVeh="0.008422" PMx_perVeh="0.001346" NOx_perVeh="0.041318" fuel_perVeh="0.047793" electricity_perVeh="0"/>
        <edge id=":1105984398_0" sampledSeconds="23.20" CO_abs="1318.142002" CO2_abs="94270.486309" HC_abs="8.211271" PMx_abs="1.610360" NOx_abs="38.264543" fuel_abs="40.522813" electricity_abs="0"
            CO_normed="83.528168" CO2_normed="5973.742556" HC_normed="0.520333" PMx_normed="0.102045" NOx_normed="2.424752" fuel_normed="2.567854" electricity_normed="0"
            traveltime="1.12" CO_perVeh="63.363679" CO2_perVeh="4531.624658" HC_perVeh="0.394719" PMx_perVeh="0.077411" NOx_perVeh="1.839394" fuel_perVeh="1.947950" electricity_perVeh="0"/>
        <edge id=":1105984398_1" sampledSeconds="449.77" CO_abs="7912.282865" CO2_abs="932290.618033" HC_abs="57.413244" PMx_abs="13.362127" NOx_abs="352.467308" fuel_abs="400.751958" electricity_abs="0"
            CO_normed="485.329201" CO2_normed="57185.501113" HC_normed="3.521654" PMx_normed="0.819616" NOx_normed="21.619889" fuel_normed="24.581607" electricity_normed="0"
            traveltime="0.95" CO_perVeh="16.771592" CO2_perVeh="1976.167722" HC_perVeh="0.121698" PMx_perVeh="0.028324" NOx_perVeh="0.747122" fuel_perVeh="0.849470" electricity_perVeh="0"/>
        <edge id=":1106006327_0" sampledSeconds="357.18" CO_abs="48010.192239" CO2_abs="1557601.449307" HC_abs="255.277849" PMx_abs="32.515861" NOx_abs="681.956663" fuel_abs="669.557849" electricity_abs="0"
            CO_normed="4151.421009" CO2_normed="134685.138270" HC_normed="22.073768" PMx_normed="2.811633" NOx_normed="58.968504" fuel_normed="57.896384" electricity_normed="0"
            traveltime="2.09" CO_perVeh="281.569794" CO2_perVeh="9135.008599" HC_perVeh="1.497151" PMx_perVeh="0.190699" NOx_perVeh="3.999534" fuel_perVeh="3.926818" electricity_perVeh="0"/>
        <edge id=":1106006327_1" sampledSeconds="159.63" CO_abs="21602.983509" CO2_abs="727651.393430" HC_abs="115.519750" PMx_abs="15.174017" NOx_abs="318.434838" fuel_abs="312.790956" electricity_abs="0"
            CO_normed="1628.984987" CO2_normed="54868.958053" HC_normed="8.710831" PMx_normed="1.144205" NOx_normed="24.011756" fuel_normed="23.586176" electricity_normed="0"
            traveltime="2.27" CO_perVeh="306.682194" CO2_perVeh="10329.949359" HC_perVeh="1.639952" PMx_perVeh="0.215415" NOx_perVeh="4.520593" fuel_perVeh="4.440471" electricity_perVeh="0"/>
        <edge id=":1106006327_2" sampledSeconds="0.00" CO_abs="0" CO2_abs="0" HC_abs="0" PMx_abs="0" NOx_abs="0" fuel_abs="0" electricity_abs="0"
            CO_normed="0" CO2_normed="0" HC_normed="0" PMx_normed="0" NOx_normed="0" fuel_normed="0" electricity_normed="0"/>
        <edge id=":1106006327_3" sampledSeconds="0.00" CO_abs="0" CO2_abs="0" HC_abs="0" PMx_abs="0" NOx_abs="0" fuel_abs="0" electricity_abs="0"
            CO_normed="0" CO2_normed="0" HC_normed="0" PMx_normed="0" NOx_normed="0" fuel_normed="0" electricity_normed="0"/>
        <edge id=":1107381198_0" sampledSeconds="0.00" CO_abs="0" CO2_abs="0" HC_abs="0" PMx_abs="0" NOx_abs="0" fuel_abs="0" electricity_abs="0"
            CO_normed="0" CO2_normed="0" HC_normed="0" PMx_normed="0" NOx_normed="0" fuel_normed="0" electricity_normed="0"/>
        <edge id=":1107381198_1" sampledSeconds="35.11" CO_abs="1531.916151" CO2_abs="64962.687574" HC_abs="8.473978" PMx_abs="1.119727" NOx_abs="26.881646" fuel_abs="27.925127" electricity_abs="0"
            CO_normed="127.986073" CO2_normed="5427.398420" HC_normed="0.707970" PMx_normed="0.093549" NOx_normed="2.245865" fuel_normed="2.333044" electricity_normed="0"
            traveltime="1.45" CO_perVeh="63.073236" CO2_perVeh="2674.693988" HC_perVeh="0.348897" PMx_perVeh="0.046102" NOx_perVeh="1.106792" fuel_perVeh="1.149755" electricity_perVeh="0"/>
        <edge id=":1110338277_0" sampledSeconds="96.89" CO_abs="1400.335049" CO2_abs="171986.053922" HC_abs="10.276003" PMx_abs="2.338099" NOx_abs="64.180438" fuel_abs="73.929607" electricity_abs="0"
            CO_normed="3831.518997" CO2_normed="470578.690086" HC_normed="28.116627" PMx_normed="6.397375" NOx_normed="175.606949" fuel_normed="202.282086" electricity_normed="0"
            traveltime="0.02" CO_perVeh="0.315591" CO2_perVeh="38.760228" HC_perVeh="0.002316" PMx_perVeh="0.000527" NOx_perVeh="0.014464" fuel_perVeh="0.016661" electricity_perVeh="0"/>
        <edge id=":1110338293_0" sampledSeconds="123.25" CO_abs="6429.893660" CO2_abs="438609.899583" HC_abs="39.600924" PMx_abs="7.791719" NOx_abs="180.265238" fuel_abs="188.539230" electricity_abs="0"
            CO_normed="16420.243439" CO2_normed="1120093.380506" HC_normed="101.130259" PMx_normed="19.897985" NOx_normed="460.349618" fuel_normed="481.479201" electricity_normed="0"
            traveltime="0.03" CO_perVeh="1.474803" CO2_perVeh="100.602446" HC_perVeh="0.009083" PMx_perVeh="0.001787" NOx_perVeh="0.041347" fuel_perVeh="0.043245" electricity_perVeh="0"/>
        <edge id=":1110338295_0" sampledSeconds="0.00" CO_abs="0" CO2_abs="0" HC_abs="0" PMx_abs="0" NOx_abs="0" fuel_abs="0" electricity_abs="0"
            CO_normed="0" CO2_normed="0" HC_normed="0" PMx_normed="0" NOx_normed="0" fuel_normed="0" electricity_normed="0"/>
        <edge id=":1110673403_0" sampledSeconds="143.89" CO_abs="2143.662575" CO2_abs="273141.253635" HC_abs="15.980208" PMx_abs="3.687404" NOx_abs="101.617160" fuel_abs="117.411985" electricity_abs="0"
            CO_normed="5474.345798" CO2_normed="697530.334883" HC_normed="40.809215" PMx_normed="9.416652" NOx_normed="259.503281" fuel_normed="299.839078" electricity_normed="0"
            traveltime="0.02" CO_perVeh="0.344179" CO2_perVeh="43.854663" HC_perVeh="0.002566" PMx_perVeh="0.000592" NOx_perVeh="0.016315" fuel_perVeh="0.018851" electricity_perVeh="0"/>
        <edge id=":1110673412_0" sampledSeconds="253.23" CO_abs="44712.609892" CO2_abs="3053567.634307" HC_abs="278.324976" PMx_abs="67.065267" NOx_abs="1311.980220" fuel_abs="1312.578358" electricity_abs="0"
            CO_normed="118121.534009" CO2_normed="8066898.667731" HC_normed="735.277434" PMx_normed="177.172665" NOx_normed="3465.982338" fuel_normed="3467.562497" electricity_normed="0"
            traveltime="0.02" CO_perVeh="2.748061" CO2_perVeh="187.673914" HC_perVeh="0.017106" PMx_perVeh="0.004122" NOx_perVeh="0.080635" fuel_perVeh="0.080672" electricity_perVeh="0"/>
        <edge id=":1110673414_0" sampledSeconds="0.00" CO_abs="0" CO2_abs="0" HC_abs="0" PMx_abs="0" NOx_abs="0" fuel_abs="0" electricity_abs="0"
            CO_normed="0" CO2_normed="0" HC_normed="0" PMx_normed="0" NOx_normed="0" fuel_normed="0" electricity_normed="0"/>
        <edge id=":1110673414_1" sampledSeconds="136.46" CO_abs="9103.779885" CO2_abs="340563.598031" HC_abs="49.383609" PMx_abs="6.439002" NOx_abs="144.778152" fuel_abs="146.396094" electricity_abs="0"
            CO_normed="772.380061" CO2_normed="28893.990850" HC_normed="4.189789" PMx_normed="0.546296" NOx_normed="12.283223" fuel_normed="12.420492" electricity_normed="0"
            traveltime="1.63" CO_perVeh="108.467224" CO2_perVeh="4057.653927" HC_perVeh="0.588382" PMx_perVeh="0.076718" NOx_perVeh="1.724963" fuel_perVeh="1.744240" electricity_perVeh="0"/>
        <edge id=":1110673417_0" sampledSeconds="29.81" CO_abs="473.366199" CO2_abs="53202.635041" HC_abs="3.365596" PMx_abs="0.747125" NOx_abs="20.088053" fuel_abs="22.869576" electricity_abs="0"
            CO_normed="1295.198307" CO2_normed="145570.095572" HC_normed="9.208757" PMx_normed="2.044242" NOx_normed="54.963816" fuel_normed="62.574465" electricity_normed="0"
            traveltime="0.02" CO_perVeh="0.351339" CO2_perVeh="39.487708" HC_perVeh="0.002498" PMx_perVeh="0.000555" NOx_perVeh="0.014910" fuel_perVeh="0.016974" electricity_perVeh="0"/>
        <edge id=":1110673446_0" sampledSeconds="333.43" CO_abs="3581.212575" CO2_abs="292927.909310" HC_abs="23.240339" PMx_abs="5.346208" NOx_abs="119.542389" fuel_abs="125.916258" electricity_abs="0"
            CO_normed="9145.467312" CO2_normed="748060.206792" HC_normed="59.349662" PMx_normed="13.652798" NOx_normed="305.279564" fuel_normed="321.556735" electricity_normed="0"
            traveltime="0.02" CO_perVeh="0.244256" CO2_perVeh="19.979076" HC_perVeh="0.001585" PMx_perVeh="0.000365" NOx_perVeh="0.008153" fuel_perVeh="0.008588" electricity_perVeh="0"/>
        <edge id=":1110673451_0" sampledSeconds="37.65" CO_abs="399.181524" CO2_abs="30169.356235" HC_abs="2.504173" PMx_abs="0.404529" NOx_abs="11.515793" fuel_abs="12.968655" electricity_abs="0"
            CO_normed="1132.670850" CO2_normed="85605.040038" HC_normed="7.105548" PMx_normed="1.147843" NOx_normed="32.675869" fuel_normed="36.798341" electricity_normed="0"
            traveltime="0.03" CO_perVeh="0.286266" CO2_perVeh="21.635395" HC_perVeh="0.001796" PMx_perVeh="0.000290" NOx_perVeh="0.008258" fuel_perVeh="0.009300" electricity_perVeh="0"/>
        <edge id=":1110673464_0" sampledSeconds="321.38" CO_abs="457.400120" CO2_abs="37978.810455" HC_abs="2.946328" PMx_abs="0.493754" NOx_abs="14.332924" fuel_abs="16.325634" electricity_abs="0"
            CO_normed="24.817534" CO2_normed="2060.647550" HC_normed="0.159861" PMx_normed="0.026790" NOx_normed="0.777673" fuel_normed="0.885793" electricity_normed="0"
            traveltime="1.16" CO_perVeh="1.653444" CO2_perVeh="137.288662" HC_perVeh="0.010651" PMx_perVeh="0.001785" NOx_perVeh="0.051812" fuel_perVeh="0.059015" electricity_perVeh="0"/>
        <edge id=":1110673464_1" sampledSeconds="708.12" CO_abs="16077.655231" CO2_abs="2111752.718635" HC_abs="123.796534" PMx_abs="37.233439" NOx_abs="789.076018" fuel_abs="907.745814" electricity_abs="0"
            CO_normed="854.782823" CO2_normed="112273.209267" HC_normed="6.581753" PMx_normed="1.979549" NOx_normed="41.951927" fuel_normed="48.261113" electricity_normed="0"
            traveltime="0.70" CO_perVeh="15.865101" CO2_perVeh="2083.834358" HC_perVeh="0.122160" PMx_perVeh="0.036741" NOx_perVeh="0.778644" fuel_perVeh="0.895745" electricity_perVeh="0"/>
        <edge id=":1110673479_0" sampledSeconds="133.70" CO_abs="6717.192508" CO2_abs="463199.111205" HC_abs="41.488472" PMx_abs="8.212448" NOx_abs="190.167496" fuel_abs="199.109030" electricity_abs="0"
            CO_normed="17153.928515" CO2_normed="1182887.706843" HC_normed="105.950557" PMx_normed="20.972413" NOx_normed="485.637360" fuel_normed="508.471667" electricity_normed="0"
            traveltime="0.03" CO_perVeh="1.415040" CO2_perVeh="97.577230" HC_perVeh="0.008740" PMx_perVeh="0.001730" NOx_perVeh="0.040061" fuel_perVeh="0.041944" electricity_perVeh="0"/>
        <edge id=":1110673511_0" sampledSeconds="11.89" CO_abs="177.660836" CO2_abs="24576.249669" HC_abs="1.369360" PMx_abs="0.310005" NOx_abs="8.998202" fuel_abs="10.564322" electricity_abs="0"
            CO_normed="453.698666" CO2_normed="62761.224947" HC_normed="3.496983" PMx_normed="0.791671" NOx_normed="22.979022" fuel_normed="26.978477" electricity_normed="0"
            traveltime="0.02" CO_perVeh="0.351804" CO2_perVeh="48.665841" HC_perVeh="0.002712" PMx_perVeh="0.000614" NOx_perVeh="0.017818" fuel_perVeh="0.020919" electricity_perVeh="0"/>
        <edge id=":1110673517_0" sampledSeconds="16.84" CO_abs="777.363169" CO2_abs="59313.065080" HC_abs="4.927890" PMx_abs="0.988521" NOx_abs="23.822338" fuel_abs="25.496130" electricity_abs="0"
            CO_normed="1985.179405" CO2_normed="151469.840597" HC_normed="12.584525" PMx_normed="2.524421" NOx_normed="60.835935" fuel_normed="65.110354" electricity_normed="0"
            traveltime="0.03" CO_perVeh="1.248108" CO2_perVeh="95.231038" HC_perVeh="0.007912" PMx_perVeh="0.001587" NOx_perVeh="0.038248" fuel_perVeh="0.040936" electricity_perVeh="0"/>
        <edge id=":1110673534_0" sampledSeconds="474.81" CO_abs="3126.702899" CO2_abs="294768.189762" HC_abs="20.932926" PMx_abs="3.679777" NOx_abs="109.626582" fuel_abs="126.709473" electricity_abs="0"
            CO_normed="154.743607" CO2_normed="14588.368122" HC_normed="1.035991" PMx_normed="0.182116" NOx_normed="5.425528" fuel_normed="6.270977" electricity_normed="0"
            traveltime="1.43" CO_perVeh="9.419503" CO2_perVeh="888.018414" HC_perVeh="0.063063" PMx_perVeh="0.011086" NOx_perVeh="0.330261" fuel_perVeh="0.381725" electricity_perVeh="0"/>
        <edge id=":1110673534_1" sampledSeconds="183.67" CO_abs="3046.166904" CO2_abs="365957.363815" HC_abs="22.311157" PMx_abs="5.206686" NOx_abs="137.925812" fuel_abs="157.309492" electricity_abs="0"
            CO_normed="146.591128" CO2_normed="17611.018886" HC_normed="1.073683" PMx_normed="0.250562" NOx_normed="6.637424" fuel_normed="7.570227" electricity_normed="0"
            traveltime="1.22" CO_perVeh="20.225455" CO2_perVeh="2429.825514" HC_perVeh="0.148138" PMx_perVeh="0.034571" NOx_perVeh="0.915778" fuel_perVeh="1.044479" electricity_perVeh="0"/>
        <edge id=":1110673549_0" sampledSeconds="60.52" CO_abs="91.303601" CO2_abs="14249.515037" HC_abs="0.720537" PMx_abs="0.156744" NOx_abs="5.047883" fuel_abs="6.125306" electricity_abs="0"
            CO_normed="4.377319" CO2_normed="683.156751" HC_normed="0.034544" PMx_normed="0.007515" NOx_normed="0.242008" fuel_normed="0.293662" electricity_normed="0"
            traveltime="1.26" CO_perVeh="1.902233" CO2_perVeh="296.876508" HC_perVeh="0.015012" PMx_perVeh="0.003266" NOx_perVeh="0.105168" fuel_perVeh="0.127616" electricity_perVeh="0"/>
        <edge id=":1110673549_1" sampledSeconds="638.82" CO_abs="13964.511904" CO2_abs="1801384.209816" HC_abs="106.551773" PMx_abs="31.868318" NOx_abs="674.662553" fuel_abs="774.332525" electricity_abs="0"
            CO_normed="647.608847" CO2_normed="83539.787139" HC_normed="4.941374" PMx_normed="1.477904" NOx_normed="31.287699" fuel_normed="35.909926" electricity_normed="0"
            traveltime="0.80" CO_perVeh="17.586176" CO2_perVeh="2268.569122" HC_perVeh="0.134186" PMx_perVeh="0.040133" NOx_perVeh="0.849635" fuel_perVeh="0.975154" electricity_perVeh="0"/>
        <edge id=":1110673556_0" sampledSeconds="418.03" CO_abs="51102.727419" CO2_abs="2560604.407444" HC_abs="293.571047" PMx_abs="51.641501" NOx_abs="1102.714725" fuel_abs="1100.693051" electricity_abs="0"
            CO_normed="1816.744528" CO2_normed="91031.619669" HC_normed="10.436695" PMx_normed="1.835898" NOx_normed="39.202427" fuel_normed="39.130555" electricity_normed="0"
            traveltime="2.59" CO_perVeh="317.221519" CO2_perVeh="15895.018918" HC_perVeh="1.822350" PMx_perVeh="0.320566" NOx_perVeh="6.845131" fuel_perVeh="6.832581" electricity_perVeh="0"/>
        <edge id=":1110673556_2" sampledSeconds="245.81" CO_abs="23780.931688" CO2_abs="1032860.323603" HC_abs="132.572085" PMx_abs="20.056895" NOx_abs="441.323995" fuel_abs="443.985700" electricity_abs="0"
            CO_normed="883.991175" CO2_normed="38393.761140" HC_normed="4.928005" PMx_normed="0.745560" NOx_normed="16.405014" fuel_normed="16.503956" electricity_normed="0"
            traveltime="2.98" CO_perVeh="288.458144" CO2_perVeh="12528.397800" HC_perVeh="1.608074" PMx_perVeh="0.243286" NOx_perVeh="5.353175" fuel_perVeh="5.385461" electricity_perVeh="0"/>
        <edge id=":1110673556_3" sampledSeconds="411.10" CO_abs="34647.584227" CO2_abs="1243449.867687" HC_abs="186.707767" PMx_abs="23.691567" NOx_abs="530.045686" fuel_abs="534.515465" electricity_abs="0"
            CO_normed="2929.825923" CO2_normed="105147.061107" HC_normed="15.788150" PMx_normed="2.003377" NOx_normed="44.821064" fuel_normed="45.199032" electricity_normed="0"
            traveltime="1.73" CO_perVeh="145.707827" CO2_perVeh="5229.235504" HC_perVeh="0.785186" PMx_perVeh="0.099633" NOx_perVeh="2.229068" fuel_perVeh="2.247865" electricity_perVeh="0"/>
        <edge id=":1110673556_4" sampledSeconds="198.69" CO_abs="21093.106918" CO2_abs="852151.363020" HC_abs="116.048280" PMx_abs="16.637171" NOx_abs="365.216241" fuel_abs="366.307152" electricity_abs="0"
            CO_normed="1089.673674" CO2_normed="44022.291753" HC_normed="5.995075" PMx_normed="0.859479" NOx_normed="18.867136" fuel_normed="18.923493" electricity_normed="0"
            traveltime="2.39" CO_perVeh="253.587865" CO2_perVeh="10244.827662" HC_perVeh="1.395168" PMx_perVeh="0.200017" NOx_perVeh="4.390743" fuel_perVeh="4.403858" electricity_perVeh="0"/>
        <edge id=":1110673556_5" sampledSeconds="24.38" CO_abs="1749.598502" CO2_abs="71168.937530" HC_abs="9.620809" PMx_abs="1.302786" NOx_abs="29.943653" fuel_abs="30.592916" electricity_abs="0"
            CO_normed="125.977744" CO2_normed="5124.434072" HC_normed="0.692735" PMx_normed="0.093806" NOx_normed="2.156057" fuel_normed="2.202806" electricity_normed="0"
            traveltime="1.69" CO_perVeh="120.959896" CO2_perVeh="4920.321607" HC_perVeh="0.665142" PMx_perVeh="0.090069" NOx_perVeh="2.070178" fuel_perVeh="2.115066" electricity_perVeh="0"/>
        <edge id=":1110673556_6" sampledSeconds="303.85" CO_abs="36093.420472" CO2_abs="1869661.832811" HC_abs="208.837453" PMx_abs="37.631306" NOx_abs="803.701296" fuel_abs="803.685905" electricity_abs="0"
            CO_normed="1315.504642" CO2_normed="68143.966074" HC_normed="7.611543" PMx_normed="1.371556" NOx_normed="29.292674" fuel_normed="29.292113" electricity_normed="0"
            traveltime="2.41" CO_perVeh="285.830856" CO2_perVeh="14806.217708" HC_perVeh="1.653825" PMx_perVeh="0.298010" NOx_perVeh="6.364668" fuel_perVeh="6.364546" electricity_perVeh="0"/>
        <edge id=":1110673561_0" sampledSeconds="101.54" CO_abs="10275.844016" CO2_abs="722645.876758" HC_abs="64.195457" PMx_abs="14.816414" NOx_abs="307.038505" fuel_abs="310.630870" electricity_abs="0"
            CO_normed="470.563912" CO2_normed="33092.276457" HC_normed="2.939716" PMx_normed="0.678491" NOx_normed="14.060280" fuel_normed="14.224786" electricity_normed="0"
            traveltime="1.20" CO_perVeh="121.264933" CO2_perVeh="8527.922746" HC_perVeh="0.757569" PMx_perVeh="0.174848" NOx_perVeh="3.623352" fuel_perVeh="3.665746" electricity_perVeh="0"/>
        <edge id=":1110673561_1" sampledSeconds="1310.45" CO_abs="122495.941616" CO2_abs="8517742.922672" HC_abs="763.799822" PMx_abs="177.745744" NOx_abs="3638.619334" fuel_abs="3661.366483" electricity_abs="0"
            CO_normed="5468.918768" CO2_normed="380280.713915" HC_normed="34.100388" PMx_normed="7.935586" NOx_normed="162.448758" fuel_normed="163.464321" electricity_normed="0"
            traveltime="1.19" CO_perVeh="111.247646" CO2_perVeh="7735.593796" HC_perVeh="0.693663" PMx_perVeh="0.161424" NOx_perVeh="3.304500" fuel_perVeh="3.325158" electricity_perVeh="0"/>
        <edge id=":1110673562_0" sampledSeconds="104.17" CO_abs="2053.321457" CO2_abs="161424.632608" HC_abs="13.018167" PMx_abs="2.114107" NOx_abs="61.134598" fuel_abs="69.390315" electricity_abs="0"
            CO_normed="5826.265040" CO2_normed="458039.675414" HC_normed="36.938829" PMx_normed="5.998742" NOx_normed="173.468391" fuel_normed="196.893849" electricity_normed="0"
            traveltime="0.03" CO_perVeh="0.523401" CO2_perVeh="41.147874" HC_perVeh="0.003318" PMx_perVeh="0.000539" NOx_perVeh="0.015583" fuel_perVeh="0.017688" electricity_perVeh="0"/>
        <edge id=":1110673564_0" sampledSeconds="28.75" CO_abs="474.120692" CO2_abs="53936.999651" HC_abs="3.402094" PMx_abs="0.749668" NOx_abs="20.308939" fuel_abs="23.185260" electricity_abs="0"
            CO_normed="3632.335586" CO2_normed="413222.385069" HC_normed="26.064135" PMx_normed="5.743361" NOx_normed="155.590932" fuel_normed="177.627016" electricity_normed="0"
            traveltime="7.904621e-03" CO_perVeh="0.130342" CO2_perVeh="14.828041" HC_perVeh="0.000935" PMx_perVeh="0.000206" NOx_perVeh="0.005583" fuel_perVeh="0.006374" electricity_perVeh="0"/>
        <edge id=":1110673588_0" sampledSeconds="11.56" CO_abs="322.325361" CO2_abs="32899.505370" HC_abs="2.222105" PMx_abs="0.507525" NOx_abs="12.736557" fuel_abs="14.142068" electricity_abs="0"
            CO_normed="987.760203" CO2_normed="100819.935587" HC_normed="6.809602" PMx_normed="1.555300" NOx_normed="39.030946" fuel_normed="43.338109" electricity_normed="0"
            traveltime="0.02" CO_perVeh="0.537209" CO2_perVeh="54.832509" HC_perVeh="0.003704" PMx_perVeh="0.000846" NOx_perVeh="0.021228" fuel_perVeh="0.023570" electricity_perVeh="0"/>
        <edge id=":1110673601_0" sampledSeconds="29.64" CO_abs="541.321963" CO2_abs="64038.452785" HC_abs="3.944655" PMx_abs="0.895059" NOx_abs="24.080983" fuel_abs="27.527433" electricity_abs="0"
            CO_normed="1481.135096" CO2_normed="175218.458356" HC_normed="10.793147" PMx_normed="2.449010" NOx_normed="65.889050" fuel_normed="75.319032" electricity_normed="0"
            traveltime="0.02" CO_perVeh="0.401776" CO2_perVeh="47.530197" HC_perVeh="0.002928" PMx_perVeh="0.000664" NOx_perVeh="0.017873" fuel_perVeh="0.020431" electricity_perVeh="0"/>
        <edge id=":1110673617_0" sampledSeconds="238.10" CO_abs="5867.939207" CO2_abs="726326.696392" HC_abs="44.164124" PMx_abs="13.014233" NOx_abs="274.245560" fuel_abs="312.214416" electricity_abs="0"
            CO_normed="14985.160776" CO2_normed="1854845.787763" HC_normed="112.783463" PMx_normed="33.234900" NOx_normed="700.350440" fuel_normed="797.312832" electricity_normed="0"
            traveltime="0.01" CO_perVeh="0.359372" CO2_perVeh="44.482599" HC_perVeh="0.002705" PMx_perVeh="0.000797" NOx_perVeh="0.016796" fuel_perVeh="0.019121" electricity_perVeh="0"/>
        <edge id=":1110673621_0" sampledSeconds="25.89" CO_abs="554.229314" CO2_abs="55478.801085" HC_abs="3.794022" PMx_abs="0.836577" NOx_abs="21.394824" fuel_abs="23.847961" electricity_abs="0"
            CO_normed="1698.425649" CO2_normed="170013.776469" HC_normed="11.626711" PMx_normed="2.563676" NOx_normed="65.564050" fuel_normed="73.081641" electricity_normed="0"
            traveltime="0.02" CO_perVeh="0.419871" CO2_perVeh="42.029395" HC_perVeh="0.002874" PMx_perVeh="0.000634" NOx_perVeh="0.016208" fuel_perVeh="0.018067" electricity_perVeh="0"/>
        <edge id=":1110673630_0" sampledSeconds="54.36" CO_abs="259.114879" CO2_abs="21729.783092" HC_abs="1.679588" PMx_abs="0.310666" NOx_abs="8.375537" fuel_abs="9.340756" electricity_abs="0"
            CO_normed="14.159287" CO2_normed="1187.420202" HC_normed="0.091781" PMx_normed="0.016976" NOx_normed="0.457680" fuel_normed="0.510424" electricity_normed="0"
            traveltime="1.27" CO_perVeh="6.048200" CO2_perVeh="507.211573" HC_perVeh="0.039205" PMx_perVeh="0.007251" NOx_perVeh="0.195500" fuel_perVeh="0.218030" electricity_perVeh="0"/>
        <edge id=":1110673630_1" sampledSeconds="7.46" CO_abs="46.521166" CO2_abs="3338.360165" HC_abs="0.288974" PMx_abs="0.051453" NOx_abs="1.320365" fuel_abs="1.435025" electricity_abs="0"
            CO_normed="3.099201" CO2_normed="222.398782" HC_normed="0.019251" PMx_normed="0.003428" NOx_normed="0.087962" fuel_normed="0.095600" electricity_normed="0"
            traveltime="1.06" CO_perVeh="6.584534" CO2_perVeh="472.506362" HC_perVeh="0.040901" PMx_perVeh="0.007283" NOx_perVeh="0.186882" fuel_perVeh="0.203111" electricity_perVeh="0"/>
        <edge id=":1110673650_0" sampledSeconds="143.27" CO_abs="2233.888165" CO2_abs="294460.478891" HC_abs="16.853272" PMx_abs="3.927385" NOx_abs="109.071341" fuel_abs="126.576249" electricity_abs="0"
            CO_normed="5704.758028" CO2_normed="751973.983121" HC_normed="43.038787" PMx_normed="10.029499" NOx_normed="278.539284" fuel_normed="323.242176" electricity_normed="0"
            traveltime="0.02" CO_perVeh="0.359329" CO2_perVeh="47.365099" HC_perVeh="0.002711" PMx_perVeh="0.000632" NOx_perVeh="0.017545" fuel_perVeh="0.020360" electricity_perVeh="0"/>
        <edge id=":1110673655_0" sampledSeconds="45.33" CO_abs="642.772779" CO2_abs="74201.860744" HC_abs="4.629417" PMx_abs="1.007195" NOx_abs="27.794803" fuel_abs="31.896303" electricity_abs="0"
            CO_normed="1641.471239" CO2_normed="189491.876768" HC_normed="11.822302" PMx_normed="2.572109" NOx_normed="70.980556" fuel_normed="81.454699" electricity_normed="0"
            traveltime="0.02" CO_perVeh="0.344005" CO2_perVeh="39.711994" HC_perVeh="0.002478" PMx_perVeh="0.000539" NOx_perVeh="0.014875" fuel_perVeh="0.017071" electricity_perVeh="0"/>
        <edge id=":1110673663_0" sampledSeconds="109.11" CO_abs="1830.156794" CO2_abs="209255.198087" HC_abs="13.132472" PMx_abs="2.980157" NOx_abs="79.131081" fuel_abs="89.949943" electricity_abs="0"
            CO_normed="85.599545" CO2_normed="9787.221414" HC_normed="0.614228" PMx_normed="0.139387" NOx_normed="3.701095" fuel_normed="4.207112" electricity_normed="0"
            traveltime="1.28" CO_perVeh="21.496055" CO2_perVeh="2457.801019" HC_perVeh="0.154247" PMx_perVeh="0.035003" NOx_perVeh="0.929432" fuel_perVeh="1.056505" electricity_perVeh="0"/>
        <edge id=":1110673663_1" sampledSeconds="153.44" CO_abs="2722.175063" CO2_abs="334009.745462" HC_abs="19.963308" PMx_abs="4.710341" NOx_abs="125.491779" fuel_abs="143.576573" electricity_abs="0"
            CO_normed="127.476405" CO2_normed="15641.301766" HC_normed="0.934859" PMx_normed="0.220580" NOx_normed="5.876639" fuel_normed="6.723530" electricity_normed="0"
            traveltime="1.24" CO_perVeh="22.077145" CO2_perVeh="2708.856513" HC_perVeh="0.161905" PMx_perVeh="0.038201" NOx_perVeh="1.017752" fuel_perVeh="1.164422" electricity_perVeh="0"/>
        <edge id=":1110673666_0" sampledSeconds="190.73" CO_abs="4278.558801" CO2_abs="345038.301352" HC_abs="27.350070" PMx_abs="4.630608" NOx_abs="131.280614" fuel_abs="148.318600" electricity_abs="0"