<?xml version="1.0" encoding="UTF-8"?>

<!-- generated on Tue Nov 10 01:33:38 2020 by Eclipse SUMO sumo Version 1.7.0
<configuration xmlns:xsi="http://www.w3.org/2001/XMLSchema-instance" xsi:noNamespaceSchemaLocation="http://sumo.dlr.de/xsd/sumoConfiguration.xsd">

    <input>
        <net-file value="../dataSets/Porto/6AM7AM_Routing_SaoBento/Porto.net.xml"/>
        <route-files value="../results/Porto/6AM7AM_Routing_SaoBento/cost_PMx-cost_co2/solution3/Porto.rou.xml"/>
        <additional-files value="moreOutputInfo.xml"/>
    </input>

    <output>
        <emission-output.precision value="6"/>
        <tripinfo-output value="../results/Porto/6AM7AM_Routing_SaoBento/cost_PMx-cost_co2/solution3/Porto-tripinfo"/>
    </output>

    <processing>
        <collision.action value="warn"/>
        <time-to-teleport value="-1"/>
    </processing>

    <emissions>
        <device.emissions.probability value="1"/>
    </emissions>

    <gui_only>
        <quit-on-end value="true"/>
        <start value="true"/>
    </gui_only>

</configuration>
-->

<meandata xmlns:xsi="http://www.w3.org/2001/XMLSchema-instance" xsi:noNamespaceSchemaLocation="http://sumo.dlr.de/xsd/meandata_file.xsd">
    <interval begin="0.00" end="4700.00" id="emissions-detector">
        <edge id=":1092997347_0" sampledSeconds="284.86" CO_abs="36500.662631" CO2_abs="1446649.170026" HC_abs="200.381671" PMx_abs="29.488859" NOx_abs="627.876057" fuel_abs="621.857641" electricity_abs="0"
            CO_normed="63540.805353" CO2_normed="2518344.783410" HC_normed="348.826894" PMx_normed="51.334571" NOx_normed="1093.014412" fuel_normed="1082.537480" electricity_normed="0"
            traveltime="0.08" CO_perVeh="9.614399" CO2_perVeh="381.052341" HC_perVeh="0.052781" PMx_perVeh="0.007767" NOx_perVeh="0.165385" fuel_perVeh="0.163799" electricity_perVeh="0"/>
        <edge id=":1103427051_0" sampledSeconds="11.06" CO_abs="911.110302" CO2_abs="51598.486961" HC_abs="5.372071" PMx_abs="1.002139" NOx_abs="21.942703" fuel_abs="22.179917" electricity_abs="0"
            CO_normed="2406.454209" CO2_normed="136283.604592" HC_normed="14.188889" PMx_normed="2.646883" NOx_normed="57.955783" fuel_normed="58.582321" electricity_normed="0"
            traveltime="0.03" CO_perVeh="2.496428" CO2_perVeh="141.379074" HC_perVeh="0.014719" PMx_perVeh="0.002746" NOx_perVeh="0.060123" fuel_perVeh="0.060773" electricity_perVeh="0"/>
        <edge id=":1105984386_0" sampledSeconds="22.51" CO_abs="588.686768" CO2_abs="48961.936001" HC_abs="3.794872" PMx_abs="0.642355" NOx_abs="18.525636" fuel_abs="21.046847" electricity_abs="0"
            CO_normed="46.437592" CO2_normed="3862.282131" HC_normed="0.299352" PMx_normed="0.050671" NOx_normed="1.461364" fuel_normed="1.660246" electricity_normed="0"
            traveltime="0.94" CO_perVeh="24.706728" CO2_perVeh="2054.894530" HC_perVeh="0.159268" PMx_perVeh="0.026959" NOx_perVeh="0.777507" fuel_perVeh="0.883320" electricity_perVeh="0"/>
        <edge id=":1105984390_0" sampledSeconds="23.91" CO_abs="18.976136" CO2_abs="1547.235828" HC_abs="0.120229" PMx_abs="0.013185" NOx_abs="0.539920" fuel_abs="0.665108" electricity_abs="0"
            CO_normed="1.157238" CO2_normed="94.356433" HC_normed="0.007332" PMx_normed="0.000804" NOx_normed="0.032926" fuel_normed="0.040561" electricity_normed="0"
            traveltime="1.08" CO_perVeh="0.860558" CO2_perVeh="70.166385" HC_perVeh="0.005452" PMx_perVeh="0.000598" NOx_perVeh="0.024485" fuel_perVeh="0.030162" electricity_perVeh="0"/>
        <edge id=":1105984390_1" sampledSeconds="645.53" CO_abs="14349.743372" CO2_abs="1895489.102369" HC_abs="110.737699" PMx_abs="33.337005" NOx_abs="707.943457" fuel_abs="814.784023" electricity_abs="0"
            CO_normed="837.112932" CO2_normed="110576.084791" HC_normed="6.460043" PMx_normed="1.944762" NOx_normed="41.298900" fuel_normed="47.531599" electricity_normed="0"
            traveltime="0.64" CO_perVeh="14.153799" CO2_perVeh="1869.606329" HC_perVeh="0.109226" PMx_perVeh="0.032882" NOx_perVeh="0.698277" fuel_perVeh="0.803658" electricity_perVeh="0"/>
        <edge id=":1105984395_0" sampledSeconds="9.09" CO_abs="126.766469" CO2_abs="10509.787261" HC_abs="0.814133" PMx_abs="0.126357" NOx_abs="3.905131" fuel_abs="4.517770" electricity_abs="0"
            CO_normed="105.541001" CO2_normed="8750.054149" HC_normed="0.677817" PMx_normed="0.105200" NOx_normed="3.251266" fuel_normed="3.761325" electricity_normed="0"
            traveltime="0.09" CO_perVeh="1.285551" CO2_perVeh="106.580735" HC_perVeh="0.008256" PMx_perVeh="0.001281" NOx_perVeh="0.039602" fuel_perVeh="0.045815" electricity_perVeh="0"/>
        <edge id=":1105984398_0" sampledSeconds="22.39" CO_abs="1461.689081" CO2_abs="102640.004867" HC_abs="9.080656" PMx_abs="1.860021" NOx_abs="42.361664" fuel_abs="44.120367" electricity_abs="0"
            CO_normed="92.604767" CO2_normed="6502.719278" HC_normed="0.575302" PMx_normed="0.117841" NOx_normed="2.683807" fuel_normed="2.795229" electricity_normed="0"
            traveltime="1.09" CO_perVeh="71.031229" CO2_perVeh="4987.822510" HC_perVeh="0.441277" PMx_perVeh="0.090388" NOx_perVeh="2.058578" fuel_perVeh="2.144043" electricity_perVeh="0"/>
        <edge id=":1105984398_1" sampledSeconds="454.71" CO_abs="7690.322609" CO2_abs="918095.687604" HC_abs="55.891929" PMx_abs="12.938966" NOx_abs="345.622749" fuel_abs="394.650390" electricity_abs="0"
            CO_normed="471.614081" CO2_normed="56302.820561" HC_normed="3.427609" PMx_normed="0.793491" NOx_normed="21.195542" fuel_normed="24.202194" electricity_normed="0"
            traveltime="0.96" CO_perVeh="16.175376" CO2_perVeh="1931.068866" HC_perVeh="0.117560" PMx_perVeh="0.027215" NOx_perVeh="0.726963" fuel_perVeh="0.830085" electricity_perVeh="0"/>
        <edge id=":1106006327_0" sampledSeconds="227.25" CO_abs="30524.789821" CO2_abs="983601.492365" HC_abs="162.139455" PMx_abs="20.524944" NOx_abs="430.567227" fuel_abs="422.815733" electricity_abs="0"
            CO_normed="2638.904072" CO2_normed="85033.508778" HC_normed="14.017147" PMx_normed="1.774406" NOx_normed="37.223044" fuel_normed="36.552919" electricity_normed="0"
            traveltime="2.11" CO_perVeh="283.877021" CO2_perVeh="9147.380311" HC_perVeh="1.507878" PMx_perVeh="0.190880" NOx_perVeh="4.004225" fuel_perVeh="3.932138" electricity_perVeh="0"/>
        <edge id=":1106006327_1" sampledSeconds="161.93" CO_abs="21805.917927" CO2_abs="725947.487930" HC_abs="116.391829" PMx_abs="15.117167" NOx_abs="317.548323" fuel_abs="312.058759" electricity_abs="0"
            CO_normed="1643.937522" CO2_normed="54728.827202" HC_normed="8.774723" PMx_normed="1.139676" NOx_normed="23.939813" fuel_normed="23.525958" electricity_normed="0"
            traveltime="2.30" CO_perVeh="309.563109" CO2_perVeh="10305.760224" HC_perVeh="1.652332" PMx_perVeh="0.214608" NOx_perVeh="4.508008" fuel_perVeh="4.430076" electricity_perVeh="0"/>
        <edge id=":1106006327_2" sampledSeconds="0.00" CO_abs="0" CO2_abs="0" HC_abs="0" PMx_abs="0" NOx_abs="0" fuel_abs="0" electricity_abs="0"
            CO_normed="0" CO2_normed="0" HC_normed="0" PMx_normed="0" NOx_normed="0" fuel_normed="0" electricity_normed="0"/>
        <edge id=":1106006327_3" sampledSeconds="0.00" CO_abs="0" CO2_abs="0" HC_abs="0" PMx_abs="0" NOx_abs="0" fuel_abs="0" electricity_abs="0"
            CO_normed="0" CO2_normed="0" HC_normed="0" PMx_normed="0" NOx_normed="0" fuel_normed="0" electricity_normed="0"/>
        <edge id=":1107381198_0" sampledSeconds="0.00" CO_abs="0" CO2_abs="0" HC_abs="0" PMx_abs="0" NOx_abs="0" fuel_abs="0" electricity_abs="0"
            CO_normed="0" CO2_normed="0" HC_normed="0" PMx_normed="0" NOx_normed="0" fuel_normed="0" electricity_normed="0"/>
        <edge id=":1107381198_1" sampledSeconds="36.04" CO_abs="1465.091284" CO2_abs="60314.512452" HC_abs="8.062425" PMx_abs="1.046989" NOx_abs="25.017079" fuel_abs="25.927068" electricity_abs="0"
            CO_normed="122.377053" CO2_normed="5037.988000" HC_normed="0.673443" PMx_normed="0.087454" NOx_normed="2.089642" fuel_normed="2.165652" electricity_normed="0"
            traveltime="1.48" CO_perVeh="60.321871" CO2_perVeh="2483.315729" HC_perVeh="0.331952" PMx_perVeh="0.043107" NOx_perVeh="1.030022" fuel_perVeh="1.067489" electricity_perVeh="0"/>
        <edge id=":1110338277_0" sampledSeconds="96.33" CO_abs="1606.313075" CO2_abs="202172.457315" HC_abs="11.923578" PMx_abs="2.707109" NOx_abs="75.158716" fuel_abs="86.905516" electricity_abs="0"
            CO_normed="4394.169505" CO2_normed="553055.354358" HC_normed="32.617692" PMx_normed="7.405466" NOx_normed="205.601350" fuel_normed="237.735454" electricity_normed="0"
            traveltime="0.02" CO_perVeh="0.363091" CO2_perVeh="45.699107" HC_perVeh="0.002695" PMx_perVeh="0.000612" NOx_perVeh="0.016989" fuel_perVeh="0.019644" electricity_perVeh="0"/>
        <edge id=":1110338293_0" sampledSeconds="124.27" CO_abs="6002.675489" CO2_abs="413325.168256" HC_abs="37.033969" PMx_abs="7.191829" NOx_abs="168.847119" fuel_abs="177.670617" electricity_abs="0"
            CO_normed="15325.979971" CO2_normed="1055298.301931" HC_normed="94.554815" PMx_normed="18.362117" NOx_normed="431.099027" fuel_normed="453.627106" electricity_normed="0"
            traveltime="0.03" CO_perVeh="1.376813" CO2_perVeh="94.802974" HC_perVeh="0.008494" PMx_perVeh="0.001650" NOx_perVeh="0.038728" fuel_perVeh="0.040752" electricity_perVeh="0"/>
        <edge id=":1110338295_0" sampledSeconds="0.00" CO_abs="0" CO2_abs="0" HC_abs="0" PMx_abs="0" NOx_abs="0" fuel_abs="0" electricity_abs="0"
            CO_normed="0" CO2_normed="0" HC_normed="0" PMx_normed="0" NOx_normed="0" fuel_normed="0" electricity_normed="0"/>
        <edge id=":1110673403_0" sampledSeconds="143.87" CO_abs="1982.765391" CO2_abs="245351.365333" HC_abs="14.633895" PMx_abs="3.367521" NOx_abs="91.729548" fuel_abs="105.466233" electricity_abs="0"
            CO_normed="5062.379722" CO2_normed="626429.017871" HC_normed="37.363137" PMx_normed="8.597926" NOx_normed="234.203101" fuel_normed="269.275489" electricity_normed="0"
            traveltime="0.02" CO_perVeh="0.318346" CO2_perVeh="39.392780" HC_perVeh="0.002350" PMx_perVeh="0.000541" NOx_perVeh="0.014728" fuel_perVeh="0.016933" electricity_perVeh="0"/>
        <edge id=":1110673412_0" sampledSeconds="252.36" CO_abs="44271.237447" CO2_abs="3027248.985602" HC_abs="275.668250" PMx_abs="66.447939" NOx_abs="1300.231755" fuel_abs="1301.265299" electricity_abs="0"
            CO_normed="116930.634490" CO2_normed="7995668.634019" HC_normed="728.103961" PMx_normed="175.504461" NOx_normed="3434.214468" fuel_normed="3436.944297" electricity_normed="0"
            traveltime="0.02" CO_perVeh="2.727931" CO2_perVeh="186.534824" HC_perVeh="0.016986" PMx_perVeh="0.004094" NOx_perVeh="0.080118" fuel_perVeh="0.080182" electricity_perVeh="0"/>
        <edge id=":1110673414_0" sampledSeconds="0.00" CO_abs="0" CO2_abs="0" HC_abs="0" PMx_abs="0" NOx_abs="0" fuel_abs="0" electricity_abs="0"
            CO_normed="0" CO2_normed="0" HC_normed="0" PMx_normed="0" NOx_normed="0" fuel_normed="0" electricity_normed="0"/>
        <edge id=":1110673414_1" sampledSeconds="180.75" CO_abs="11452.895163" CO2_abs="437517.208401" HC_abs="62.295393" PMx_abs="8.014695" NOx_abs="184.338011" fuel_abs="188.073164" electricity_abs="0"
            CO_normed="971.476228" CO2_normed="37111.801094" HC_normed="5.284122" PMx_normed="0.679836" NOx_normed="15.636221" fuel_normed="15.953050" electricity_normed="0"
            traveltime="1.58" CO_perVeh="100.067386" CO2_perVeh="3822.719295" HC_perVeh="0.544294" PMx_perVeh="0.070027" NOx_perVeh="1.610617" fuel_perVeh="1.643252" electricity_perVeh="0"/>
        <edge id=":1110673417_0" sampledSeconds="30.04" CO_abs="594.904688" CO2_abs="62332.814688" HC_abs="4.155797" PMx_abs="0.917545" NOx_abs="23.862653" fuel_abs="26.794225" electricity_abs="0"
            CO_normed="1627.398843" CO2_normed="170515.298539" HC_normed="11.368441" PMx_normed="2.510000" NOx_normed="65.277775" fuel_normed="73.297273" electricity_normed="0"
            traveltime="0.02" CO_perVeh="0.441546" CO2_perVeh="46.264249" HC_perVeh="0.003084" PMx_perVeh="0.000681" NOx_perVeh="0.017711" fuel_perVeh="0.019887" electricity_perVeh="0"/>
        <edge id=":1110673446_0" sampledSeconds="333.95" CO_abs="3095.402658" CO2_abs="247277.228756" HC_abs="19.987656" PMx_abs="4.598473" NOx_abs="101.631741" fuel_abs="106.293046" electricity_abs="0"
            CO_normed="7903.155722" CO2_normed="631346.115973" HC_normed="51.032312" PMx_normed="11.740782" NOx_normed="259.485297" fuel_normed="271.386500" electricity_normed="0"
            traveltime="0.02" CO_perVeh="0.211120" CO2_perVeh="16.865369" HC_perVeh="0.001363" PMx_perVeh="0.000314" NOx_perVeh="0.006932" fuel_perVeh="0.007250" electricity_perVeh="0"/>
        <edge id=":1110673451_0" sampledSeconds="37.87" CO_abs="262.157803" CO2_abs="18805.650656" HC_abs="1.625705" PMx_abs="0.276215" NOx_abs="7.345857" fuel_abs="8.083805" electricity_abs="0"
            CO_normed="743.710078" CO2_normed="53349.363563" HC_normed="4.611929" PMx_normed="0.783589" NOx_normed="20.839309" fuel_normed="22.932781" electricity_normed="0"
            traveltime="0.03" CO_perVeh="0.188002" CO2_perVeh="13.486124" HC_perVeh="0.001166" PMx_perVeh="0.000198" NOx_perVeh="0.005268" fuel_perVeh="0.005797" electricity_perVeh="0"/>
        <edge id=":1110673464_0" sampledSeconds="321.13" CO_abs="384.982801" CO2_abs="30790.926932" HC_abs="2.451944" PMx_abs="0.398358" NOx_abs="11.633232" fuel_abs="13.235851" electricity_abs="0"
            CO_normed="20.883884" CO2_normed="1670.293185" HC_normed="0.133009" PMx_normed="0.021609" NOx_normed="0.631060" fuel_normed="0.717996" electricity_normed="0"
            traveltime="1.16" CO_perVeh="1.391662" CO2_perVeh="111.305138" HC_perVeh="0.008863" PMx_perVeh="0.001440" NOx_perVeh="0.042053" fuel_perVeh="0.047846" electricity_perVeh="0"/>
        <edge id=":1110673464_1" sampledSeconds="708.94" CO_abs="17227.374506" CO2_abs="2143441.790036" HC_abs="129.706524" PMx_abs="38.317032" NOx_abs="808.201965" fuel_abs="921.367046" electricity_abs="0"
            CO_normed="915.713795" CO2_normed="113933.740519" HC_normed="6.894495" PMx_normed="2.036726" NOx_normed="42.959633" fuel_normed="48.974875" electricity_normed="0"
            traveltime="0.70" CO_perVeh="17.010661" CO2_perVeh="2116.478112" HC_perVeh="0.128075" PMx_perVeh="0.037835" NOx_perVeh="0.798035" fuel_perVeh="0.909777" electricity_perVeh="0"/>
        <edge id=":1110673479_0" sampledSeconds="132.61" CO_abs="6877.710600" CO2_abs="479346.831013" HC_abs="42.587908" PMx_abs="8.419738" NOx_abs="196.190000" fuel_abs="206.050296" electricity_abs="0"
            CO_normed="17560.112170" CO2_normed="1223864.249395" HC_normed="108.735084" PMx_normed="21.497204" NOx_normed="500.910637" fuel_normed="526.085863" electricity_normed="0"
            traveltime="0.03" CO_perVeh="1.448861" CO2_perVeh="100.979371" HC_perVeh="0.008972" PMx_perVeh="0.001774" NOx_perVeh="0.041329" fuel_perVeh="0.043407" electricity_perVeh="0"/>
        <edge id=":1110673511_0" sampledSeconds="11.83" CO_abs="247.344320" CO2_abs="30453.618380" HC_abs="1.825788" PMx_abs="0.415891" NOx_abs="11.368851" fuel_abs="13.090735" electricity_abs="0"
            CO_normed="631.517412" CO2_normed="77753.919267" HC_normed="4.661586" PMx_normed="1.061848" NOx_normed="29.026854" fuel_normed="33.423154" electricity_normed="0"
            traveltime="0.02" CO_perVeh="0.489791" CO2_perVeh="60.304195" HC_perVeh="0.003615" PMx_perVeh="0.000824" NOx_perVeh="0.022513" fuel_perVeh="0.025922" electricity_perVeh="0"/>
        <edge id=":1110673517_0" sampledSeconds="16.84" CO_abs="888.617879" CO2_abs="62151.414782" HC_abs="5.512899" PMx_abs="1.116047" NOx_abs="25.562138" fuel_abs="26.716146" electricity_abs="0"
            CO_normed="2268.811605" CO2_normed="158684.463274" HC_normed="14.075487" PMx_normed="2.849481" NOx_normed="65.265033" fuel_normed="68.211437" electricity_normed="0"
            traveltime="0.03" CO_perVeh="1.426735" CO2_perVeh="99.788196" HC_perVeh="0.008851" PMx_perVeh="0.001792" NOx_perVeh="0.041042" fuel_perVeh="0.042895" electricity_perVeh="0"/>
        <edge id=":1110673534_0" sampledSeconds="476.64" CO_abs="2563.617795" CO2_abs="233190.372663" HC_abs="16.972108" PMx_abs="2.947828" NOx_abs="87.124600" fuel_abs="100.239549" electricity_abs="0"
            CO_normed="126.848976" CO2_normed="11538.365792" HC_normed="0.839788" PMx_normed="0.145860" NOx_normed="4.310965" fuel_normed="4.959899" electricity_normed="0"
            traveltime="1.44" CO_perVeh="7.723153" CO2_perVeh="702.509131" HC_perVeh="0.051130" PMx_perVeh="0.008881" NOx_perVeh="0.262472" fuel_perVeh="0.301982" electricity_perVeh="0"/>
        <edge id=":1110673534_1" sampledSeconds="184.54" CO_abs="2937.423628" CO2_abs="367745.466889" HC_abs="21.832742" PMx_abs="5.023727" NOx_abs="137.281849" fuel_abs="158.078333" electricity_abs="0"
            CO_normed="141.327984" CO2_normed="17693.302694" HC_normed="1.050437" PMx_normed="0.241706" NOx_normed="6.605029" fuel_normed="7.605608" electricity_normed="0"
            traveltime="1.23" CO_perVeh="19.503438" CO2_perVeh="2441.697877" HC_perVeh="0.144962" PMx_perVeh="0.033356" NOx_perVeh="0.911502" fuel_perVeh="1.049583" electricity_perVeh="0"/>
        <edge id=":1110673549_0" sampledSeconds="60.76" CO_abs="91.397034" CO2_abs="9764.884431" HC_abs="0.642535" PMx_abs="0.138885" NOx_abs="3.681416" fuel_abs="4.197517" electricity_abs="0"
            CO_normed="4.380866" CO2_normed="468.052938" HC_normed="0.030798" PMx_normed="0.006657" NOx_normed="0.176459" fuel_normed="0.201196" electricity_normed="0"
            traveltime="1.27" CO_perVeh="1.904179" CO2_perVeh="203.443049" HC_perVeh="0.013387" PMx_perVeh="0.002894" NOx_perVeh="0.076699" fuel_perVeh="0.087452" electricity_perVeh="0"/>
        <edge id=":1110673549_1" sampledSeconds="638.67" CO_abs="13096.196169" CO2_abs="1771812.714638" HC_abs="101.651293" PMx_abs="30.845825" NOx_abs="659.206692" fuel_abs="761.621397" electricity_abs="0"
            CO_normed="607.211197" CO2_normed="82150.916654" HC_normed="4.713109" PMx_normed="1.430181" NOx_normed="30.564423" fuel_normed="35.312929" electricity_normed="0"
            traveltime="0.80" CO_perVeh="16.488977" CO2_perVeh="2230.829393" HC_perVeh="0.127986" PMx_perVeh="0.038837" NOx_perVeh="0.829985" fuel_perVeh="0.958932" electricity_perVeh="0"/>
        <edge id=":1110673556_0" sampledSeconds="424.09" CO_abs="52277.928426" CO2_abs="2599431.336772" HC_abs="299.829085" PMx_abs="52.432546" NOx_abs="1119.857107" fuel_abs="1117.383360" electricity_abs="0"
            CO_normed="1858.128472" CO2_normed="92392.287233" HC_normed="10.656906" PMx_normed="1.863624" NOx_normed="39.803382" fuel_normed="39.715457" electricity_normed="0"
            traveltime="2.63" CO_perVeh="324.515888" CO2_perVeh="16136.002220" HC_perVeh="1.861193" PMx_perVeh="0.325476" NOx_perVeh="6.951527" fuel_perVeh="6.936171" electricity_perVeh="0"/>
        <edge id=":1110673556_2" sampledSeconds="248.90" CO_abs="23564.680833" CO2_abs="1007588.523237" HC_abs="130.986583" PMx_abs="19.598757" NOx_abs="430.848638" fuel_abs="433.122607" electricity_abs="0"
            CO_normed="875.766267" CO2_normed="37446.381984" HC_normed="4.868032" PMx_normed="0.728375" NOx_normed="16.012214" fuel_normed="16.096724" electricity_normed="0"
            traveltime="3.02" CO_perVeh="285.835063" CO2_perVeh="12221.855704" HC_perVeh="1.588842" PMx_perVeh="0.237729" NOx_perVeh="5.226111" fuel_perVeh="5.253694" electricity_perVeh="0"/>
        <edge id=":1110673556_3" sampledSeconds="366.30" CO_abs="31400.204772" CO2_abs="1123101.559901" HC_abs="169.190396" PMx_abs="21.779562" NOx_abs="481.187665" fuel_abs="482.781461" electricity_abs="0"
            CO_normed="2654.660119" CO2_normed="94950.110743" HC_normed="14.303824" PMx_normed="1.841304" NOx_normed="40.680935" fuel_normed="40.815679" electricity_normed="0"
            traveltime="1.74" CO_perVeh="149.275286" CO2_perVeh="5339.178779" HC_perVeh="0.804324" PMx_perVeh="0.103539" NOx_perVeh="2.287546" fuel_perVeh="2.295123" electricity_perVeh="0"/>
        <edge id=":1110673556_4" sampledSeconds="179.39" CO_abs="19042.596072" CO2_abs="761806.372839" HC_abs="104.603399" PMx_abs="14.970782" NOx_abs="327.160315" fuel_abs="327.471316" electricity_abs="0"
            CO_normed="983.534610" CO2_normed="39346.679993" HC_normed="5.402681" PMx_normed="0.773229" NOx_normed="16.897564" fuel_normed="16.913627" electricity_normed="0"
            traveltime="2.43" CO_perVeh="257.552988" CO2_perVeh="10303.506228" HC_perVeh="1.414771" PMx_perVeh="0.202481" NOx_perVeh="4.424875" fuel_perVeh="4.429082" electricity_perVeh="0"/>
        <edge id=":1110673556_5" sampledSeconds="24.46" CO_abs="1932.940966" CO2_abs="79039.438386" HC_abs="10.655396" PMx_abs="1.531667" NOx_abs="33.793219" fuel_abs="33.976018" electricity_abs="0"
            CO_normed="139.149486" CO2_normed="5689.929175" HC_normed="0.767066" PMx_normed="0.110262" NOx_normed="2.432723" fuel_normed="2.445882" electricity_normed="0"
            traveltime="1.69" CO_perVeh="133.635425" CO2_perVeh="5464.455000" HC_perVeh="0.736669" PMx_perVeh="0.105893" NOx_perVeh="2.336321" fuel_perVeh="2.348959" electricity_perVeh="0"/>
        <edge id=":1110673556_6" sampledSeconds="305.45" CO_abs="36526.801629" CO2_abs="1888756.608311" HC_abs="211.258922" PMx_abs="38.001610" NOx_abs="811.923430" fuel_abs="811.893980" electricity_abs="0"
            CO_normed="1331.016923" CO2_normed="68825.270663" HC_normed="7.698161" PMx_normed="1.384758" NOx_normed="29.586051" fuel_normed="29.584978" electricity_normed="0"
            traveltime="2.42" CO_perVeh="289.262886" CO2_perVeh="14957.432970" HC_perVeh="1.673001" PMx_perVeh="0.300942" NOx_perVeh="6.429780" fuel_perVeh="6.429547" electricity_perVeh="0"/>
        <edge id=":1110673561_0" sampledSeconds="100.83" CO_abs="9790.349931" CO2_abs="706512.092874" HC_abs="61.570440" PMx_abs="14.243453" NOx_abs="298.384030" fuel_abs="303.695906" electricity_abs="0"
            CO_normed="448.236189" CO2_normed="32346.574943" HC_normed="2.818908" PMx_normed="0.652115" NOx_normed="13.661056" fuel_normed="13.904252" electricity_normed="0"
            traveltime="1.19" CO_perVeh="115.535632" CO2_perVeh="8337.528436" HC_perVeh="0.726591" PMx_perVeh="0.168087" NOx_perVeh="3.521221" fuel_perVeh="3.583906" electricity_perVeh="0"/>
        <edge id=":1110673561_1" sampledSeconds="1314.42" CO_abs="122133.289683" CO2_abs="8427887.886749" HC_abs="760.181588" PMx_abs="176.706673" NOx_abs="3607.600073" fuel_abs="3622.741474" electricity_abs="0"
            CO_normed="5451.567759" CO2_normed="376189.014436" HC_normed="33.931629" PMx_normed="7.887517" NOx_normed="161.029612" fuel_normed="161.705467" electricity_normed="0"
            traveltime="1.19" CO_perVeh="110.732546" CO2_perVeh="7641.172073" HC_perVeh="0.689221" PMx_perVeh="0.160212" NOx_perVeh="3.270842" fuel_perVeh="3.284570" electricity_perVeh="0"/>
        <edge id=":1110673562_0" sampledSeconds="103.88" CO_abs="2284.630876" CO2_abs="183779.688005" HC_abs="14.593870" PMx_abs="2.474261" NOx_abs="69.989516" fuel_abs="78.999760" electricity_abs="0"
            CO_normed="6481.222344" CO2_normed="521360.817037" HC_normed="41.401048" PMx_normed="7.019181" NOx_normed="198.551817" fuel_normed="224.112794" electricity_normed="0"
            traveltime="0.03" CO_perVeh="0.582363" CO2_perVeh="46.846279" HC_perVeh="0.003720" PMx_perVeh="0.000631" NOx_perVeh="0.017841" fuel_perVeh="0.020137" electricity_perVeh="0"/>
        <edge id=":1110673564_0" sampledSeconds="28.91" CO_abs="451.662355" CO2_abs="54290.682662" HC_abs="3.272250" PMx_abs="0.702258" NOx_abs="20.075592" fuel_abs="23.337349" electricity_abs="0"
            CO_normed="3459.541443" CO2_normed="415843.526771" HC_normed="25.064042" PMx_normed="5.378998" NOx_normed="153.770491" fuel_normed="178.754164" electricity_normed="0"
            traveltime="7.948715e-03" CO_perVeh="0.124168" CO2_perVeh="14.925274" HC_perVeh="0.000900" PMx_perVeh="0.000193" NOx_perVeh="0.005519" fuel_perVeh="0.006416" electricity_perVeh="0"/>
        <edge id=":1110673588_0" sampledSeconds="11.67" CO_abs="172.445639" CO2_abs="23409.681443" HC_abs="1.324054" PMx_abs="0.308002" NOx_abs="8.639533" fuel_abs="10.062847" electricity_abs="0"
            CO_normed="528.344087" CO2_normed="71723.279316" HC_normed="4.056675" PMx_normed="0.943667" NOx_normed="26.470058" fuel_normed="30.830852" electricity_normed="0"
            traveltime="0.02" CO_perVeh="0.287409" CO2_perVeh="39.016136" HC_perVeh="0.002207" PMx_perVeh="0.000513" NOx_perVeh="0.014399" fuel_perVeh="0.016771" electricity_perVeh="0"/>
        <edge id=":1110673601_0" sampledSeconds="30.06" CO_abs="621.723363" CO2_abs="64958.529899" HC_abs="4.330787" PMx_abs="0.950231" NOx_abs="24.847175" fuel_abs="27.922916" electricity_abs="0"
            CO_normed="1700.762998" CO2_normed="177698.106107" HC_normed="11.847138" PMx_normed="2.599416" NOx_normed="67.970996" fuel_normed="76.384877" electricity_normed="0"
            traveltime="0.02" CO_perVeh="0.461451" CO2_perVeh="48.213090" HC_perVeh="0.003214" PMx_perVeh="0.000705" NOx_perVeh="0.018442" fuel_perVeh="0.020725" electricity_perVeh="0"/>
        <edge id=":1110673617_0" sampledSeconds="238.18" CO_abs="5711.492453" CO2_abs="699234.598281" HC_abs="42.685236" PMx_abs="12.545674" NOx_abs="264.326431" fuel_abs="300.568755" electricity_abs="0"
            CO_normed="14582.533922" CO2_normed="1785279.825399" HC_normed="108.983582" PMx_normed="32.031509" NOx_normed="674.875993" fuel_normed="767.409588" electricity_normed="0"
            traveltime="0.01" CO_perVeh="0.349885" CO2_perVeh="42.834976" HC_perVeh="0.002615" PMx_perVeh="0.000769" NOx_perVeh="0.016193" fuel_perVeh="0.018413" electricity_perVeh="0"/>
        <edge id=":1110673621_0" sampledSeconds="25.94" CO_abs="436.609995" CO2_abs="51388.793202" HC_abs="3.170602" PMx_abs="0.713824" NOx_abs="19.299403" fuel_abs="22.089884" electricity_abs="0"
            CO_normed="1337.698709" CO2_normed="157446.515343" HC_normed="9.714184" PMx_normed="2.187036" NOx_normed="59.130085" fuel_normed="67.679646" electricity_normed="0"
            traveltime="0.02" CO_perVeh="0.330765" CO2_perVeh="38.930904" HC_perVeh="0.002402" PMx_perVeh="0.000541" NOx_perVeh="0.014621" fuel_perVeh="0.016735" electricity_perVeh="0"/>
        <edge id=":1110673630_0" sampledSeconds="54.77" CO_abs="139.013062" CO2_abs="14200.953248" HC_abs="0.951378" PMx_abs="0.152961" NOx_abs="5.114218" fuel_abs="6.104470" electricity_abs="0"
            CO_normed="7.594728" CO2_normed="775.843502" HC_normed="0.051977" PMx_normed="0.008357" NOx_normed="0.279406" fuel_normed="0.333507" electricity_normed="0"
            traveltime="1.28" CO_perVeh="3.244811" CO2_perVeh="331.475367" HC_perVeh="0.022207" PMx_perVeh="0.003570" NOx_perVeh="0.119375" fuel_perVeh="0.142489" electricity_perVeh="0"/>
        <edge id=":1110673630_1" sampledSeconds="7.23" CO_abs="13.212977" CO2_abs="1359.939100" HC_abs="0.089458" PMx_abs="0.008552" NOx_abs="0.451910" fuel_abs="0.584597" electricity_abs="0"
            CO_normed="0.880050" CO2_normed="90.578737" HC_normed="0.005958" PMx_normed="0.000570" NOx_normed="0.030099" fuel_normed="0.038937" electricity_normed="0"
            traveltime="1.02" CO_perVeh="1.870144" CO2_perVeh="192.483688" HC_perVeh="0.012662" PMx_perVeh="0.001210" NOx_perVeh="0.063963" fuel_perVeh="0.082743" electricity_perVeh="0"/>
        <edge id=":1110673650_0" sampledSeconds="143.19" CO_abs="1921.306625" CO2_abs="247845.837159" HC_abs="14.401677" PMx_abs="3.355952" NOx_abs="92.185389" fuel_abs="106.538520" electricity_abs="0"
            CO_normed="4905.463723" CO2_normed="632797.882107" HC_normed="36.770240" PMx_normed="8.568387" NOx_normed="235.366951" fuel_normed="272.013242" electricity_normed="0"
            traveltime="0.02" CO_perVeh="0.308891" CO2_perVeh="39.846484" HC_perVeh="0.002315" PMx_perVeh="0.000540" NOx_perVeh="0.014821" fuel_perVeh="0.017128" electricity_perVeh="0"/>
        <edge id=":1110673655_0" sampledSeconds="44.47" CO_abs="857.266894" CO2_abs="105668.334169" HC_abs="6.315481" PMx_abs="1.417060" NOx_abs="39.327225" fuel_abs="45.422424" electricity_abs="0"
            CO_normed="2188.766537" CO2_normed="269791.491495" HC_normed="16.124633" PMx_normed="3.618026" NOx_normed="100.409936" fuel_normed="115.972145" electricity_normed="0"
            traveltime="0.02" CO_perVeh="0.458800" CO2_perVeh="56.552494" HC_perVeh="0.003380" PMx_perVeh="0.000758" NOx_perVeh="0.021047" fuel_perVeh="0.024310" electricity_perVeh="0"/>
        <edge id=":1110673663_0" sampledSeconds="108.60" CO_abs="1586.186055" CO2_abs="199718.173830" HC_abs="11.798944" PMx_abs="2.672549" NOx_abs="74.203373" fuel_abs="85.850532" electricity_abs="0"
            CO_normed="74.172834" CO2_normed="9339.171093" HC_normed="0.551739" PMx_normed="0.124973" NOx_normed="3.469879" fuel_normed="4.014521" electricity_normed="0"
            traveltime="1.28" CO_perVeh="18.630504" CO2_perVeh="2345.784170" HC_perVeh="0.138584" PMx_perVeh="0.031390" NOx_perVeh="0.871554" fuel_perVeh="1.008355" electricity_perVeh="0"/>
        <edge id=":1110673663_1" sampledSeconds="154.15" CO_abs="2280.850283" CO2_abs="300899.658841" HC_abs="17.255669" PMx_abs="4.018691" NOx_abs="111.412479" fuel_abs="129.344189" electricity_abs="0"
            CO_normed="106.786935" CO2_normed="14087.795503" HC_normed="0.807892" PMx_normed="0.188151" NOx_normed="5.216211" fuel_normed="6.055755" electricity_normed="0"
            traveltime="1.25" CO_perVeh="18.481564" CO2_perVeh="2438.168098" HC_perVeh="0.139821" PMx_perVeh="0.032563" NOx_perVeh="0.902767" fuel_perVeh="1.048067" electricity_perVeh="0"/>
        <edge id=":1110673666_0" sampledSeconds="193.53" CO_abs="4131.117287" CO2_abs="327289.235334" HC_abs="26.291681" PMx_abs="4.528373" NOx_abs="125.479926" fuel_abs="140.688810" electricity_abs="0"