<?xml version="1.0" encoding="UTF-8"?>

<!-- generated on Mon Nov  9 23:47:48 2020 by Eclipse SUMO sumo Version 1.7.0
<configuration xmlns:xsi="http://www.w3.org/2001/XMLSchema-instance" xsi:noNamespaceSchemaLocation="http://sumo.dlr.de/xsd/sumoConfiguration.xsd">

    <input>
        <net-file value="../dataSets/Porto/6AM7AM_Routing_SaoBento/Porto.net.xml"/>
        <route-files value="../results/Porto/6AM7AM_Routing_SaoBento/cost_PMx-length/solution18/Porto.rou.xml"/>
        <additional-files value="moreOutputInfo.xml"/>
    </input>

    <output>
        <emission-output.precision value="6"/>
        <tripinfo-output value="../results/Porto/6AM7AM_Routing_SaoBento/cost_PMx-length/solution18/Porto-tripinfo"/>
    </output>

    <processing>
        <collision.action value="warn"/>
        <time-to-teleport value="-1"/>
    </processing>

    <emissions>
        <device.emissions.probability value="1"/>
    </emissions>

    <gui_only>
        <quit-on-end value="true"/>
        <start value="true"/>
    </gui_only>

</configuration>
-->

<meandata xmlns:xsi="http://www.w3.org/2001/XMLSchema-instance" xsi:noNamespaceSchemaLocation="http://sumo.dlr.de/xsd/meandata_file.xsd">
    <interval begin="0.00" end="4700.00" id="emissions-detector">
        <edge id=":1092997347_0" sampledSeconds="266.68" CO_abs="34165.698969" CO2_abs="1353865.322577" HC_abs="187.569049" PMx_abs="27.649075" NOx_abs="587.818620" fuel_abs="581.973450" electricity_abs="0"
            CO_normed="59476.071706" CO2_normed="2356825.513191" HC_normed="326.522523" PMx_normed="48.131852" NOx_normed="1023.281930" fuel_normed="1013.106586" electricity_normed="0"
            traveltime="0.07" CO_perVeh="9.592581" CO2_perVeh="380.119936" HC_perVeh="0.052663" PMx_perVeh="0.007763" NOx_perVeh="0.165040" fuel_perVeh="0.163399" electricity_perVeh="0"/>
        <edge id=":1103427051_0" sampledSeconds="10.87" CO_abs="851.035161" CO2_abs="47813.246541" HC_abs="5.013509" PMx_abs="0.955367" NOx_abs="20.520342" fuel_abs="20.552773" electricity_abs="0"
            CO_normed="2247.781789" CO2_normed="126285.904291" HC_normed="13.241844" PMx_normed="2.523347" NOx_normed="54.198996" fuel_normed="54.284653" electricity_normed="0"
            traveltime="0.03" CO_perVeh="2.331823" CO2_perVeh="131.007573" HC_perVeh="0.013737" PMx_perVeh="0.002618" NOx_perVeh="0.056225" fuel_perVeh="0.056314" electricity_perVeh="0"/>
        <edge id=":1105984386_0" sampledSeconds="22.94" CO_abs="613.301550" CO2_abs="45919.108734" HC_abs="3.841471" PMx_abs="0.637020" NOx_abs="17.666395" fuel_abs="19.738846" electricity_abs="0"
            CO_normed="48.379288" CO2_normed="3622.253685" HC_normed="0.303028" PMx_normed="0.050250" NOx_normed="1.393585" fuel_normed="1.557067" electricity_normed="0"
            traveltime="0.96" CO_perVeh="25.739791" CO2_perVeh="1927.189427" HC_perVeh="0.161224" PMx_perVeh="0.026735" NOx_perVeh="0.741445" fuel_perVeh="0.828424" electricity_perVeh="0"/>
        <edge id=":1105984390_0" sampledSeconds="23.31" CO_abs="8.437239" CO2_abs="834.571431" HC_abs="0.057157" PMx_abs="0.009248" NOx_abs="0.303203" fuel_abs="0.358751" electricity_abs="0"
            CO_normed="0.514536" CO2_normed="50.895398" HC_normed="0.003486" PMx_normed="0.000564" NOx_normed="0.018490" fuel_normed="0.021878" electricity_normed="0"
            traveltime="1.06" CO_perVeh="0.382625" CO2_perVeh="37.847405" HC_perVeh="0.002592" PMx_perVeh="0.000419" NOx_perVeh="0.013750" fuel_perVeh="0.016269" electricity_perVeh="0"/>
        <edge id=":1105984390_1" sampledSeconds="645.57" CO_abs="16054.355063" CO2_abs="2020114.629052" HC_abs="121.434548" PMx_abs="36.053518" NOx_abs="759.557450" fuel_abs="868.354489" electricity_abs="0"
            CO_normed="936.553908" CO2_normed="117846.294252" HC_normed="7.084059" PMx_normed="2.103234" NOx_normed="44.309877" fuel_normed="50.656709" electricity_normed="0"
            traveltime="0.64" CO_perVeh="15.806049" CO2_perVeh="1988.870293" HC_perVeh="0.119556" PMx_perVeh="0.035496" NOx_perVeh="0.747810" fuel_perVeh="0.854924" electricity_perVeh="0"/>
        <edge id=":1105984395_0" sampledSeconds="8.99" CO_abs="228.695424" CO2_abs="16625.987168" HC_abs="1.420332" PMx_abs="0.228484" NOx_abs="6.392681" fuel_abs="7.146876" electricity_abs="0"
            CO_normed="190.403220" CO2_normed="13842.172480" HC_normed="1.182515" PMx_normed="0.190228" NOx_normed="5.322306" fuel_normed="5.950220" electricity_normed="0"
            traveltime="0.09" CO_perVeh="2.319222" CO2_perVeh="168.605690" HC_perVeh="0.014404" PMx_perVeh="0.002317" NOx_perVeh="0.064829" fuel_perVeh="0.072477" electricity_perVeh="0"/>
        <edge id=":1105984398_0" sampledSeconds="23.05" CO_abs="1683.909220" CO2_abs="114360.404286" HC_abs="10.371954" PMx_abs="2.098887" NOx_abs="47.428809" fuel_abs="49.158445" electricity_abs="0"
            CO_normed="106.683441" CO2_normed="7245.260817" HC_normed="0.657111" PMx_normed="0.132974" NOx_normed="3.004835" fuel_normed="3.114415" electricity_normed="0"
            traveltime="1.10" CO_perVeh="80.281058" CO2_perVeh="5452.178864" HC_perVeh="0.494487" PMx_perVeh="0.100065" NOx_perVeh="2.261188" fuel_perVeh="2.343649" electricity_perVeh="0"/>
        <edge id=":1105984398_1" sampledSeconds="452.95" CO_abs="8225.975940" CO2_abs="967205.154067" HC_abs="59.689190" PMx_abs="13.944291" NOx_abs="366.162887" fuel_abs="415.760126" electricity_abs="0"
            CO_normed="504.463373" CO2_normed="59314.490821" HC_normed="3.660479" PMx_normed="0.855143" NOx_normed="22.455179" fuel_normed="25.496763" electricity_normed="0"
            traveltime="0.95" CO_perVeh="17.330022" CO2_perVeh="2037.653262" HC_perVeh="0.125750" PMx_perVeh="0.029377" NOx_perVeh="0.771411" fuel_perVeh="0.875900" electricity_perVeh="0"/>
        <edge id=":1106006327_0" sampledSeconds="38.64" CO_abs="5189.311198" CO2_abs="167780.883560" HC_abs="27.576654" PMx_abs="3.494039" NOx_abs="73.402904" fuel_abs="72.123104" electricity_abs="0"
            CO_normed="448.622072" CO2_normed="14504.855214" HC_normed="2.384034" PMx_normed="0.302064" NOx_normed="6.345768" fuel_normed="6.235127" electricity_normed="0"
            traveltime="2.10" CO_perVeh="281.516637" CO2_perVeh="9101.999929" HC_perVeh="1.496015" PMx_perVeh="0.189549" NOx_perVeh="3.982058" fuel_perVeh="3.912630" electricity_perVeh="0"/>
        <edge id=":1106006327_1" sampledSeconds="163.99" CO_abs="22054.106665" CO2_abs="727592.733733" HC_abs="117.554298" PMx_abs="15.149411" NOx_abs="318.250943" fuel_abs="312.766165" electricity_abs="0"
            CO_normed="1662.648350" CO2_normed="54852.861481" HC_normed="8.862361" PMx_normed="1.142107" NOx_normed="23.992783" fuel_normed="23.579289" electricity_normed="0"
            traveltime="2.33" CO_perVeh="313.086468" CO2_perVeh="10329.116609" HC_perVeh="1.668835" PMx_perVeh="0.215065" NOx_perVeh="4.517982" fuel_perVeh="4.440119" electricity_perVeh="0"/>
        <edge id=":1106006327_2" sampledSeconds="0.00" CO_abs="0" CO2_abs="0" HC_abs="0" PMx_abs="0" NOx_abs="0" fuel_abs="0" electricity_abs="0"
            CO_normed="0" CO2_normed="0" HC_normed="0" PMx_normed="0" NOx_normed="0" fuel_normed="0" electricity_normed="0"/>
        <edge id=":1106006327_3" sampledSeconds="0.00" CO_abs="0" CO2_abs="0" HC_abs="0" PMx_abs="0" NOx_abs="0" fuel_abs="0" electricity_abs="0"
            CO_normed="0" CO2_normed="0" HC_normed="0" PMx_normed="0" NOx_normed="0" fuel_normed="0" electricity_normed="0"/>
        <edge id=":1107381198_0" sampledSeconds="0.00" CO_abs="0" CO2_abs="0" HC_abs="0" PMx_abs="0" NOx_abs="0" fuel_abs="0" electricity_abs="0"
            CO_normed="0" CO2_normed="0" HC_normed="0" PMx_normed="0" NOx_normed="0" fuel_normed="0" electricity_normed="0"/>
        <edge id=":1107381198_1" sampledSeconds="35.69" CO_abs="1553.352870" CO2_abs="63557.159930" HC_abs="8.535959" PMx_abs="1.088166" NOx_abs="26.261090" fuel_abs="27.320998" electricity_abs="0"
            CO_normed="129.749422" CO2_normed="5308.841870" HC_normed="0.712997" PMx_normed="0.090893" NOx_normed="2.193553" fuel_normed="2.282085" electricity_normed="0"
            traveltime="1.47" CO_perVeh="63.955845" CO2_perVeh="2616.824518" HC_perVeh="0.351449" PMx_perVeh="0.044803" NOx_perVeh="1.081242" fuel_perVeh="1.124881" electricity_perVeh="0"/>
        <edge id=":1110338277_0" sampledSeconds="96.71" CO_abs="1499.757919" CO2_abs="185927.201457" HC_abs="11.045587" PMx_abs="2.523821" NOx_abs="69.327136" fuel_abs="79.922320" electricity_abs="0"
            CO_normed="4102.681239" CO2_normed="508615.444716" HC_normed="30.215891" PMx_normed="6.904070" NOx_normed="189.648701" fuel_normed="218.632487" electricity_normed="0"
            traveltime="0.02" CO_perVeh="0.338001" CO2_perVeh="41.902482" HC_perVeh="0.002489" PMx_perVeh="0.000569" NOx_perVeh="0.015624" fuel_perVeh="0.018012" electricity_perVeh="0"/>
        <edge id=":1110338293_0" sampledSeconds="123.86" CO_abs="6269.547694" CO2_abs="430114.692347" HC_abs="38.674396" PMx_abs="7.648609" NOx_abs="176.762265" fuel_abs="184.887476" electricity_abs="0"
            CO_normed="16007.355813" CO2_normed="1098165.171950" HC_normed="98.743139" PMx_normed="19.528362" NOx_normed="451.307912" fuel_normed="472.053130" electricity_normed="0"
            traveltime="0.03" CO_perVeh="1.438025" CO2_perVeh="98.653930" HC_perVeh="0.008871" PMx_perVeh="0.001754" NOx_perVeh="0.040543" fuel_perVeh="0.042407" electricity_perVeh="0"/>
        <edge id=":1110338295_0" sampledSeconds="0.00" CO_abs="0" CO2_abs="0" HC_abs="0" PMx_abs="0" NOx_abs="0" fuel_abs="0" electricity_abs="0"
            CO_normed="0" CO2_normed="0" HC_normed="0" PMx_normed="0" NOx_normed="0" fuel_normed="0" electricity_normed="0"/>
        <edge id=":1110673403_0" sampledSeconds="143.40" CO_abs="2301.894736" CO2_abs="286004.312482" HC_abs="17.026936" PMx_abs="3.922722" NOx_abs="106.874880" fuel_abs="122.941227" electricity_abs="0"
            CO_normed="5877.178050" CO2_normed="730223.776549" HC_normed="43.473027" PMx_normed="10.015460" NOx_normed="272.872033" fuel_normed="313.892496" electricity_normed="0"
            traveltime="0.02" CO_perVeh="0.369585" CO2_perVeh="45.919986" HC_perVeh="0.002734" PMx_perVeh="0.000630" NOx_perVeh="0.017160" fuel_perVeh="0.019739" electricity_perVeh="0"/>
        <edge id=":1110673412_0" sampledSeconds="252.87" CO_abs="44680.537398" CO2_abs="3048926.360902" HC_abs="278.064458" PMx_abs="67.001573" NOx_abs="1310.384090" fuel_abs="1310.583259" electricity_abs="0"
            CO_normed="118011.690854" CO2_normed="8052923.623806" HC_normed="734.432905" PMx_normed="176.966738" NOx_normed="3461.029145" fuel_normed="3461.555197" electricity_normed="0"
            traveltime="0.02" CO_perVeh="2.749046" CO2_perVeh="187.590343" HC_perVeh="0.017108" PMx_perVeh="0.004122" NOx_perVeh="0.080624" fuel_perVeh="0.080636" electricity_perVeh="0"/>
        <edge id=":1110673414_0" sampledSeconds="0.00" CO_abs="0" CO2_abs="0" HC_abs="0" PMx_abs="0" NOx_abs="0" fuel_abs="0" electricity_abs="0"
            CO_normed="0" CO2_normed="0" HC_normed="0" PMx_normed="0" NOx_normed="0" fuel_normed="0" electricity_normed="0"/>
        <edge id=":1110673414_1" sampledSeconds="129.92" CO_abs="8579.779772" CO2_abs="335781.503556" HC_abs="46.868151" PMx_abs="6.187900" NOx_abs="141.653747" fuel_abs="144.340355" electricity_abs="0"
            CO_normed="727.768129" CO2_normed="28482.208544" HC_normed="3.975527" PMx_normed="0.524880" NOx_normed="12.015586" fuel_normed="12.243474" electricity_normed="0"
            traveltime="1.55" CO_perVeh="102.223791" CO2_perVeh="4000.668923" HC_perVeh="0.558411" PMx_perVeh="0.073726" NOx_perVeh="1.687734" fuel_perVeh="1.719743" electricity_perVeh="0"/>
        <edge id=":1110673417_0" sampledSeconds="29.94" CO_abs="433.415149" CO2_abs="50322.946965" HC_abs="3.132509" PMx_abs="0.691716" NOx_abs="18.892470" fuel_abs="21.631734" electricity_abs="0"
            CO_normed="1185.634146" CO2_normed="137661.557048" HC_normed="8.569174" PMx_normed="1.892231" NOx_normed="51.681528" fuel_normed="59.174957" electricity_normed="0"
            traveltime="0.02" CO_perVeh="0.321687" CO2_perVeh="37.350365" HC_perVeh="0.002325" PMx_perVeh="0.000513" NOx_perVeh="0.014022" fuel_perVeh="0.016055" electricity_perVeh="0"/>
        <edge id=":1110673446_0" sampledSeconds="333.51" CO_abs="2979.354458" CO2_abs="245497.159258" HC_abs="19.331653" PMx_abs="4.444145" NOx_abs="99.929060" fuel_abs="105.527988" electricity_abs="0"
            CO_normed="7606.862445" CO2_normed="626801.257681" HC_normed="49.357412" PMx_normed="11.346753" NOx_normed="255.138025" fuel_normed="269.433161" electricity_normed="0"
            traveltime="0.02" CO_perVeh="0.203206" CO2_perVeh="16.744040" HC_perVeh="0.001319" PMx_perVeh="0.000303" NOx_perVeh="0.006816" fuel_perVeh="0.007197" electricity_perVeh="0"/>
        <edge id=":1110673451_0" sampledSeconds="37.59" CO_abs="487.334103" CO2_abs="35712.409884" HC_abs="3.030060" PMx_abs="0.473952" NOx_abs="13.616393" fuel_abs="15.351421" electricity_abs="0"
            CO_normed="1382.508093" CO2_normed="101311.801088" HC_normed="8.595914" PMx_normed="1.344544" NOx_normed="38.628065" fuel_normed="43.550131" electricity_normed="0"
            traveltime="0.03" CO_perVeh="0.349483" CO2_perVeh="25.610493" HC_perVeh="0.002173" PMx_perVeh="0.000340" NOx_perVeh="0.009765" fuel_perVeh="0.011009" electricity_perVeh="0"/>
        <edge id=":1110673464_0" sampledSeconds="324.67" CO_abs="541.179015" CO2_abs="44086.107210" HC_abs="3.444166" PMx_abs="0.569145" NOx_abs="16.606443" fuel_abs="18.950938" electricity_abs="0"
            CO_normed="29.356947" CO2_normed="2391.507232" HC_normed="0.186833" PMx_normed="0.030874" NOx_normed="0.900838" fuel_normed="1.028018" electricity_normed="0"
            traveltime="1.17" CO_perVeh="1.956291" CO2_perVeh="159.365461" HC_perVeh="0.012450" PMx_perVeh="0.002057" NOx_perVeh="0.060030" fuel_perVeh="0.068505" electricity_perVeh="0"/>
        <edge id=":1110673464_1" sampledSeconds="708.98" CO_abs="14965.472245" CO2_abs="1957498.374303" HC_abs="114.797911" PMx_abs="34.502498" NOx_abs="731.628799" fuel_abs="841.438932" electricity_abs="0"
            CO_normed="795.483339" CO2_normed="104049.997010" HC_normed="6.102034" PMx_normed="1.833966" NOx_normed="38.889419" fuel_normed="44.726330" electricity_normed="0"
            traveltime="0.70" CO_perVeh="14.781896" CO2_perVeh="1933.486367" HC_perVeh="0.113390" PMx_perVeh="0.034079" NOx_perVeh="0.722654" fuel_perVeh="0.831117" electricity_perVeh="0"/>
        <edge id=":1110673479_0" sampledSeconds="133.55" CO_abs="6828.127260" CO2_abs="468998.535049" HC_abs="42.122971" PMx_abs="8.286405" NOx_abs="192.411352" fuel_abs="201.602011" electricity_abs="0"
            CO_normed="17433.516408" CO2_normed="1197443.068210" HC_normed="107.548011" PMx_normed="21.156780" NOx_normed="491.263027" fuel_normed="514.728538" electricity_normed="0"
            traveltime="0.03" CO_perVeh="1.438416" CO2_perVeh="98.799388" HC_perVeh="0.008874" PMx_perVeh="0.001746" NOx_perVeh="0.040533" fuel_perVeh="0.042470" electricity_perVeh="0"/>
        <edge id=":1110673511_0" sampledSeconds="11.77" CO_abs="181.219795" CO2_abs="21822.758305" HC_abs="1.330928" PMx_abs="0.307154" NOx_abs="8.220312" fuel_abs="9.380678" electricity_abs="0"
            CO_normed="462.688839" CO2_normed="55717.680779" HC_normed="3.398114" PMx_normed="0.784224" NOx_normed="20.988032" fuel_normed="23.950668" electricity_normed="0"
            traveltime="0.02" CO_perVeh="0.358851" CO2_perVeh="43.213383" HC_perVeh="0.002636" PMx_perVeh="0.000608" NOx_perVeh="0.016278" fuel_perVeh="0.018576" electricity_perVeh="0"/>
        <edge id=":1110673517_0" sampledSeconds="16.92" CO_abs="864.006584" CO2_abs="60793.825280" HC_abs="5.369552" PMx_abs="1.094895" NOx_abs="25.026365" fuel_abs="26.132569" electricity_abs="0"
            CO_normed="2205.974258" CO2_normed="155218.277311" HC_normed="13.709494" PMx_normed="2.795478" NOx_normed="63.897102" fuel_normed="66.721452" electricity_normed="0"
            traveltime="0.03" CO_perVeh="1.387220" CO2_perVeh="97.608497" HC_perVeh="0.008621" PMx_perVeh="0.001758" NOx_perVeh="0.040181" fuel_perVeh="0.041958" electricity_perVeh="0"/>
        <edge id=":1110673534_0" sampledSeconds="475.75" CO_abs="2723.464596" CO2_abs="236025.708690" HC_abs="17.785397" PMx_abs="3.126918" NOx_abs="89.288325" fuel_abs="101.458224" electricity_abs="0"
            CO_normed="134.758268" CO2_normed="11678.659510" HC_normed="0.880030" PMx_normed="0.154721" NOx_normed="4.418027" fuel_normed="5.020199" electricity_normed="0"
            traveltime="1.43" CO_perVeh="8.204707" CO2_perVeh="711.050862" HC_perVeh="0.053580" PMx_perVeh="0.009420" NOx_perVeh="0.268990" fuel_perVeh="0.305653" electricity_perVeh="0"/>
        <edge id=":1110673534_1" sampledSeconds="184.67" CO_abs="2919.810078" CO2_abs="346510.763618" HC_abs="21.243329" PMx_abs="4.892378" NOx_abs="130.504949" fuel_abs="148.950292" electricity_abs="0"
            CO_normed="140.480545" CO2_normed="16671.639434" HC_normed="1.022078" PMx_normed="0.235386" NOx_normed="6.278972" fuel_normed="7.166431" electricity_normed="0"
            traveltime="1.23" CO_perVeh="19.386502" CO2_perVeh="2300.708457" HC_perVeh="0.141048" PMx_perVeh="0.032484" NOx_perVeh="0.866507" fuel_perVeh="0.988977" electricity_perVeh="0"/>
        <edge id=":1110673549_0" sampledSeconds="60.12" CO_abs="83.804612" CO2_abs="7140.581707" HC_abs="0.542519" PMx_abs="0.084556" NOx_abs="2.635821" fuel_abs="3.069473" electricity_abs="0"
            CO_normed="4.016944" CO2_normed="342.264189" HC_normed="0.026004" PMx_normed="0.004053" NOx_normed="0.126341" fuel_normed="0.147127" electricity_normed="0"
            traveltime="1.25" CO_perVeh="1.745998" CO2_perVeh="148.767937" HC_perVeh="0.011303" PMx_perVeh="0.001762" NOx_perVeh="0.054915" fuel_perVeh="0.063950" electricity_perVeh="0"/>
        <edge id=":1110673549_1" sampledSeconds="638.79" CO_abs="13103.148193" CO2_abs="1761485.638292" HC_abs="101.573683" PMx_abs="30.737825" NOx_abs="656.177950" fuel_abs="757.182208" electricity_abs="0"
            CO_normed="607.533531" CO2_normed="81672.096979" HC_normed="4.709511" PMx_normed="1.425173" NOx_normed="30.423994" fuel_normed="35.107104" electricity_normed="0"
            traveltime="0.80" CO_perVeh="16.494268" CO2_perVeh="2217.361465" HC_perVeh="0.127861" PMx_perVeh="0.038693" NOx_perVeh="0.825998" fuel_perVeh="0.953142" electricity_perVeh="0"/>
        <edge id=":1110673556_0" sampledSeconds="417.73" CO_abs="51934.591488" CO2_abs="2607086.843332" HC_abs="298.485486" PMx_abs="52.674442" NOx_abs="1123.340266" fuel_abs="1120.673612" electricity_abs="0"
            CO_normed="1845.925155" CO2_normed="92664.388962" HC_normed="10.609150" PMx_normed="1.872222" NOx_normed="39.927185" fuel_normed="39.832404" electricity_normed="0"
            traveltime="2.59" CO_perVeh="322.384620" CO2_perVeh="16183.523872" HC_perVeh="1.852852" PMx_perVeh="0.326977" NOx_perVeh="6.973149" fuel_perVeh="6.956595" electricity_perVeh="0"/>
        <edge id=":1110673556_2" sampledSeconds="246.18" CO_abs="23557.985569" CO2_abs="1022830.384944" HC_abs="131.295752" PMx_abs="19.729032" NOx_abs="436.138032" fuel_abs="439.674442" electricity_abs="0"
            CO_normed="875.517442" CO2_normed="38012.836010" HC_normed="4.879523" PMx_normed="0.733217" NOx_normed="16.208791" fuel_normed="16.340219" electricity_normed="0"
            traveltime="2.99" CO_perVeh="285.753851" CO2_perVeh="12406.736566" HC_perVeh="1.592592" PMx_perVeh="0.239309" NOx_perVeh="5.290271" fuel_perVeh="5.333167" electricity_perVeh="0"/>
        <edge id=":1110673556_3" sampledSeconds="417.64" CO_abs="35980.845936" CO2_abs="1277014.483691" HC_abs="193.544708" PMx_abs="24.318559" NOx_abs="544.315762" fuel_abs="548.944071" electricity_abs="0"
            CO_normed="3041.920186" CO2_normed="107962.334820" HC_normed="16.362805" PMx_normed="2.055958" NOx_normed="46.017959" fuel_normed="46.409249" electricity_normed="0"
            traveltime="1.75" CO_perVeh="150.350971" CO2_perVeh="5336.182690" HC_perVeh="0.808753" PMx_perVeh="0.101618" NOx_perVeh="2.274499" fuel_perVeh="2.293839" electricity_perVeh="0"/>
        <edge id=":1110673556_4" sampledSeconds="197.13" CO_abs="20550.073321" CO2_abs="823737.855282" HC_abs="112.908178" PMx_abs="16.108584" NOx_abs="353.250585" fuel_abs="354.093369" electricity_abs="0"
            CO_normed="1061.394585" CO2_normed="42545.390726" HC_normed="5.831616" PMx_normed="0.831995" NOx_normed="18.245106" fuel_normed="18.288635" electricity_normed="0"
            traveltime="2.41" CO_perVeh="251.044176" CO2_perVeh="10062.961213" HC_perVeh="1.379311" PMx_perVeh="0.196786" NOx_perVeh="4.315386" fuel_perVeh="4.325682" electricity_perVeh="0"/>
        <edge id=":1110673556_5" sampledSeconds="25.61" CO_abs="2197.254775" CO2_abs="86907.503824" HC_abs="12.047798" PMx_abs="1.718494" NOx_abs="37.386662" fuel_abs="37.358205" electricity_abs="0"
            CO_normed="158.177035" CO2_normed="6256.339261" HC_normed="0.867303" PMx_normed="0.123712" NOx_normed="2.691409" fuel_normed="2.689360" electricity_normed="0"
            traveltime="1.77" CO_perVeh="151.908972" CO2_perVeh="6008.420017" HC_perVeh="0.832934" PMx_perVeh="0.118809" NOx_perVeh="2.584757" fuel_perVeh="2.582790" electricity_perVeh="0"/>
        <edge id=":1110673556_6" sampledSeconds="308.27" CO_abs="36749.992417" CO2_abs="1883771.476754" HC_abs="212.144484" PMx_abs="37.906838" NOx_abs="810.043100" fuel_abs="809.751331" electricity_abs="0"
            CO_normed="1339.149875" CO2_normed="68643.615162" HC_normed="7.730430" PMx_normed="1.381305" NOx_normed="29.517533" fuel_normed="29.506901" electricity_normed="0"
            traveltime="2.44" CO_perVeh="291.030377" CO2_perVeh="14917.954738" HC_perVeh="1.680014" PMx_perVeh="0.300192" NOx_perVeh="6.414890" fuel_perVeh="6.412579" electricity_perVeh="0"/>
        <edge id=":1110673561_0" sampledSeconds="100.92" CO_abs="9046.450859" CO2_abs="656795.351598" HC_abs="56.996827" PMx_abs="13.212347" NOx_abs="277.055236" fuel_abs="282.325060" electricity_abs="0"
            CO_normed="414.177908" CO2_normed="30070.370029" HC_normed="2.609512" PMx_normed="0.604907" NOx_normed="12.684550" fuel_normed="12.925821" electricity_normed="0"
            traveltime="1.19" CO_perVeh="106.756901" CO2_perVeh="7750.822634" HC_perVeh="0.672618" PMx_perVeh="0.155919" NOx_perVeh="3.269521" fuel_perVeh="3.331710" electricity_perVeh="0"/>
        <edge id=":1110673561_1" sampledSeconds="1313.48" CO_abs="118548.757768" CO2_abs="8245044.279416" HC_abs="739.091879" PMx_abs="171.942735" NOx_abs="3521.763685" fuel_abs="3544.146592" electricity_abs="0"
            CO_normed="5291.567822" CO2_normed="368027.567895" HC_normed="32.990264" PMx_normed="7.674873" NOx_normed="157.198200" fuel_normed="158.197289" electricity_normed="0"
            traveltime="1.19" CO_perVeh="107.686403" CO2_perVeh="7489.569518" HC_perVeh="0.671371" PMx_perVeh="0.156188" NOx_perVeh="3.199072" fuel_perVeh="3.219404" electricity_perVeh="0"/>
        <edge id=":1110673562_0" sampledSeconds="104.23" CO_abs="2135.401938" CO2_abs="166812.037965" HC_abs="13.522176" PMx_abs="2.229516" NOx_abs="63.491999" fuel_abs="71.706096" electricity_abs="0"
            CO_normed="6057.877838" CO2_normed="473225.639616" HC_normed="38.360783" PMx_normed="6.324868" NOx_normed="180.119147" fuel_normed="203.421549" electricity_normed="0"
            traveltime="0.03" CO_perVeh="0.544324" CO2_perVeh="42.521148" HC_perVeh="0.003447" PMx_perVeh="0.000568" NOx_perVeh="0.016184" fuel_perVeh="0.018278" electricity_perVeh="0"/>
        <edge id=":1110673564_0" sampledSeconds="28.46" CO_abs="484.927881" CO2_abs="53639.402566" HC_abs="3.438277" PMx_abs="0.746412" NOx_abs="20.246980" fuel_abs="23.057340" electricity_abs="0"
            CO_normed="3714.341219" CO2_normed="410854.998378" HC_normed="26.335740" PMx_normed="5.717200" NOx_normed="155.083252" fuel_normed="176.609410" electricity_normed="0"
            traveltime="7.824175e-03" CO_perVeh="0.133314" CO2_perVeh="14.746228" HC_perVeh="0.000945" PMx_perVeh="0.000205" NOx_perVeh="0.005566" fuel_perVeh="0.006339" electricity_perVeh="0"/>
        <edge id=":1110673588_0" sampledSeconds="11.54" CO_abs="192.922229" CO2_abs="24832.433874" HC_abs="1.442923" PMx_abs="0.331639" NOx_abs="9.211910" fuel_abs="10.674427" electricity_abs="0"
            CO_normed="591.080873" CO2_normed="76082.350593" HC_normed="4.420872" PMx_normed="1.016087" NOx_normed="28.223725" fuel_normed="32.704629" electricity_normed="0"
            traveltime="0.02" CO_perVeh="0.321537" CO2_perVeh="41.387390" HC_perVeh="0.002405" PMx_perVeh="0.000553" NOx_perVeh="0.015353" fuel_perVeh="0.017791" electricity_perVeh="0"/>
        <edge id=":1110673601_0" sampledSeconds="29.71" CO_abs="551.169800" CO2_abs="63244.470418" HC_abs="3.963364" PMx_abs="0.892500" NOx_abs="23.864056" fuel_abs="27.186130" electricity_abs="0"
            CO_normed="1507.759333" CO2_normed="173009.189594" HC_normed="10.842028" PMx_normed="2.441491" NOx_normed="65.281613" fuel_normed="74.369352" electricity_normed="0"
            traveltime="0.02" CO_perVeh="0.409086" CO2_perVeh="46.940893" HC_perVeh="0.002942" PMx_perVeh="0.000662" NOx_perVeh="0.017712" fuel_perVeh="0.020178" electricity_perVeh="0"/>
        <edge id=":1110673617_0" sampledSeconds="238.53" CO_abs="5614.181019" CO2_abs="705283.092235" HC_abs="42.458161" PMx_abs="12.563087" NOx_abs="265.585946" fuel_abs="303.168799" electricity_abs="0"
            CO_normed="14334.079198" CO2_normed="1800722.788686" HC_normed="108.403815" PMx_normed="32.075968" NOx_normed="678.091777" fuel_normed="774.047996" electricity_normed="0"
            traveltime="0.01" CO_perVeh="0.344162" CO2_perVeh="43.235458" HC_perVeh="0.002603" PMx_perVeh="0.000770" NOx_perVeh="0.016281" fuel_perVeh="0.018585" electricity_perVeh="0"/>
        <edge id=":1110673621_0" sampledSeconds="25.65" CO_abs="418.795875" CO2_abs="49324.611888" HC_abs="3.036779" PMx_abs="0.703319" NOx_abs="18.631202" fuel_abs="21.202551" electricity_abs="0"
            CO_normed="1283.119278" CO2_normed="151122.215146" HC_normed="9.304173" PMx_normed="2.154850" NOx_normed="57.082833" fuel_normed="64.961007" electricity_normed="0"
            traveltime="0.02" CO_perVeh="0.317270" CO2_perVeh="37.367130" HC_perVeh="0.002301" PMx_perVeh="0.000533" NOx_perVeh="0.014115" fuel_perVeh="0.016063" electricity_perVeh="0"/>
        <edge id=":1110673630_0" sampledSeconds="54.73" CO_abs="297.671630" CO2_abs="26214.916961" HC_abs="1.953507" PMx_abs="0.346313" NOx_abs="9.904034" fuel_abs="11.268766" electricity_abs="0"
            CO_normed="16.262753" CO2_normed="1432.204769" HC_normed="0.106726" PMx_normed="0.018920" NOx_normed="0.541089" fuel_normed="0.615649" electricity_normed="0"
            traveltime="1.28" CO_perVeh="6.948182" CO2_perVeh="611.902530" HC_perVeh="0.045598" PMx_perVeh="0.008084" NOx_perVeh="0.231178" fuel_perVeh="0.263033" electricity_perVeh="0"/>
        <edge id=":1110673630_1" sampledSeconds="7.18" CO_abs="47.761657" CO2_abs="3750.714033" HC_abs="0.303613" PMx_abs="0.053935" NOx_abs="1.453685" fuel_abs="1.612282" electricity_abs="0"
            CO_normed="3.181165" CO2_normed="249.816291" HC_normed="0.020222" PMx_normed="0.003592" NOx_normed="0.096823" fuel_normed="0.107386" electricity_normed="0"
            traveltime="1.02" CO_perVeh="6.760111" CO2_perVeh="530.870294" HC_perVeh="0.042973" PMx_perVeh="0.007634" NOx_perVeh="0.205752" fuel_perVeh="0.228200" electricity_perVeh="0"/>
        <edge id=":1110673650_0" sampledSeconds="143.59" CO_abs="2253.542717" CO2_abs="276692.916881" HC_abs="16.598355" PMx_abs="3.791569" NOx_abs="103.447835" fuel_abs="118.938672" electricity_abs="0"
            CO_normed="5753.726085" CO2_normed="706450.000548" HC_normed="42.378779" PMx_normed="9.680602" NOx_normed="264.122133" fuel_normed="303.673204" electricity_normed="0"
            traveltime="0.02" CO_perVeh="0.361821" CO2_perVeh="44.424873" HC_perVeh="0.002665" PMx_perVeh="0.000609" NOx_perVeh="0.016609" fuel_perVeh="0.019096" electricity_perVeh="0"/>
        <edge id=":1110673655_0" sampledSeconds="45.12" CO_abs="785.577852" CO2_abs="93283.079003" HC_abs="5.711411" PMx_abs="1.249545" NOx_abs="34.794517" fuel_abs="40.098537" electricity_abs="0"
            CO_normed="2005.730685" CO2_normed="238169.563413" HC_normed="14.582326" PMx_normed="3.190328" NOx_normed="88.837063" fuel_normed="102.379242" electricity_normed="0"
            traveltime="0.02" CO_perVeh="0.420432" CO2_perVeh="49.924045" HC_perVeh="0.003057" PMx_perVeh="0.000669" NOx_perVeh="0.018622" fuel_perVeh="0.021460" electricity_perVeh="0"/>
        <edge id=":1110673663_0" sampledSeconds="109.34" CO_abs="1867.692497" CO2_abs="231035.154568" HC_abs="13.803137" PMx_abs="3.150163" NOx_abs="86.242310" fuel_abs="99.312333" electricity_abs="0"
            CO_normed="87.336568" CO2_normed="10803.607883" HC_normed="0.645459" PMx_normed="0.147307" NOx_normed="4.032841" fuel_normed="4.644018" electricity_normed="0"
            traveltime="1.28" CO_perVeh="21.936929" CO2_perVeh="2713.616882" HC_perVeh="0.162124" PMx_perVeh="0.037000" NOx_perVeh="1.012957" fuel_perVeh="1.166470" electricity_perVeh="0"/>
        <edge id=":1110673663_1" sampledSeconds="153.61" CO_abs="2640.964933" CO2_abs="314339.127133" HC_abs="19.297439" PMx_abs="4.406147" NOx_abs="118.283744" fuel_abs="135.121114" electricity_abs="0"
            CO_normed="123.647112" CO2_normed="14717.016825" HC_normed="0.903485" PMx_normed="0.206291" NOx_normed="5.537917" fuel_normed="6.326224" electricity_normed="0"
            traveltime="1.25" CO_perVeh="21.411218" CO2_perVeh="2548.456293" HC_perVeh="0.156451" PMx_perVeh="0.035722" NOx_perVeh="0.958967" fuel_perVeh="1.095474" electricity_perVeh="0"/>
        <edge id=":1110673666_0" sampledSeconds="191.23" CO_abs="4363.891366" CO2_abs="344828.838423" HC_abs="27.759977" PMx_abs="4.782357" NOx_abs="132.266408" fuel_abs="148.228392" electricity_abs="0"