<?xml version="1.0" encoding="UTF-8"?>

<!-- generated on Tue Nov 10 12:17:58 2020 by Eclipse SUMO sumo Version 1.7.0
<configuration xmlns:xsi="http://www.w3.org/2001/XMLSchema-instance" xsi:noNamespaceSchemaLocation="http://sumo.dlr.de/xsd/sumoConfiguration.xsd">

    <input>
        <net-file value="../dataSets/Porto/8AM9AM_Routing_SaoBento/Porto.net.xml"/>
        <route-files value="../results/Porto/8AM9AM_Routing_SaoBento/inputdata/cost_PMx-length/solution15/Porto.rou.xml"/>
        <additional-files value="moreOutputInfo.xml"/>
    </input>

    <output>
        <emission-output.precision value="6"/>
        <tripinfo-output value="../results/Porto/8AM9AM_Routing_SaoBento/inputdata/cost_PMx-length/solution15/Porto-tripinfo"/>
    </output>

    <processing>
        <collision.action value="warn"/>
        <time-to-teleport value="-1"/>
    </processing>

    <emissions>
        <device.emissions.probability value="1"/>
    </emissions>

    <gui_only>
        <quit-on-end value="true"/>
        <start value="true"/>
    </gui_only>

</configuration>
-->

<meandata xmlns:xsi="http://www.w3.org/2001/XMLSchema-instance" xsi:noNamespaceSchemaLocation="http://sumo.dlr.de/xsd/meandata_file.xsd">
    <interval begin="0.00" end="8471.00" id="emissions-detector">
        <edge id=":1092997347_0" sampledSeconds="597.83" CO_abs="72959.666215" CO2_abs="3103930.019417" HC_abs="405.631930" PMx_abs="62.769806" NOx_abs="1342.926432" fuel_abs="1334.253854" electricity_abs="0"
            CO_normed="70468.979291" CO2_normed="2997968.488721" HC_normed="391.784524" PMx_normed="60.626979" NOx_normed="1297.081797" fuel_normed="1288.705282" electricity_normed="0"
            traveltime="0.07" CO_perVeh="8.352229" CO2_perVeh="355.329691" HC_perVeh="0.046436" PMx_perVeh="0.007186" NOx_perVeh="0.153735" fuel_perVeh="0.152742" electricity_perVeh="0"/>
        <edge id=":1103427051_0" sampledSeconds="19.33" CO_abs="1608.818562" CO2_abs="90275.754169" HC_abs="9.471420" PMx_abs="1.784613" NOx_abs="38.608329" fuel_abs="38.805535" electricity_abs="0"
            CO_normed="2357.636733" CO2_normed="132294.243244" HC_normed="13.879855" PMx_normed="2.615254" NOx_normed="56.578421" fuel_normed="56.867416" electricity_normed="0"
            traveltime="0.03" CO_perVeh="2.501916" CO2_perVeh="140.390223" HC_perVeh="0.014729" PMx_perVeh="0.002775" NOx_perVeh="0.060041" fuel_perVeh="0.060348" electricity_perVeh="0"/>
        <edge id=":1105984386_0" sampledSeconds="10.36" CO_abs="250.090991" CO2_abs="18490.832162" HC_abs="1.557791" PMx_abs="0.240294" NOx_abs="7.016202" fuel_abs="7.948519" electricity_abs="0"
            CO_normed="10.945778" CO2_normed="809.291624" HC_normed="0.068180" PMx_normed="0.010517" NOx_normed="0.307079" fuel_normed="0.347884" electricity_normed="0"
            traveltime="0.99" CO_perVeh="23.991143" CO2_perVeh="1773.819209" HC_perVeh="0.149438" PMx_perVeh="0.023051" NOx_perVeh="0.673062" fuel_perVeh="0.762499" electricity_perVeh="0"/>
        <edge id=":1105984390_0" sampledSeconds="10.78" CO_abs="17.086983" CO2_abs="1185.969462" HC_abs="0.104847" PMx_abs="0.016554" NOx_abs="0.458747" fuel_abs="0.509803" electricity_abs="0"
            CO_normed="0.578154" CO2_normed="40.128385" HC_normed="0.003548" PMx_normed="0.000560" NOx_normed="0.015522" fuel_normed="0.017250" electricity_normed="0"
            traveltime="1.12" CO_perVeh="1.771169" CO2_perVeh="122.932875" HC_perVeh="0.010868" PMx_perVeh="0.001716" NOx_perVeh="0.047552" fuel_perVeh="0.052844" electricity_perVeh="0"/>
        <edge id=":1105984390_1" sampledSeconds="2400.18" CO_abs="60793.585834" CO2_abs="7309950.345677" HC_abs="451.315746" PMx_abs="131.523907" NOx_abs="2776.642665" fuel_abs="3142.210320" electricity_abs="0"
            CO_normed="1967.708916" CO2_normed="236601.514296" HC_normed="14.607758" PMx_normed="4.257041" NOx_normed="89.871727" fuel_normed="101.704072" electricity_normed="0"
            traveltime="0.65" CO_perVeh="16.425007" CO2_perVeh="1974.977829" HC_perVeh="0.121935" PMx_perVeh="0.035535" NOx_perVeh="0.750184" fuel_perVeh="0.848952" electricity_perVeh="0"/>
        <edge id=":1105984395_0" sampledSeconds="4.09" CO_abs="132.670431" CO2_abs="9845.722383" HC_abs="0.828331" PMx_abs="0.133576" NOx_abs="3.771466" fuel_abs="4.232300" electricity_abs="0"
            CO_normed="61.284992" CO2_normed="4548.074579" HC_normed="0.382634" PMx_normed="0.061703" NOx_normed="1.742169" fuel_normed="1.955043" electricity_normed="0"
            traveltime="0.09" CO_perVeh="3.075253" CO2_perVeh="228.220322" HC_perVeh="0.019200" PMx_perVeh="0.003096" NOx_perVeh="0.087421" fuel_perVeh="0.098103" electricity_perVeh="0"/>
        <edge id=":1105984398_0" sampledSeconds="11.03" CO_abs="512.728508" CO2_abs="36301.120372" HC_abs="3.176660" PMx_abs="0.576922" NOx_abs="14.470952" fuel_abs="15.604354" electricity_abs="0"
            CO_normed="18.023079" CO2_normed="1276.031946" HC_normed="0.111664" PMx_normed="0.020280" NOx_normed="0.508673" fuel_normed="0.548513" electricity_normed="0"
            traveltime="1.19" CO_perVeh="55.541073" CO2_perVeh="3932.301689" HC_perVeh="0.344110" PMx_perVeh="0.062495" NOx_perVeh="1.567559" fuel_perVeh="1.690334" electricity_perVeh="0"/>
        <edge id=":1105984398_1" sampledSeconds="646.05" CO_abs="11531.618416" CO2_abs="1392390.607963" HC_abs="84.348906" PMx_abs="19.625804" NOx_abs="523.964067" fuel_abs="598.529597" electricity_abs="0"
            CO_normed="392.369864" CO2_normed="47376.880975" HC_normed="2.870019" PMx_normed="0.667779" NOx_normed="17.828175" fuel_normed="20.365309" electricity_normed="0"
            traveltime="0.95" CO_perVeh="16.979233" CO2_perVeh="2050.165345" HC_perVeh="0.124196" PMx_perVeh="0.028897" NOx_perVeh="0.771488" fuel_perVeh="0.881279" electricity_perVeh="0"/>
        <edge id=":1106006327_0" sampledSeconds="132.36" CO_abs="17733.167810" CO2_abs="572139.796969" HC_abs="94.204157" PMx_abs="11.903325" NOx_abs="250.254009" fuel_abs="245.942835" electricity_abs="0"
            CO_normed="850.590291" CO2_normed="27443.295038" HC_normed="4.518603" PMx_normed="0.570956" NOx_normed="12.003700" fuel_normed="11.796910" electricity_normed="0"
            traveltime="2.10" CO_perVeh="281.564608" CO2_perVeh="9084.350820" HC_perVeh="1.495760" PMx_perVeh="0.188999" NOx_perVeh="3.973496" fuel_perVeh="3.905044" electricity_perVeh="0"/>
        <edge id=":1106006327_1" sampledSeconds="683.42" CO_abs="92563.399344" CO2_abs="3092374.038150" HC_abs="494.360735" PMx_abs="64.532213" NOx_abs="1353.507647" fuel_abs="1329.300083" electricity_abs="0"
            CO_normed="3871.804378" CO2_normed="129349.909619" HC_normed="20.678455" PMx_normed="2.699297" NOx_normed="56.615432" fuel_normed="55.602862" electricity_normed="0"
            traveltime="2.29" CO_perVeh="310.712927" CO2_perVeh="10380.351147" HC_perVeh="1.659449" PMx_perVeh="0.216619" NOx_perVeh="4.543398" fuel_perVeh="4.462139" electricity_perVeh="0"/>
        <edge id=":1106006327_2" sampledSeconds="0.00" CO_abs="0" CO2_abs="0" HC_abs="0" PMx_abs="0" NOx_abs="0" fuel_abs="0" electricity_abs="0"
            CO_normed="0" CO2_normed="0" HC_normed="0" PMx_normed="0" NOx_normed="0" fuel_normed="0" electricity_normed="0"/>
        <edge id=":1106006327_3" sampledSeconds="0.00" CO_abs="0" CO2_abs="0" HC_abs="0" PMx_abs="0" NOx_abs="0" fuel_abs="0" electricity_abs="0"
            CO_normed="0" CO2_normed="0" HC_normed="0" PMx_normed="0" NOx_normed="0" fuel_normed="0" electricity_normed="0"/>
        <edge id=":1107381198_0" sampledSeconds="0.00" CO_abs="0" CO2_abs="0" HC_abs="0" PMx_abs="0" NOx_abs="0" fuel_abs="0" electricity_abs="0"
            CO_normed="0" CO2_normed="0" HC_normed="0" PMx_normed="0" NOx_normed="0" fuel_normed="0" electricity_normed="0"/>
        <edge id=":1107381198_1" sampledSeconds="104.95" CO_abs="4830.417857" CO2_abs="190616.618462" HC_abs="26.391201" PMx_abs="3.340830" NOx_abs="79.312751" fuel_abs="81.939435" electricity_abs="0"
            CO_normed="223.863446" CO2_normed="8834.037617" HC_normed="1.223088" PMx_normed="0.154829" NOx_normed="3.675712" fuel_normed="3.797445" electricity_normed="0"
            traveltime="1.57" CO_perVeh="72.320617" CO2_perVeh="2853.896276" HC_perVeh="0.395127" PMx_perVeh="0.050019" NOx_perVeh="1.187464" fuel_perVeh="1.226790" electricity_perVeh="0"/>
        <edge id=":1110338277_0" sampledSeconds="160.61" CO_abs="2504.974383" CO2_abs="311377.443972" HC_abs="18.511504" PMx_abs="4.237152" NOx_abs="116.184921" fuel_abs="133.848113" electricity_abs="0"
            CO_normed="3802.008439" CO2_normed="472603.503677" HC_normed="28.096452" PMx_normed="6.431080" NOx_normed="176.343541" fuel_normed="203.152438" electricity_normed="0"
            traveltime="0.02" CO_perVeh="0.339275" CO2_perVeh="42.173175" HC_perVeh="0.002507" PMx_perVeh="0.000574" NOx_perVeh="0.015736" fuel_perVeh="0.018128" electricity_perVeh="0"/>
        <edge id=":1110338293_0" sampledSeconds="6400.70" CO_abs="583485.399665" CO2_abs="10234807.127702" HC_abs="2896.160541" PMx_abs="243.583323" NOx_abs="4623.129067" fuel_abs="4399.771052" electricity_abs="0"
            CO_normed="826564.135991" CO2_normed="14498605.304265" HC_normed="4102.694663" PMx_normed="345.059600" NOx_normed="6549.114485" fuel_normed="6232.706011" electricity_normed="0"
            traveltime="0.43" CO_perVeh="38.995125" CO2_perVeh="684.006121" HC_perVeh="0.193554" PMx_perVeh="0.016279" NOx_perVeh="0.308970" fuel_perVeh="0.294043" electricity_perVeh="0"/>
        <edge id=":1110338295_0" sampledSeconds="0.00" CO_abs="0" CO2_abs="0" HC_abs="0" PMx_abs="0" NOx_abs="0" fuel_abs="0" electricity_abs="0"
            CO_normed="0" CO2_normed="0" HC_normed="0" PMx_normed="0" NOx_normed="0" fuel_normed="0" electricity_normed="0"/>
        <edge id=":1110673403_0" sampledSeconds="200.48" CO_abs="3123.320735" CO2_abs="401212.607018" HC_abs="23.349456" PMx_abs="5.372523" NOx_abs="148.927377" fuel_abs="172.464547" electricity_abs="0"
            CO_normed="4424.489295" CO2_normed="568356.898148" HC_normed="33.076788" PMx_normed="7.610704" NOx_normed="210.970196" fuel_normed="244.312899" electricity_normed="0"
            traveltime="0.02" CO_perVeh="0.360981" CO2_perVeh="46.370612" HC_perVeh="0.002699" PMx_perVeh="0.000621" NOx_perVeh="0.017212" fuel_perVeh="0.019933" electricity_perVeh="0"/>
        <edge id=":1110673412_0" sampledSeconds="941.29" CO_abs="167873.589933" CO2_abs="11437812.725455" HC_abs="1044.307995" PMx_abs="251.532995" NOx_abs="4917.255581" fuel_abs="4916.552198" electricity_abs="0"
            CO_normed="246009.681615" CO2_normed="16761496.957831" HC_normed="1530.376979" PMx_normed="368.608023" NOx_normed="7205.972543" fuel_normed="7204.941775" electricity_normed="0"
            traveltime="0.02" CO_perVeh="2.771333" CO2_perVeh="188.820581" HC_perVeh="0.017240" PMx_perVeh="0.004152" NOx_perVeh="0.081176" fuel_perVeh="0.081165" electricity_perVeh="0"/>
        <edge id=":1110673414_0" sampledSeconds="0.00" CO_abs="0" CO2_abs="0" HC_abs="0" PMx_abs="0" NOx_abs="0" fuel_abs="0" electricity_abs="0"
            CO_normed="0" CO2_normed="0" HC_normed="0" PMx_normed="0" NOx_normed="0" fuel_normed="0" electricity_normed="0"/>
        <edge id=":1110673414_1" sampledSeconds="6.98" CO_abs="290.419747" CO2_abs="12387.049219" HC_abs="1.613221" PMx_abs="0.239766" NOx_abs="5.297865" fuel_abs="5.324706" electricity_abs="0"
            CO_normed="13.668039" CO2_normed="582.972316" HC_normed="0.075923" PMx_normed="0.011284" NOx_normed="0.249334" fuel_normed="0.250597" electricity_normed="0"
            traveltime="1.53" CO_perVeh="63.437115" CO2_perVeh="2705.734263" HC_perVeh="0.352380" PMx_perVeh="0.052373" NOx_perVeh="1.157226" fuel_perVeh="1.163089" electricity_perVeh="0"/>
        <edge id=":1110673417_0" sampledSeconds="28.86" CO_abs="525.932766" CO2_abs="59055.738531" HC_abs="3.744419" PMx_abs="0.829444" NOx_abs="22.303738" fuel_abs="25.385580" electricity_abs="0"
            CO_normed="798.252002" CO2_normed="89633.817357" HC_normed="5.683217" PMx_normed="1.258917" NOx_normed="33.852243" fuel_normed="38.529812" electricity_normed="0"
            traveltime="0.02" CO_perVeh="0.401049" CO2_perVeh="45.032835" HC_perVeh="0.002855" PMx_perVeh="0.000632" NOx_perVeh="0.017008" fuel_perVeh="0.019358" electricity_perVeh="0"/>
        <edge id=":1110673446_0" sampledSeconds="1312.76" CO_abs="13906.338516" CO2_abs="1143468.662633" HC_abs="90.388999" PMx_abs="20.708391" NOx_abs="465.757675" fuel_abs="491.524848" electricity_abs="0"
            CO_normed="19699.688607" CO2_normed="1619835.196742" HC_normed="128.044858" PMx_normed="29.335462" NOx_normed="659.791300" fuel_normed="696.293020" electricity_normed="0"
            traveltime="0.02" CO_perVeh="0.241556" CO2_perVeh="19.862293" HC_perVeh="0.001570" PMx_perVeh="0.000360" NOx_perVeh="0.008090" fuel_perVeh="0.008538" electricity_perVeh="0"/>
        <edge id=":1110673451_0" sampledSeconds="36.85" CO_abs="444.481374" CO2_abs="31164.957378" HC_abs="2.732709" PMx_abs="0.422980" NOx_abs="11.954805" fuel_abs="13.396643" electricity_abs="0"
            CO_normed="699.612598" CO2_normed="49053.566880" HC_normed="4.301277" PMx_normed="0.665769" NOx_normed="18.816834" fuel_normed="21.086284" electricity_normed="0"
            traveltime="0.03" CO_perVeh="0.327485" CO2_perVeh="22.961683" HC_perVeh="0.002013" PMx_perVeh="0.000312" NOx_perVeh="0.008808" fuel_perVeh="0.009870" electricity_perVeh="0"/>
        <edge id=":1110673464_0" sampledSeconds="1021.73" CO_abs="3550.790631" CO2_abs="271284.451880" HC_abs="22.351443" PMx_abs="3.793329" NOx_abs="104.318726" fuel_abs="116.614587" electricity_abs="0"
            CO_normed="106.870585" CO2_normed="8165.034537" HC_normed="0.672727" PMx_normed="0.114170" NOx_normed="3.139752" fuel_normed="3.509829" electricity_normed="0"
            traveltime="1.21" CO_perVeh="4.210741" CO2_perVeh="321.705393" HC_perVeh="0.026506" PMx_perVeh="0.004498" NOx_perVeh="0.123707" fuel_perVeh="0.138289" electricity_perVeh="0"/>
        <edge id=":1110673464_1" sampledSeconds="2607.41" CO_abs="67185.690115" CO2_abs="7874256.692016" HC_abs="493.817328" PMx_abs="142.317452" NOx_abs="3006.396720" fuel_abs="3384.778883" electricity_abs="0"
            CO_normed="1981.438607" CO2_normed="232227.371413" HC_normed="14.563648" PMx_normed="4.197223" NOx_normed="88.664573" fuel_normed="99.823810" electricity_normed="0"
            traveltime="0.72" CO_perVeh="18.517964" CO2_perVeh="2170.331238" HC_perVeh="0.136108" PMx_perVeh="0.039226" NOx_perVeh="0.828634" fuel_perVeh="0.932925" electricity_perVeh="0"/>
        <edge id=":1110673479_0" sampledSeconds="134.56" CO_abs="6356.734400" CO2_abs="439643.076049" HC_abs="39.265242" PMx_abs="7.668252" NOx_abs="179.591575" fuel_abs="188.983507" electricity_abs="0"
            CO_normed="9004.935993" CO2_normed="622797.416195" HC_normed="55.623056" PMx_normed="10.862829" NOx_normed="254.409031" fuel_normed="267.713621" electricity_normed="0"
            traveltime="0.03" CO_perVeh="1.343871" CO2_perVeh="92.944521" HC_perVeh="0.008301" PMx_perVeh="0.001621" NOx_perVeh="0.037967" fuel_perVeh="0.039953" electricity_perVeh="0"/>
        <edge id=":1110673511_0" sampledSeconds="63.27" CO_abs="1206.291464" CO2_abs="132126.836703" HC_abs="8.508778" PMx_abs="1.804222" NOx_abs="49.697397" fuel_abs="56.795867" electricity_abs="0"
            CO_normed="1708.829839" CO2_normed="187170.586759" HC_normed="12.053516" PMx_normed="2.555857" NOx_normed="70.401223" fuel_normed="80.456901" electricity_normed="0"
            traveltime="0.02" CO_perVeh="0.462330" CO2_perVeh="50.639658" HC_perVeh="0.003261" PMx_perVeh="0.000691" NOx_perVeh="0.019047" fuel_perVeh="0.021768" electricity_perVeh="0"/>
        <edge id=":1110673517_0" sampledSeconds="183.43" CO_abs="8155.755366" CO2_abs="577997.562519" HC_abs="50.699235" PMx_abs="9.968671" NOx_abs="235.141530" fuel_abs="248.456131" electricity_abs="0"
            CO_normed="11553.425144" CO2_normed="818790.077939" HC_normed="71.820425" PMx_normed="14.121597" NOx_normed="333.100975" fuel_normed="351.962410" electricity_normed="0"
            traveltime="0.03" CO_perVeh="1.248716" CO2_perVeh="88.496382" HC_perVeh="0.007762" PMx_perVeh="0.001526" NOx_perVeh="0.036002" fuel_perVeh="0.038041" electricity_perVeh="0"/>
        <edge id=":1110673534_0" sampledSeconds="658.43" CO_abs="4533.066431" CO2_abs="382618.868306" HC_abs="29.395123" PMx_abs="5.228368" NOx_abs="145.869263" fuel_abs="164.472739" electricity_abs="0"
            CO_normed="124.448294" CO2_normed="10504.206370" HC_normed="0.806997" PMx_normed="0.143537" NOx_normed="4.004614" fuel_normed="4.515343" electricity_normed="0"
            traveltime="1.45" CO_perVeh="9.967538" CO2_perVeh="841.321936" HC_perVeh="0.064635" PMx_perVeh="0.011496" NOx_perVeh="0.320745" fuel_perVeh="0.361651" electricity_perVeh="0"/>
        <edge id=":1110673534_1" sampledSeconds="264.25" CO_abs="4462.221793" CO2_abs="521639.761571" HC_abs="32.257951" PMx_abs="7.378558" NOx_abs="196.746555" fuel_abs="224.230838" electricity_abs="0"
            CO_normed="119.117593" CO2_normed="13925.007680" HC_normed="0.861116" PMx_normed="0.196968" NOx_normed="5.252087" fuel_normed="5.985771" electricity_normed="0"
            traveltime="1.23" CO_perVeh="20.703590" CO2_perVeh="2420.277628" HC_perVeh="0.149669" PMx_perVeh="0.034235" NOx_perVeh="0.912855" fuel_perVeh="1.040375" electricity_perVeh="0"/>
        <edge id=":1110673549_0" sampledSeconds="644.43" CO_abs="1304.136475" CO2_abs="134288.098994" HC_abs="8.993995" PMx_abs="1.873359" NOx_abs="50.593638" fuel_abs="57.724926" electricity_abs="0"
            CO_normed="34.682795" CO2_normed="3571.318389" HC_normed="0.239190" PMx_normed="0.049821" NOx_normed="1.345510" fuel_normed="1.535163" electricity_normed="0"
            traveltime="1.28" CO_perVeh="2.591008" CO2_perVeh="266.798432" HC_perVeh="0.017869" PMx_perVeh="0.003722" NOx_perVeh="0.100517" fuel_perVeh="0.114686" electricity_perVeh="0"/>
        <edge id=":1110673549_1" sampledSeconds="3195.30" CO_abs="70731.269758" CO2_abs="9283333.873870" HC_abs="544.169899" PMx_abs="163.405765" NOx_abs="3471.182801" fuel_abs="3990.480224" electricity_abs="0"
            CO_normed="1819.571939" CO2_normed="238815.079577" HC_normed="13.998848" PMx_normed="4.203636" NOx_normed="89.296670" fuel_normed="102.655669" electricity_normed="0"
            traveltime="0.81" CO_perVeh="17.842873" CO2_perVeh="2341.840474" HC_perVeh="0.137274" PMx_perVeh="0.041221" NOx_perVeh="0.875651" fuel_perVeh="1.006650" electricity_perVeh="0"/>
        <edge id=":1110673556_0" sampledSeconds="469.80" CO_abs="57934.096869" CO2_abs="2771470.568532" HC_abs="329.607578" PMx_abs="55.959962" NOx_abs="1194.980865" fuel_abs="1191.337327" electricity_abs="0"
            CO_normed="1142.496256" CO2_normed="54655.115387" HC_normed="6.500065" PMx_normed="1.103565" NOx_normed="23.565762" fuel_normed="23.493910" electricity_normed="0"
            traveltime="2.77" CO_perVeh="341.515931" CO2_perVeh="16337.552521" HC_perVeh="1.943005" PMx_perVeh="0.329879" NOx_perVeh="7.044297" fuel_perVeh="7.022819" electricity_perVeh="0"/>
        <edge id=":1110673556_2" sampledSeconds="180.22" CO_abs="18494.353486" CO2_abs="774996.081424" HC_abs="102.417156" PMx_abs="15.055553" NOx_abs="331.222387" fuel_abs="333.140630" electricity_abs="0"
            CO_normed="381.354593" CO2_normed="15980.462114" HC_normed="2.111847" PMx_normed="0.310446" NOx_normed="6.829824" fuel_normed="6.869378" electricity_normed="0"
            traveltime="3.12" CO_perVeh="319.793799" CO2_perVeh="13400.789682" HC_perVeh="1.770939" PMx_perVeh="0.260332" NOx_perVeh="5.727308" fuel_perVeh="5.760478" electricity_perVeh="0"/>
        <edge id=":1110673556_3" sampledSeconds="341.38" CO_abs="34850.697890" CO2_abs="1211277.361861" HC_abs="187.003368" PMx_abs="23.872420" NOx_abs="521.461914" fuel_abs="520.685362" electricity_abs="0"
            CO_normed="1634.749076" CO2_normed="56817.644079" HC_normed="8.771807" PMx_normed="1.119789" NOx_normed="24.460325" fuel_normed="24.423899" electricity_normed="0"
            traveltime="1.82" CO_perVeh="185.883520" CO2_perVeh="6460.602308" HC_perVeh="0.997422" PMx_perVeh="0.127329" NOx_perVeh="2.781327" fuel_perVeh="2.777185" electricity_perVeh="0"/>
        <edge id=":1110673556_4" sampledSeconds="85.53" CO_abs="9271.010444" CO2_abs="362727.094823" HC_abs="50.748336" PMx_abs="7.231008" NOx_abs="156.462534" fuel_abs="155.922469" electricity_abs="0"
            CO_normed="265.676865" CO2_normed="10394.573285" HC_normed="1.454281" PMx_normed="0.207217" NOx_normed="4.483705" fuel_normed="4.468228" electricity_normed="0"
            traveltime="2.49" CO_perVeh="270.073633" CO2_perVeh="10566.596245" HC_perVeh="1.478349" PMx_perVeh="0.210646" NOx_perVeh="4.557907" fuel_perVeh="4.542175" electricity_perVeh="0"/>
        <edge id=":1110673556_5" sampledSeconds="21.62" CO_abs="1226.967829" CO2_abs="57609.033098" HC_abs="6.926852" PMx_abs="1.026070" NOx_abs="24.008650" fuel_abs="24.763896" electricity_abs="0"
            CO_normed="49.007141" CO2_normed="2301.000840" HC_normed="0.276670" PMx_normed="0.040983" NOx_normed="0.958946" fuel_normed="0.989111" electricity_normed="0"
            traveltime="1.50" CO_perVeh="84.827405" CO2_perVeh="3982.846733" HC_perVeh="0.478894" PMx_perVeh="0.070938" NOx_perVeh="1.659857" fuel_perVeh="1.712072" electricity_perVeh="0"/>
        <edge id=":1110673556_6" sampledSeconds="551.25" CO_abs="65268.891779" CO2_abs="3140140.690216" HC_abs="371.709483" PMx_abs="63.094784" NOx_abs="1352.099952" fuel_abs="1349.813071" electricity_abs="0"
            CO_normed="1319.597081" CO2_normed="63486.913514" HC_normed="7.515169" PMx_normed="1.275641" NOx_normed="27.336563" fuel_normed="27.290327" electricity_normed="0"
            traveltime="2.68" CO_perVeh="316.894900" CO2_perVeh="15246.077321" HC_perVeh="1.804732" PMx_perVeh="0.306339" NOx_perVeh="6.564744" fuel_perVeh="6.553641" electricity_perVeh="0"/>
        <edge id=":1110673561_0" sampledSeconds="103.18" CO_abs="9707.431992" CO2_abs="691907.682690" HC_abs="60.849934" PMx_abs="13.996224" NOx_abs="292.900632" fuel_abs="297.418157" electricity_abs="0"
            CO_normed="246.590440" CO2_normed="17575.999475" HC_normed="1.545724" PMx_normed="0.355535" NOx_normed="7.440330" fuel_normed="7.555085" electricity_normed="0"
            traveltime="1.22" CO_perVeh="114.557120" CO2_perVeh="8165.182221" HC_perVeh="0.718088" PMx_perVeh="0.165169" NOx_perVeh="3.456512" fuel_perVeh="3.509823" electricity_perVeh="0"/>
        <edge id=":1110673561_1" sampledSeconds="5192.56" CO_abs="481117.562032" CO2_abs="33422186.693226" HC_abs="2999.064362" PMx_abs="696.994037" NOx_abs="14277.282743" fuel_abs="14366.585384" electricity_abs="0"
            CO_normed="11915.211223" CO2_normed="827723.711252" HC_normed="74.273916" PMx_normed="17.261542" NOx_normed="353.586842" fuel_normed="355.798484" electricity_normed="0"
            traveltime="1.19" CO_perVeh="110.563840" CO2_perVeh="7680.628571" HC_perVeh="0.689204" PMx_perVeh="0.160174" NOx_perVeh="3.281009" fuel_perVeh="3.301532" electricity_perVeh="0"/>
        <edge id=":1110673562_0" sampledSeconds="301.56" CO_abs="6535.940453" CO2_abs="500546.994856" HC_abs="41.180117" PMx_abs="6.832042" NOx_abs="191.644738" fuel_abs="215.165822" electricity_abs="0"
            CO_normed="10287.554327" CO2_normed="787859.748721" HC_normed="64.817404" PMx_normed="10.753617" NOx_normed="301.648351" fuel_normed="338.670479" electricity_normed="0"
            traveltime="0.03" CO_perVeh="0.585893" CO2_perVeh="44.869917" HC_perVeh="0.003691" PMx_perVeh="0.000612" NOx_perVeh="0.017179" fuel_perVeh="0.019288" electricity_perVeh="0"/>
        <edge id=":1110673564_0" sampledSeconds="27.69" CO_abs="532.740010" CO2_abs="61384.207726" HC_abs="3.805702" PMx_abs="0.835563" NOx_abs="22.982046" fuel_abs="26.386520" electricity_abs="0"
            CO_normed="2264.034984" CO2_normed="260870.201644" HC_normed="16.173449" PMx_normed="3.550971" NOx_normed="97.668948" fuel_normed="112.137257" electricity_normed="0"
            traveltime="7.821032e-03" CO_perVeh="0.150470" CO2_perVeh="17.337723" HC_perVeh="0.001075" PMx_perVeh="0.000236" NOx_perVeh="0.006491" fuel_perVeh="0.007453" electricity_perVeh="0"/>
        <edge id=":1110673588_0" sampledSeconds="63.30" CO_abs="1208.878674" CO2_abs="121159.577349" HC_abs="8.314012" PMx_abs="1.777390" NOx_abs="46.499480" fuel_abs="52.081387" electricity_abs="0"
            CO_normed="2054.993850" CO2_normed="205961.269487" HC_normed="14.133133" PMx_normed="3.021417" NOx_normed="79.045273" fuel_normed="88.534053" electricity_normed="0"
            traveltime="0.02" CO_perVeh="0.389966" CO2_perVeh="39.084248" HC_perVeh="0.002682" PMx_perVeh="0.000573" NOx_perVeh="0.015000" fuel_perVeh="0.016801" electricity_perVeh="0"/>
        <edge id=":1110673601_0" sampledSeconds="28.90" CO_abs="431.913369" CO2_abs="56400.701218" HC_abs="3.241471" PMx_abs="0.742616" NOx_abs="20.836472" fuel_abs="24.244320" electricity_abs="0"
            CO_normed="655.550926" CO2_normed="85604.045898" HC_normed="4.919851" PMx_normed="1.127131" NOx_normed="31.625251" fuel_normed="36.797626" electricity_normed="0"
            traveltime="0.02" CO_perVeh="0.329355" CO2_perVeh="43.008242" HC_perVeh="0.002472" PMx_perVeh="0.000566" NOx_perVeh="0.015889" fuel_perVeh="0.018487" electricity_perVeh="0"/>
        <edge id=":1110673617_0" sampledSeconds="855.48" CO_abs="32987.125114" CO2_abs="3280973.192070" HC_abs="228.898822" PMx_abs="62.203624" NOx_abs="1290.463549" fuel_abs="1410.336585" electricity_abs="0"
            CO_normed="46729.489005" CO2_normed="4647819.419766" HC_normed="324.257568" PMx_normed="88.117518" NOx_normed="1828.067830" fuel_normed="1997.879710" electricity_normed="0"
            traveltime="0.02" CO_perVeh="0.584945" CO2_perVeh="58.179918" HC_perVeh="0.004059" PMx_perVeh="0.001103" NOx_perVeh="0.022883" fuel_perVeh="0.025009" electricity_perVeh="0"/>
        <edge id=":1110673621_0" sampledSeconds="26.27" CO_abs="814.608410" CO2_abs="79387.269590" HC_abs="5.540140" PMx_abs="1.211049" NOx_abs="30.776399" fuel_abs="34.125179" electricity_abs="0"
            CO_normed="1384.766982" CO2_normed="134951.798147" HC_normed="9.417780" PMx_normed="2.058683" NOx_normed="52.317335" fuel_normed="58.009985" electricity_normed="0"
            traveltime="0.02" CO_perVeh="0.617128" CO2_perVeh="60.141871" HC_perVeh="0.004197" PMx_perVeh="0.000917" NOx_perVeh="0.023315" fuel_perVeh="0.025852" electricity_perVeh="0"/>
        <edge id=":1110673630_0" sampledSeconds="285.18" CO_abs="1667.381158" CO2_abs="147218.549333" HC_abs="10.962244" PMx_abs="2.000152" NOx_abs="55.948976" fuel_abs="63.283402" electricity_abs="0"
            CO_normed="50.542264" CO2_normed="4462.542234" HC_normed="0.332292" PMx_normed="0.060629" NOx_normed="1.695946" fuel_normed="1.918270" electricity_normed="0"
            traveltime="1.28" CO_perVeh="7.502590" CO2_perVeh="662.428244" HC_perVeh="0.049326" PMx_perVeh="0.009000" NOx_perVeh="0.251749" fuel_perVeh="0.284752" electricity_perVeh="0"/>
        <edge id=":1110673630_1" sampledSeconds="337.64" CO_abs="1347.137163" CO2_abs="107489.789376" HC_abs="8.583944" PMx_abs="1.440887" NOx_abs="40.919686" fuel_abs="46.205708" electricity_abs="0"
            CO_normed="49.783084" CO2_normed="3972.255642" HC_normed="0.317217" PMx_normed="0.053248" NOx_normed="1.512176" fuel_normed="1.707519" electricity_normed="0"
            traveltime="1.08" CO_perVeh="4.294408" CO2_perVeh="342.656293" HC_perVeh="0.027364" PMx_perVeh="0.004593" NOx_perVeh="0.130444" fuel_perVeh="0.147295" electricity_perVeh="0"/>
        <edge id=":1110673650_0" sampledSeconds="200.01" CO_abs="2886.282896" CO2_abs="375577.891040" HC_abs="21.722693" PMx_abs="5.020189" NOx_abs="139.290012" fuel_abs="161.445248" electricity_abs="0"
            CO_normed="4088.702013" CO2_normed="532042.815781" HC_normed="30.772319" PMx_normed="7.111589" NOx_normed="197.317925" fuel_normed="228.702984" electricity_normed="0"
            traveltime="0.02" CO_perVeh="0.333584" CO2_perVeh="43.407700" HC_perVeh="0.002511" PMx_perVeh="0.000580" NOx_perVeh="0.016099" fuel_perVeh="0.018659" electricity_perVeh="0"/>
        <edge id=":1110673655_0" sampledSeconds="20.67" CO_abs="374.763919" CO2_abs="44713.278084" HC_abs="2.718970" PMx_abs="0.588884" NOx_abs="16.594527" fuel_abs="19.220403" electricity_abs="0"
            CO_normed="530.889745" CO2_normed="63340.731555" HC_normed="3.851688" PMx_normed="0.834212" NOx_normed="23.507770" fuel_normed="27.227580" electricity_normed="0"
            traveltime="0.02" CO_perVeh="0.428139" CO2_perVeh="51.081430" HC_perVeh="0.003106" PMx_perVeh="0.000673" NOx_perVeh="0.018958" fuel_perVeh="0.021958" electricity_perVeh="0"/>
        <edge id=":1110673663_0" sampledSeconds="112.70" CO_abs="1725.992783" CO2_abs="201290.816320" HC_abs="12.459649" PMx_abs="2.656721" NOx_abs="74.942845" fuel_abs="86.526670" electricity_abs="0"
            CO_normed="44.780908" CO2_normed="5222.493194" HC_normed="0.323266" PMx_normed="0.068929" NOx_normed="1.944393" fuel_normed="2.244936" electricity_normed="0"
            traveltime="1.32" CO_perVeh="20.272738" CO2_perVeh="2364.271810" HC_perVeh="0.146345" PMx_perVeh="0.031205" NOx_perVeh="0.880245" fuel_perVeh="1.016304" electricity_perVeh="0"/>
        <edge id=":1110673663_1" sampledSeconds="169.94" CO_abs="2752.536708" CO2_abs="331570.553001" HC_abs="20.127830" PMx_abs="4.565899" NOx_abs="124.178676" fuel_abs="142.528267" electricity_abs="0"
            CO_normed="71.501909" CO2_normed="8613.119511" HC_normed="0.522855" PMx_normed="0.118607" NOx_normed="3.225756" fuel_normed="3.702419" electricity_normed="0"
            traveltime="1.27" CO_perVeh="20.590709" CO2_perVeh="2480.356631" HC_perVeh="0.150569" PMx_perVeh="0.034156" NOx_perVeh="0.928935" fuel_perVeh="1.066201" electricity_perVeh="0"/>