<?xml version="1.0" encoding="UTF-8"?>

<!-- generated on Mon Nov  9 20:56:05 2020 by Eclipse SUMO sumo Version 1.7.0
<configuration xmlns:xsi="http://www.w3.org/2001/XMLSchema-instance" xsi:noNamespaceSchemaLocation="http://sumo.dlr.de/xsd/sumoConfiguration.xsd">

    <input>
        <net-file value="../dataSets/Angeja_Estarreja/angeja_estarreja.net.xml"/>
        <route-files value="../results/angeja_estarreja/cost_co2-cost_hc/solution15/angeja_estarreja.rou.xml"/>
        <additional-files value="moreOutputInfo.xml"/>
    </input>

    <output>
        <emission-output.precision value="6"/>
        <tripinfo-output value="../results/angeja_estarreja/cost_co2-cost_hc/solution15/angeja_estarreja-tripinfo"/>
    </output>

    <processing>
        <collision.action value="warn"/>
        <time-to-teleport value="-1"/>
    </processing>

    <emissions>
        <device.emissions.probability value="1"/>
    </emissions>

    <gui_only>
        <quit-on-end value="true"/>
        <start value="true"/>
    </gui_only>

</configuration>
-->

<meandata xmlns:xsi="http://www.w3.org/2001/XMLSchema-instance" xsi:noNamespaceSchemaLocation="http://sumo.dlr.de/xsd/meandata_file.xsd">
    <interval begin="0.00" end="19077.00" id="emissions-detector">
        <edge id=":10_0" sampledSeconds="386.27" CO_abs="39425.479639" CO2_abs="2171110.254426" HC_abs="231.038377" PMx_abs="42.578562" NOx_abs="926.320700" fuel_abs="933.264960" electricity_abs="0"
            CO_normed="425.382478" CO2_normed="23425.263791" HC_normed="2.492796" PMx_normed="0.459403" NOx_normed="9.994567" fuel_normed="10.069492" electricity_normed="0"
            traveltime="1.90" CO_perVeh="194.251100" CO2_perVeh="10697.157259" HC_perVeh="1.138336" PMx_perVeh="0.209786" NOx_perVeh="4.564023" fuel_perVeh="4.598238" electricity_perVeh="0"/>
        <edge id=":10_1" sampledSeconds="0.00" CO_abs="0" CO2_abs="0" HC_abs="0" PMx_abs="0" NOx_abs="0" fuel_abs="0" electricity_abs="0"
            CO_normed="0" CO2_normed="0" HC_normed="0" PMx_normed="0" NOx_normed="0" fuel_normed="0" electricity_normed="0"/>
        <edge id=":100_0" sampledSeconds="0.00" CO_abs="0" CO2_abs="0" HC_abs="0" PMx_abs="0" NOx_abs="0" fuel_abs="0" electricity_abs="0"
            CO_normed="0" CO2_normed="0" HC_normed="0" PMx_normed="0" NOx_normed="0" fuel_normed="0" electricity_normed="0"/>
        <edge id=":100_1" sampledSeconds="911.98" CO_abs="22917.645030" CO2_abs="2796150.339943" HC_abs="172.318299" PMx_abs="51.051910" NOx_abs="1049.900966" fuel_abs="1201.936498" electricity_abs="0"
            CO_normed="146.304600" CO2_normed="17850.422903" HC_normed="1.100068" PMx_normed="0.325912" NOx_normed="6.702492" fuel_normed="7.673076" electricity_normed="0"
            traveltime="1.37" CO_perVeh="34.458717" CO2_perVeh="4204.260636" HC_perVeh="0.259096" PMx_perVeh="0.076761" NOx_perVeh="1.578619" fuel_perVeh="1.807218" electricity_perVeh="0"/>
        <edge id=":101_0" sampledSeconds="438.70" CO_abs="10327.591913" CO2_abs="1283448.813625" HC_abs="78.174665" PMx_abs="23.304290" NOx_abs="480.403510" fuel_abs="551.695743" electricity_abs="0"
            CO_normed="238.544514" CO2_normed="29644.826805" HC_normed="1.805662" PMx_normed="0.538278" NOx_normed="11.096258" fuel_normed="12.742951" electricity_normed="0"
            traveltime="0.38" CO_perVeh="8.921698" CO2_perVeh="1108.733104" HC_perVeh="0.067533" PMx_perVeh="0.020132" NOx_perVeh="0.415006" fuel_perVeh="0.476593" electricity_perVeh="0"/>
        <edge id=":102_0" sampledSeconds="341.68" CO_abs="7229.869450" CO2_abs="922331.450003" HC_abs="55.303741" PMx_abs="16.625091" NOx_abs="343.798284" fuel_abs="396.468053" electricity_abs="0"
            CO_normed="168.437140" CO2_normed="21487.922047" HC_normed="1.288433" PMx_normed="0.387321" NOx_normed="8.009605" fuel_normed="9.236674" electricity_normed="0"
            traveltime="0.38" CO_perVeh="7.953508" CO2_perVeh="1014.647732" HC_perVeh="0.060839" PMx_perVeh="0.018289" NOx_perVeh="0.378209" fuel_perVeh="0.436151" electricity_perVeh="0"/>
        <edge id=":103_0" sampledSeconds="434.56" CO_abs="10417.772937" CO2_abs="1304130.869212" HC_abs="79.138789" PMx_abs="23.637618" NOx_abs="487.680304" fuel_abs="560.586040" electricity_abs="0"
            CO_normed="244.214490" CO2_normed="30571.568112" HC_normed="1.855180" PMx_normed="0.554115" NOx_normed="11.432251" fuel_normed="13.141315" electricity_normed="0"
            traveltime="0.37" CO_perVeh="8.950555" CO2_perVeh="1120.459696" HC_perVeh="0.067993" PMx_perVeh="0.020309" NOx_perVeh="0.418996" fuel_perVeh="0.481634" electricity_perVeh="0"/>
        <edge id=":104_0" sampledSeconds="341.19" CO_abs="8179.767824" CO2_abs="1021339.930672" HC_abs="62.020909" PMx_abs="18.517835" NOx_abs="382.013997" fuel_abs="439.027181" electricity_abs="0"
            CO_normed="190.802858" CO2_normed="23823.974251" HC_normed="1.446712" PMx_normed="0.431951" NOx_normed="8.910933" fuel_normed="10.240834" electricity_normed="0"
            traveltime="0.38" CO_perVeh="8.994351" CO2_perVeh="1123.050246" HC_perVeh="0.068197" PMx_perVeh="0.020362" NOx_perVeh="0.420057" fuel_perVeh="0.482748" electricity_perVeh="0"/>
        <edge id=":105_0" sampledSeconds="168.52" CO_abs="4196.393638" CO2_abs="507836.368353" HC_abs="31.465750" PMx_abs="9.298048" NOx_abs="190.896107" fuel_abs="218.295497" electricity_abs="0"
            CO_normed="3599.531348" CO2_normed="435605.685588" HC_normed="26.990307" PMx_normed="7.975566" NOx_normed="163.744534" fuel_normed="187.246849" electricity_normed="0"
            traveltime="0.01" CO_perVeh="0.253765" CO2_perVeh="30.709943" HC_perVeh="0.001903" PMx_perVeh="0.000562" NOx_perVeh="0.011544" fuel_perVeh="0.013201" electricity_perVeh="0"/>
        <edge id=":106_0" sampledSeconds="134.38" CO_abs="3115.033831" CO2_abs="411386.748605" HC_abs="24.181722" PMx_abs="7.349418" NOx_abs="152.497233" fuel_abs="176.836378" electricity_abs="0"
            CO_normed="1896.240836" CO2_normed="250426.927711" HC_normed="14.720344" PMx_normed="4.473873" NOx_normed="92.830927" fuel_normed="107.647101" electricity_normed="0"
            traveltime="0.01" CO_perVeh="0.333058" CO2_perVeh="43.985229" HC_perVeh="0.002585" PMx_perVeh="0.000786" NOx_perVeh="0.016305" fuel_perVeh="0.018907" electricity_perVeh="0"/>
        <edge id=":107_0" sampledSeconds="438.49" CO_abs="11173.717668" CO2_abs="1376053.128342" HC_abs="84.245467" PMx_abs="25.040220" NOx_abs="515.815099" fuel_abs="591.502044" electricity_abs="0"
            CO_normed="258.088146" CO2_normed="31783.781504" HC_normed="1.945884" PMx_normed="0.578374" NOx_normed="11.914187" fuel_normed="13.662388" electricity_normed="0"
            traveltime="0.38" CO_perVeh="9.652641" CO2_perVeh="1188.731206" HC_perVeh="0.072777" PMx_perVeh="0.021631" NOx_perVeh="0.445597" fuel_perVeh="0.510981" electricity_perVeh="0"/>
        <edge id=":108_0" sampledSeconds="93.41" CO_abs="8139.291825" CO2_abs="587540.942106" HC_abs="51.211581" PMx_abs="11.868117" NOx_abs="248.357457" fuel_abs="252.555832" electricity_abs="0"
            CO_normed="127.677219" CO2_normed="9216.476690" HC_normed="0.803332" PMx_normed="0.186170" NOx_normed="3.895866" fuel_normed="3.961724" electricity_normed="0"
            traveltime="0.85" CO_perVeh="74.270241" CO2_perVeh="5361.253555" HC_perVeh="0.467301" PMx_perVeh="0.108295" NOx_perVeh="2.266237" fuel_perVeh="2.304547" electricity_perVeh="0"/>
        <edge id=":108_1" sampledSeconds="402.98" CO_abs="9945.451443" CO2_abs="1238506.898239" HC_abs="75.387944" PMx_abs="22.478511" NOx_abs="463.567724" fuel_abs="532.377277" electricity_abs="0"
            CO_normed="145.488013" CO2_normed="18117.619755" HC_normed="1.102820" PMx_normed="0.328829" NOx_normed="6.781346" fuel_normed="7.787933" electricity_normed="0"
            traveltime="0.60" CO_perVeh="14.774214" CO2_perVeh="1839.832675" HC_perVeh="0.111991" PMx_perVeh="0.033392" NOx_perVeh="0.688641" fuel_perVeh="0.790860" electricity_perVeh="0"/>
        <edge id=":109_0" sampledSeconds="307.08" CO_abs="120.426048" CO2_abs="21069.186599" HC_abs="1.012351" PMx_abs="0.261229" NOx_abs="7.545590" fuel_abs="9.056770" electricity_abs="0"
            CO_normed="1.810794" CO2_normed="316.808237" HC_normed="0.015222" PMx_normed="0.003928" NOx_normed="0.113460" fuel_normed="0.136183" electricity_normed="0"
            traveltime="0.85" CO_perVeh="0.334717" CO2_perVeh="58.560515" HC_perVeh="0.002814" PMx_perVeh="0.000726" NOx_perVeh="0.020973" fuel_perVeh="0.025173" electricity_perVeh="0"/>
        <edge id=":109_1" sampledSeconds="524.73" CO_abs="12305.943383" CO2_abs="1533221.198481" HC_abs="93.310632" PMx_abs="27.826294" NOx_abs="573.832412" fuel_abs="659.061433" electricity_abs="0"
            CO_normed="120.698609" CO2_normed="15038.072303" HC_normed="0.915205" PMx_normed="0.272925" NOx_normed="5.628238" fuel_normed="6.464177" electricity_normed="0"
            traveltime="0.89" CO_perVeh="20.954138" CO2_perVeh="2610.716489" HC_perVeh="0.158886" PMx_perVeh="0.047382" NOx_perVeh="0.977102" fuel_perVeh="1.122227" electricity_perVeh="0"/>
        <edge id=":11_0" sampledSeconds="272.39" CO_abs="16616.579003" CO2_abs="1189486.946885" HC_abs="103.770835" PMx_abs="21.508462" NOx_abs="489.734501" fuel_abs="511.307346" electricity_abs="0"
            CO_normed="171.818993" CO2_normed="12299.550298" HC_normed="1.073013" PMx_normed="0.222402" NOx_normed="5.063960" fuel_normed="5.287028" electricity_normed="0"
            traveltime="1.59" CO_perVeh="96.947752" CO2_perVeh="6939.941426" HC_perVeh="0.605440" PMx_perVeh="0.125489" NOx_perVeh="2.857306" fuel_perVeh="2.983171" electricity_perVeh="0"/>
        <edge id=":11_1" sampledSeconds="50.33" CO_abs="1040.188112" CO2_abs="88668.877931" HC_abs="6.778146" PMx_abs="1.276996" NOx_abs="34.219878" fuel_abs="38.115140" electricity_abs="0"
            CO_normed="11.027684" CO2_normed="940.034151" HC_normed="0.071859" PMx_normed="0.013538" NOx_normed="0.362786" fuel_normed="0.404082" electricity_normed="0"
            traveltime="1.67" CO_perVeh="34.498549" CO2_perVeh="2940.763871" HC_perVeh="0.224802" PMx_perVeh="0.042352" NOx_perVeh="1.134926" fuel_perVeh="1.264115" electricity_perVeh="0"/>
        <edge id=":110_0" sampledSeconds="94.54" CO_abs="5.511484" CO2_abs="1380.215919" HC_abs="0.057343" PMx_abs="0.018281" NOx_abs="0.492702" fuel_abs="0.593295" electricity_abs="0"
            CO_normed="0.071482" CO2_normed="17.900966" HC_normed="0.000744" PMx_normed="0.000237" NOx_normed="0.006390" fuel_normed="0.007695" electricity_normed="0"
            traveltime="0.93" CO_perVeh="0.053961" CO2_perVeh="13.513318" HC_perVeh="0.000561" PMx_perVeh="0.000179" NOx_perVeh="0.004824" fuel_perVeh="0.005809" electricity_perVeh="0"/>
        <edge id=":110_1" sampledSeconds="443.92" CO_abs="10762.323028" CO2_abs="1318559.821125" HC_abs="81.022428" PMx_abs="24.041840" NOx_abs="494.670874" fuel_abs="566.788283" electricity_abs="0"
            CO_normed="138.159613" CO2_normed="16926.802393" HC_normed="1.040113" PMx_normed="0.308633" NOx_normed="6.350259" fuel_normed="7.276055" electricity_normed="0"
            traveltime="0.68" CO_perVeh="16.532528" CO2_perVeh="2025.503923" HC_perVeh="0.124462" PMx_perVeh="0.036932" NOx_perVeh="0.759888" fuel_perVeh="0.870671" electricity_perVeh="0"/>
        <edge id=":111_0" sampledSeconds="341.05" CO_abs="7396.925872" CO2_abs="1014379.729122" HC_abs="58.351430" PMx_abs="17.941468" NOx_abs="373.989902" fuel_abs="436.035654" electricity_abs="0"
            CO_normed="170.852615" CO2_normed="23429.926511" HC_normed="1.347789" PMx_normed="0.414408" NOx_normed="8.638339" fuel_normed="10.071458" electricity_normed="0"
            traveltime="0.38" CO_perVeh="8.220530" CO2_perVeh="1127.324891" HC_perVeh="0.064849" PMx_perVeh="0.019939" NOx_perVeh="0.415631" fuel_perVeh="0.484586" electricity_perVeh="0"/>
        <edge id=":114_0" sampledSeconds="107.23" CO_abs="10724.879695" CO2_abs="761861.095063" HC_abs="67.192540" PMx_abs="15.608381" NOx_abs="323.586688" fuel_abs="327.487545" electricity_abs="0"
            CO_normed="142.526791" CO2_normed="10124.646604" HC_normed="0.892946" PMx_normed="0.207425" NOx_normed="4.300260" fuel_normed="4.352100" electricity_normed="0"
            traveltime="0.99" CO_perVeh="99.217103" CO2_perVeh="7048.065116" HC_perVeh="0.621606" PMx_perVeh="0.144395" NOx_perVeh="2.993538" fuel_perVeh="3.029625" electricity_perVeh="0"/>
        <edge id=":114_1" sampledSeconds="416.55" CO_abs="9571.076782" CO2_abs="1212285.129847" HC_abs="72.958547" PMx_abs="21.879424" NOx_abs="452.547267" fuel_abs="521.105819" electricity_abs="0"
            CO_normed="126.392409" CO2_normed="16009.028225" HC_normed="0.963466" PMx_normed="0.288932" NOx_normed="5.976186" fuel_normed="6.881548" electricity_normed="0"
            traveltime="0.66" CO_perVeh="15.251241" CO2_perVeh="1931.742148" HC_perVeh="0.116257" PMx_perVeh="0.034864" NOx_perVeh="0.721121" fuel_perVeh="0.830367" electricity_perVeh="0"/>
        <edge id=":115_0" sampledSeconds="80.48" CO_abs="166.987479" CO2_abs="20538.225770" HC_abs="1.238988" PMx_abs="0.299930" NOx_abs="7.777935" fuel_abs="8.828496" electricity_abs="0"
            CO_normed="3.773895" CO2_normed="464.161237" HC_normed="0.028001" PMx_normed="0.006778" NOx_normed="0.175780" fuel_normed="0.199523" electricity_normed="0"
            traveltime="0.63" CO_perVeh="1.314057" CO2_perVeh="161.619249" HC_perVeh="0.009750" PMx_perVeh="0.002360" NOx_perVeh="0.061206" fuel_perVeh="0.069473" electricity_perVeh="0"/>
        <edge id=":115_1" sampledSeconds="72.47" CO_abs="1086.382236" CO2_abs="160087.545623" HC_abs="8.637106" PMx_abs="2.414806" NOx_abs="59.867692" fuel_abs="68.814531" electricity_abs="0"
            CO_normed="21.926205" CO2_normed="3231.010404" HC_normed="0.174321" PMx_normed="0.048737" NOx_normed="1.208296" fuel_normed="1.388868" electricity_normed="0"
            traveltime="0.59" CO_perVeh="8.893857" CO2_perVeh="1310.584495" HC_perVeh="0.070709" PMx_perVeh="0.019769" NOx_perVeh="0.490117" fuel_perVeh="0.563362" electricity_perVeh="0"/>
        <edge id=":116_0" sampledSeconds="75.33" CO_abs="121.629683" CO2_abs="17066.048262" HC_abs="0.945372" PMx_abs="0.214838" NOx_abs="6.244491" fuel_abs="7.335994" electricity_abs="0"
            CO_normed="3.068530" CO2_normed="430.550197" HC_normed="0.023850" PMx_normed="0.005420" NOx_normed="0.157539" fuel_normed="0.185076" electricity_normed="0"
            traveltime="0.57" CO_perVeh="0.918395" CO2_perVeh="128.861473" HC_perVeh="0.007138" PMx_perVeh="0.001622" NOx_perVeh="0.047151" fuel_perVeh="0.055392" electricity_perVeh="0"/>
        <edge id=":117_0" sampledSeconds="240.26" CO_abs="12737.713554" CO2_abs="1086892.618912" HC_abs="83.806718" PMx_abs="19.623048" NOx_abs="441.079660" fuel_abs="467.205217" electricity_abs="0"
            CO_normed="287.870673" CO2_normed="24563.632151" HC_normed="1.894021" PMx_normed="0.443478" NOx_normed="9.968343" fuel_normed="10.558777" electricity_normed="0"
            traveltime="0.61" CO_perVeh="32.078097" CO2_perVeh="2737.182503" HC_perVeh="0.211055" PMx_perVeh="0.049418" NOx_perVeh="1.110796" fuel_perVeh="1.176589" electricity_perVeh="0"/>
        <edge id=":117_1" sampledSeconds="75.95" CO_abs="4732.726527" CO2_abs="385657.609972" HC_abs="30.749775" PMx_abs="7.157927" NOx_abs="158.121036" fuel_abs="165.776344" electricity_abs="0"
            CO_normed="100.802223" CO2_normed="8214.111706" HC_normed="0.654939" PMx_normed="0.152457" NOx_normed="3.367816" fuel_normed="3.530866" electricity_normed="0"
            traveltime="0.64" CO_perVeh="40.012555" CO2_perVeh="3260.519313" HC_perVeh="0.259972" PMx_perVeh="0.060516" NOx_perVeh="1.336825" fuel_perVeh="1.401546" electricity_perVeh="0"/>
        <edge id=":118_0" sampledSeconds="898.70" CO_abs="13014.704955" CO2_abs="2034603.832502" HC_abs="105.092586" PMx_abs="30.030285" NOx_abs="753.352153" fuel_abs="874.586370" electricity_abs="0"
            CO_normed="39.491733" CO2_normed="6173.788145" HC_normed="0.318892" PMx_normed="0.091124" NOx_normed="2.285967" fuel_normed="2.653839" electricity_normed="0"
            traveltime="3.92" CO_perVeh="56.770076" CO2_perVeh="8874.931502" HC_perVeh="0.458413" PMx_perVeh="0.130992" NOx_perVeh="3.286118" fuel_perVeh="3.814941" electricity_perVeh="0"/>
        <edge id=":118_4" sampledSeconds="282.86" CO_abs="4134.121156" CO2_abs="608954.384511" HC_abs="32.550449" PMx_abs="9.152821" NOx_abs="226.870012" fuel_abs="261.762524" electricity_abs="0"
            CO_normed="12.568802" CO2_normed="1851.379444" HC_normed="0.098962" PMx_normed="0.027827" NOx_normed="0.689744" fuel_normed="0.795826" electricity_normed="0"
            traveltime="3.92" CO_perVeh="57.317029" CO2_perVeh="8442.775344" HC_perVeh="0.451292" PMx_perVeh="0.126898" NOx_perVeh="3.145412" fuel_perVeh="3.629175" electricity_perVeh="0"/>
        <edge id=":118_5" sampledSeconds="238.51" CO_abs="4134.374988" CO2_abs="594254.950536" HC_abs="32.206801" PMx_abs="9.182353" NOx_abs="222.839896" fuel_abs="255.443598" electricity_abs="0"
            CO_normed="12.694328" CO2_normed="1824.621019" HC_normed="0.098889" PMx_normed="0.028194" NOx_normed="0.684215" fuel_normed="0.784323" electricity_normed="0"
            traveltime="3.82" CO_perVeh="66.168431" CO2_perVeh="9510.728471" HC_perVeh="0.515452" PMx_perVeh="0.146959" NOx_perVeh="3.566432" fuel_perVeh="4.088236" electricity_perVeh="0"/>
        <edge id=":119_0" sampledSeconds="139.39" CO_abs="1893.536586" CO2_abs="295237.001570" HC_abs="15.273809" PMx_abs="4.359513" NOx_abs="109.518600" fuel_abs="126.909336" electricity_abs="0"
            CO_normed="40.605368" CO2_normed="6331.119850" HC_normed="0.327535" PMx_normed="0.093486" NOx_normed="2.348538" fuel_normed="2.721469" electricity_normed="0"
            traveltime="0.56" CO_perVeh="7.591054" CO2_perVeh="1183.584171" HC_perVeh="0.061232" PMx_perVeh="0.017477" NOx_perVeh="0.439052" fuel_perVeh="0.508771" electricity_perVeh="0"/>
        <edge id=":12_0" sampledSeconds="587.80" CO_abs="53307.174883" CO2_abs="3049312.861975" HC_abs="315.111268" PMx_abs="59.465290" NOx_abs="1297.059800" fuel_abs="1310.764629" electricity_abs="0"
            CO_normed="499.480597" CO2_normed="28571.624938" HC_normed="2.952547" PMx_normed="0.557181" NOx_normed="12.153265" fuel_normed="12.281677" electricity_normed="0"
            traveltime="2.11" CO_perVeh="191.337983" CO2_perVeh="10945.043976" HC_perVeh="1.131044" PMx_perVeh="0.213442" NOx_perVeh="4.655599" fuel_perVeh="4.704790" electricity_perVeh="0"/>
        <edge id=":12_1" sampledSeconds="55.90" CO_abs="929.820967" CO2_abs="86858.606937" HC_abs="6.218800" PMx_abs="1.150021" NOx_abs="32.761093" fuel_abs="37.337068" electricity_abs="0"
            CO_normed="8.703646" CO2_normed="813.045318" HC_normed="0.058211" PMx_normed="0.010765" NOx_normed="0.306662" fuel_normed="0.349496" electricity_normed="0"
            traveltime="1.89" CO_perVeh="31.354862" CO2_perVeh="2928.993570" HC_perVeh="0.209707" PMx_perVeh="0.038780" NOx_perVeh="1.104750" fuel_perVeh="1.259058" electricity_perVeh="0"/>
        <edge id=":120_0" sampledSeconds="39.07" CO_abs="485.749918" CO2_abs="81372.617077" HC_abs="3.987310" PMx_abs="1.168932" NOx_abs="29.766607" fuel_abs="34.978521" electricity_abs="0"
            CO_normed="381.938919" CO2_normed="63982.243338" HC_normed="3.135171" PMx_normed="0.919116" NOx_normed="23.405100" fuel_normed="27.503162" electricity_normed="0"
            traveltime="0.02" CO_perVeh="0.186902" CO2_perVeh="31.309704" HC_perVeh="0.001534" PMx_perVeh="0.000450" NOx_perVeh="0.011453" fuel_perVeh="0.013459" electricity_perVeh="0"/>
        <edge id=":121_0" sampledSeconds="374.25" CO_abs="53315.254057" CO2_abs="1431390.942812" HC_abs="276.382454" PMx_abs="30.901459" NOx_abs="633.075296" fuel_abs="615.310742" electricity_abs="0"
            CO_normed="30488.072200" CO2_normed="818534.042123" HC_normed="158.047980" PMx_normed="17.670851" NOx_normed="362.021070" fuel_normed="351.862495" electricity_normed="0"
            traveltime="0.11" CO_perVeh="16.308237" CO2_perVeh="437.838350" HC_perVeh="0.084541" PMx_perVeh="0.009452" NOx_perVeh="0.193647" fuel_perVeh="0.188213" electricity_perVeh="0"/>
        <edge id=":122_0" sampledSeconds="135.00" CO_abs="634.670140" CO2_abs="78333.020841" HC_abs="4.694322" PMx_abs="1.288315" NOx_abs="30.085089" fuel_abs="33.671801" electricity_abs="0"
            CO_normed="13.975253" CO2_normed="1724.870419" HC_normed="0.103368" PMx_normed="0.028368" NOx_normed="0.662465" fuel_normed="0.741443" electricity_normed="0"
            traveltime="0.54" CO_perVeh="2.530940" CO2_perVeh="312.376724" HC_perVeh="0.018720" PMx_perVeh="0.005138" NOx_perVeh="0.119973" fuel_perVeh="0.134277" electricity_perVeh="0"/>
        <edge id=":123_0" sampledSeconds="312.73" CO_abs="41137.433339" CO2_abs="2502006.833659" HC_abs="247.450703" PMx_abs="51.673762" NOx_abs="1075.636437" fuel_abs="1075.496118" electricity_abs="0"
            CO_normed="156.891683" CO2_normed="9542.259471" HC_normed="0.943738" PMx_normed="0.197076" NOx_normed="4.102308" fuel_normed="4.101773" electricity_normed="0"
            traveltime="4.26" CO_perVeh="560.212088" CO2_perVeh="34072.482359" HC_perVeh="3.369799" PMx_perVeh="0.703696" NOx_perVeh="14.648083" fuel_perVeh="14.646172" electricity_perVeh="0"/>
        <edge id=":123_1" sampledSeconds="0.00" CO_abs="0" CO2_abs="0" HC_abs="0" PMx_abs="0" NOx_abs="0" fuel_abs="0" electricity_abs="0"
            CO_normed="0" CO2_normed="0" HC_normed="0" PMx_normed="0" NOx_normed="0" fuel_normed="0" electricity_normed="0"/>
        <edge id=":123_2" sampledSeconds="272.36" CO_abs="35309.186499" CO2_abs="2150142.975415" HC_abs="212.390342" PMx_abs="44.098010" NOx_abs="922.818698" fuel_abs="924.246634" electricity_abs="0"
            CO_normed="135.955077" CO2_normed="8278.946158" HC_normed="0.817791" PMx_normed="0.169796" NOx_normed="3.553236" fuel_normed="3.558735" electricity_normed="0"
            traveltime="4.28" CO_perVeh="554.990004" CO2_perVeh="33795.960086" HC_perVeh="3.338353" PMx_perVeh="0.693133" NOx_perVeh="14.504870" fuel_perVeh="14.527314" electricity_perVeh="0"/>
        <edge id=":123_3" sampledSeconds="468.70" CO_abs="23224.352067" CO2_abs="2160099.608595" HC_abs="156.564268" PMx_abs="40.458410" NOx_abs="867.756693" fuel_abs="928.525290" electricity_abs="0"
            CO_normed="91.495664" CO2_normed="8510.022060" HC_normed="0.616807" PMx_normed="0.159392" NOx_normed="3.418652" fuel_normed="3.658058" electricity_normed="0"
            traveltime="2.81" CO_perVeh="139.007155" CO2_perVeh="12929.071232" HC_perVeh="0.937101" PMx_perVeh="0.242160" NOx_perVeh="5.193875" fuel_perVeh="5.557600" electricity_perVeh="0"/>
        <edge id=":123_5" sampledSeconds="0.00" CO_abs="0" CO2_abs="0" HC_abs="0" PMx_abs="0" NOx_abs="0" fuel_abs="0" electricity_abs="0"
            CO_normed="0" CO2_normed="0" HC_normed="0" PMx_normed="0" NOx_normed="0" fuel_normed="0" electricity_normed="0"/>
        <edge id=":123_6" sampledSeconds="194.01" CO_abs="10016.303259" CO2_abs="893248.620243" HC_abs="66.807939" PMx_abs="17.055052" NOx_abs="362.224643" fuel_abs="383.965348" electricity_abs="0"
            CO_normed="38.115865" CO2_normed="3399.152637" HC_normed="0.254230" PMx_normed="0.064901" NOx_normed="1.378403" fuel_normed="1.461135" electricity_normed="0"
            traveltime="2.90" CO_perVeh="149.848398" CO2_perVeh="13363.400773" HC_perVeh="0.999477" PMx_perVeh="0.255151" NOx_perVeh="5.419043" fuel_perVeh="5.744294" electricity_perVeh="0"/>
        <edge id=":124_0" sampledSeconds="118.37" CO_abs="4270.164230" CO2_abs="370627.162094" HC_abs="28.201697" PMx_abs="7.166223" NOx_abs="150.912129" fuel_abs="159.315040" electricity_abs="0"
            CO_normed="99.977427" CO2_normed="8677.500023" HC_normed="0.660287" PMx_normed="0.167783" NOx_normed="3.533308" fuel_normed="3.730046" electricity_normed="0"
            traveltime="0.46" CO_perVeh="16.607014" CO2_perVeh="1441.398970" HC_perVeh="0.109679" PMx_perVeh="0.027870" NOx_perVeh="0.586909" fuel_perVeh="0.619589" electricity_perVeh="0"/>
        <edge id=":125_0" sampledSeconds="141.25" CO_abs="5980.830581" CO2_abs="590342.259287" HC_abs="41.097496" PMx_abs="11.052365" NOx_abs="233.865898" fuel_abs="253.760407" electricity_abs="0"
            CO_normed="376.212020" CO2_normed="37134.282704" HC_normed="2.585155" PMx_normed="0.695227" NOx_normed="14.710860" fuel_normed="15.962284" electricity_normed="0"
            traveltime="0.16" CO_perVeh="6.849586" CO2_perVeh="676.093444" HC_perVeh="0.047067" PMx_perVeh="0.012658" NOx_perVeh="0.267836" fuel_perVeh="0.290621" electricity_perVeh="0"/>
        <edge id=":125_3" sampledSeconds="0.00" CO_abs="0" CO2_abs="0" HC_abs="0" PMx_abs="0" NOx_abs="0" fuel_abs="0" electricity_abs="0"
            CO_normed="0" CO2_normed="0" HC_normed="0" PMx_normed="0" NOx_normed="0" fuel_normed="0" electricity_normed="0"/>
        <edge id=":126_0" sampledSeconds="26.80" CO_abs="108.195165" CO2_abs="6944.569157" HC_abs="0.656845" PMx_abs="0.128853" NOx_abs="2.897598" fuel_abs="2.985163" electricity_abs="0"
            CO_normed="3.563245" CO2_normed="228.708922" HC_normed="0.021632" PMx_normed="0.004244" NOx_normed="0.095428" fuel_normed="0.098312" electricity_normed="0"
            traveltime="0.56" CO_perVeh="2.256009" CO2_perVeh="144.803221" HC_perVeh="0.013696" PMx_perVeh="0.002687" NOx_perVeh="0.060419" fuel_perVeh="0.062244" electricity_perVeh="0"/>
        <edge id=":126_1" sampledSeconds="80.66" CO_abs="1466.146981" CO2_abs="220223.098490" HC_abs="11.799602" PMx_abs="3.603494" NOx_abs="81.772215" fuel_abs="94.663924" electricity_abs="0"
            CO_normed="42.961958" CO2_normed="6453.115265" HC_normed="0.345759" PMx_normed="0.105592" NOx_normed="2.396141" fuel_normed="2.773902" electricity_normed="0"
            traveltime="0.35" CO_perVeh="6.344270" CO2_perVeh="952.943185" HC_perVeh="0.051059" PMx_perVeh="0.015593" NOx_perVeh="0.353842" fuel_perVeh="0.409627" electricity_perVeh="0"/>
        <edge id=":127_0" sampledSeconds="234.72" CO_abs="5032.434497" CO2_abs="662131.287329" HC_abs="38.291491" PMx_abs="11.249011" NOx_abs="250.008189" fuel_abs="284.619951" electricity_abs="0"
            CO_normed="116.380547" CO2_normed="15312.509536" HC_normed="0.885533" PMx_normed="0.260146" NOx_normed="5.781713" fuel_normed="6.582147" electricity_normed="0"
            traveltime="0.44" CO_perVeh="9.410794" CO2_perVeh="1238.204138" HC_perVeh="0.071606" PMx_perVeh="0.021036" NOx_perVeh="0.467522" fuel_perVeh="0.532247" electricity_perVeh="0"/>
        <edge id=":128_0" sampledSeconds="230.35" CO_abs="395.610758" CO2_abs="53222.787131" HC_abs="3.044604" PMx_abs="0.811232" NOx_abs="20.049911" fuel_abs="22.878124" electricity_abs="0"
            CO_normed="6.114273" CO2_normed="822.572850" HC_normed="0.047055" PMx_normed="0.012538" NOx_normed="0.309877" fuel_normed="0.353588" electricity_normed="0"
            traveltime="0.76" CO_perVeh="1.300517" CO2_perVeh="174.962675" HC_perVeh="0.010009" PMx_perVeh="0.002667" NOx_perVeh="0.065911" fuel_perVeh="0.075209" electricity_perVeh="0"/>
        <edge id=":128_1" sampledSeconds="142.78" CO_abs="184.603617" CO2_abs="25114.794057" HC_abs="1.419922" PMx_abs="0.333286" NOx_abs="9.299542" fuel_abs="10.795798" electricity_abs="0"
            CO_normed="2.947238" CO2_normed="400.963247" HC_normed="0.022669" PMx_normed="0.005321" NOx_normed="0.148469" fuel_normed="0.172357" electricity_normed="0"
            traveltime="0.86" CO_perVeh="1.106598" CO2_perVeh="150.549453" HC_perVeh="0.008512" PMx_perVeh="0.001998" NOx_perVeh="0.055746" fuel_perVeh="0.064715" electricity_perVeh="0"/>
        <edge id=":129_0" sampledSeconds="104.65" CO_abs="6436.295608" CO2_abs="555120.376510" HC_abs="42.519675" PMx_abs="10.645161" NOx_abs="226.702539" fuel_abs="238.619989" electricity_abs="0"
            CO_normed="149.948935" CO2_normed="12932.859849" HC_normed="0.990598" PMx_normed="0.248005" NOx_normed="5.281579" fuel_normed="5.559225" electricity_normed="0"
            traveltime="0.50" CO_perVeh="30.504663" CO2_perVeh="2630.979228" HC_perVeh="0.201521" PMx_perVeh="0.050452" NOx_perVeh="1.074451" fuel_perVeh="1.130934" electricity_perVeh="0"/>
        <edge id=":13_0" sampledSeconds="60.10" CO_abs="4788.654623" CO2_abs="347066.267325" HC_abs="30.084573" PMx_abs="6.629876" NOx_abs="144.801650" fuel_abs="149.187745" electricity_abs="0"
            CO_normed="33.857693" CO2_normed="2453.896563" HC_normed="0.212710" PMx_normed="0.046876" NOx_normed="1.023805" fuel_normed="1.054817" electricity_normed="0"
            traveltime="2.13" CO_perVeh="169.382411" CO2_perVeh="12276.291713" HC_perVeh="1.064140" PMx_perVeh="0.234509" NOx_perVeh="5.121867" fuel_perVeh="5.277010" electricity_perVeh="0"/>
        <edge id=":13_1" sampledSeconds="534.49" CO_abs="14457.762896" CO2_abs="1086447.045807" HC_abs="90.862890" PMx_abs="16.157331" NOx_abs="424.752215" fuel_abs="467.019809" electricity_abs="0"
            CO_normed="144.050094" CO2_normed="10824.828133" HC_normed="0.905313" PMx_normed="0.160984" NOx_normed="4.232024" fuel_normed="4.653157" electricity_normed="0"
            traveltime="1.87" CO_perVeh="50.475488" CO2_perVeh="3793.044999" HC_perVeh="0.317224" PMx_perVeh="0.056409" NOx_perVeh="1.482911" fuel_perVeh="1.630477" electricity_perVeh="0"/>
        <edge id=":132_0" sampledSeconds="41.05" CO_abs="469.732654" CO2_abs="84661.867730" HC_abs="4.017563" PMx_abs="1.192449" NOx_abs="30.859976" fuel_abs="36.392434" electricity_abs="0"
            CO_normed="886.427402" CO2_normed="159764.493279" HC_normed="7.581500" PMx_normed="2.250258" NOx_normed="58.235527" fuel_normed="68.675767" electricity_normed="0"
            traveltime="6.364108e-03" CO_perVeh="0.072822" CO2_perVeh="13.124937" HC_perVeh="0.000623" PMx_perVeh="0.000185" NOx_perVeh="0.004784" fuel_perVeh="0.005642" electricity_perVeh="0"/>