<?xml version="1.0" encoding="UTF-8"?>

<!-- generated on Sat Oct 31 23:56:30 2020 by Eclipse SUMO sumo Version 1.7.0
<configuration xmlns:xsi="http://www.w3.org/2001/XMLSchema-instance" xsi:noNamespaceSchemaLocation="http://sumo.dlr.de/xsd/sumoConfiguration.xsd">

    <input>
        <net-file value="../dataSets/Porto/8AM9AM_Routing_SaoBento/Porto.net.xml"/>
        <route-files value="../results/Porto/8AM9AM_Routing_SaoBento_fewerv/cost_co-ttime/solution2/Porto.rou.xml"/>
        <additional-files value="moreOutputInfo.xml"/>
    </input>

    <output>
        <emission-output.precision value="6"/>
        <tripinfo-output value="../results/Porto/8AM9AM_Routing_SaoBento_fewerv/cost_co-ttime/solution2/Porto-tripinfo"/>
    </output>

    <processing>
        <collision.action value="warn"/>
        <time-to-teleport value="-1"/>
    </processing>

    <emissions>
        <device.emissions.probability value="1"/>
    </emissions>

    <gui_only>
        <quit-on-end value="true"/>
        <start value="true"/>
    </gui_only>

</configuration>
-->

<meandata xmlns:xsi="http://www.w3.org/2001/XMLSchema-instance" xsi:noNamespaceSchemaLocation="http://sumo.dlr.de/xsd/meandata_file.xsd">
    <interval begin="0.00" end="8471.00" id="emissions-detector">
        <edge id=":1092997347_0" sampledSeconds="596.68" CO_abs="73368.484050" CO2_abs="3116643.577948" HC_abs="407.804005" PMx_abs="63.101280" NOx_abs="1348.983398" fuel_abs="1339.718871" electricity_abs="0"
            CO_normed="70863.840960" CO2_normed="3010248.033562" HC_normed="393.882449" PMx_normed="60.947138" NOx_normed="1302.931991" fuel_normed="1293.983735" electricity_normed="0"
            traveltime="0.07" CO_perVeh="8.409263" CO2_perVeh="357.219815" HC_perVeh="0.046741" PMx_perVeh="0.007232" NOx_perVeh="0.154616" fuel_perVeh="0.153554" electricity_perVeh="0"/>
        <edge id=":1103427051_0" sampledSeconds="19.42" CO_abs="1566.933024" CO2_abs="88650.853231" HC_abs="9.236259" PMx_abs="1.719836" NOx_abs="37.696471" fuel_abs="38.107101" electricity_abs="0"
            CO_normed="2296.255739" CO2_normed="129913.038656" HC_normed="13.535238" PMx_normed="2.520326" NOx_normed="55.242143" fuel_normed="55.843900" electricity_normed="0"
            traveltime="0.03" CO_perVeh="2.436779" CO2_perVeh="137.863296" HC_perVeh="0.014364" PMx_perVeh="0.002675" NOx_perVeh="0.058623" fuel_perVeh="0.059261" electricity_perVeh="0"/>
        <edge id=":1105984386_0" sampledSeconds="10.68" CO_abs="47.499705" CO2_abs="3067.350279" HC_abs="0.286171" PMx_abs="0.043240" NOx_abs="1.191861" fuel_abs="1.318539" electricity_abs="0"
            CO_normed="2.078928" CO2_normed="134.249279" HC_normed="0.012525" PMx_normed="0.001892" NOx_normed="0.052164" fuel_normed="0.057709" electricity_normed="0"
            traveltime="1.02" CO_perVeh="4.556630" CO2_perVeh="294.249864" HC_perVeh="0.027452" PMx_perVeh="0.004148" NOx_perVeh="0.114335" fuel_perVeh="0.126487" electricity_perVeh="0"/>
        <edge id=":1105984390_0" sampledSeconds="10.70" CO_abs="8.349169" CO2_abs="548.081388" HC_abs="0.050073" PMx_abs="0.005447" NOx_abs="0.197962" fuel_abs="0.235603" electricity_abs="0"
            CO_normed="0.282502" CO2_normed="18.544846" HC_normed="0.001694" PMx_normed="0.000184" NOx_normed="0.006698" fuel_normed="0.007972" electricity_normed="0"
            traveltime="1.11" CO_perVeh="0.865442" CO2_perVeh="56.811936" HC_perVeh="0.005190" PMx_perVeh="0.000565" NOx_perVeh="0.020520" fuel_perVeh="0.024422" electricity_perVeh="0"/>
        <edge id=":1105984390_1" sampledSeconds="2394.80" CO_abs="63997.764117" CO2_abs="7520466.280224" HC_abs="471.219779" PMx_abs="136.345826" NOx_abs="2867.137608" fuel_abs="3232.700704" electricity_abs="0"
            CO_normed="2071.418708" CO2_normed="243415.293671" HC_normed="15.251993" PMx_normed="4.413112" NOx_normed="92.800781" fuel_normed="104.632979" electricity_normed="0"
            traveltime="0.65" CO_perVeh="17.279451" CO2_perVeh="2030.532355" HC_perVeh="0.127230" PMx_perVeh="0.036813" NOx_perVeh="0.774130" fuel_perVeh="0.872832" electricity_perVeh="0"/>
        <edge id=":1105984395_0" sampledSeconds="4.21" CO_abs="74.295703" CO2_abs="5151.262966" HC_abs="0.454015" PMx_abs="0.062786" NOx_abs="1.932692" fuel_abs="2.214346" electricity_abs="0"
            CO_normed="34.319716" CO2_normed="2379.543850" HC_normed="0.209725" PMx_normed="0.029003" NOx_normed="0.892776" fuel_normed="1.022882" electricity_normed="0"
            traveltime="0.10" CO_perVeh="1.722440" CO2_perVeh="119.424667" HC_perVeh="0.010526" PMx_perVeh="0.001456" NOx_perVeh="0.044807" fuel_perVeh="0.051336" electricity_perVeh="0"/>
        <edge id=":1105984398_0" sampledSeconds="10.51" CO_abs="689.750108" CO2_abs="45903.062969" HC_abs="4.224202" PMx_abs="0.836485" NOx_abs="19.029391" fuel_abs="19.731700" electricity_abs="0"
            CO_normed="24.245620" CO2_normed="1613.552809" HC_normed="0.148486" PMx_normed="0.029404" NOx_normed="0.668908" fuel_normed="0.693595" electricity_normed="0"
            traveltime="1.15" CO_perVeh="75.276000" CO2_perVeh="5009.638897" HC_perVeh="0.461009" PMx_perVeh="0.091290" NOx_perVeh="2.076776" fuel_perVeh="2.153423" electricity_perVeh="0"/>
        <edge id=":1105984398_1" sampledSeconds="643.69" CO_abs="12832.867795" CO2_abs="1437086.069870" HC_abs="91.611387" PMx_abs="21.164059" NOx_abs="547.947243" fuel_abs="617.741587" electricity_abs="0"
            CO_normed="436.645613" CO2_normed="48897.669443" HC_normed="3.117129" PMx_normed="0.720119" NOx_normed="18.644216" fuel_normed="21.019008" electricity_normed="0"
            traveltime="0.95" CO_perVeh="18.981368" CO2_perVeh="2125.624576" HC_perVeh="0.135504" PMx_perVeh="0.031304" NOx_perVeh="0.810480" fuel_perVeh="0.913715" electricity_perVeh="0"/>
        <edge id=":1106006327_0" sampledSeconds="106.95" CO_abs="14433.892083" CO2_abs="465850.450769" HC_abs="76.687050" PMx_abs="9.720901" NOx_abs="203.934067" fuel_abs="200.252725" electricity_abs="0"
            CO_normed="692.337015" CO2_normed="22345.013285" HC_normed="3.678376" PMx_normed="0.466273" NOx_normed="9.781915" fuel_normed="9.605335" electricity_normed="0"
            traveltime="2.11" CO_perVeh="284.737791" CO2_perVeh="9189.844797" HC_perVeh="1.512808" PMx_perVeh="0.191764" NOx_perVeh="4.023013" fuel_perVeh="3.950391" electricity_perVeh="0"/>
        <edge id=":1106006327_1" sampledSeconds="680.06" CO_abs="92249.330131" CO2_abs="3094095.126967" HC_abs="492.987406" PMx_abs="64.594804" NOx_abs="1354.440242" fuel_abs="1330.039563" electricity_abs="0"
            CO_normed="3858.667279" CO2_normed="129421.900484" HC_normed="20.621010" PMx_normed="2.701915" NOx_normed="56.654441" fuel_normed="55.633793" electricity_normed="0"
            traveltime="2.28" CO_perVeh="309.658673" CO2_perVeh="10386.128426" HC_perVeh="1.654839" PMx_perVeh="0.216829" NOx_perVeh="4.546528" fuel_perVeh="4.464621" electricity_perVeh="0"/>
        <edge id=":1106006327_2" sampledSeconds="0.00" CO_abs="0" CO2_abs="0" HC_abs="0" PMx_abs="0" NOx_abs="0" fuel_abs="0" electricity_abs="0"
            CO_normed="0" CO2_normed="0" HC_normed="0" PMx_normed="0" NOx_normed="0" fuel_normed="0" electricity_normed="0"/>
        <edge id=":1106006327_3" sampledSeconds="0.00" CO_abs="0" CO2_abs="0" HC_abs="0" PMx_abs="0" NOx_abs="0" fuel_abs="0" electricity_abs="0"
            CO_normed="0" CO2_normed="0" HC_normed="0" PMx_normed="0" NOx_normed="0" fuel_normed="0" electricity_normed="0"/>
        <edge id=":1107381198_0" sampledSeconds="0.00" CO_abs="0" CO2_abs="0" HC_abs="0" PMx_abs="0" NOx_abs="0" fuel_abs="0" electricity_abs="0"
            CO_normed="0" CO2_normed="0" HC_normed="0" PMx_normed="0" NOx_normed="0" fuel_normed="0" electricity_normed="0"/>
        <edge id=":1107381198_1" sampledSeconds="103.99" CO_abs="4588.306471" CO2_abs="180143.639791" HC_abs="25.037597" PMx_abs="3.110807" NOx_abs="74.651509" fuel_abs="77.437558" electricity_abs="0"
            CO_normed="212.642907" CO2_normed="8348.672342" HC_normed="1.160356" PMx_normed="0.144169" NOx_normed="3.459689" fuel_normed="3.588807" electricity_normed="0"
            traveltime="1.56" CO_perVeh="68.695746" CO2_perVeh="2697.095704" HC_perVeh="0.374861" PMx_perVeh="0.046575" NOx_perVeh="1.117676" fuel_perVeh="1.159389" electricity_perVeh="0"/>
        <edge id=":1110338277_0" sampledSeconds="159.99" CO_abs="2619.196355" CO2_abs="321497.507799" HC_abs="19.342849" PMx_abs="4.437487" NOx_abs="120.400059" fuel_abs="138.198246" electricity_abs="0"
            CO_normed="3975.372649" CO2_normed="487963.568173" HC_normed="29.358254" PMx_normed="6.735145" NOx_normed="182.741206" fuel_normed="209.754998" electricity_normed="0"
            traveltime="0.02" CO_perVeh="0.354747" CO2_perVeh="43.543955" HC_perVeh="0.002620" PMx_perVeh="0.000601" NOx_perVeh="0.016307" fuel_perVeh="0.018718" electricity_perVeh="0"/>
        <edge id=":1110338293_0" sampledSeconds="6290.93" CO_abs="569070.059281" CO2_abs="10010733.578533" HC_abs="2825.256756" PMx_abs="237.915915" NOx_abs="4520.480048" fuel_abs="4303.444641" electricity_abs="0"
            CO_normed="806143.396455" CO2_normed="14181183.206516" HC_normed="4002.252517" PMx_normed="337.031162" NOx_normed="6403.702110" fuel_normed="6096.250230" electricity_normed="0"
            traveltime="0.42" CO_perVeh="38.131344" CO2_perVeh="670.783359" HC_perVeh="0.189310" PMx_perVeh="0.015942" NOx_perVeh="0.302901" fuel_perVeh="0.288358" electricity_perVeh="0"/>
        <edge id=":1110338295_0" sampledSeconds="0.00" CO_abs="0" CO2_abs="0" HC_abs="0" PMx_abs="0" NOx_abs="0" fuel_abs="0" electricity_abs="0"
            CO_normed="0" CO2_normed="0" HC_normed="0" PMx_normed="0" NOx_normed="0" fuel_normed="0" electricity_normed="0"/>
        <edge id=":1110673403_0" sampledSeconds="200.94" CO_abs="2888.055374" CO2_abs="364814.002115" HC_abs="21.490881" PMx_abs="4.923794" NOx_abs="135.775024" fuel_abs="156.818284" electricity_abs="0"
            CO_normed="4091.212901" CO2_normed="516794.714364" HC_normed="30.443935" PMx_normed="6.975035" NOx_normed="192.338600" fuel_normed="222.148437" electricity_normed="0"
            traveltime="0.02" CO_perVeh="0.333792" CO2_perVeh="42.163998" HC_perVeh="0.002484" PMx_perVeh="0.000569" NOx_perVeh="0.015692" fuel_perVeh="0.018125" electricity_perVeh="0"/>
        <edge id=":1110673412_0" sampledSeconds="950.60" CO_abs="169043.089349" CO2_abs="11533770.168569" HC_abs="1052.002676" PMx_abs="253.480242" NOx_abs="4956.934582" fuel_abs="4957.799682" electricity_abs="0"
            CO_normed="247723.519862" CO2_normed="16902117.409437" HC_normed="1541.653118" PMx_normed="371.461608" NOx_normed="7264.119978" fuel_normed="7265.387734" electricity_normed="0"
            traveltime="0.02" CO_perVeh="2.762152" CO2_perVeh="188.460960" HC_perVeh="0.017190" PMx_perVeh="0.004142" NOx_perVeh="0.080996" fuel_perVeh="0.081010" electricity_perVeh="0"/>
        <edge id=":1110673414_0" sampledSeconds="0.00" CO_abs="0" CO2_abs="0" HC_abs="0" PMx_abs="0" NOx_abs="0" fuel_abs="0" electricity_abs="0"
            CO_normed="0" CO2_normed="0" HC_normed="0" PMx_normed="0" NOx_normed="0" fuel_normed="0" electricity_normed="0"/>
        <edge id=":1110673414_1" sampledSeconds="7.23" CO_abs="357.291875" CO2_abs="13190.469277" HC_abs="1.929362" PMx_abs="0.226023" NOx_abs="5.458837" fuel_abs="5.670150" electricity_abs="0"
            CO_normed="16.815245" CO2_normed="620.783715" HC_normed="0.090802" PMx_normed="0.010637" NOx_normed="0.256910" fuel_normed="0.266855" electricity_normed="0"
            traveltime="1.58" CO_perVeh="78.044161" CO2_perVeh="2881.227324" HC_perVeh="0.421435" PMx_perVeh="0.049371" NOx_perVeh="1.192388" fuel_perVeh="1.238545" electricity_perVeh="0"/>
        <edge id=":1110673417_0" sampledSeconds="28.94" CO_abs="445.564563" CO2_abs="52577.350006" HC_abs="3.225709" PMx_abs="0.725169" NOx_abs="19.716678" fuel_abs="22.600799" electricity_abs="0"
            CO_normed="676.270480" CO2_normed="79801.027043" HC_normed="4.895927" PMx_normed="1.100649" NOx_normed="29.925646" fuel_normed="34.303117" electricity_normed="0"
            traveltime="0.02" CO_perVeh="0.339764" CO2_perVeh="40.092753" HC_perVeh="0.002460" PMx_perVeh="0.000553" NOx_perVeh="0.015035" fuel_perVeh="0.017234" electricity_perVeh="0"/>
        <edge id=":1110673446_0" sampledSeconds="1329.25" CO_abs="13241.321163" CO2_abs="1078256.165842" HC_abs="85.794313" PMx_abs="19.644874" NOx_abs="440.100043" fuel_abs="463.492887" electricity_abs="0"
            CO_normed="18757.626485" CO2_normed="1527455.316976" HC_normed="121.536035" PMx_normed="27.828886" NOx_normed="623.444755" fuel_normed="656.583007" electricity_normed="0"
            traveltime="0.02" CO_perVeh="0.227544" CO2_perVeh="18.529159" HC_perVeh="0.001474" PMx_perVeh="0.000338" NOx_perVeh="0.007563" fuel_perVeh="0.007965" electricity_perVeh="0"/>
        <edge id=":1110673451_0" sampledSeconds="36.86" CO_abs="455.299418" CO2_abs="31487.157769" HC_abs="2.790452" PMx_abs="0.434992" NOx_abs="12.136187" fuel_abs="13.535138" electricity_abs="0"
            CO_normed="716.640173" CO2_normed="49560.709510" HC_normed="4.392165" PMx_normed="0.684677" NOx_normed="19.102329" fuel_normed="21.304274" electricity_normed="0"
            traveltime="0.03" CO_perVeh="0.335455" CO2_perVeh="23.199074" HC_perVeh="0.002056" PMx_perVeh="0.000320" NOx_perVeh="0.008942" fuel_perVeh="0.009972" electricity_perVeh="0"/>
        <edge id=":1110673464_0" sampledSeconds="1035.14" CO_abs="4029.882123" CO2_abs="290307.319624" HC_abs="24.999910" PMx_abs="4.157021" NOx_abs="112.606482" fuel_abs="124.791792" electricity_abs="0"
            CO_normed="121.290131" CO2_normed="8737.578857" HC_normed="0.752439" PMx_normed="0.125117" NOx_normed="3.389195" fuel_normed="3.755944" electricity_normed="0"
            traveltime="1.23" CO_perVeh="4.778876" CO2_perVeh="344.263852" HC_perVeh="0.029646" PMx_perVeh="0.004930" NOx_perVeh="0.133536" fuel_perVeh="0.147986" electricity_perVeh="0"/>
        <edge id=":1110673464_1" sampledSeconds="2598.78" CO_abs="67927.617969" CO2_abs="8096685.445623" HC_abs="502.393982" PMx_abs="145.714210" NOx_abs="3081.206805" fuel_abs="3480.391295" electricity_abs="0"
            CO_normed="2003.319524" CO2_normed="238787.234368" HC_normed="14.816590" PMx_normed="4.297400" NOx_normed="90.870870" fuel_normed="102.643609" electricity_normed="0"
            traveltime="0.72" CO_perVeh="18.728826" CO2_perVeh="2232.397079" HC_perVeh="0.138519" PMx_perVeh="0.040176" NOx_perVeh="0.849542" fuel_perVeh="0.959604" electricity_perVeh="0"/>
        <edge id=":1110673479_0" sampledSeconds="135.24" CO_abs="5985.799069" CO2_abs="411291.599829" HC_abs="36.914123" PMx_abs="7.179169" NOx_abs="168.114763" fuel_abs="176.796455" electricity_abs="0"
            CO_normed="8479.469819" CO2_normed="582634.777235" HC_normed="52.292466" PMx_normed="10.169994" NOx_normed="238.151004" fuel_normed="250.449469" electricity_normed="0"
            traveltime="0.03" CO_perVeh="1.265452" CO2_perVeh="86.950763" HC_perVeh="0.007804" PMx_perVeh="0.001518" NOx_perVeh="0.035541" fuel_perVeh="0.037376" electricity_perVeh="0"/>
        <edge id=":1110673511_0" sampledSeconds="63.49" CO_abs="1077.722869" CO2_abs="118656.901443" HC_abs="7.609590" PMx_abs="1.650160" NOx_abs="44.755733" fuel_abs="51.005653" electricity_abs="0"
            CO_normed="1526.699850" CO2_normed="168089.106047" HC_normed="10.779729" PMx_normed="2.337613" NOx_normed="63.400872" fuel_normed="72.254496" electricity_normed="0"
            traveltime="0.02" CO_perVeh="0.413053" CO2_perVeh="45.476934" HC_perVeh="0.002916" PMx_perVeh="0.000632" NOx_perVeh="0.017153" fuel_perVeh="0.019549" electricity_perVeh="0"/>
        <edge id=":1110673517_0" sampledSeconds="182.40" CO_abs="8391.191673" CO2_abs="598034.256603" HC_abs="52.240077" PMx_abs="10.298581" NOx_abs="243.177039" fuel_abs="257.069024" electricity_abs="0"
            CO_normed="11886.943699" CO2_normed="847174.014785" HC_normed="74.003179" PMx_normed="14.588947" NOx_normed="344.484059" fuel_normed="364.163414" electricity_normed="0"
            traveltime="0.03" CO_perVeh="1.284759" CO2_perVeh="91.563885" HC_perVeh="0.007998" PMx_perVeh="0.001577" NOx_perVeh="0.037232" fuel_perVeh="0.039359" electricity_perVeh="0"/>
        <edge id=":1110673534_0" sampledSeconds="721.87" CO_abs="5451.923413" CO2_abs="457467.828670" HC_abs="35.273636" PMx_abs="6.167511" NOx_abs="173.918766" fuel_abs="196.647500" electricity_abs="0"
            CO_normed="149.674084" CO2_normed="12559.068248" HC_normed="0.968383" PMx_normed="0.169319" NOx_normed="4.774669" fuel_normed="5.398651" electricity_normed="0"
            traveltime="1.45" CO_perVeh="10.949640" CO2_perVeh="918.778144" HC_perVeh="0.070844" PMx_perVeh="0.012387" NOx_perVeh="0.349298" fuel_perVeh="0.394947" electricity_perVeh="0"/>
        <edge id=":1110673534_1" sampledSeconds="211.57" CO_abs="3027.195499" CO2_abs="390329.794148" HC_abs="22.618821" PMx_abs="5.233040" NOx_abs="144.869794" fuel_abs="167.786458" electricity_abs="0"
            CO_normed="80.810022" CO2_normed="10419.729824" HC_normed="0.603802" PMx_normed="0.139694" NOx_normed="3.867253" fuel_normed="4.479006" electricity_normed="0"
            traveltime="1.23" CO_perVeh="17.530383" CO2_perVeh="2260.386206" HC_perVeh="0.130985" PMx_perVeh="0.030304" NOx_perVeh="0.838936" fuel_perVeh="0.971646" electricity_perVeh="0"/>
        <edge id=":1110673549_0" sampledSeconds="646.23" CO_abs="1224.530281" CO2_abs="121485.884043" HC_abs="8.295076" PMx_abs="1.777356" NOx_abs="46.294325" fuel_abs="52.221682" electricity_abs="0"
            CO_normed="32.565712" CO2_normed="3230.850499" HC_normed="0.220603" PMx_normed="0.047268" NOx_normed="1.231172" fuel_normed="1.388807" electricity_normed="0"
            traveltime="1.28" CO_perVeh="2.432850" CO2_perVeh="241.363484" HC_perVeh="0.016480" PMx_perVeh="0.003531" NOx_perVeh="0.091976" fuel_perVeh="0.103752" electricity_perVeh="0"/>
        <edge id=":1110673549_1" sampledSeconds="3197.24" CO_abs="71809.690950" CO2_abs="9274434.136487" HC_abs="548.619356" PMx_abs="163.803287" NOx_abs="3477.717749" fuel_abs="3986.654071" electricity_abs="0"
            CO_normed="1847.314477" CO2_normed="238586.132572" HC_normed="14.113311" PMx_normed="4.213863" NOx_normed="89.464782" fuel_normed="102.557241" electricity_normed="0"
            traveltime="0.81" CO_perVeh="18.112907" CO2_perVeh="2339.335534" HC_perVeh="0.138381" PMx_perVeh="0.041317" NOx_perVeh="0.877202" fuel_perVeh="1.005573" electricity_perVeh="0"/>
        <edge id=":1110673556_0" sampledSeconds="472.37" CO_abs="58006.314113" CO2_abs="2765281.480339" HC_abs="329.777987" PMx_abs="55.833341" NOx_abs="1192.632159" fuel_abs="1188.677042" electricity_abs="0"
            CO_normed="1143.920425" CO2_normed="54533.062737" HC_normed="6.503426" PMx_normed="1.101068" NOx_normed="23.519445" fuel_normed="23.441447" electricity_normed="0"
            traveltime="2.78" CO_perVeh="341.941644" CO2_perVeh="16301.068441" HC_perVeh="1.944010" PMx_perVeh="0.329132" NOx_perVeh="7.030452" fuel_perVeh="7.007137" electricity_perVeh="0"/>
        <edge id=":1110673556_2" sampledSeconds="169.90" CO_abs="15788.329106" CO2_abs="689899.408448" HC_abs="88.076064" PMx_abs="13.178936" NOx_abs="293.277001" fuel_abs="296.560662" electricity_abs="0"
            CO_normed="325.556220" CO2_normed="14225.764005" HC_normed="1.816133" PMx_normed="0.271750" NOx_normed="6.047388" fuel_normed="6.115097" electricity_normed="0"
            traveltime="2.94" CO_perVeh="273.002771" CO2_perVeh="11929.346607" HC_perVeh="1.522961" PMx_perVeh="0.227883" NOx_perVeh="5.071178" fuel_perVeh="5.127958" electricity_perVeh="0"/>
        <edge id=":1110673556_3" sampledSeconds="348.10" CO_abs="35646.757881" CO2_abs="1223648.622131" HC_abs="190.912732" PMx_abs="24.162686" NOx_abs="527.097271" fuel_abs="526.003634" electricity_abs="0"
            CO_normed="1672.090031" CO2_normed="57397.945408" HC_normed="8.955184" PMx_normed="1.133404" NOx_normed="24.724663" fuel_normed="24.673364" electricity_normed="0"
            traveltime="1.84" CO_perVeh="188.596171" CO2_perVeh="6473.953258" HC_perVeh="1.010061" PMx_perVeh="0.127837" NOx_perVeh="2.788712" fuel_perVeh="2.782925" electricity_perVeh="0"/>
        <edge id=":1110673556_4" sampledSeconds="83.74" CO_abs="9070.137323" CO2_abs="348501.142723" HC_abs="49.464428" PMx_abs="6.796533" NOx_abs="149.383831" fuel_abs="149.807644" electricity_abs="0"
            CO_normed="259.920498" CO2_normed="9986.903983" HC_normed="1.417489" PMx_normed="0.194766" NOx_normed="4.280852" fuel_normed="4.292998" electricity_normed="0"
            traveltime="2.54" CO_perVeh="274.790882" CO2_perVeh="10558.267511" HC_perVeh="1.498585" PMx_perVeh="0.205909" NOx_perVeh="4.525766" fuel_perVeh="4.538605" electricity_perVeh="0"/>
        <edge id=":1110673556_5" sampledSeconds="21.80" CO_abs="1270.463872" CO2_abs="59106.503230" HC_abs="7.160539" PMx_abs="1.059243" NOx_abs="24.681333" fuel_abs="25.407600" electricity_abs="0"
            CO_normed="50.744445" CO2_normed="2360.812294" HC_normed="0.286004" PMx_normed="0.042308" NOx_normed="0.985814" fuel_normed="1.014822" electricity_normed="0"
            traveltime="1.51" CO_perVeh="87.834539" CO2_perVeh="4086.375532" HC_perVeh="0.495050" PMx_perVeh="0.073232" NOx_perVeh="1.706364" fuel_perVeh="1.756575" electricity_perVeh="0"/>
        <edge id=":1110673556_6" sampledSeconds="552.65" CO_abs="66225.256162" CO2_abs="3179875.652245" HC_abs="377.050010" PMx_abs="64.135243" NOx_abs="1370.627853" fuel_abs="1366.893200" electricity_abs="0"
            CO_normed="1338.932718" CO2_normed="64290.269270" HC_normed="7.623143" PMx_normed="1.296677" NOx_normed="27.711157" fuel_normed="27.635650" electricity_normed="0"
            traveltime="2.68" CO_perVeh="321.538357" CO2_perVeh="15439.003954" HC_perVeh="1.830662" PMx_perVeh="0.311391" NOx_perVeh="6.654703" fuel_perVeh="6.636571" electricity_perVeh="0"/>
        <edge id=":1110673561_0" sampledSeconds="106.30" CO_abs="9611.038547" CO2_abs="670894.241242" HC_abs="59.912801" PMx_abs="13.589612" NOx_abs="284.511716" fuel_abs="288.385584" electricity_abs="0"
            CO_normed="244.141831" CO2_normed="17042.211160" HC_normed="1.521919" PMx_normed="0.345206" NOx_normed="7.227233" fuel_normed="7.325638" electricity_normed="0"
            traveltime="1.25" CO_perVeh="113.419583" CO2_perVeh="7917.203217" HC_perVeh="0.707029" PMx_perVeh="0.160371" NOx_perVeh="3.357514" fuel_perVeh="3.403230" electricity_perVeh="0"/>
        <edge id=":1110673561_1" sampledSeconds="5252.30" CO_abs="483535.602351" CO2_abs="33526970.994175" HC_abs="3012.680735" PMx_abs="699.876519" NOx_abs="14328.484565" fuel_abs="14411.626609" electricity_abs="0"
            CO_normed="11975.095674" CO2_normed="830318.767383" HC_normed="74.611135" PMx_normed="17.332929" NOx_normed="354.854891" fuel_normed="356.913962" electricity_normed="0"
            traveltime="1.20" CO_perVeh="110.090432" CO2_perVeh="7633.354607" HC_perVeh="0.685921" PMx_perVeh="0.159347" NOx_perVeh="3.262281" fuel_perVeh="3.281211" electricity_perVeh="0"/>
        <edge id=":1110673562_0" sampledSeconds="301.73" CO_abs="6799.355354" CO2_abs="518494.382228" HC_abs="42.780840" PMx_abs="7.081007" NOx_abs="198.557928" fuel_abs="222.880727" electricity_abs="0"
            CO_normed="10702.168738" CO2_normed="816108.892658" HC_normed="67.336937" PMx_normed="11.145488" NOx_normed="312.529694" fuel_normed="350.813720" electricity_normed="0"
            traveltime="0.03" CO_perVeh="0.609506" CO2_perVeh="46.478704" HC_perVeh="0.003835" PMx_perVeh="0.000635" NOx_perVeh="0.017799" fuel_perVeh="0.019979" electricity_perVeh="0"/>
        <edge id=":1110673564_0" sampledSeconds="27.84" CO_abs="458.124333" CO2_abs="56637.522220" HC_abs="3.335170" PMx_abs="0.738332" NOx_abs="20.915327" fuel_abs="24.346143" electricity_abs="0"
            CO_normed="1946.933774" CO2_normed="240697.768850" HC_normed="14.173782" PMx_normed="3.137757" NOx_normed="88.885819" fuel_normed="103.466076" electricity_normed="0"
            traveltime="7.863631e-03" CO_perVeh="0.129395" CO2_perVeh="15.997041" HC_perVeh="0.000942" PMx_perVeh="0.000209" NOx_perVeh="0.005907" fuel_perVeh="0.006876" electricity_perVeh="0"/>
        <edge id=":1110673588_0" sampledSeconds="63.03" CO_abs="1305.148119" CO2_abs="130134.616009" HC_abs="8.944538" PMx_abs="1.923846" NOx_abs="50.029310" fuel_abs="55.939357" electricity_abs="0"
            CO_normed="2218.643952" CO2_normed="221218.093558" HC_normed="15.204975" PMx_normed="3.270379" NOx_normed="85.045693" fuel_normed="95.092285" electricity_normed="0"
            traveltime="0.02" CO_perVeh="0.421016" CO2_perVeh="41.978908" HC_perVeh="0.002885" PMx_perVeh="0.000621" NOx_perVeh="0.016138" fuel_perVeh="0.018045" electricity_perVeh="0"/>
        <edge id=":1110673601_0" sampledSeconds="28.90" CO_abs="498.891512" CO2_abs="60009.366687" HC_abs="3.633124" PMx_abs="0.811719" NOx_abs="22.381177" fuel_abs="25.795529" electricity_abs="0"
            CO_normed="757.209237" CO2_normed="91081.218305" HC_normed="5.514296" PMx_normed="1.232014" NOx_normed="33.969777" fuel_normed="39.152025" electricity_normed="0"
            traveltime="0.02" CO_perVeh="0.380429" CO2_perVeh="45.760023" HC_perVeh="0.002770" PMx_perVeh="0.000619" NOx_perVeh="0.017067" fuel_perVeh="0.019670" electricity_perVeh="0"/>
        <edge id=":1110673617_0" sampledSeconds="856.96" CO_abs="31946.458808" CO2_abs="3190901.786945" HC_abs="221.890966" PMx_abs="60.309812" NOx_abs="1254.379465" fuel_abs="1371.619209" electricity_abs="0"
            CO_normed="45255.283401" CO2_normed="4520224.465038" HC_normed="314.330255" PMx_normed="85.434747" NOx_normed="1776.951196" fuel_normed="1943.032760" electricity_normed="0"
            traveltime="0.02" CO_perVeh="0.566289" CO2_perVeh="56.562505" HC_perVeh="0.003933" PMx_perVeh="0.001069" NOx_perVeh="0.022235" fuel_perVeh="0.024314" electricity_perVeh="0"/>
        <edge id=":1110673621_0" sampledSeconds="26.92" CO_abs="559.392141" CO2_abs="57314.384554" HC_abs="3.872149" PMx_abs="0.815601" NOx_abs="21.810675" fuel_abs="24.637064" electricity_abs="0"
            CO_normed="950.920415" CO2_normed="97429.717575" HC_normed="6.582333" PMx_normed="1.386454" NOx_normed="37.076345" fuel_normed="41.880973" electricity_normed="0"
            traveltime="0.02" CO_perVeh="0.423793" CO2_perVeh="43.421112" HC_perVeh="0.002934" PMx_perVeh="0.000618" NOx_perVeh="0.016524" fuel_perVeh="0.018665" electricity_perVeh="0"/>
        <edge id=":1110673630_0" sampledSeconds="286.53" CO_abs="1138.574000" CO2_abs="101426.432882" HC_abs="7.494554" PMx_abs="1.316076" NOx_abs="38.142660" fuel_abs="43.599278" electricity_abs="0"
            CO_normed="34.512869" CO2_normed="3074.474938" HC_normed="0.227178" PMx_normed="0.039893" NOx_normed="1.156194" fuel_normed="1.321597" electricity_normed="0"
            traveltime="1.29" CO_perVeh="5.123148" CO2_perVeh="456.380211" HC_perVeh="0.033723" PMx_perVeh="0.005922" NOx_perVeh="0.171627" fuel_perVeh="0.196180" electricity_perVeh="0"/>
        <edge id=":1110673630_1" sampledSeconds="339.14" CO_abs="923.553767" CO2_abs="80670.911730" HC_abs="6.031089" PMx_abs="1.016611" NOx_abs="30.171148" fuel_abs="34.677344" electricity_abs="0"
            CO_normed="34.129676" CO2_normed="2981.171385" HC_normed="0.222877" PMx_normed="0.037569" NOx_normed="1.114966" fuel_normed="1.281492" electricity_normed="0"
            traveltime="1.08" CO_perVeh="2.944112" CO2_perVeh="257.163345" HC_perVeh="0.019226" PMx_perVeh="0.003241" NOx_perVeh="0.096180" fuel_perVeh="0.110545" electricity_perVeh="0"/>
        <edge id=":1110673650_0" sampledSeconds="200.37" CO_abs="2718.091439" CO2_abs="351254.277333" HC_abs="20.387697" PMx_abs="4.687905" NOx_abs="130.281593" fuel_abs="150.989561" electricity_abs="0"
            CO_normed="3850.442365" CO2_normed="497586.038012" HC_normed="28.881167" PMx_normed="6.640876" NOx_normed="184.556619" fuel_normed="213.891481" electricity_normed="0"
            traveltime="0.02" CO_perVeh="0.314265" CO2_perVeh="40.611984" HC_perVeh="0.002357" PMx_perVeh="0.000542" NOx_perVeh="0.015063" fuel_perVeh="0.017457" electricity_perVeh="0"/>
        <edge id=":1110673655_0" sampledSeconds="20.83" CO_abs="294.560990" CO2_abs="35424.108361" HC_abs="2.148707" PMx_abs="0.473001" NOx_abs="13.187207" fuel_abs="15.227359" electricity_abs="0"
            CO_normed="417.274452" CO2_normed="50181.714123" HC_normed="3.043853" PMx_normed="0.670053" NOx_normed="18.680968" fuel_normed="21.571043" electricity_normed="0"
            traveltime="0.02" CO_perVeh="0.336513" CO2_perVeh="40.469278" HC_perVeh="0.002455" PMx_perVeh="0.000540" NOx_perVeh="0.015065" fuel_perVeh="0.017396" electricity_perVeh="0"/>
        <edge id=":1110673663_0" sampledSeconds="111.52" CO_abs="1689.219315" CO2_abs="206471.143243" HC_abs="12.384522" PMx_abs="2.727835" NOx_abs="76.645853" fuel_abs="88.753426" electricity_abs="0"
            CO_normed="43.826820" CO2_normed="5356.896853" HC_normed="0.321317" PMx_normed="0.070774" NOx_normed="1.988578" fuel_normed="2.302709" electricity_normed="0"
            traveltime="1.31" CO_perVeh="19.840678" CO2_perVeh="2425.100981" HC_perVeh="0.145462" PMx_perVeh="0.032040" NOx_perVeh="0.900242" fuel_perVeh="1.042451" electricity_perVeh="0"/>
        <edge id=":1110673663_1" sampledSeconds="170.97" CO_abs="2667.848475" CO2_abs="342060.671413" HC_abs="19.938991" PMx_abs="4.473432" NOx_abs="126.431361" fuel_abs="147.037758" electricity_abs="0"
            CO_normed="69.301986" CO2_normed="8885.618510" HC_normed="0.517950" PMx_normed="0.116205" NOx_normed="3.284274" fuel_normed="3.819560" electricity_normed="0"
            traveltime="1.28" CO_perVeh="19.932411" CO2_perVeh="2555.652661" HC_perVeh="0.148971" PMx_perVeh="0.033423" NOx_perVeh="0.944612" fuel_perVeh="1.098570" electricity_perVeh="0"/>