<?xml version="1.0" encoding="UTF-8"?>

<!-- generated on Tue Nov 10 00:15:04 2020 by Eclipse SUMO sumo Version 1.7.0
<configuration xmlns:xsi="http://www.w3.org/2001/XMLSchema-instance" xsi:noNamespaceSchemaLocation="http://sumo.dlr.de/xsd/sumoConfiguration.xsd">

    <input>
        <net-file value="../dataSets/Porto/6AM7AM_Routing_SaoBento/Porto.net.xml"/>
        <route-files value="../results/Porto/6AM7AM_Routing_SaoBento/cost_hc-length/solution18/Porto.rou.xml"/>
        <additional-files value="moreOutputInfo.xml"/>
    </input>

    <output>
        <emission-output.precision value="6"/>
        <tripinfo-output value="../results/Porto/6AM7AM_Routing_SaoBento/cost_hc-length/solution18/Porto-tripinfo"/>
    </output>

    <processing>
        <collision.action value="warn"/>
        <time-to-teleport value="-1"/>
    </processing>

    <emissions>
        <device.emissions.probability value="1"/>
    </emissions>

    <gui_only>
        <quit-on-end value="true"/>
        <start value="true"/>
    </gui_only>

</configuration>
-->

<meandata xmlns:xsi="http://www.w3.org/2001/XMLSchema-instance" xsi:noNamespaceSchemaLocation="http://sumo.dlr.de/xsd/meandata_file.xsd">
    <interval begin="0.00" end="4789.00" id="emissions-detector">
        <edge id=":1092997347_0" sampledSeconds="268.51" CO_abs="34593.951553" CO2_abs="1370703.709695" HC_abs="189.926545" PMx_abs="28.051392" NOx_abs="595.617150" fuel_abs="589.211512" electricity_abs="0"
            CO_normed="59102.405888" CO2_normed="2341793.387735" HC_normed="324.482033" PMx_normed="47.924700" NOx_normed="1017.588479" fuel_normed="1006.644699" electricity_normed="0"
            traveltime="0.08" CO_perVeh="9.711326" CO2_perVeh="384.788394" HC_perVeh="0.053317" PMx_perVeh="0.007875" NOx_perVeh="0.167204" fuel_perVeh="0.165405" electricity_perVeh="0"/>
        <edge id=":1103427051_0" sampledSeconds="10.86" CO_abs="860.956036" CO2_abs="48623.607806" HC_abs="5.078117" PMx_abs="0.971161" NOx_abs="20.860298" fuel_abs="20.901108" electricity_abs="0"
            CO_normed="2231.724806" CO2_normed="126039.550480" HC_normed="13.163227" PMx_normed="2.517393" NOx_normed="54.072963" fuel_normed="54.178749" electricity_normed="0"
            traveltime="0.03" CO_perVeh="2.359007" CO2_perVeh="133.227950" HC_perVeh="0.013914" PMx_perVeh="0.002661" NOx_perVeh="0.057157" fuel_perVeh="0.057269" electricity_perVeh="0"/>
        <edge id=":1105984386_0" sampledSeconds="22.86" CO_abs="491.628024" CO2_abs="37566.156888" HC_abs="3.095142" PMx_abs="0.511436" NOx_abs="14.386167" fuel_abs="16.148242" electricity_abs="0"
            CO_normed="38.060550" CO2_normed="2908.273203" HC_normed="0.239618" PMx_normed="0.039594" NOx_normed="1.113739" fuel_normed="1.250154" electricity_normed="0"
            traveltime="0.96" CO_perVeh="20.633247" CO2_perVeh="1576.622508" HC_perVeh="0.129901" PMx_perVeh="0.021465" NOx_perVeh="0.603776" fuel_perVeh="0.677729" electricity_perVeh="0"/>
        <edge id=":1105984390_0" sampledSeconds="23.23" CO_abs="0" CO2_abs="0" HC_abs="0" PMx_abs="0" NOx_abs="0" fuel_abs="0" electricity_abs="0"
            CO_normed="0" CO2_normed="0" HC_normed="0" PMx_normed="0" NOx_normed="0" fuel_normed="0" electricity_normed="0"
            traveltime="1.05" CO_perVeh="0" CO2_perVeh="0" HC_perVeh="0" PMx_perVeh="0" NOx_perVeh="0" fuel_perVeh="0" electricity_perVeh="0"/>
        <edge id=":1105984390_1" sampledSeconds="645.60" CO_abs="15474.242126" CO2_abs="1966962.556197" HC_abs="117.667541" PMx_abs="35.014643" NOx_abs="738.724027" fuel_abs="845.506914" electricity_abs="0"
            CO_normed="885.935951" CO2_normed="112613.130184" HC_normed="6.736737" PMx_normed="2.004669" NOx_normed="42.293650" fuel_normed="48.407215" electricity_normed="0"
            traveltime="0.64" CO_perVeh="15.243782" CO2_perVeh="1937.668291" HC_perVeh="0.115915" PMx_perVeh="0.034493" NOx_perVeh="0.727722" fuel_perVeh="0.832915" electricity_perVeh="0"/>
        <edge id=":1105984395_0" sampledSeconds="8.99" CO_abs="139.138352" CO2_abs="10375.181735" HC_abs="0.869646" PMx_abs="0.139676" NOx_abs="3.967665" fuel_abs="4.459895" electricity_abs="0"
            CO_normed="113.688541" CO2_normed="8477.456092" HC_normed="0.710579" PMx_normed="0.114128" NOx_normed="3.241939" fuel_normed="3.644135" electricity_normed="0"
            traveltime="0.09" CO_perVeh="1.411015" CO2_perVeh="105.215688" HC_perVeh="0.008819" PMx_perVeh="0.001416" NOx_perVeh="0.040236" fuel_perVeh="0.045228" electricity_perVeh="0"/>
        <edge id=":1105984398_0" sampledSeconds="23.29" CO_abs="1382.564066" CO2_abs="97554.061562" HC_abs="8.596221" PMx_abs="1.744847" NOx_abs="40.097370" fuel_abs="41.934177" electricity_abs="0"
            CO_normed="85.964002" CO2_normed="6065.641219" HC_normed="0.534489" PMx_normed="0.108490" NOx_normed="2.493143" fuel_normed="2.607351" electricity_normed="0"
            traveltime="1.11" CO_perVeh="66.176257" CO2_perVeh="4669.413015" HC_perVeh="0.411457" PMx_perVeh="0.083517" NOx_perVeh="1.919256" fuel_perVeh="2.007174" electricity_perVeh="0"/>
        <edge id=":1105984398_1" sampledSeconds="453.15" CO_abs="7266.339380" CO2_abs="865726.802396" HC_abs="52.979609" PMx_abs="12.217114" NOx_abs="326.142033" fuel_abs="372.139242" electricity_abs="0"
            CO_normed="437.331645" CO2_normed="52104.602682" HC_normed="3.188629" PMx_normed="0.735299" NOx_normed="19.629173" fuel_normed="22.397559" electricity_normed="0"
            traveltime="0.96" CO_perVeh="15.326917" CO2_perVeh="1826.080837" HC_perVeh="0.111750" PMx_perVeh="0.025770" NOx_perVeh="0.687933" fuel_perVeh="0.784955" electricity_perVeh="0"/>
        <edge id=":1106006327_0" sampledSeconds="38.65" CO_abs="5225.973426" CO2_abs="169455.004688" HC_abs="27.785251" PMx_abs="3.538115" NOx_abs="74.192754" fuel_abs="72.842723" electricity_abs="0"
            CO_normed="443.395355" CO2_normed="14377.333328" HC_normed="2.357427" PMx_normed="0.300190" NOx_normed="6.294851" fuel_normed="6.180308" electricity_normed="0"
            traveltime="2.10" CO_perVeh="283.505539" CO2_perVeh="9192.819872" HC_perVeh="1.507331" PMx_perVeh="0.191940" NOx_perVeh="4.024907" fuel_perVeh="3.951669" electricity_perVeh="0"/>
        <edge id=":1106006327_1" sampledSeconds="159.47" CO_abs="21812.342303" CO2_abs="737945.977888" HC_abs="116.730676" PMx_abs="15.448874" NOx_abs="323.301426" fuel_abs="317.216054" electricity_abs="0"
            CO_normed="1613.861496" CO2_normed="54599.482418" HC_normed="8.636722" PMx_normed="1.143038" NOx_normed="23.920573" fuel_normed="23.470326" electricity_normed="0"
            traveltime="2.26" CO_perVeh="309.654312" CO2_perVeh="10476.094253" HC_perVeh="1.657142" PMx_perVeh="0.219317" NOx_perVeh="4.589680" fuel_perVeh="4.503291" electricity_perVeh="0"/>
        <edge id=":1106006327_2" sampledSeconds="0.00" CO_abs="0" CO2_abs="0" HC_abs="0" PMx_abs="0" NOx_abs="0" fuel_abs="0" electricity_abs="0"
            CO_normed="0" CO2_normed="0" HC_normed="0" PMx_normed="0" NOx_normed="0" fuel_normed="0" electricity_normed="0"/>
        <edge id=":1106006327_3" sampledSeconds="0.00" CO_abs="0" CO2_abs="0" HC_abs="0" PMx_abs="0" NOx_abs="0" fuel_abs="0" electricity_abs="0"
            CO_normed="0" CO2_normed="0" HC_normed="0" PMx_normed="0" NOx_normed="0" fuel_normed="0" electricity_normed="0"/>
        <edge id=":1107381198_0" sampledSeconds="0.00" CO_abs="0" CO2_abs="0" HC_abs="0" PMx_abs="0" NOx_abs="0" fuel_abs="0" electricity_abs="0"
            CO_normed="0" CO2_normed="0" HC_normed="0" PMx_normed="0" NOx_normed="0" fuel_normed="0" electricity_normed="0"/>
        <edge id=":1107381198_1" sampledSeconds="35.56" CO_abs="878.003958" CO2_abs="39208.459281" HC_abs="4.911671" PMx_abs="0.716234" NOx_abs="16.479519" fuel_abs="16.854208" electricity_abs="0"
            CO_normed="71.975518" CO2_normed="3214.164535" HC_normed="0.402641" PMx_normed="0.058714" NOx_normed="1.350930" fuel_normed="1.381646" electricity_normed="0"
            traveltime="1.46" CO_perVeh="36.149858" CO2_perVeh="1614.320993" HC_perVeh="0.202227" PMx_perVeh="0.029489" NOx_perVeh="0.678508" fuel_perVeh="0.693934" electricity_perVeh="0"/>
        <edge id=":1110338277_0" sampledSeconds="96.90" CO_abs="1632.827001" CO2_abs="193536.014755" HC_abs="11.877072" PMx_abs="2.673369" NOx_abs="72.619853" fuel_abs="83.193014" electricity_abs="0"
            CO_normed="4383.689708" CO2_normed="519590.768366" HC_normed="31.886660" PMx_normed="7.177258" NOx_normed="194.964257" fuel_normed="223.350275" electricity_normed="0"
            traveltime="0.02" CO_perVeh="0.367988" CO2_perVeh="43.616909" HC_perVeh="0.002677" PMx_perVeh="0.000602" NOx_perVeh="0.016366" fuel_perVeh="0.018749" electricity_perVeh="0"/>
        <edge id=":1110338293_0" sampledSeconds="123.51" CO_abs="6054.682843" CO2_abs="416796.510514" HC_abs="37.363736" PMx_abs="7.310352" NOx_abs="170.620017" fuel_abs="179.162711" electricity_abs="0"
            CO_normed="15171.475072" CO2_normed="1044384.657791" HC_normed="93.623894" PMx_normed="18.317857" NOx_normed="427.529798" fuel_normed="448.935589" electricity_normed="0"
            traveltime="0.03" CO_perVeh="1.388742" CO2_perVeh="95.599184" HC_perVeh="0.008570" PMx_perVeh="0.001677" NOx_perVeh="0.039135" fuel_perVeh="0.041094" electricity_perVeh="0"/>
        <edge id=":1110338295_0" sampledSeconds="0.00" CO_abs="0" CO2_abs="0" HC_abs="0" PMx_abs="0" NOx_abs="0" fuel_abs="0" electricity_abs="0"
            CO_normed="0" CO2_normed="0" HC_normed="0" PMx_normed="0" NOx_normed="0" fuel_normed="0" electricity_normed="0"/>
        <edge id=":1110673403_0" sampledSeconds="143.93" CO_abs="2205.551549" CO2_abs="266409.614667" HC_abs="16.167789" PMx_abs="3.745413" NOx_abs="100.252973" fuel_abs="114.518195" electricity_abs="0"
            CO_normed="5526.543870" CO2_normed="667553.847568" HC_normed="40.512314" PMx_normed="9.385041" NOx_normed="251.208117" fuel_normed="286.953088" electricity_normed="0"
            traveltime="0.02" CO_perVeh="0.354116" CO2_perVeh="42.773821" HC_perVeh="0.002596" PMx_perVeh="0.000601" NOx_perVeh="0.016096" fuel_perVeh="0.018387" electricity_perVeh="0"/>
        <edge id=":1110673412_0" sampledSeconds="251.46" CO_abs="45392.229222" CO2_abs="3085860.636884" HC_abs="282.218842" PMx_abs="67.951345" NOx_abs="1327.309913" fuel_abs="1326.459402" electricity_abs="0"
            CO_normed="117663.341422" CO2_normed="7999005.114294" HC_normed="731.552790" PMx_normed="176.139890" NOx_normed="3440.582721" fuel_normed="3438.378069" electricity_normed="0"
            traveltime="0.02" CO_perVeh="2.797716" CO2_perVeh="190.194693" HC_perVeh="0.017394" PMx_perVeh="0.004188" NOx_perVeh="0.081808" fuel_perVeh="0.081755" electricity_perVeh="0"/>
        <edge id=":1110673414_0" sampledSeconds="0.00" CO_abs="0" CO2_abs="0" HC_abs="0" PMx_abs="0" NOx_abs="0" fuel_abs="0" electricity_abs="0"
            CO_normed="0" CO2_normed="0" HC_normed="0" PMx_normed="0" NOx_normed="0" fuel_normed="0" electricity_normed="0"/>
        <edge id=":1110673414_1" sampledSeconds="14.41" CO_abs="1195.706017" CO2_abs="43584.972456" HC_abs="6.454569" PMx_abs="0.803731" NOx_abs="18.399534" fuel_abs="18.735676" electricity_abs="0"
            CO_normed="99.539242" CO2_normed="3628.329245" HC_normed="0.537325" PMx_normed="0.066908" NOx_normed="1.531711" fuel_normed="1.559694" electricity_normed="0"
            traveltime="1.57" CO_perVeh="130.590534" CO2_perVeh="4760.187485" HC_perVeh="0.704944" PMx_perVeh="0.087780" NOx_perVeh="2.009528" fuel_perVeh="2.046240" electricity_perVeh="0"/>
        <edge id=":1110673417_0" sampledSeconds="29.81" CO_abs="553.548335" CO2_abs="66102.703678" HC_abs="4.039709" PMx_abs="0.904064" NOx_abs="24.744435" fuel_abs="28.414790" electricity_abs="0"
            CO_normed="1486.124456" CO2_normed="177467.509801" HC_normed="10.845504" PMx_normed="2.427162" NOx_normed="66.431976" fuel_normed="76.285868" electricity_normed="0"
            traveltime="0.02" CO_perVeh="0.410851" CO2_perVeh="49.062312" HC_perVeh="0.002998" PMx_perVeh="0.000671" NOx_perVeh="0.018366" fuel_perVeh="0.021090" electricity_perVeh="0"/>
        <edge id=":1110673446_0" sampledSeconds="334.24" CO_abs="3464.609665" CO2_abs="274306.436523" HC_abs="22.290172" PMx_abs="5.078286" NOx_abs="112.692697" fuel_abs="117.911700" electricity_abs="0"
            CO_normed="8681.419082" CO2_normed="687341.248335" HC_normed="55.853428" PMx_normed="12.724877" NOx_normed="282.378861" fuel_normed="295.456338" electricity_normed="0"
            traveltime="0.02" CO_perVeh="0.236302" CO2_perVeh="18.708958" HC_perVeh="0.001520" PMx_perVeh="0.000346" NOx_perVeh="0.007686" fuel_perVeh="0.008042" electricity_perVeh="0"/>
        <edge id=":1110673451_0" sampledSeconds="37.16" CO_abs="480.030931" CO2_abs="35279.074834" HC_abs="2.990442" PMx_abs="0.485442" NOx_abs="13.555367" fuel_abs="15.165120" electricity_abs="0"
            CO_normed="1336.482023" CO2_normed="98222.523377" HC_normed="8.325863" PMx_normed="1.351548" NOx_normed="37.740285" fuel_normed="42.222092" electricity_normed="0"
            traveltime="0.03" CO_perVeh="0.344245" CO2_perVeh="25.299735" HC_perVeh="0.002145" PMx_perVeh="0.000348" NOx_perVeh="0.009721" fuel_perVeh="0.010875" electricity_perVeh="0"/>
        <edge id=":1110673464_0" sampledSeconds="322.93" CO_abs="678.264695" CO2_abs="63758.656154" HC_abs="4.545098" PMx_abs="0.835480" NOx_abs="23.914189" fuel_abs="27.407333" electricity_abs="0"
            CO_normed="36.109559" CO2_normed="3394.392990" HC_normed="0.241973" PMx_normed="0.044479" NOx_normed="1.273147" fuel_normed="1.459116" electricity_normed="0"
            traveltime="1.17" CO_perVeh="2.451837" CO2_perVeh="230.479130" HC_perVeh="0.016430" PMx_perVeh="0.003020" NOx_perVeh="0.086447" fuel_perVeh="0.099074" electricity_perVeh="0"/>
        <edge id=":1110673464_1" sampledSeconds="710.73" CO_abs="15972.769398" CO2_abs="2030380.196940" HC_abs="121.418164" PMx_abs="36.091801" NOx_abs="763.177476" fuel_abs="872.767221" electricity_abs="0"
            CO_normed="833.247280" CO2_normed="105918.312235" HC_normed="6.333990" PMx_normed="1.882792" NOx_normed="39.812480" fuel_normed="45.529419" electricity_normed="0"
            traveltime="0.70" CO_perVeh="15.763369" CO2_perVeh="2003.762266" HC_perVeh="0.119826" PMx_perVeh="0.035619" NOx_perVeh="0.753172" fuel_perVeh="0.861325" electricity_perVeh="0"/>
        <edge id=":1110673479_0" sampledSeconds="133.27" CO_abs="7020.811455" CO2_abs="483639.229602" HC_abs="43.349311" PMx_abs="8.561378" NOx_abs="198.468548" fuel_abs="207.895370" electricity_abs="0"
            CO_normed="17592.344426" CO2_normed="1211875.288208" HC_normed="108.622203" PMx_normed="21.452608" NOx_normed="497.311042" fuel_normed="520.932228" electricity_normed="0"
            traveltime="0.03" CO_perVeh="1.479000" CO2_perVeh="101.883132" HC_perVeh="0.009132" PMx_perVeh="0.001804" NOx_perVeh="0.041809" fuel_perVeh="0.043795" electricity_perVeh="0"/>
        <edge id=":1110673511_0" sampledSeconds="11.76" CO_abs="157.439878" CO2_abs="18921.775098" HC_abs="1.151825" PMx_abs="0.256172" NOx_abs="7.068606" fuel_abs="8.133684" electricity_abs="0"
            CO_normed="394.503766" CO2_normed="47413.092750" HC_normed="2.886178" PMx_normed="0.641901" NOx_normed="17.712104" fuel_normed="20.380915" electricity_normed="0"
            traveltime="0.02" CO_perVeh="0.311762" CO2_perVeh="37.468862" HC_perVeh="0.002281" PMx_perVeh="0.000507" NOx_perVeh="0.013997" fuel_perVeh="0.016106" electricity_perVeh="0"/>
        <edge id=":1110673517_0" sampledSeconds="17.06" CO_abs="866.628718" CO2_abs="60984.452089" HC_abs="5.379602" PMx_abs="1.065060" NOx_abs="24.888158" fuel_abs="26.214562" electricity_abs="0"
            CO_normed="2171.548260" CO2_normed="152811.322838" HC_normed="13.479897" PMx_normed="2.668766" NOx_normed="62.363311" fuel_normed="65.686937" electricity_normed="0"
            traveltime="0.03" CO_perVeh="1.391430" CO2_perVeh="97.914560" HC_perVeh="0.008637" PMx_perVeh="0.001710" NOx_perVeh="0.039960" fuel_perVeh="0.042089" electricity_perVeh="0"/>
        <edge id=":1110673534_0" sampledSeconds="476.41" CO_abs="3025.245433" CO2_abs="273809.060029" HC_abs="20.018151" PMx_abs="3.571454" NOx_abs="102.994418" fuel_abs="117.699803" electricity_abs="0"
            CO_normed="146.908634" CO2_normed="13296.413779" HC_normed="0.972099" PMx_normed="0.173433" NOx_normed="5.001501" fuel_normed="5.715608" electricity_normed="0"
            traveltime="1.44" CO_perVeh="9.113852" CO2_perVeh="824.876956" HC_perVeh="0.060307" PMx_perVeh="0.010759" NOx_perVeh="0.310281" fuel_perVeh="0.354582" electricity_perVeh="0"/>
        <edge id=":1110673534_1" sampledSeconds="184.53" CO_abs="2776.544556" CO2_abs="346880.742252" HC_abs="20.531123" PMx_abs="4.742627" NOx_abs="129.433405" fuel_abs="149.109455" electricity_abs="0"
            CO_normed="131.104998" CO2_normed="16379.279359" HC_normed="0.969454" PMx_normed="0.223941" NOx_normed="6.111685" fuel_normed="7.040764" electricity_normed="0"
            traveltime="1.23" CO_perVeh="18.435259" CO2_perVeh="2303.163596" HC_perVeh="0.136319" PMx_perVeh="0.031489" NOx_perVeh="0.859391" fuel_perVeh="0.990033" electricity_perVeh="0"/>
        <edge id=":1110673549_0" sampledSeconds="60.04" CO_abs="44.197222" CO2_abs="7025.422641" HC_abs="0.360163" PMx_abs="0.075717" NOx_abs="2.487912" fuel_abs="3.019955" electricity_abs="0"
            CO_normed="2.079102" CO2_normed="330.486212" HC_normed="0.016943" PMx_normed="0.003562" NOx_normed="0.117035" fuel_normed="0.142063" electricity_normed="0"
            traveltime="1.25" CO_perVeh="0.920811" CO2_perVeh="146.368696" HC_perVeh="0.007504" PMx_perVeh="0.001578" NOx_perVeh="0.051834" fuel_perVeh="0.062918" electricity_perVeh="0"/>
        <edge id=":1110673549_1" sampledSeconds="639.03" CO_abs="13465.048684" CO2_abs="1789524.508083" HC_abs="104.099926" PMx_abs="31.411881" NOx_abs="667.600431" fuel_abs="769.234742" electricity_abs="0"
            CO_normed="612.710819" CO2_normed="81430.156845" HC_normed="4.736942" PMx_normed="1.429360" NOx_normed="30.378353" fuel_normed="35.003100" electricity_normed="0"
            traveltime="0.80" CO_perVeh="16.949829" CO2_perVeh="2252.656847" HC_perVeh="0.131041" PMx_perVeh="0.039541" NOx_perVeh="0.840377" fuel_perVeh="0.968314" electricity_perVeh="0"/>
        <edge id=":1110673556_0" sampledSeconds="412.21" CO_abs="51317.121386" CO2_abs="2597936.089749" HC_abs="295.498033" PMx_abs="52.624576" NOx_abs="1120.107358" fuel_abs="1116.739538" electricity_abs="0"
            CO_normed="1790.080971" CO2_normed="90623.087064" HC_normed="10.307776" PMx_normed="1.835689" NOx_normed="39.072396" fuel_normed="38.954917" electricity_normed="0"
            traveltime="2.56" CO_perVeh="318.551667" CO2_perVeh="16126.720456" HC_perVeh="1.834308" PMx_perVeh="0.326668" NOx_perVeh="6.953080" fuel_perVeh="6.932175" electricity_perVeh="0"/>
        <edge id=":1110673556_2" sampledSeconds="247.69" CO_abs="24134.611959" CO2_abs="1043864.905551" HC_abs="134.388512" PMx_abs="20.012498" NOx_abs="444.354552" fuel_abs="448.716615" electricity_abs="0"
            CO_normed="880.278293" CO2_normed="38073.602280" HC_normed="4.901645" PMx_normed="0.729930" NOx_normed="16.207249" fuel_normed="16.366350" electricity_normed="0"
            traveltime="3.00" CO_perVeh="292.748218" CO2_perVeh="12661.881270" HC_perVeh="1.630107" PMx_perVeh="0.242748" NOx_perVeh="5.389936" fuel_perVeh="5.442847" electricity_perVeh="0"/>
        <edge id=":1110673556_3" sampledSeconds="410.82" CO_abs="34529.637303" CO2_abs="1232380.439421" HC_abs="185.925701" PMx_abs="23.577318" NOx_abs="525.963992" fuel_abs="529.757120" electricity_abs="0"
            CO_normed="2864.979261" CO2_normed="102252.577119" HC_normed="15.426553" PMx_normed="1.956248" NOx_normed="43.640074" fuel_normed="43.954796" electricity_normed="0"
            traveltime="1.74" CO_perVeh="146.148660" CO2_perVeh="5216.120521" HC_perVeh="0.786941" PMx_perVeh="0.099792" NOx_perVeh="2.226173" fuel_perVeh="2.242227" electricity_perVeh="0"/>
        <edge id=":1110673556_4" sampledSeconds="202.61" CO_abs="20668.722213" CO2_abs="828826.199587" HC_abs="113.552282" PMx_abs="16.123227" NOx_abs="354.849248" fuel_abs="356.280779" electricity_abs="0"
            CO_normed="1047.683589" CO2_normed="42012.641052" HC_normed="5.755889" PMx_normed="0.817275" NOx_normed="17.987069" fuel_normed="18.059632" electricity_normed="0"
            traveltime="2.40" CO_perVeh="244.603191" CO2_perVeh="9808.711488" HC_perVeh="1.343830" PMx_perVeh="0.190810" NOx_perVeh="4.199450" fuel_perVeh="4.216391" electricity_perVeh="0"/>
        <edge id=":1110673556_5" sampledSeconds="23.70" CO_abs="1752.897986" CO2_abs="74077.134933" HC_abs="9.708802" PMx_abs="1.371634" NOx_abs="31.249464" fuel_abs="31.842963" electricity_abs="0"
            CO_normed="123.843346" CO2_normed="5233.596214" HC_normed="0.685933" PMx_normed="0.096907" NOx_normed="2.207794" fuel_normed="2.249725" electricity_normed="0"
            traveltime="1.64" CO_perVeh="121.188009" CO2_perVeh="5121.382168" HC_perVeh="0.671226" PMx_perVeh="0.094829" NOx_perVeh="2.160457" fuel_perVeh="2.201489" electricity_perVeh="0"/>
        <edge id=":1110673556_6" sampledSeconds="493.42" CO_abs="58029.229617" CO2_abs="2819184.684470" HC_abs="331.182197" PMx_abs="56.782740" NOx_abs="1214.111778" fuel_abs="1211.847095" electricity_abs="0"
            CO_normed="2075.256377" CO2_normed="100820.414688" HC_normed="11.843824" PMx_normed="2.030679" NOx_normed="43.419381" fuel_normed="43.338390" electricity_normed="0"
            traveltime="2.65" CO_perVeh="311.444141" CO2_perVeh="15130.625703" HC_perVeh="1.777462" PMx_perVeh="0.304754" NOx_perVeh="6.516164" fuel_perVeh="6.504010" electricity_perVeh="0"/>
        <edge id=":1110673561_0" sampledSeconds="100.40" CO_abs="9798.689151" CO2_abs="705700.386738" HC_abs="61.612895" PMx_abs="14.283659" NOx_abs="298.382214" fuel_abs="303.346927" electricity_abs="0"
            CO_normed="440.280756" CO2_normed="31708.965845" HC_normed="2.768429" PMx_normed="0.641802" NOx_normed="13.407094" fuel_normed="13.630172" electricity_normed="0"
            traveltime="1.18" CO_perVeh="115.634043" CO2_perVeh="8327.949516" HC_perVeh="0.727092" PMx_perVeh="0.168561" NOx_perVeh="3.521200" fuel_perVeh="3.579788" electricity_perVeh="0"/>
        <edge id=":1110673561_1" sampledSeconds="1313.00" CO_abs="123661.186077" CO2_abs="8516849.360459" HC_abs="769.272967" PMx_abs="178.696095" NOx_abs="3647.098958" fuel_abs="3660.981655" electricity_abs="0"
            CO_normed="5417.186504" CO2_normed="373094.928812" HC_normed="33.699298" PMx_normed="7.828083" NOx_normed="159.767312" fuel_normed="160.375467" electricity_normed="0"
            traveltime="1.19" CO_perVeh="112.226283" CO2_perVeh="7729.299522" HC_perVeh="0.698139" PMx_perVeh="0.162172" NOx_perVeh="3.309853" fuel_perVeh="3.322452" electricity_perVeh="0"/>
        <edge id=":1110673562_0" sampledSeconds="103.90" CO_abs="2345.643356" CO2_abs="185887.116205" HC_abs="14.910379" PMx_abs="2.470462" NOx_abs="70.608617" fuel_abs="79.905738" electricity_abs="0"
            CO_normed="6530.642044" CO2_normed="517539.127738" HC_normed="41.512852" PMx_normed="6.878158" NOx_normed="196.585557" fuel_normed="222.470210" electricity_normed="0"
            traveltime="0.03" CO_perVeh="0.597915" CO2_perVeh="47.383472" HC_perVeh="0.003801" PMx_perVeh="0.000630" NOx_perVeh="0.017998" fuel_perVeh="0.020368" electricity_perVeh="0"/>
        <edge id=":1110673564_0" sampledSeconds="28.46" CO_abs="556.507824" CO2_abs="62563.345721" HC_abs="3.986534" PMx_abs="0.903845" NOx_abs="23.769473" fuel_abs="26.893320" electricity_abs="0"
            CO_normed="4183.395629" CO2_normed="470302.870322" HC_normed="29.967680" PMx_normed="6.794407" NOx_normed="178.680520" fuel_normed="202.163190" electricity_normed="0"
            traveltime="7.822696e-03" CO_perVeh="0.152992" CO2_perVeh="17.199545" HC_perVeh="0.001096" PMx_perVeh="0.000248" NOx_perVeh="0.006535" fuel_perVeh="0.007393" electricity_perVeh="0"/>
        <edge id=":1110673588_0" sampledSeconds="11.66" CO_abs="119.091260" CO2_abs="18474.812100" HC_abs="0.966691" PMx_abs="0.230799" NOx_abs="6.714441" fuel_abs="7.941559" electricity_abs="0"
            CO_normed="358.094412" CO2_normed="55551.742376" HC_normed="2.906734" PMx_normed="0.693987" NOx_normed="20.189591" fuel_normed="23.879402" electricity_normed="0"
            traveltime="0.02" CO_perVeh="0.198485" CO2_perVeh="30.791353" HC_perVeh="0.001611" PMx_perVeh="0.000385" NOx_perVeh="0.011191" fuel_perVeh="0.013236" electricity_perVeh="0"/>
        <edge id=":1110673601_0" sampledSeconds="29.68" CO_abs="411.561921" CO2_abs="51187.498676" HC_abs="3.051653" PMx_abs="0.687231" NOx_abs="19.046461" fuel_abs="22.003376" electricity_abs="0"
            CO_normed="1104.930135" CO2_normed="137424.302145" HC_normed="8.192847" PMx_normed="1.845025" NOx_normed="51.134489" fuel_normed="59.072989" electricity_normed="0"
            traveltime="0.02" CO_perVeh="0.305467" CO2_perVeh="37.992047" HC_perVeh="0.002265" PMx_perVeh="0.000510" NOx_perVeh="0.014137" fuel_perVeh="0.016331" electricity_perVeh="0"/>
        <edge id=":1110673617_0" sampledSeconds="238.18" CO_abs="5783.370154" CO2_abs="730988.650439" HC_abs="43.843155" PMx_abs="13.018908" NOx_abs="274.786302" fuel_abs="314.218457" electricity_abs="0"
            CO_normed="14491.635384" CO2_normed="1831669.201350" HC_normed="109.859650" PMx_normed="32.622030" NOx_normed="688.543667" fuel_normed="787.350487" electricity_normed="0"
            traveltime="0.01" CO_perVeh="0.354470" CO2_perVeh="44.803159" HC_perVeh="0.002687" PMx_perVeh="0.000798" NOx_perVeh="0.016842" fuel_perVeh="0.019259" electricity_perVeh="0"/>
        <edge id=":1110673621_0" sampledSeconds="25.86" CO_abs="446.931897" CO2_abs="50817.027776" HC_abs="3.213617" PMx_abs="0.726091" NOx_abs="19.236986" fuel_abs="21.844087" electricity_abs="0"
            CO_normed="1343.875405" CO2_normed="152801.252867" HC_normed="9.662995" PMx_normed="2.183277" NOx_normed="57.843516" fuel_normed="65.682785" electricity_normed="0"
            traveltime="0.02" CO_perVeh="0.338585" CO2_perVeh="38.497748" HC_perVeh="0.002435" PMx_perVeh="0.000550" NOx_perVeh="0.014573" fuel_perVeh="0.016549" electricity_perVeh="0"/>
        <edge id=":1110673630_0" sampledSeconds="54.48" CO_abs="244.608761" CO2_abs="21739.390661" HC_abs="1.606149" PMx_abs="0.267527" NOx_abs="8.080005" fuel_abs="9.344941" electricity_abs="0"
            CO_normed="13.115404" CO2_normed="1165.620071" HC_normed="0.086118" PMx_normed="0.014344" NOx_normed="0.433233" fuel_normed="0.501056" electricity_normed="0"
            traveltime="1.27" CO_perVeh="5.709601" CO2_perVeh="507.435830" HC_perVeh="0.037490" PMx_perVeh="0.006245" NOx_perVeh="0.188602" fuel_perVeh="0.218127" electricity_perVeh="0"/>
        <edge id=":1110673630_1" sampledSeconds="7.44" CO_abs="94.283537" CO2_abs="7071.070324" HC_abs="0.594376" PMx_abs="0.116239" NOx_abs="2.834653" fuel_abs="3.039552" electricity_abs="0"
            CO_normed="6.163050" CO2_normed="462.216005" HC_normed="0.038853" PMx_normed="0.007598" NOx_normed="0.185293" fuel_normed="0.198687" electricity_normed="0"
            traveltime="1.05" CO_perVeh="13.344747" CO2_perVeh="1000.828415" HC_perVeh="0.084127" PMx_perVeh="0.016452" NOx_perVeh="0.401212" fuel_perVeh="0.430213" electricity_perVeh="0"/>
        <edge id=":1110673650_0" sampledSeconds="143.31" CO_abs="2214.808781" CO2_abs="272660.518092" HC_abs="16.296028" PMx_abs="3.773484" NOx_abs="102.094217" fuel_abs="117.205252" electricity_abs="0"
            CO_normed="5549.740108" CO2_normed="683217.000856" HC_normed="40.833648" PMx_normed="9.455378" NOx_normed="255.821800" fuel_normed="293.686160" electricity_normed="0"
            traveltime="0.02" CO_perVeh="0.355602" CO2_perVeh="43.777445" HC_perVeh="0.002616" PMx_perVeh="0.000606" NOx_perVeh="0.016392" fuel_perVeh="0.018818" electricity_perVeh="0"/>
        <edge id=":1110673655_0" sampledSeconds="44.70" CO_abs="773.930809" CO2_abs="87307.657659" HC_abs="5.515937" PMx_abs="1.195053" NOx_abs="32.792251" fuel_abs="37.529936" electricity_abs="0"
            CO_normed="1939.271185" CO2_normed="218770.493194" HC_normed="13.821517" PMx_normed="2.994496" NOx_normed="82.168932" fuel_normed="94.040350" electricity_normed="0"
            traveltime="0.02" CO_perVeh="0.414199" CO2_perVeh="46.726068" HC_perVeh="0.002952" PMx_perVeh="0.000640" NOx_perVeh="0.017550" fuel_perVeh="0.020086" electricity_perVeh="0"/>
        <edge id=":1110673663_0" sampledSeconds="108.29" CO_abs="1538.468903" CO2_abs="194546.993128" HC_abs="11.424606" PMx_abs="2.641998" NOx_abs="72.435844" fuel_abs="83.627592" electricity_abs="0"
            CO_normed="70.604517" CO2_normed="8928.290020" HC_normed="0.524306" PMx_normed="0.121248" NOx_normed="3.324278" fuel_normed="3.837897" electricity_normed="0"
            traveltime="1.27" CO_perVeh="18.070043" CO2_perVeh="2285.046213" HC_perVeh="0.134187" PMx_perVeh="0.031032" NOx_perVeh="0.850793" fuel_perVeh="0.982246" electricity_perVeh="0"/>
        <edge id=":1110673663_1" sampledSeconds="154.11" CO_abs="2620.795387" CO2_abs="316152.866124" HC_abs="19.141251" PMx_abs="4.437554" NOx_abs="118.822836" fuel_abs="135.900722" electricity_abs="0"
            CO_normed="120.422456" CO2_normed="14526.851189" HC_normed="0.879518" PMx_normed="0.203900" NOx_normed="5.459769" fuel_normed="6.244478" electricity_normed="0"
            traveltime="1.25" CO_perVeh="21.211441" CO2_perVeh="2558.787327" HC_perVeh="0.154920" PMx_perVeh="0.035915" NOx_perVeh="0.961694" fuel_perVeh="1.099914" electricity_perVeh="0"/>
        <edge id=":1110673666_0" sampledSeconds="192.93" CO_abs="3849.414421" CO2_abs="305684.340109" HC_abs="24.504173" PMx_abs="4.148239" NOx_abs="116.699716" fuel_abs="131.401827" electricity_abs="0"
            CO_normed="236.606067" CO2_normed="18789.031630" HC_normed="1.506161" PMx_normed="0.254973" NOx_normed="7.173003" fuel_normed="8.076675" electricity_normed="0"