<?xml version="1.0" encoding="UTF-8"?>

<!-- generated on Fri Oct  2 15:22:35 2020 by Eclipse SUMO Version 1.1.0
<configuration xmlns:xsi="http://www.w3.org/2001/XMLSchema-instance" xsi:noNamespaceSchemaLocation="http://sumo.dlr.de/xsd/sumoConfiguration.xsd">

    <input>
        <net-file value="../dataSets/Porto/8AM9AM_Routing_SaoBento/Porto.net.xml"/>
        <route-files value="../results/Porto/8AM9AM_Routing_SaoBento_fewerv/length-ttime/solution1/Porto.rou.xml"/>
        <additional-files value="moreOutputInfo.xml"/>
    </input>

    <output>
        <emission-output.precision value="6"/>
        <tripinfo-output value="../results/Porto/8AM9AM_Routing_SaoBento_fewerv/length-ttime/solution1/Porto-tripinfo"/>
    </output>

    <processing>
        <collision.action value="warn"/>
        <time-to-teleport value="-1"/>
    </processing>

    <emissions>
        <device.emissions.probability value="1"/>
    </emissions>

    <gui_only>
        <quit-on-end value="true"/>
        <start value="true"/>
    </gui_only>

</configuration>
-->

<meandata xmlns:xsi="http://www.w3.org/2001/XMLSchema-instance" xsi:noNamespaceSchemaLocation="http://sumo.dlr.de/xsd/meandata_file.xsd">
    <interval begin="0.00" end="8561.00" id="emissions-detector">
        <edge id=":1092997347_0" sampledSeconds="597.21" CO_abs="72382.285971" CO2_abs="3082156.334621" HC_abs="402.490868" PMx_abs="62.337145" NOx_abs="1333.587413" fuel_abs="1324.894157" electricity_abs="0"
            CO_normed="69176.346618" CO2_normed="2945642.184068" HC_normed="384.663836" PMx_normed="59.576122" NOx_normed="1274.520470" fuel_normed="1266.212254" electricity_normed="0"
            traveltime="0.07" CO_perVeh="8.280792" CO2_perVeh="352.609679" HC_perVeh="0.046046" PMx_perVeh="0.007132" NOx_perVeh="0.152567" fuel_perVeh="0.151573" electricity_perVeh="0"/>
        <edge id=":1103427051_0" sampledSeconds="19.32" CO_abs="1669.517083" CO2_abs="92692.018977" HC_abs="9.805951" PMx_abs="1.840733" NOx_abs="39.719623" fuel_abs="39.844179" electricity_abs="0"
            CO_normed="2420.866681" CO2_normed="134407.142380" HC_normed="14.219022" PMx_normed="2.669136" NOx_normed="57.595046" fuel_normed="57.775657" electricity_normed="0"
            traveltime="0.03" CO_perVeh="2.596310" CO2_perVeh="144.147820" HC_perVeh="0.015249" PMx_perVeh="0.002863" NOx_perVeh="0.061769" fuel_perVeh="0.061963" electricity_perVeh="0"/>
        <edge id=":1105984386_0" sampledSeconds="10.56" CO_abs="368.963276" CO2_abs="26021.692497" HC_abs="2.274323" PMx_abs="0.365844" NOx_abs="10.067394" fuel_abs="11.185726" electricity_abs="0"
            CO_normed="15.978717" CO2_normed="1126.923186" HC_normed="0.098494" PMx_normed="0.015844" NOx_normed="0.435989" fuel_normed="0.484421" electricity_normed="0"
            traveltime="1.01" CO_perVeh="35.394521" CO2_perVeh="2496.252066" HC_perVeh="0.218175" PMx_perVeh="0.035095" NOx_perVeh="0.965762" fuel_perVeh="1.073043" electricity_perVeh="0"/>
        <edge id=":1105984390_0" sampledSeconds="10.43" CO_abs="30.753606" CO2_abs="3011.475237" HC_abs="0.197922" PMx_abs="0.040570" NOx_abs="1.123155" fuel_abs="1.294511" electricity_abs="0"
            CO_normed="1.029638" CO2_normed="100.824868" HC_normed="0.006626" PMx_normed="0.001358" NOx_normed="0.037603" fuel_normed="0.043341" electricity_normed="0"
            traveltime="1.08" CO_perVeh="3.187796" CO2_perVeh="312.157539" HC_perVeh="0.020516" PMx_perVeh="0.004205" NOx_perVeh="0.116422" fuel_perVeh="0.134184" electricity_perVeh="0"/>
        <edge id=":1105984390_1" sampledSeconds="2396.91" CO_abs="63385.465244" CO2_abs="7533035.270908" HC_abs="468.626090" PMx_abs="136.131676" NOx_abs="2865.773041" fuel_abs="3238.103918" electricity_abs="0"
            CO_normed="2030.032356" CO2_normed="241258.863970" HC_normed="15.008585" PMx_normed="4.359859" NOx_normed="91.781483" fuel_normed="103.706042" electricity_normed="0"
            traveltime="0.65" CO_perVeh="17.113144" CO2_perVeh="2033.808821" HC_perVeh="0.126522" PMx_perVeh="0.036754" NOx_perVeh="0.773717" fuel_perVeh="0.874240" electricity_perVeh="0"/>
        <edge id=":1105984395_0" sampledSeconds="4.12" CO_abs="67.529830" CO2_abs="5276.267354" HC_abs="0.426600" PMx_abs="0.065240" NOx_abs="1.976094" fuel_abs="2.268073" electricity_abs="0"
            CO_normed="30.866390" CO2_normed="2411.664941" HC_normed="0.194989" PMx_normed="0.029820" NOx_normed="0.903229" fuel_normed="1.036686" electricity_normed="0"
            traveltime="0.10" CO_perVeh="1.565317" CO2_perVeh="122.301990" HC_perVeh="0.009888" PMx_perVeh="0.001512" NOx_perVeh="0.045805" fuel_perVeh="0.052573" electricity_perVeh="0"/>
        <edge id=":1105984398_0" sampledSeconds="11.18" CO_abs="632.917318" CO2_abs="42545.005592" HC_abs="3.878269" PMx_abs="0.733281" NOx_abs="17.364314" fuel_abs="18.288279" electricity_abs="0"
            CO_normed="22.013986" CO2_normed="1479.790681" HC_normed="0.134893" PMx_normed="0.025505" NOx_normed="0.603962" fuel_normed="0.636099" electricity_normed="0"
            traveltime="1.17" CO_perVeh="66.261652" CO2_perVeh="4454.140038" HC_perVeh="0.406025" PMx_perVeh="0.076769" NOx_perVeh="1.817912" fuel_perVeh="1.914644" electricity_perVeh="0"/>
        <edge id=":1105984398_1" sampledSeconds="644.84" CO_abs="10864.692884" CO2_abs="1285206.264472" HC_abs="78.950018" PMx_abs="18.410669" NOx_abs="485.621497" fuel_abs="552.455335" electricity_abs="0"
            CO_normed="365.791003" CO2_normed="43270.149839" HC_normed="2.658078" PMx_normed="0.619848" NOx_normed="16.349839" fuel_normed="18.599991" electricity_normed="0"
            traveltime="0.95" CO_perVeh="16.067063" CO2_perVeh="1900.605032" HC_perVeh="0.116754" PMx_perVeh="0.027226" NOx_perVeh="0.718153" fuel_perVeh="0.816989" electricity_perVeh="0"/>
        <edge id=":1106006327_0" sampledSeconds="68.41" CO_abs="9184.889550" CO2_abs="294802.572287" HC_abs="48.756775" PMx_abs="6.140060" NOx_abs="128.985452" fuel_abs="126.725318" electricity_abs="0"
            CO_normed="435.931468" CO2_normed="13991.863203" HC_normed="2.314085" PMx_normed="0.291418" NOx_normed="6.121883" fuel_normed="6.014613" electricity_normed="0"
            traveltime="2.12" CO_perVeh="284.728041" CO2_perVeh="9138.766280" HC_perVeh="1.511441" PMx_perVeh="0.190340" NOx_perVeh="3.998499" fuel_perVeh="3.928436" electricity_perVeh="0"/>
        <edge id=":1106006327_1" sampledSeconds="679.34" CO_abs="91710.374900" CO2_abs="3073142.854398" HC_abs="490.012769" PMx_abs="64.038439" NOx_abs="1344.570736" fuel_abs="1321.033187" electricity_abs="0"
            CO_normed="3795.795133" CO2_normed="127194.122815" HC_normed="20.281109" PMx_normed="2.650483" NOx_normed="55.650356" fuel_normed="54.676162" electricity_normed="0"
            traveltime="2.28" CO_perVeh="307.849530" CO2_perVeh="10315.796718" HC_perVeh="1.644854" PMx_perVeh="0.214962" NOx_perVeh="4.513399" fuel_perVeh="4.434389" electricity_perVeh="0"/>
        <edge id=":1106006327_2" sampledSeconds="0.00" CO_abs="0" CO2_abs="0" HC_abs="0" PMx_abs="0" NOx_abs="0" fuel_abs="0" electricity_abs="0"
            CO_normed="0" CO2_normed="0" HC_normed="0" PMx_normed="0" NOx_normed="0" fuel_normed="0" electricity_normed="0"/>
        <edge id=":1106006327_3" sampledSeconds="0.00" CO_abs="0" CO2_abs="0" HC_abs="0" PMx_abs="0" NOx_abs="0" fuel_abs="0" electricity_abs="0"
            CO_normed="0" CO2_normed="0" HC_normed="0" PMx_normed="0" NOx_normed="0" fuel_normed="0" electricity_normed="0"/>
        <edge id=":1107381198_0" sampledSeconds="0.00" CO_abs="0" CO2_abs="0" HC_abs="0" PMx_abs="0" NOx_abs="0" fuel_abs="0" electricity_abs="0"
            CO_normed="0" CO2_normed="0" HC_normed="0" PMx_normed="0" NOx_normed="0" fuel_normed="0" electricity_normed="0"/>
        <edge id=":1107381198_1" sampledSeconds="103.15" CO_abs="4533.498050" CO2_abs="183193.612521" HC_abs="24.881079" PMx_abs="3.260227" NOx_abs="76.530162" fuel_abs="78.748376" electricity_abs="0"
            CO_normed="207.894070" CO2_normed="8400.768073" HC_normed="1.140980" PMx_normed="0.149505" NOx_normed="3.509468" fuel_normed="3.611189" electricity_normed="0"
            traveltime="1.54" CO_perVeh="67.875159" CO2_perVeh="2742.759644" HC_perVeh="0.372517" PMx_perVeh="0.048812" NOx_perVeh="1.145803" fuel_perVeh="1.179014" electricity_perVeh="0"/>
        <edge id=":1110338277_0" sampledSeconds="160.32" CO_abs="2591.386179" CO2_abs="316637.332941" HC_abs="19.038574" PMx_abs="4.337882" NOx_abs="118.405291" fuel_abs="136.109106" electricity_abs="0"
            CO_normed="3891.814310" CO2_normed="475534.566467" HC_normed="28.592648" PMx_normed="6.514750" NOx_normed="177.824290" fuel_normed="204.412361" electricity_normed="0"
            traveltime="0.02" CO_perVeh="0.350980" CO2_perVeh="42.885641" HC_perVeh="0.002579" PMx_perVeh="0.000588" NOx_perVeh="0.016037" fuel_perVeh="0.018435" electricity_perVeh="0"/>
        <edge id=":1110338293_0" sampledSeconds="7256.03" CO_abs="722479.300070" CO2_abs="12544803.458687" HC_abs="3583.587028" PMx_abs="302.005268" NOx_abs="5683.627177" fuel_abs="5392.801059" electricity_abs="0"
            CO_normed="1012703.142254" CO2_normed="17584118.853433" HC_normed="5023.133318" PMx_normed="423.322418" NOx_normed="7966.770953" fuel_normed="7559.118410" electricity_normed="0"
            traveltime="0.48" CO_perVeh="48.278560" CO2_perVeh="838.287056" HC_perVeh="0.239468" PMx_perVeh="0.020181" NOx_perVeh="0.379800" fuel_perVeh="0.360366" electricity_perVeh="0"/>
        <edge id=":1110338295_0" sampledSeconds="0.00" CO_abs="0" CO2_abs="0" HC_abs="0" PMx_abs="0" NOx_abs="0" fuel_abs="0" electricity_abs="0"
            CO_normed="0" CO2_normed="0" HC_normed="0" PMx_normed="0" NOx_normed="0" fuel_normed="0" electricity_normed="0"/>
        <edge id=":1110673403_0" sampledSeconds="200.40" CO_abs="3312.197630" CO2_abs="411122.638703" HC_abs="24.465309" PMx_abs="5.619376" NOx_abs="153.502037" fuel_abs="176.724363" electricity_abs="0"
            CO_normed="4642.725332" CO2_normed="576272.826122" HC_normed="34.293156" PMx_normed="7.876710" NOx_normed="215.164635" fuel_normed="247.715496" electricity_normed="0"
            traveltime="0.02" CO_perVeh="0.382811" CO2_perVeh="47.515904" HC_perVeh="0.002828" PMx_perVeh="0.000649" NOx_perVeh="0.017741" fuel_perVeh="0.020425" electricity_perVeh="0"/>
        <edge id=":1110673412_0" sampledSeconds="950.55" CO_abs="168816.367908" CO2_abs="11505094.510750" HC_abs="1050.247788" PMx_abs="252.957637" NOx_abs="4945.521664" fuel_abs="4945.473402" electricity_abs="0"
            CO_normed="244790.499204" CO2_normed="16682848.135973" HC_normed="1522.901383" PMx_normed="366.798711" NOx_normed="7171.204616" fuel_normed="7171.134634" electricity_normed="0"
            traveltime="0.02" CO_perVeh="2.761970" CO2_perVeh="188.232482" HC_perVeh="0.017183" PMx_perVeh="0.004139" NOx_perVeh="0.080913" fuel_perVeh="0.080912" electricity_perVeh="0"/>
        <edge id=":1110673414_0" sampledSeconds="0.00" CO_abs="0" CO2_abs="0" HC_abs="0" PMx_abs="0" NOx_abs="0" fuel_abs="0" electricity_abs="0"
            CO_normed="0" CO2_normed="0" HC_normed="0" PMx_normed="0" NOx_normed="0" fuel_normed="0" electricity_normed="0"/>
        <edge id=":1110673414_1" sampledSeconds="7.24" CO_abs="315.104456" CO2_abs="11666.708317" HC_abs="1.702981" PMx_abs="0.203160" NOx_abs="4.849096" fuel_abs="5.015129" electricity_abs="0"
            CO_normed="14.673874" CO2_normed="543.298609" HC_normed="0.079305" PMx_normed="0.009461" NOx_normed="0.225814" fuel_normed="0.233546" electricity_normed="0"
            traveltime="1.58" CO_perVeh="68.829058" CO2_perVeh="2548.388391" HC_perVeh="0.371986" PMx_perVeh="0.044377" NOx_perVeh="1.059200" fuel_perVeh="1.095467" electricity_perVeh="0"/>
        <edge id=":1110673417_0" sampledSeconds="29.07" CO_abs="390.043158" CO2_abs="50855.927095" HC_abs="2.928144" PMx_abs="0.645599" NOx_abs="18.671138" fuel_abs="21.860887" electricity_abs="0"
            CO_normed="585.777433" CO2_normed="76376.815768" HC_normed="4.397566" PMx_normed="0.969578" NOx_normed="28.040824" fuel_normed="32.831275" electricity_normed="0"
            traveltime="0.02" CO_perVeh="0.297427" CO2_perVeh="38.780085" HC_perVeh="0.002233" PMx_perVeh="0.000492" NOx_perVeh="0.014238" fuel_perVeh="0.016670" electricity_perVeh="0"/>
        <edge id=":1110673446_0" sampledSeconds="1326.19" CO_abs="14193.339014" CO2_abs="1140786.859953" HC_abs="91.612583" PMx_abs="21.029480" NOx_abs="467.397757" fuel_abs="490.371722" electricity_abs="0"
            CO_normed="19894.880057" CO2_normed="1599047.111252" HC_normed="128.413853" PMx_normed="29.477136" NOx_normed="655.153964" fuel_normed="687.356695" electricity_normed="0"
            traveltime="0.02" CO_perVeh="0.243856" CO2_perVeh="19.599899" HC_perVeh="0.001574" PMx_perVeh="0.000361" NOx_perVeh="0.008030" fuel_perVeh="0.008425" electricity_perVeh="0"/>
        <edge id=":1110673451_0" sampledSeconds="36.29" CO_abs="331.075160" CO2_abs="22995.536515" HC_abs="2.034427" PMx_abs="0.333275" NOx_abs="8.963464" fuel_abs="9.884886" electricity_abs="0"
            CO_normed="515.633158" CO2_normed="35814.408776" HC_normed="3.168520" PMx_normed="0.519060" NOx_normed="13.960151" fuel_normed="15.395221" electricity_normed="0"
            traveltime="0.03" CO_perVeh="0.243929" CO2_perVeh="16.942626" HC_perVeh="0.001499" PMx_perVeh="0.000246" NOx_perVeh="0.006604" fuel_perVeh="0.007283" electricity_perVeh="0"/>
        <edge id=":1110673464_0" sampledSeconds="1034.97" CO_abs="3654.015225" CO2_abs="278655.399348" HC_abs="23.018608" PMx_abs="3.940316" NOx_abs="107.466252" fuel_abs="119.783009" electricity_abs="0"
            CO_normed="108.821237" CO2_normed="8298.713463" HC_normed="0.685524" PMx_normed="0.117348" NOx_normed="3.200482" fuel_normed="3.567291" electricity_normed="0"
            traveltime="1.23" CO_perVeh="4.333153" CO2_perVeh="330.446450" HC_perVeh="0.027297" PMx_perVeh="0.004673" NOx_perVeh="0.127440" fuel_perVeh="0.142046" electricity_perVeh="0"/>
        <edge id=":1110673464_1" sampledSeconds="2605.90" CO_abs="64369.512005" CO2_abs="7810673.148179" HC_abs="478.822915" PMx_abs="139.555618" NOx_abs="2963.156147" fuel_abs="3357.448563" electricity_abs="0"
            CO_normed="1878.426643" CO2_normed="227930.523120" HC_normed="13.972977" PMx_normed="4.072502" NOx_normed="86.470618" fuel_normed="97.976832" electricity_normed="0"
            traveltime="0.72" CO_perVeh="17.745427" CO2_perVeh="2153.251169" HC_perVeh="0.132002" PMx_perVeh="0.038473" NOx_perVeh="0.816885" fuel_perVeh="0.925583" electricity_perVeh="0"/>
        <edge id=":1110673479_0" sampledSeconds="134.83" CO_abs="6300.261660" CO2_abs="434960.372549" HC_abs="38.897335" PMx_abs="7.605245" NOx_abs="177.857226" fuel_abs="186.970590" electricity_abs="0"
            CO_normed="8831.110842" CO2_normed="609686.306574" HC_normed="54.522605" PMx_normed="10.660314" NOx_normed="249.303435" fuel_normed="262.077687" electricity_normed="0"
            traveltime="0.03" CO_perVeh="1.331932" CO2_perVeh="91.954555" HC_perVeh="0.008223" PMx_perVeh="0.001608" NOx_perVeh="0.037601" fuel_perVeh="0.039527" electricity_perVeh="0"/>
        <edge id=":1110673511_0" sampledSeconds="63.74" CO_abs="1225.418424" CO2_abs="130040.388933" HC_abs="8.586100" PMx_abs="1.869140" NOx_abs="49.494605" fuel_abs="55.898886" electricity_abs="0"
            CO_normed="1717.675632" CO2_normed="182278.316458" HC_normed="12.035183" PMx_normed="2.619984" NOx_normed="69.376856" fuel_normed="78.353770" electricity_normed="0"
            traveltime="0.02" CO_perVeh="0.469659" CO2_perVeh="49.839817" HC_perVeh="0.003291" PMx_perVeh="0.000716" NOx_perVeh="0.018970" fuel_perVeh="0.021424" electricity_perVeh="0"/>
        <edge id=":1110673517_0" sampledSeconds="182.24" CO_abs="8328.666512" CO2_abs="584755.502652" HC_abs="51.677648" PMx_abs="10.274638" NOx_abs="239.225701" fuel_abs="251.360843" electricity_abs="0"
            CO_normed="11674.336893" CO2_normed="819654.950569" HC_normed="72.436839" PMx_normed="14.402016" NOx_normed="335.323958" fuel_normed="352.333852" electricity_normed="0"
            traveltime="0.03" CO_perVeh="1.275186" CO2_perVeh="89.530801" HC_perVeh="0.007912" PMx_perVeh="0.001573" NOx_perVeh="0.036627" fuel_perVeh="0.038485" electricity_perVeh="0"/>
        <edge id=":1110673534_0" sampledSeconds="722.96" CO_abs="5769.034932" CO2_abs="474919.914678" HC_abs="37.126000" PMx_abs="6.480488" NOx_abs="181.177037" fuel_abs="204.149430" electricity_abs="0"
            CO_normed="156.714873" CO2_normed="12901.120405" HC_normed="1.008522" PMx_normed="0.176041" NOx_normed="4.921644" fuel_normed="5.545685" electricity_normed="0"
            traveltime="1.45" CO_perVeh="11.586527" CO2_perVeh="953.828905" HC_perVeh="0.074564" PMx_perVeh="0.013015" NOx_perVeh="0.363876" fuel_perVeh="0.410014" electricity_perVeh="0"/>
        <edge id=":1110673534_1" sampledSeconds="213.01" CO_abs="2414.874076" CO2_abs="329510.255345" HC_abs="18.486752" PMx_abs="4.250646" NOx_abs="121.019400" fuel_abs="141.642848" electricity_abs="0"
            CO_normed="63.786596" CO2_normed="8703.699252" HC_normed="0.488310" PMx_normed="0.112277" NOx_normed="3.196612" fuel_normed="3.741361" electricity_normed="0"
            traveltime="1.23" CO_perVeh="13.984451" CO2_perVeh="1908.182381" HC_perVeh="0.107056" PMx_perVeh="0.024615" NOx_perVeh="0.700819" fuel_perVeh="0.820249" electricity_perVeh="0"/>
        <edge id=":1110673549_0" sampledSeconds="649.93" CO_abs="1086.460436" CO2_abs="113875.864176" HC_abs="7.517603" PMx_abs="1.525010" NOx_abs="42.463647" fuel_abs="48.950628" electricity_abs="0"
            CO_normed="28.590065" CO2_normed="2996.628561" HC_normed="0.197825" PMx_normed="0.040130" NOx_normed="1.117425" fuel_normed="1.288129" electricity_normed="0"
            traveltime="1.29" CO_perVeh="2.158538" CO2_perVeh="226.244189" HC_perVeh="0.014936" PMx_perVeh="0.003030" NOx_perVeh="0.084365" fuel_perVeh="0.097253" electricity_perVeh="0"/>
        <edge id=":1110673549_1" sampledSeconds="3200.67" CO_abs="69195.255887" CO2_abs="9071140.557629" HC_abs="531.944745" PMx_abs="159.619558" NOx_abs="3393.055142" fuel_abs="3899.267996" electricity_abs="0"
            CO_normed="1761.344390" CO2_normed="230903.149732" HC_normed="13.540493" PMx_normed="4.063068" NOx_normed="86.369196" fuel_normed="99.254692" electricity_normed="0"
            traveltime="0.81" CO_perVeh="17.450511" CO2_perVeh="2287.671786" HC_perVeh="0.134152" PMx_perVeh="0.040255" NOx_perVeh="0.855702" fuel_perVeh="0.983365" electricity_perVeh="0"/>
        <edge id=":1110673556_0" sampledSeconds="476.16" CO_abs="58354.856653" CO2_abs="2764526.280272" HC_abs="331.328837" PMx_abs="55.780905" NOx_abs="1192.065333" fuel_abs="1188.352782" electricity_abs="0"
            CO_normed="1138.695845" CO2_normed="53945.031624" HC_normed="6.465319" PMx_normed="1.088470" NOx_normed="23.261129" fuel_normed="23.188685" electricity_normed="0"
            traveltime="2.81" CO_perVeh="343.996269" CO2_perVeh="16296.616610" HC_perVeh="1.953152" PMx_perVeh="0.328823" NOx_perVeh="7.027111" fuel_perVeh="7.005225" electricity_perVeh="0"/>
        <edge id=":1110673556_2" sampledSeconds="172.21" CO_abs="16954.533606" CO2_abs="736173.494208" HC_abs="94.509656" PMx_abs="14.281783" NOx_abs="314.440945" fuel_abs="316.451824" electricity_abs="0"
            CO_normed="345.928114" CO2_normed="15020.354705" HC_normed="1.928307" PMx_normed="0.291395" NOx_normed="6.415627" fuel_normed="6.456655" electricity_normed="0"
            traveltime="2.98" CO_perVeh="293.170693" CO2_perVeh="12729.603664" HC_perVeh="1.634221" PMx_perVeh="0.246955" NOx_perVeh="5.437181" fuel_perVeh="5.471952" electricity_perVeh="0"/>
        <edge id=":1110673556_3" sampledSeconds="307.24" CO_abs="32223.885284" CO2_abs="1112783.851271" HC_abs="172.765768" PMx_abs="22.096110" NOx_abs="480.113750" fuel_abs="478.346406" electricity_abs="0"
            CO_normed="1495.642195" CO2_normed="51648.845779" HC_normed="8.018765" PMx_normed="1.025571" NOx_normed="22.284041" fuel_normed="22.202011" electricity_normed="0"
            traveltime="1.85" CO_perVeh="193.948276" CO2_perVeh="6697.594279" HC_perVeh="1.039838" PMx_perVeh="0.132991" NOx_perVeh="2.889696" fuel_perVeh="2.879059" electricity_perVeh="0"/>
        <edge id=":1110673556_4" sampledSeconds="80.02" CO_abs="9513.401993" CO2_abs="362431.566297" HC_abs="51.847675" PMx_abs="7.279291" NOx_abs="156.701252" fuel_abs="155.795562" electricity_abs="0"
            CO_normed="269.756986" CO2_normed="10276.917463" HC_normed="1.470165" PMx_normed="0.206408" NOx_normed="4.443338" fuel_normed="4.417656" electricity_normed="0"
            traveltime="2.64" CO_perVeh="313.282745" CO2_perVeh="11935.115975" HC_perVeh="1.707379" PMx_perVeh="0.239712" NOx_perVeh="5.160278" fuel_perVeh="5.130453" electricity_perVeh="0"/>
        <edge id=":1110673556_5" sampledSeconds="21.75" CO_abs="1172.182690" CO2_abs="54534.303976" HC_abs="6.598278" PMx_abs="0.933055" NOx_abs="22.472900" fuel_abs="23.442258" electricity_abs="0"
            CO_normed="46.326734" CO2_normed="2155.292166" HC_normed="0.260776" PMx_normed="0.036876" NOx_normed="0.888169" fuel_normed="0.926479" electricity_normed="0"
            traveltime="1.50" CO_perVeh="81.039791" CO2_perVeh="3770.272867" HC_perVeh="0.456177" PMx_perVeh="0.064508" NOx_perVeh="1.553682" fuel_perVeh="1.620699" electricity_perVeh="0"/>
        <edge id=":1110673556_6" sampledSeconds="546.81" CO_abs="64859.968748" CO2_abs="3134672.646877" HC_abs="369.800938" PMx_abs="63.356162" NOx_abs="1351.974337" fuel_abs="1347.461789" electricity_abs="0"
            CO_normed="1297.543801" CO2_normed="62710.098985" HC_normed="7.397983" PMx_normed="1.267460" NOx_normed="27.046666" fuel_normed="26.956391" electricity_normed="0"
            traveltime="2.65" CO_perVeh="314.909488" CO2_perVeh="15219.528761" HC_perVeh="1.795465" PMx_perVeh="0.307608" NOx_perVeh="6.564134" fuel_perVeh="6.542225" electricity_perVeh="0"/>
        <edge id=":1110673561_0" sampledSeconds="104.89" CO_abs="10125.392377" CO2_abs="718962.903442" HC_abs="63.406161" PMx_abs="14.487783" NOx_abs="304.123606" fuel_abs="309.048016" electricity_abs="0"
            CO_normed="254.503597" CO2_normed="18071.264616" HC_normed="1.593725" PMx_normed="0.364153" NOx_normed="7.644203" fuel_normed="7.767979" electricity_normed="0"
            traveltime="1.24" CO_perVeh="119.489458" CO2_perVeh="8484.460086" HC_perVeh="0.748254" PMx_perVeh="0.170970" NOx_perVeh="3.588954" fuel_perVeh="3.647067" electricity_perVeh="0"/>
        <edge id=":1110673561_1" sampledSeconds="5237.48" CO_abs="486257.667363" CO2_abs="33720819.031602" HC_abs="3029.620367" PMx_abs="704.372396" NOx_abs="14412.763203" fuel_abs="14494.951880" electricity_abs="0"
            CO_normed="11915.909128" CO2_normed="826340.112012" HC_normed="74.241875" PMx_normed="17.260885" NOx_normed="353.189653" fuel_normed="355.203714" electricity_normed="0"
            traveltime="1.19" CO_perVeh="110.729316" CO2_perVeh="7678.816121" HC_perVeh="0.689897" PMx_perVeh="0.160398" NOx_perVeh="3.282036" fuel_perVeh="3.300752" electricity_perVeh="0"/>
        <edge id=":1110673562_0" sampledSeconds="301.11" CO_abs="6913.109226" CO2_abs="522022.773449" HC_abs="43.396722" PMx_abs="7.196229" NOx_abs="200.425556" fuel_abs="224.397394" electricity_abs="0"
            CO_normed="10766.825100" CO2_normed="813024.605301" HC_normed="67.588244" PMx_normed="11.207769" NOx_normed="312.152872" fuel_normed="349.487823" electricity_normed="0"
            traveltime="0.03" CO_perVeh="0.619702" CO2_perVeh="46.794976" HC_perVeh="0.003890" PMx_perVeh="0.000645" NOx_perVeh="0.017966" fuel_perVeh="0.020115" electricity_perVeh="0"/>
        <edge id=":1110673564_0" sampledSeconds="27.85" CO_abs="514.045360" CO2_abs="64444.347832" HC_abs="3.819289" PMx_abs="0.879223" NOx_abs="24.048670" fuel_abs="27.701920" electricity_abs="0"
            CO_normed="2161.620483" CO2_normed="270995.972663" HC_normed="16.060556" PMx_normed="3.697233" NOx_normed="101.127451" fuel_normed="116.489791" electricity_normed="0"
            traveltime="7.866290e-03" CO_perVeh="0.145190" CO2_perVeh="18.202047" HC_perVeh="0.001079" PMx_perVeh="0.000248" NOx_perVeh="0.006792" fuel_perVeh="0.007824" electricity_perVeh="0"/>
        <edge id=":1110673588_0" sampledSeconds="62.97" CO_abs="1175.523875" CO2_abs="132895.536480" HC_abs="8.362386" PMx_abs="1.811978" NOx_abs="49.843494" fuel_abs="57.126279" electricity_abs="0"
            CO_normed="1977.285808" CO2_normed="223536.470660" HC_normed="14.065921" PMx_normed="3.047831" NOx_normed="83.839074" fuel_normed="96.089058" electricity_normed="0"
            traveltime="0.02" CO_perVeh="0.379201" CO2_perVeh="42.869528" HC_perVeh="0.002698" PMx_perVeh="0.000585" NOx_perVeh="0.016079" fuel_perVeh="0.018428" electricity_perVeh="0"/>
        <edge id=":1110673601_0" sampledSeconds="28.92" CO_abs="384.513583" CO2_abs="46275.454771" HC_abs="2.796547" PMx_abs="0.616957" NOx_abs="17.217839" fuel_abs="19.891904" electricity_abs="0"
            CO_normed="577.472966" CO2_normed="69497.737738" HC_normed="4.199931" PMx_normed="0.926563" NOx_normed="25.858219" fuel_normed="29.874202" electricity_normed="0"
            traveltime="0.02" CO_perVeh="0.293210" CO2_perVeh="35.287255" HC_perVeh="0.002133" PMx_perVeh="0.000470" NOx_perVeh="0.013129" fuel_perVeh="0.015169" electricity_perVeh="0"/>
        <edge id=":1110673617_0" sampledSeconds="853.50" CO_abs="31418.026915" CO2_abs="3172158.145764" HC_abs="219.116092" PMx_abs="59.936596" NOx_abs="1244.659379" fuel_abs="1363.562173" electricity_abs="0"
            CO_normed="44038.818244" CO2_normed="4446431.228731" HC_normed="307.136211" PMx_normed="84.013451" NOx_normed="1744.645784" fuel_normed="1911.312472" electricity_normed="0"
            traveltime="0.02" CO_perVeh="0.556921" CO2_perVeh="56.230154" HC_perVeh="0.003884" PMx_perVeh="0.001062" NOx_perVeh="0.022063" fuel_perVeh="0.024171" electricity_perVeh="0"/>
        <edge id=":1110673621_0" sampledSeconds="26.48" CO_abs="592.732018" CO2_abs="58886.466632" HC_abs="4.068012" PMx_abs="0.913336" NOx_abs="22.884669" fuel_abs="25.312737" electricity_abs="0"
            CO_normed="997.002810" CO2_normed="99049.774501" HC_normed="6.842585" PMx_normed="1.536273" NOx_normed="38.493078" fuel_normed="42.577200" electricity_normed="0"
            traveltime="0.02" CO_perVeh="0.449039" CO2_perVeh="44.610960" HC_perVeh="0.003082" PMx_perVeh="0.000692" NOx_perVeh="0.017337" fuel_perVeh="0.019176" electricity_perVeh="0"/>
        <edge id=":1110673630_0" sampledSeconds="287.28" CO_abs="1076.249926" CO2_abs="101633.680122" HC_abs="7.209482" PMx_abs="1.271547" NOx_abs="37.840478" fuel_abs="43.688390" electricity_abs="0"
            CO_normed="32.280713" CO2_normed="3048.369738" HC_normed="0.216239" PMx_normed="0.038138" NOx_normed="1.134976" fuel_normed="1.310376" electricity_normed="0"
            traveltime="1.29" CO_perVeh="4.842714" CO2_perVeh="457.312744" HC_perVeh="0.032440" PMx_perVeh="0.005721" NOx_perVeh="0.170268" fuel_perVeh="0.196581" electricity_perVeh="0"/>
        <edge id=":1110673630_1" sampledSeconds="338.39" CO_abs="1093.388043" CO2_abs="92949.267652" HC_abs="7.077833" PMx_abs="1.127219" NOx_abs="34.521246" fuel_abs="39.955430" electricity_abs="0"
            CO_normed="39.981077" CO2_normed="3398.804117" HC_normed="0.258810" PMx_normed="0.041218" NOx_normed="1.262312" fuel_normed="1.461019" electricity_normed="0"
            traveltime="1.08" CO_perVeh="3.485514" CO2_perVeh="296.304641" HC_perVeh="0.022563" PMx_perVeh="0.003593" NOx_perVeh="0.110047" fuel_perVeh="0.127370" electricity_perVeh="0"/>
        <edge id=":1110673650_0" sampledSeconds="200.31" CO_abs="3352.811793" CO2_abs="391441.452808" HC_abs="24.209605" PMx_abs="5.505925" NOx_abs="147.471082" fuel_abs="168.264146" electricity_abs="0"
            CO_normed="4699.654423" CO2_normed="548685.601413" HC_normed="33.934735" PMx_normed="7.717685" NOx_normed="206.711013" fuel_normed="235.856763" electricity_normed="0"
            traveltime="0.02" CO_perVeh="0.387505" CO2_perVeh="45.241270" HC_perVeh="0.002798" PMx_perVeh="0.000636" NOx_perVeh="0.017044" fuel_perVeh="0.019447" electricity_perVeh="0"/>
        <edge id=":1110673655_0" sampledSeconds="20.68" CO_abs="334.886811" CO2_abs="40498.647981" HC_abs="2.421152" PMx_abs="0.533069" NOx_abs="15.017504" fuel_abs="17.408700" electricity_abs="0"
            CO_normed="469.412654" CO2_normed="56767.173901" HC_normed="3.393742" PMx_normed="0.747206" NOx_normed="21.050116" fuel_normed="24.401869" electricity_normed="0"
            traveltime="0.02" CO_perVeh="0.382582" CO2_perVeh="46.266544" HC_perVeh="0.002766" PMx_perVeh="0.000609" NOx_perVeh="0.017156" fuel_perVeh="0.019888" electricity_perVeh="0"/>
        <edge id=":1110673663_0" sampledSeconds="111.04" CO_abs="2043.977592" CO2_abs="220837.029608" HC_abs="14.406066" PMx_abs="3.120445" NOx_abs="83.653133" fuel_abs="94.928593" electricity_abs="0"
            CO_normed="52.473525" CO2_normed="5669.385691" HC_normed="0.369836" PMx_normed="0.080109" NOx_normed="2.147565" fuel_normed="2.437032" electricity_normed="0"
            traveltime="1.30" CO_perVeh="24.007481" CO2_perVeh="2593.835094" HC_perVeh="0.169206" PMx_perVeh="0.036651" NOx_perVeh="0.982546" fuel_perVeh="1.114981" electricity_perVeh="0"/>
        <edge id=":1110673663_1" sampledSeconds="170.40" CO_abs="2495.015958" CO2_abs="323733.390363" HC_abs="18.647626" PMx_abs="4.224080" NOx_abs="119.506576" fuel_abs="139.159598" electricity_abs="0"
            CO_normed="64.131003" CO2_normed="8321.127948" HC_normed="0.479312" PMx_normed="0.108574" NOx_normed="3.071755" fuel_normed="3.576909" electricity_normed="0"
            traveltime="1.27" CO_perVeh="18.592383" CO2_perVeh="2412.399458" HC_perVeh="0.138959" PMx_perVeh="0.031477" NOx_perVeh="0.890540" fuel_perVeh="1.036991" electricity_perVeh="0"/>