<?xml version="1.0" encoding="UTF-8"?>

<!-- generated on Tue Nov 10 00:26:42 2020 by Eclipse SUMO sumo Version 1.7.0
<configuration xmlns:xsi="http://www.w3.org/2001/XMLSchema-instance" xsi:noNamespaceSchemaLocation="http://sumo.dlr.de/xsd/sumoConfiguration.xsd">

    <input>
        <net-file value="../dataSets/Porto/6AM7AM_Routing_SaoBento/Porto.net.xml"/>
        <route-files value="../results/Porto/6AM7AM_Routing_SaoBento/cost_nox-length/solution6/Porto.rou.xml"/>
        <additional-files value="moreOutputInfo.xml"/>
    </input>

    <output>
        <emission-output.precision value="6"/>
        <tripinfo-output value="../results/Porto/6AM7AM_Routing_SaoBento/cost_nox-length/solution6/Porto-tripinfo"/>
    </output>

    <processing>
        <collision.action value="warn"/>
        <time-to-teleport value="-1"/>
    </processing>

    <emissions>
        <device.emissions.probability value="1"/>
    </emissions>

    <gui_only>
        <quit-on-end value="true"/>
        <start value="true"/>
    </gui_only>

</configuration>
-->

<meandata xmlns:xsi="http://www.w3.org/2001/XMLSchema-instance" xsi:noNamespaceSchemaLocation="http://sumo.dlr.de/xsd/meandata_file.xsd">
    <interval begin="0.00" end="4790.00" id="emissions-detector">
        <edge id=":1092997347_0" sampledSeconds="271.84" CO_abs="34969.866164" CO2_abs="1370706.456204" HC_abs="191.621829" PMx_abs="28.024367" NOx_abs="595.429048" fuel_abs="589.213057" electricity_abs="0"
            CO_normed="59732.168433" CO2_normed="2341309.186912" HC_normed="327.310014" PMx_normed="47.868534" NOx_normed="1017.054742" fuel_normed="1006.437183" electricity_normed="0"
            traveltime="0.08" CO_perVeh="9.823167" CO2_perVeh="385.036617" HC_perVeh="0.053827" PMx_perVeh="0.007872" NOx_perVeh="0.167258" fuel_perVeh="0.165512" electricity_perVeh="0"/>
        <edge id=":1103427051_0" sampledSeconds="11.37" CO_abs="843.743181" CO2_abs="47123.066786" HC_abs="4.955285" PMx_abs="0.897780" NOx_abs="19.940188" fuel_abs="20.256167" electricity_abs="0"
            CO_normed="2186.649955" CO2_normed="122124.426196" HC_normed="12.842148" PMx_normed="2.326692" NOx_normed="51.677113" fuel_normed="52.496005" electricity_normed="0"
            traveltime="0.03" CO_perVeh="2.311844" CO2_perVeh="129.116491" HC_perVeh="0.013577" PMx_perVeh="0.002460" NOx_perVeh="0.054636" fuel_perVeh="0.055502" electricity_perVeh="0"/>
        <edge id=":1105984386_0" sampledSeconds="22.84" CO_abs="529.284730" CO2_abs="39729.377084" HC_abs="3.322222" PMx_abs="0.575050" NOx_abs="15.436494" fuel_abs="17.078082" electricity_abs="0"
            CO_normed="40.967279" CO2_normed="3075.101912" HC_normed="0.257144" PMx_normed="0.044510" NOx_normed="1.194803" fuel_normed="1.321864" electricity_normed="0"
            traveltime="0.96" CO_perVeh="22.213670" CO2_perVeh="1667.411184" HC_perVeh="0.139431" PMx_perVeh="0.024134" NOx_perVeh="0.647858" fuel_perVeh="0.716754" electricity_perVeh="0"/>
        <edge id=":1105984390_0" sampledSeconds="23.10" CO_abs="24.972062" CO2_abs="1642.126566" HC_abs="0.151299" PMx_abs="0.023982" NOx_abs="0.643291" fuel_abs="0.705887" electricity_abs="0"
            CO_normed="1.494279" CO2_normed="98.261632" HC_normed="0.009053" PMx_normed="0.001435" NOx_normed="0.038493" fuel_normed="0.042239" electricity_normed="0"
            traveltime="1.05" CO_perVeh="1.132471" CO2_perVeh="74.469633" HC_perVeh="0.006861" PMx_perVeh="0.001088" NOx_perVeh="0.029173" fuel_perVeh="0.032012" electricity_perVeh="0"/>
        <edge id=":1105984390_1" sampledSeconds="646.43" CO_abs="15290.296110" CO2_abs="1905444.318299" HC_abs="115.193128" PMx_abs="34.115785" NOx_abs="717.429542" fuel_abs="819.062914" electricity_abs="0"
            CO_normed="875.221862" CO2_normed="109068.294824" HC_normed="6.593695" PMx_normed="1.952799" NOx_normed="41.065916" fuel_normed="46.883446" electricity_normed="0"
            traveltime="0.64" CO_perVeh="15.056663" CO2_perVeh="1876.329420" HC_perVeh="0.113433" PMx_perVeh="0.033595" NOx_perVeh="0.706467" fuel_perVeh="0.806548" electricity_perVeh="0"/>
        <edge id=":1105984395_0" sampledSeconds="9.02" CO_abs="134.038974" CO2_abs="9640.504305" HC_abs="0.830188" PMx_abs="0.133182" NOx_abs="3.710714" fuel_abs="4.144084" electricity_abs="0"
            CO_normed="109.499026" CO2_normed="7875.514091" HC_normed="0.678197" PMx_normed="0.108799" NOx_normed="3.031354" fuel_normed="3.385382" electricity_normed="0"
            traveltime="0.09" CO_perVeh="1.359302" CO2_perVeh="97.765255" HC_perVeh="0.008419" PMx_perVeh="0.001351" NOx_perVeh="0.037631" fuel_perVeh="0.042026" electricity_perVeh="0"/>
        <edge id=":1105984398_0" sampledSeconds="23.20" CO_abs="1454.316548" CO2_abs="98311.399563" HC_abs="8.948959" PMx_abs="1.817001" NOx_abs="40.872677" fuel_abs="42.259677" electricity_abs="0"
            CO_normed="90.406495" CO2_normed="6111.454254" HC_normed="0.556305" PMx_normed="0.112952" NOx_normed="2.540819" fuel_normed="2.627041" electricity_normed="0"
            traveltime="1.11" CO_perVeh="69.337925" CO2_perVeh="4687.224708" HC_perVeh="0.426662" PMx_perVeh="0.086630" NOx_perVeh="1.948700" fuel_perVeh="2.014828" electricity_perVeh="0"/>
        <edge id=":1105984398_1" sampledSeconds="453.78" CO_abs="8755.440299" CO2_abs="1014642.019204" HC_abs="63.202743" PMx_abs="14.565225" NOx_abs="384.121247" fuel_abs="436.151374" electricity_abs="0"
            CO_normed="526.844608" CO2_normed="61054.459754" HC_normed="3.803124" PMx_normed="0.876439" NOx_normed="23.113881" fuel_normed="26.244711" electricity_normed="0"
            traveltime="0.96" CO_perVeh="18.446609" CO2_perVeh="2137.722816" HC_perVeh="0.133160" PMx_perVeh="0.030687" NOx_perVeh="0.809295" fuel_perVeh="0.918916" electricity_perVeh="0"/>
        <edge id=":1106006327_0" sampledSeconds="447.97" CO_abs="60509.945954" CO2_abs="1960806.328458" HC_abs="321.682421" PMx_abs="40.923676" NOx_abs="858.420187" fuel_abs="842.881462" electricity_abs="0"
            CO_normed="5132.867228" CO2_normed="166328.995755" HC_normed="27.287302" PMx_normed="3.471426" NOx_normed="72.817068" fuel_normed="71.498967" electricity_normed="0"
            traveltime="2.10" CO_perVeh="283.391984" CO2_perVeh="9183.230734" HC_perVeh="1.506566" PMx_perVeh="0.191662" NOx_perVeh="4.020321" fuel_perVeh="3.947547" electricity_perVeh="0"/>
        <edge id=":1106006327_1" sampledSeconds="163.88" CO_abs="22126.182951" CO2_abs="731266.196840" HC_abs="117.974834" PMx_abs="15.248758" NOx_abs="319.989947" fuel_abs="314.345189" electricity_abs="0"
            CO_normed="1636.740310" CO2_normed="54093.960281" HC_normed="8.726953" PMx_normed="1.127996" NOx_normed="23.670619" fuel_normed="23.253059" electricity_normed="0"
            traveltime="2.33" CO_perVeh="314.109684" CO2_perVeh="10381.266152" HC_perVeh="1.674805" PMx_perVeh="0.216476" NOx_perVeh="4.542670" fuel_perVeh="4.462535" electricity_perVeh="0"/>
        <edge id=":1106006327_2" sampledSeconds="0.00" CO_abs="0" CO2_abs="0" HC_abs="0" PMx_abs="0" NOx_abs="0" fuel_abs="0" electricity_abs="0"
            CO_normed="0" CO2_normed="0" HC_normed="0" PMx_normed="0" NOx_normed="0" fuel_normed="0" electricity_normed="0"/>
        <edge id=":1106006327_3" sampledSeconds="0.00" CO_abs="0" CO2_abs="0" HC_abs="0" PMx_abs="0" NOx_abs="0" fuel_abs="0" electricity_abs="0"
            CO_normed="0" CO2_normed="0" HC_normed="0" PMx_normed="0" NOx_normed="0" fuel_normed="0" electricity_normed="0"/>
        <edge id=":1107381198_0" sampledSeconds="0.00" CO_abs="0" CO2_abs="0" HC_abs="0" PMx_abs="0" NOx_abs="0" fuel_abs="0" electricity_abs="0"
            CO_normed="0" CO2_normed="0" HC_normed="0" PMx_normed="0" NOx_normed="0" fuel_normed="0" electricity_normed="0"/>
        <edge id=":1107381198_1" sampledSeconds="36.79" CO_abs="1423.403863" CO2_abs="56489.993943" HC_abs="7.777610" PMx_abs="0.954292" NOx_abs="23.269842" fuel_abs="24.283126" electricity_abs="0"
            CO_normed="116.661026" CO2_normed="4629.874083" HC_normed="0.637447" PMx_normed="0.078213" NOx_normed="1.907177" fuel_normed="1.990225" electricity_normed="0"
            traveltime="1.51" CO_perVeh="58.605484" CO2_perVeh="2325.849697" HC_perVeh="0.320226" PMx_perVeh="0.039291" NOx_perVeh="0.958084" fuel_perVeh="0.999804" electricity_perVeh="0"/>
        <edge id=":1110338277_0" sampledSeconds="96.53" CO_abs="1489.520592" CO2_abs="187290.731090" HC_abs="11.077524" PMx_abs="2.522060" NOx_abs="69.720208" fuel_abs="80.508466" electricity_abs="0"
            CO_normed="3998.116710" CO2_normed="502718.932242" HC_normed="29.733884" PMx_normed="6.769622" NOx_normed="187.140432" fuel_normed="216.097879" electricity_normed="0"
            traveltime="0.02" CO_perVeh="0.335691" CO2_perVeh="42.209419" HC_perVeh="0.002497" PMx_perVeh="0.000568" NOx_perVeh="0.015713" fuel_perVeh="0.018144" electricity_perVeh="0"/>
        <edge id=":1110338293_0" sampledSeconds="124.69" CO_abs="6242.346033" CO2_abs="423936.329553" HC_abs="38.403329" PMx_abs="7.545806" NOx_abs="174.347590" fuel_abs="182.231703" electricity_abs="0"
            CO_normed="15638.445178" CO2_normed="1062053.435205" HC_normed="96.208757" PMx_normed="18.903899" NOx_normed="436.778931" fuel_normed="456.530362" electricity_normed="0"
            traveltime="0.03" CO_perVeh="1.431798" CO2_perVeh="97.237667" HC_perVeh="0.008809" PMx_perVeh="0.001731" NOx_perVeh="0.039990" fuel_perVeh="0.041798" electricity_perVeh="0"/>
        <edge id=":1110338295_0" sampledSeconds="0.00" CO_abs="0" CO2_abs="0" HC_abs="0" PMx_abs="0" NOx_abs="0" fuel_abs="0" electricity_abs="0"
            CO_normed="0" CO2_normed="0" HC_normed="0" PMx_normed="0" NOx_normed="0" fuel_normed="0" electricity_normed="0"/>
        <edge id=":1110673403_0" sampledSeconds="143.35" CO_abs="2123.053825" CO2_abs="266993.571563" HC_abs="15.799779" PMx_abs="3.643631" NOx_abs="99.638196" fuel_abs="114.769321" electricity_abs="0"
            CO_normed="5318.715219" CO2_normed="668877.423540" HC_normed="39.581911" PMx_normed="9.128095" NOx_normed="249.615524" fuel_normed="287.522308" electricity_normed="0"
            traveltime="0.02" CO_perVeh="0.340870" CO2_perVeh="42.867579" HC_perVeh="0.002537" PMx_perVeh="0.000585" NOx_perVeh="0.015998" fuel_perVeh="0.018427" electricity_perVeh="0"/>
        <edge id=":1110673412_0" sampledSeconds="252.71" CO_abs="44602.159815" CO2_abs="3051362.927249" HC_abs="277.754228" PMx_abs="66.934144" NOx_abs="1310.682193" fuel_abs="1311.630704" electricity_abs="0"
            CO_normed="115591.228373" CO2_normed="7907930.701962" HC_normed="719.829544" PMx_normed="173.466934" NOx_normed="3396.771934" fuel_normed="3399.230102" electricity_normed="0"
            traveltime="0.02" CO_perVeh="2.752834" CO2_perVeh="188.329369" HC_perVeh="0.017143" PMx_perVeh="0.004131" NOx_perVeh="0.080895" fuel_perVeh="0.080954" electricity_perVeh="0"/>
        <edge id=":1110673414_0" sampledSeconds="0.00" CO_abs="0" CO2_abs="0" HC_abs="0" PMx_abs="0" NOx_abs="0" fuel_abs="0" electricity_abs="0"
            CO_normed="0" CO2_normed="0" HC_normed="0" PMx_normed="0" NOx_normed="0" fuel_normed="0" electricity_normed="0"/>
        <edge id=":1110673414_1" sampledSeconds="132.38" CO_abs="9378.430848" CO2_abs="359931.663033" HC_abs="51.066806" PMx_abs="6.669523" NOx_abs="152.111701" fuel_abs="154.721733" electricity_abs="0"
            CO_normed="780.565618" CO2_normed="29957.066954" HC_normed="4.250284" PMx_normed="0.555104" NOx_normed="12.660238" fuel_normed="12.877470" electricity_normed="0"
            traveltime="1.58" CO_perVeh="111.739320" CO2_perVeh="4288.406013" HC_perVeh="0.608435" PMx_perVeh="0.079464" NOx_perVeh="1.812335" fuel_perVeh="1.843432" electricity_perVeh="0"/>
        <edge id=":1110673417_0" sampledSeconds="29.95" CO_abs="535.754687" CO2_abs="61389.657113" HC_abs="3.840572" PMx_abs="0.860317" NOx_abs="23.131717" fuel_abs="26.388831" electricity_abs="0"
            CO_normed="1438.053141" CO2_normed="164779.872956" HC_normed="10.308723" PMx_normed="2.309230" NOx_normed="62.089309" fuel_normed="70.831936" electricity_normed="0"
            traveltime="0.02" CO_perVeh="0.397644" CO2_perVeh="45.564225" HC_perVeh="0.002851" PMx_perVeh="0.000639" NOx_perVeh="0.017169" fuel_perVeh="0.019586" electricity_perVeh="0"/>
        <edge id=":1110673446_0" sampledSeconds="333.86" CO_abs="3300.881263" CO2_abs="273823.935016" HC_abs="21.503979" PMx_abs="4.964792" NOx_abs="111.459849" fuel_abs="117.704354" electricity_abs="0"
            CO_normed="8269.431139" CO2_normed="685988.981250" HC_normed="53.872182" PMx_normed="12.437893" NOx_normed="279.231355" fuel_normed="294.875208" electricity_normed="0"
            traveltime="0.02" CO_perVeh="0.225270" CO2_perVeh="18.687243" HC_perVeh="0.001468" PMx_perVeh="0.000339" NOx_perVeh="0.007607" fuel_perVeh="0.008033" electricity_perVeh="0"/>
        <edge id=":1110673451_0" sampledSeconds="37.94" CO_abs="370.447926" CO2_abs="26133.165989" HC_abs="2.287552" PMx_abs="0.387370" NOx_abs="10.234905" fuel_abs="11.233614" electricity_abs="0"
            CO_normed="1031.170288" CO2_normed="72743.677075" HC_normed="6.367576" PMx_normed="1.078274" NOx_normed="28.489645" fuel_normed="31.269628" electricity_normed="0"
            traveltime="0.03" CO_perVeh="0.265660" CO2_perVeh="18.740916" HC_perVeh="0.001640" PMx_perVeh="0.000278" NOx_perVeh="0.007340" fuel_perVeh="0.008056" electricity_perVeh="0"/>
        <edge id=":1110673464_0" sampledSeconds="323.99" CO_abs="814.954657" CO2_abs="62985.988458" HC_abs="5.146740" PMx_abs="0.852098" NOx_abs="24.051994" fuel_abs="27.075251" electricity_abs="0"
            CO_normed="43.377622" CO2_normed="3352.557536" HC_normed="0.273946" PMx_normed="0.045355" NOx_normed="1.280216" fuel_normed="1.441135" electricity_normed="0"
            traveltime="1.17" CO_perVeh="2.945954" CO2_perVeh="227.686038" HC_perVeh="0.018605" PMx_perVeh="0.003080" NOx_perVeh="0.086945" fuel_perVeh="0.097873" electricity_perVeh="0"/>
        <edge id=":1110673464_1" sampledSeconds="709.82" CO_abs="16235.063039" CO2_abs="2084130.794269" HC_abs="123.965792" PMx_abs="36.983236" NOx_abs="781.964567" fuel_abs="895.872211" electricity_abs="0"
            CO_normed="846.753471" CO2_normed="108699.607808" HC_normed="6.465541" PMx_normed="1.928892" NOx_normed="40.784025" fuel_normed="46.724974" electricity_normed="0"
            traveltime="0.70" CO_perVeh="16.023915" CO2_perVeh="2057.025242" HC_perVeh="0.122354" PMx_perVeh="0.036502" NOx_perVeh="0.771795" fuel_perVeh="0.884221" electricity_perVeh="0"/>
        <edge id=":1110673479_0" sampledSeconds="133.43" CO_abs="6720.171994" CO2_abs="462966.293273" HC_abs="41.501264" PMx_abs="8.236885" NOx_abs="190.238491" fuel_abs="199.008916" electricity_abs="0"
            CO_normed="16835.503952" CO2_normed="1159832.049954" HC_normed="103.969764" PMx_normed="20.635203" NOx_normed="476.589121" fuel_normed="498.560958" electricity_normed="0"
            traveltime="0.03" CO_perVeh="1.415674" CO2_perVeh="97.528641" HC_perVeh="0.008743" PMx_perVeh="0.001735" NOx_perVeh="0.040076" fuel_perVeh="0.041923" electricity_perVeh="0"/>
        <edge id=":1110673511_0" sampledSeconds="11.63" CO_abs="162.610376" CO2_abs="19966.106320" HC_abs="1.199197" PMx_abs="0.270744" NOx_abs="7.448333" fuel_abs="8.582596" electricity_abs="0"
            CO_normed="407.374638" CO2_normed="50019.473036" HC_normed="3.004250" PMx_normed="0.678274" NOx_normed="18.659708" fuel_normed="21.501283" electricity_normed="0"
            traveltime="0.02" CO_perVeh="0.322001" CO2_perVeh="39.536844" HC_perVeh="0.002375" PMx_perVeh="0.000536" NOx_perVeh="0.014749" fuel_perVeh="0.016995" electricity_perVeh="0"/>
        <edge id=":1110673517_0" sampledSeconds="16.92" CO_abs="877.424319" CO2_abs="62464.212778" HC_abs="5.463714" PMx_abs="1.089671" NOx_abs="25.477645" fuel_abs="26.850640" electricity_abs="0"
            CO_normed="2198.140257" CO2_normed="156486.545582" HC_normed="13.687801" PMx_normed="2.729865" NOx_normed="63.827085" fuel_normed="67.266740" electricity_normed="0"
            traveltime="0.03" CO_perVeh="1.408763" CO2_perVeh="100.290414" HC_perVeh="0.008772" PMx_perVeh="0.001750" NOx_perVeh="0.040906" fuel_perVeh="0.043110" electricity_perVeh="0"/>
        <edge id=":1110673534_0" sampledSeconds="477.11" CO_abs="2152.468560" CO2_abs="193490.962234" HC_abs="14.202612" PMx_abs="2.475900" NOx_abs="72.502500" fuel_abs="83.174278" electricity_abs="0"
            CO_normed="104.503984" CO2_normed="9394.133235" HC_normed="0.689548" PMx_normed="0.120207" NOx_normed="3.520051" fuel_normed="4.038174" electricity_normed="0"
            traveltime="1.44" CO_perVeh="6.484525" CO2_perVeh="582.910719" HC_perVeh="0.042787" PMx_perVeh="0.007459" NOx_perVeh="0.218421" fuel_perVeh="0.250571" electricity_perVeh="0"/>
        <edge id=":1110673534_1" sampledSeconds="184.43" CO_abs="3117.206620" CO2_abs="384344.988753" HC_abs="23.002169" PMx_abs="5.213384" NOx_abs="143.351808" fuel_abs="165.213852" electricity_abs="0"
            CO_normed="147.159910" CO2_normed="18144.505926" HC_normed="1.085907" PMx_normed="0.246118" NOx_normed="6.767482" fuel_normed="7.799565" electricity_normed="0"
            traveltime="1.22" CO_perVeh="20.697133" CO2_perVeh="2551.912742" HC_perVeh="0.152726" PMx_perVeh="0.034615" NOx_perVeh="0.951805" fuel_perVeh="1.096961" electricity_perVeh="0"/>
        <edge id=":1110673549_0" sampledSeconds="59.10" CO_abs="55.608361" CO2_abs="15191.576068" HC_abs="0.572915" PMx_abs="0.150602" NOx_abs="5.173329" fuel_abs="6.530261" electricity_abs="0"
            CO_normed="2.615353" CO2_normed="714.484884" HC_normed="0.026945" PMx_normed="0.007083" NOx_normed="0.243310" fuel_normed="0.307129" electricity_normed="0"
            traveltime="1.23" CO_perVeh="1.158553" CO2_perVeh="316.503547" HC_perVeh="0.011936" PMx_perVeh="0.003138" NOx_perVeh="0.107782" fuel_perVeh="0.136052" electricity_perVeh="0"/>
        <edge id=":1110673549_1" sampledSeconds="638.09" CO_abs="14087.586016" CO2_abs="1865833.036322" HC_abs="108.667278" PMx_abs="32.791905" NOx_abs="695.971223" fuel_abs="802.036285" electricity_abs="0"
            CO_normed="640.904801" CO2_normed="84884.759547" HC_normed="4.943741" PMx_normed="1.491845" NOx_normed="31.662720" fuel_normed="36.488076" electricity_normed="0"
            traveltime="0.80" CO_perVeh="17.735219" CO2_perVeh="2348.944472" HC_perVeh="0.136804" PMx_perVeh="0.041283" NOx_perVeh="0.876176" fuel_perVeh="1.009704" electricity_perVeh="0"/>
        <edge id=":1110673556_0" sampledSeconds="419.86" CO_abs="51115.418561" CO2_abs="2557229.258929" HC_abs="293.517850" PMx_abs="51.428554" NOx_abs="1100.347927" fuel_abs="1099.242508" electricity_abs="0"
            CO_normed="1782.672784" CO2_normed="89184.499146" HC_normed="10.236565" PMx_normed="1.793594" NOx_normed="38.375120" fuel_normed="38.336568" electricity_normed="0"
            traveltime="2.61" CO_perVeh="317.299594" CO2_perVeh="15874.032299" HC_perVeh="1.822016" PMx_perVeh="0.319243" NOx_perVeh="6.830423" fuel_perVeh="6.823561" electricity_perVeh="0"/>
        <edge id=":1110673556_2" sampledSeconds="245.28" CO_abs="23354.952301" CO2_abs="1018598.431787" HC_abs="130.233791" PMx_abs="19.430795" NOx_abs="432.899899" fuel_abs="437.855536" electricity_abs="0"
            CO_normed="851.663393" CO2_normed="37144.284646" HC_normed="4.749115" PMx_normed="0.708565" NOx_normed="15.786159" fuel_normed="15.966872" electricity_normed="0"
            traveltime="2.98" CO_perVeh="283.291096" CO2_perVeh="12355.403785" HC_perVeh="1.579711" PMx_perVeh="0.235692" NOx_perVeh="5.250993" fuel_perVeh="5.311104" electricity_perVeh="0"/>
        <edge id=":1110673556_3" sampledSeconds="416.69" CO_abs="35363.212315" CO2_abs="1242561.453259" HC_abs="189.917111" PMx_abs="23.649747" NOx_abs="529.581391" fuel_abs="534.134231" electricity_abs="0"
            CO_normed="2933.529758" CO2_normed="103075.788682" HC_normed="15.754437" PMx_normed="1.961848" NOx_normed="43.931042" fuel_normed="44.308720" electricity_normed="0"
            traveltime="1.76" CO_perVeh="149.676814" CO2_perVeh="5259.212243" HC_perVeh="0.803835" PMx_perVeh="0.100099" NOx_perVeh="2.241483" fuel_perVeh="2.260754" electricity_perVeh="0"/>
        <edge id=":1110673556_4" sampledSeconds="201.04" CO_abs="20439.832594" CO2_abs="823491.154587" HC_abs="112.392159" PMx_abs="16.043237" NOx_abs="352.737496" fuel_abs="353.987327" electricity_abs="0"
            CO_normed="1035.865028" CO2_normed="41733.496770" HC_normed="5.695893" PMx_normed="0.813051" NOx_normed="17.876293" fuel_normed="17.939633" electricity_normed="0"
            traveltime="2.38" CO_perVeh="241.894405" CO2_perVeh="9745.574105" HC_perVeh="1.330101" PMx_perVeh="0.189863" NOx_perVeh="4.174458" fuel_perVeh="4.189249" electricity_perVeh="0"/>
        <edge id=":1110673556_5" sampledSeconds="24.15" CO_abs="1705.765214" CO2_abs="69908.969141" HC_abs="9.404503" PMx_abs="1.343048" NOx_abs="29.825373" fuel_abs="30.051193" electricity_abs="0"
            CO_normed="120.488227" CO2_normed="4938.081547" HC_normed="0.664295" PMx_normed="0.094867" NOx_normed="2.106741" fuel_normed="2.122692" electricity_normed="0"
            traveltime="1.67" CO_perVeh="117.929447" CO2_perVeh="4833.212681" HC_perVeh="0.650188" PMx_perVeh="0.092853" NOx_perVeh="2.062001" fuel_perVeh="2.077613" electricity_perVeh="0"/>
        <edge id=":1110673556_6" sampledSeconds="315.18" CO_abs="38144.169568" CO2_abs="1917197.730682" HC_abs="219.291844" PMx_abs="38.736565" NOx_abs="825.672632" fuel_abs="824.120192" electricity_abs="0"
            CO_normed="1363.836911" CO2_normed="68549.009199" HC_normed="7.840735" PMx_normed="1.385018" NOx_normed="29.521755" fuel_normed="29.466247" electricity_normed="0"
            traveltime="2.50" CO_perVeh="302.071139" CO2_perVeh="15182.663780" HC_perVeh="1.736615" PMx_perVeh="0.306762" NOx_perVeh="6.538663" fuel_perVeh="6.526369" electricity_perVeh="0"/>
        <edge id=":1110673561_0" sampledSeconds="102.63" CO_abs="9223.853326" CO2_abs="669864.871978" HC_abs="58.077836" PMx_abs="13.427694" NOx_abs="282.323974" fuel_abs="287.943083" electricity_abs="0"
            CO_normed="414.365353" CO2_normed="30092.498682" HC_normed="2.609044" PMx_normed="0.603215" NOx_normed="12.682907" fuel_normed="12.935335" electricity_normed="0"
            traveltime="1.21" CO_perVeh="108.850422" CO2_perVeh="7905.055660" HC_perVeh="0.685375" PMx_perVeh="0.158460" NOx_perVeh="3.331697" fuel_perVeh="3.398008" electricity_perVeh="0"/>
        <edge id=":1110673561_1" sampledSeconds="1315.80" CO_abs="120457.102866" CO2_abs="8366072.040101" HC_abs="750.849516" PMx_abs="174.601956" NOx_abs="3574.811944" fuel_abs="3596.170497" electricity_abs="0"
            CO_normed="5275.724610" CO2_normed="366413.362925" HC_normed="32.885361" PMx_normed="7.647136" NOx_normed="156.567964" fuel_normed="157.503416" electricity_normed="0"
            traveltime="1.19" CO_perVeh="109.267339" CO2_perVeh="7588.912646" HC_perVeh="0.681100" PMx_perVeh="0.158382" NOx_perVeh="3.242733" fuel_perVeh="3.262107" electricity_perVeh="0"/>
        <edge id=":1110673562_0" sampledSeconds="104.21" CO_abs="2143.051499" CO2_abs="171657.253216" HC_abs="13.669940" PMx_abs="2.294604" NOx_abs="65.268450" fuel_abs="73.788828" electricity_abs="0"
            CO_normed="5965.348639" CO2_normed="477821.164135" HC_normed="38.051329" PMx_normed="6.387205" NOx_normed="181.679751" fuel_normed="205.396878" electricity_normed="0"
            traveltime="0.03" CO_perVeh="0.546276" CO2_perVeh="43.756391" HC_perVeh="0.003485" PMx_perVeh="0.000585" NOx_perVeh="0.016637" fuel_perVeh="0.018809" electricity_perVeh="0"/>
        <edge id=":1110673564_0" sampledSeconds="28.93" CO_abs="513.806252" CO2_abs="62043.419441" HC_abs="3.756604" PMx_abs="0.827000" NOx_abs="23.093266" fuel_abs="26.669900" electricity_abs="0"
            CO_normed="3861.591871" CO2_normed="466297.098097" HC_normed="28.233347" PMx_normed="6.215452" NOx_normed="173.561078" fuel_normed="200.441837" electricity_normed="0"
            traveltime="7.953628e-03" CO_perVeh="0.141253" CO2_perVeh="17.056610" HC_perVeh="0.001033" PMx_perVeh="0.000227" NOx_perVeh="0.006349" fuel_perVeh="0.007332" electricity_perVeh="0"/>
        <edge id=":1110673588_0" sampledSeconds="11.58" CO_abs="161.906053" CO2_abs="18258.905830" HC_abs="1.160102" PMx_abs="0.258588" NOx_abs="6.906821" fuel_abs="7.848734" electricity_abs="0"
            CO_normed="486.732185" CO2_normed="54891.073895" HC_normed="3.487571" PMx_normed="0.777383" NOx_normed="20.763722" fuel_normed="23.595358" electricity_normed="0"
            traveltime="0.02" CO_perVeh="0.269853" CO2_perVeh="30.432539" HC_perVeh="0.001934" PMx_perVeh="0.000431" NOx_perVeh="0.011512" fuel_perVeh="0.013082" electricity_perVeh="0"/>
        <edge id=":1110673601_0" sampledSeconds="29.87" CO_abs="377.924847" CO2_abs="49661.011626" HC_abs="2.852717" PMx_abs="0.627883" NOx_abs="18.216648" fuel_abs="21.347244" electricity_abs="0"
            CO_normed="1014.412055" CO2_normed="133298.271588" HC_normed="7.657159" PMx_normed="1.685342" NOx_normed="48.896460" fuel_normed="57.299492" electricity_normed="0"
            traveltime="0.02" CO_perVeh="0.280501" CO2_perVeh="36.859068" HC_perVeh="0.002117" PMx_perVeh="0.000466" NOx_perVeh="0.013521" fuel_perVeh="0.015844" electricity_perVeh="0"/>
        <edge id=":1110673617_0" sampledSeconds="238.42" CO_abs="5678.509724" CO2_abs="707900.621225" HC_abs="42.786124" PMx_abs="12.643042" NOx_abs="266.838315" fuel_abs="304.293929" electricity_abs="0"
            CO_normed="14225.911626" CO2_normed="1773446.232715" HC_normed="107.188619" PMx_normed="31.673592" NOx_normed="668.488472" fuel_normed="762.322995" electricity_normed="0"
            traveltime="0.01" CO_perVeh="0.347998" CO2_perVeh="43.382559" HC_perVeh="0.002622" PMx_perVeh="0.000775" NOx_perVeh="0.016353" fuel_perVeh="0.018648" electricity_perVeh="0"/>
        <edge id=":1110673621_0" sampledSeconds="25.83" CO_abs="550.012275" CO2_abs="57523.491457" HC_abs="3.828546" PMx_abs="0.837594" NOx_abs="21.964555" fuel_abs="24.726915" electricity_abs="0"
            CO_normed="1653.481577" CO2_normed="172930.746760" HC_normed="11.509618" PMx_normed="2.518027" NOx_normed="66.031229" fuel_normed="74.335610" electricity_normed="0"
            traveltime="0.02" CO_perVeh="0.416676" CO2_perVeh="43.578403" HC_perVeh="0.002900" PMx_perVeh="0.000635" NOx_perVeh="0.016640" fuel_perVeh="0.018733" electricity_perVeh="0"/>
        <edge id=":1110673630_0" sampledSeconds="54.12" CO_abs="299.326014" CO2_abs="27612.681024" HC_abs="2.004158" PMx_abs="0.416072" NOx_abs="10.704072" fuel_abs="11.869526" electricity_abs="0"
            CO_normed="16.045876" CO2_normed="1480.224369" HC_normed="0.107436" PMx_normed="0.022304" NOx_normed="0.573810" fuel_normed="0.636286" electricity_normed="0"
            traveltime="1.26" CO_perVeh="6.986799" CO2_perVeh="644.528816" HC_perVeh="0.046781" PMx_perVeh="0.009712" NOx_perVeh="0.249852" fuel_perVeh="0.277056" electricity_perVeh="0"/>
        <edge id=":1110673630_1" sampledSeconds="7.36" CO_abs="43.565036" CO2_abs="3543.703166" HC_abs="0.279547" PMx_abs="0.049480" NOx_abs="1.361567" fuel_abs="1.523297" electricity_abs="0"
            CO_normed="2.847130" CO2_normed="231.593563" HC_normed="0.018269" PMx_normed="0.003234" NOx_normed="0.088983" fuel_normed="0.099553" electricity_normed="0"
            traveltime="1.04" CO_perVeh="6.166128" CO2_perVeh="501.570294" HC_perVeh="0.039567" PMx_perVeh="0.007003" NOx_perVeh="0.192714" fuel_perVeh="0.215605" electricity_perVeh="0"/>
        <edge id=":1110673650_0" sampledSeconds="143.66" CO_abs="2089.243979" CO2_abs="258599.464286" HC_abs="15.420885" PMx_abs="3.581182" NOx_abs="96.839437" fuel_abs="111.160988" electricity_abs="0"
            CO_normed="5234.014144" CO2_normed="647848.344767" HC_normed="38.632697" PMx_normed="8.971646" NOx_normed="242.604017" fuel_normed="278.482643" electricity_normed="0"
            traveltime="0.02" CO_perVeh="0.335503" CO2_perVeh="41.527376" HC_perVeh="0.002476" PMx_perVeh="0.000575" NOx_perVeh="0.015551" fuel_perVeh="0.017851" electricity_perVeh="0"/>
        <edge id=":1110673655_0" sampledSeconds="45.11" CO_abs="784.395443" CO2_abs="88051.009557" HC_abs="5.595115" PMx_abs="1.223552" NOx_abs="33.179281" fuel_abs="37.849451" electricity_abs="0"
            CO_normed="1965.082529" CO2_normed="220587.080309" HC_normed="14.016991" PMx_normed="3.065266" NOx_normed="83.121372" fuel_normed="94.821171" electricity_normed="0"
            traveltime="0.02" CO_perVeh="0.419800" CO2_perVeh="47.123901" HC_perVeh="0.002994" PMx_perVeh="0.000655" NOx_perVeh="0.017757" fuel_perVeh="0.020257" electricity_perVeh="0"/>
        <edge id=":1110673663_0" sampledSeconds="109.08" CO_abs="1786.592748" CO2_abs="212224.030794" HC_abs="12.986658" PMx_abs="2.921074" NOx_abs="79.534513" fuel_abs="91.226221" electricity_abs="0"
            CO_normed="81.974477" CO2_normed="9737.503994" HC_normed="0.595869" PMx_normed="0.134028" NOx_normed="3.649293" fuel_normed="4.185745" electricity_normed="0"
            traveltime="1.28" CO_perVeh="20.984375" CO2_perVeh="2492.671359" HC_perVeh="0.152534" PMx_perVeh="0.034309" NOx_perVeh="0.934170" fuel_perVeh="1.071495" electricity_perVeh="0"/>
        <edge id=":1110673663_1" sampledSeconds="154.73" CO_abs="2633.941326" CO2_abs="313516.743780" HC_abs="19.243862" PMx_abs="4.471140" NOx_abs="118.281666" fuel_abs="134.767505" electricity_abs="0"
            CO_normed="121.001230" CO2_normed="14402.717020" HC_normed="0.884048" PMx_normed="0.205401" NOx_normed="5.433768" fuel_normed="6.191115" electricity_normed="0"
            traveltime="1.25" CO_perVeh="21.318846" CO2_perVeh="2537.571819" HC_perVeh="0.155758" PMx_perVeh="0.036189" NOx_perVeh="0.957359" fuel_perVeh="1.090794" electricity_perVeh="0"/>
        <edge id=":1110673666_0" sampledSeconds="191.98" CO_abs="4453.258812" CO2_abs="347682.576958" HC_abs="28.218446" PMx_abs="4.766609" NOx_abs="133.099478" fuel_abs="149.455222" electricity_abs="0"