<?xml version="1.0" encoding="UTF-8"?>

<!-- generated on Mon Nov  9 21:56:35 2020 by Eclipse SUMO sumo Version 1.7.0
<configuration xmlns:xsi="http://www.w3.org/2001/XMLSchema-instance" xsi:noNamespaceSchemaLocation="http://sumo.dlr.de/xsd/sumoConfiguration.xsd">

    <input>
        <net-file value="../dataSets/Porto/6AM7AM_Routing_SaoBento/Porto.net.xml"/>
        <route-files value="../results/Porto/6AM7AM_Routing_SaoBento/cost_PMx-ttime/solution6/Porto.rou.xml"/>
        <additional-files value="moreOutputInfo.xml"/>
    </input>

    <output>
        <emission-output.precision value="6"/>
        <tripinfo-output value="../results/Porto/6AM7AM_Routing_SaoBento/cost_PMx-ttime/solution6/Porto-tripinfo"/>
    </output>

    <processing>
        <collision.action value="warn"/>
        <time-to-teleport value="-1"/>
    </processing>

    <emissions>
        <device.emissions.probability value="1"/>
    </emissions>

    <gui_only>
        <quit-on-end value="true"/>
        <start value="true"/>
    </gui_only>

</configuration>
-->

<meandata xmlns:xsi="http://www.w3.org/2001/XMLSchema-instance" xsi:noNamespaceSchemaLocation="http://sumo.dlr.de/xsd/meandata_file.xsd">
    <interval begin="0.00" end="4790.00" id="emissions-detector">
        <edge id=":1092997347_0" sampledSeconds="325.12" CO_abs="41546.456302" CO2_abs="1690250.257508" HC_abs="229.159474" PMx_abs="34.503595" NOx_abs="733.672533" fuel_abs="726.571187" electricity_abs="0"
            CO_normed="70965.668384" CO2_normed="2887123.233549" HC_normed="391.428216" PMx_normed="58.935728" NOx_normed="1253.188991" fuel_normed="1241.059155" electricity_normed="0"
            traveltime="0.07" CO_perVeh="9.269125" CO2_perVeh="377.099312" HC_perVeh="0.051126" PMx_perVeh="0.007698" NOx_perVeh="0.163684" fuel_perVeh="0.162100" electricity_perVeh="0"/>
        <edge id=":1103427051_0" sampledSeconds="11.23" CO_abs="825.690262" CO2_abs="45424.987349" HC_abs="4.835295" PMx_abs="0.880657" NOx_abs="19.335189" fuel_abs="19.526222" electricity_abs="0"
            CO_normed="2139.863901" CO2_normed="117723.673209" HC_normed="12.531180" PMx_normed="2.282316" NOx_normed="50.109193" fuel_normed="50.604274" electricity_normed="0"
            traveltime="0.03" CO_perVeh="2.262379" CO2_perVeh="124.463779" HC_perVeh="0.013249" PMx_perVeh="0.002413" NOx_perVeh="0.052978" fuel_perVeh="0.053502" electricity_perVeh="0"/>
        <edge id=":1105984386_0" sampledSeconds="76.99" CO_abs="1430.393904" CO2_abs="119377.520348" HC_abs="9.222691" PMx_abs="1.524802" NOx_abs="44.874705" fuel_abs="51.315852" electricity_abs="0"
            CO_normed="110.714221" CO2_normed="9239.964680" HC_normed="0.713847" PMx_normed="0.118021" NOx_normed="3.473356" fuel_normed="3.971909" electricity_normed="0"
            traveltime="0.96" CO_perVeh="17.787415" CO2_perVeh="1484.498390" HC_perVeh="0.114687" PMx_perVeh="0.018961" NOx_perVeh="0.558032" fuel_perVeh="0.638129" electricity_perVeh="0"/>
        <edge id=":1105984390_0" sampledSeconds="78.13" CO_abs="85.211560" CO2_abs="6188.048402" HC_abs="0.525220" PMx_abs="0.065125" NOx_abs="2.250233" fuel_abs="2.660036" electricity_abs="0"
            CO_normed="5.098893" CO2_normed="370.280678" HC_normed="0.031428" PMx_normed="0.003897" NOx_normed="0.134650" fuel_normed="0.159171" electricity_normed="0"
            traveltime="1.05" CO_perVeh="1.144978" CO2_perVeh="83.148135" HC_perVeh="0.007057" PMx_perVeh="0.000875" NOx_perVeh="0.030236" fuel_perVeh="0.035743" electricity_perVeh="0"/>
        <edge id=":1105984390_1" sampledSeconds="646.95" CO_abs="13247.745512" CO2_abs="1820084.255130" HC_abs="103.680734" PMx_abs="31.683935" NOx_abs="674.872606" fuel_abs="782.371223" electricity_abs="0"
            CO_normed="758.305556" CO2_normed="104182.255150" HC_normed="5.934721" PMx_normed="1.813599" NOx_normed="38.629942" fuel_normed="44.783201" electricity_normed="0"
            traveltime="0.64" CO_perVeh="13.033389" CO2_perVeh="1790.634173" HC_perVeh="0.102003" PMx_perVeh="0.031171" NOx_perVeh="0.663953" fuel_perVeh="0.769712" electricity_perVeh="0"/>
        <edge id=":1105984395_0" sampledSeconds="29.76" CO_abs="621.391272" CO2_abs="50930.200140" HC_abs="3.989391" PMx_abs="0.674236" NOx_abs="19.315321" fuel_abs="21.892926" electricity_abs="0"
            CO_normed="507.626527" CO2_normed="41605.863780" HC_normed="3.259011" PMx_normed="0.550797" NOx_normed="15.779059" fuel_normed="17.884754" electricity_normed="0"
            traveltime="0.09" CO_perVeh="1.867137" CO2_perVeh="153.033458" HC_perVeh="0.011987" PMx_perVeh="0.002026" NOx_perVeh="0.058038" fuel_perVeh="0.065783" electricity_perVeh="0"/>
        <edge id=":1105984398_0" sampledSeconds="79.52" CO_abs="5006.092762" CO2_abs="353397.136730" HC_abs="31.119810" PMx_abs="6.269305" NOx_abs="144.928315" fuel_abs="151.909878" electricity_abs="0"
            CO_normed="311.199993" CO2_normed="21968.667358" HC_normed="1.934540" PMx_normed="0.389727" NOx_normed="9.009360" fuel_normed="9.443363" electricity_normed="0"
            traveltime="1.10" CO_perVeh="69.033598" CO2_perVeh="4873.316750" HC_perVeh="0.429140" PMx_perVeh="0.086453" NOx_perVeh="1.998549" fuel_perVeh="2.094824" electricity_perVeh="0"/>
        <edge id=":1105984398_1" sampledSeconds="453.67" CO_abs="7960.083833" CO2_abs="945086.212563" HC_abs="57.994330" PMx_abs="13.303331" NOx_abs="355.912914" fuel_abs="406.252560" electricity_abs="0"
            CO_normed="478.985306" CO2_normed="56869.050401" HC_normed="3.489716" PMx_normed="0.800507" NOx_normed="21.416490" fuel_normed="24.445598" electricity_normed="0"
            traveltime="0.96" CO_perVeh="16.765234" CO2_perVeh="1990.505596" HC_perVeh="0.122146" PMx_perVeh="0.028019" NOx_perVeh="0.749611" fuel_perVeh="0.855634" electricity_perVeh="0"/>
        <edge id=":1106006327_0" sampledSeconds="39.08" CO_abs="5261.230677" CO2_abs="169044.909831" HC_abs="27.933687" PMx_abs="3.524598" NOx_abs="73.983369" fuel_abs="72.666486" electricity_abs="0"
            CO_normed="446.293549" CO2_normed="14339.544748" HC_normed="2.369526" PMx_normed="0.298980" NOx_normed="6.275775" fuel_normed="6.164068" electricity_normed="0"
            traveltime="2.12" CO_perVeh="285.418221" CO2_perVeh="9170.572502" HC_perVeh="1.515384" PMx_perVeh="0.191207" NOx_perVeh="4.013548" fuel_perVeh="3.942108" electricity_perVeh="0"/>
        <edge id=":1106006327_1" sampledSeconds="163.66" CO_abs="22020.779003" CO2_abs="727436.827803" HC_abs="117.400301" PMx_abs="15.148451" NOx_abs="318.189900" fuel_abs="312.699119" electricity_abs="0"
            CO_normed="1628.943263" CO2_normed="53810.690334" HC_normed="8.684453" PMx_normed="1.120577" NOx_normed="23.537464" fuel_normed="23.131294" electricity_normed="0"
            traveltime="2.32" CO_perVeh="312.613339" CO2_perVeh="10326.903323" HC_perVeh="1.666649" PMx_perVeh="0.215052" NOx_perVeh="4.517116" fuel_perVeh="4.439167" electricity_perVeh="0"/>
        <edge id=":1106006327_2" sampledSeconds="0.00" CO_abs="0" CO2_abs="0" HC_abs="0" PMx_abs="0" NOx_abs="0" fuel_abs="0" electricity_abs="0"
            CO_normed="0" CO2_normed="0" HC_normed="0" PMx_normed="0" NOx_normed="0" fuel_normed="0" electricity_normed="0"/>
        <edge id=":1106006327_3" sampledSeconds="0.00" CO_abs="0" CO2_abs="0" HC_abs="0" PMx_abs="0" NOx_abs="0" fuel_abs="0" electricity_abs="0"
            CO_normed="0" CO2_normed="0" HC_normed="0" PMx_normed="0" NOx_normed="0" fuel_normed="0" electricity_normed="0"/>
        <edge id=":1107381198_0" sampledSeconds="0.00" CO_abs="0" CO2_abs="0" HC_abs="0" PMx_abs="0" NOx_abs="0" fuel_abs="0" electricity_abs="0"
            CO_normed="0" CO2_normed="0" HC_normed="0" PMx_normed="0" NOx_normed="0" fuel_normed="0" electricity_normed="0"/>
        <edge id=":1107381198_1" sampledSeconds="35.08" CO_abs="1259.975786" CO2_abs="54753.626173" HC_abs="7.010221" PMx_abs="0.990287" NOx_abs="22.953191" fuel_abs="23.536521" electricity_abs="0"
            CO_normed="103.266593" CO2_normed="4487.562789" HC_normed="0.574552" PMx_normed="0.081163" NOx_normed="1.881225" fuel_normed="1.929034" electricity_normed="0"
            traveltime="1.44" CO_perVeh="51.876697" CO2_perVeh="2254.358621" HC_perVeh="0.288630" PMx_perVeh="0.040773" NOx_perVeh="0.945047" fuel_perVeh="0.969064" electricity_perVeh="0"/>
        <edge id=":1110338277_0" sampledSeconds="96.13" CO_abs="1282.310810" CO2_abs="165953.876541" HC_abs="9.599176" PMx_abs="2.156558" NOx_abs="61.236470" fuel_abs="71.336728" electricity_abs="0"
            CO_normed="3441.931788" CO2_normed="445447.327430" HC_normed="25.765758" PMx_normed="5.788553" NOx_normed="164.368695" fuel_normed="191.479436" electricity_normed="0"
            traveltime="0.02" CO_perVeh="0.290986" CO2_perVeh="37.658832" HC_perVeh="0.002178" PMx_perVeh="0.000489" NOx_perVeh="0.013896" fuel_perVeh="0.016188" electricity_perVeh="0"/>
        <edge id=":1110338293_0" sampledSeconds="124.22" CO_abs="5931.554558" CO2_abs="410887.505292" HC_abs="36.660102" PMx_abs="7.174166" NOx_abs="167.923523" fuel_abs="176.622711" electricity_abs="0"
            CO_normed="14859.844404" CO2_normed="1029363.270042" HC_normed="91.841591" PMx_normed="17.972858" NOx_normed="420.685236" fuel_normed="442.478609" electricity_normed="0"
            traveltime="0.03" CO_perVeh="1.360500" CO2_perVeh="94.243856" HC_perVeh="0.008409" PMx_perVeh="0.001646" NOx_perVeh="0.038516" fuel_perVeh="0.040511" electricity_perVeh="0"/>
        <edge id=":1110338295_0" sampledSeconds="0.00" CO_abs="0" CO2_abs="0" HC_abs="0" PMx_abs="0" NOx_abs="0" fuel_abs="0" electricity_abs="0"
            CO_normed="0" CO2_normed="0" HC_normed="0" PMx_normed="0" NOx_normed="0" fuel_normed="0" electricity_normed="0"/>
        <edge id=":1110673403_0" sampledSeconds="158.48" CO_abs="2793.975688" CO2_abs="337654.857701" HC_abs="20.417777" PMx_abs="4.710634" NOx_abs="126.787341" fuel_abs="145.143550" electricity_abs="0"
            CO_normed="6999.521557" CO2_normed="845899.434742" HC_normed="51.151006" PMx_normed="11.801171" NOx_normed="317.630083" fuel_normed="363.616410" electricity_normed="0"
            traveltime="0.02" CO_perVeh="0.406811" CO2_perVeh="49.163491" HC_perVeh="0.002973" PMx_perVeh="0.000686" NOx_perVeh="0.018461" fuel_perVeh="0.021133" electricity_perVeh="0"/>
        <edge id=":1110673412_0" sampledSeconds="252.57" CO_abs="45120.127176" CO2_abs="3079366.303781" HC_abs="280.815741" PMx_abs="67.659580" NOx_abs="1323.287334" fuel_abs="1323.667915" electricity_abs="0"
            CO_normed="116933.595734" CO2_normed="7980504.422728" HC_normed="727.763780" PMx_normed="175.346978" NOx_normed="3429.439494" fuel_normed="3430.425810" electricity_normed="0"
            traveltime="0.02" CO_perVeh="2.775169" CO2_perVeh="189.400198" HC_perVeh="0.017272" PMx_perVeh="0.004161" NOx_perVeh="0.081390" fuel_perVeh="0.081414" electricity_perVeh="0"/>
        <edge id=":1110673414_0" sampledSeconds="0.00" CO_abs="0" CO2_abs="0" HC_abs="0" PMx_abs="0" NOx_abs="0" fuel_abs="0" electricity_abs="0"
            CO_normed="0" CO2_normed="0" HC_normed="0" PMx_normed="0" NOx_normed="0" fuel_normed="0" electricity_normed="0"/>
        <edge id=":1110673414_1" sampledSeconds="319.24" CO_abs="22065.543543" CO2_abs="856691.438002" HC_abs="120.395632" PMx_abs="15.923736" NOx_abs="362.385580" fuel_abs="368.260675" electricity_abs="0"
            CO_normed="1836.512408" CO2_normed="71302.320421" HC_normed="10.020513" PMx_normed="1.325331" NOx_normed="30.161306" fuel_normed="30.650290" electricity_normed="0"
            traveltime="1.57" CO_perVeh="108.718433" CO2_perVeh="4220.976963" HC_perVeh="0.593197" PMx_perVeh="0.078457" NOx_perVeh="1.785498" fuel_perVeh="1.814445" electricity_perVeh="0"/>
        <edge id=":1110673417_0" sampledSeconds="29.59" CO_abs="511.145350" CO2_abs="59613.226597" HC_abs="3.702097" PMx_abs="0.839632" NOx_abs="22.477908" fuel_abs="25.625208" electricity_abs="0"
            CO_normed="1371.997659" CO2_normed="160011.643118" HC_normed="9.937034" PMx_normed="2.253708" NOx_normed="60.334378" fuel_normed="68.782246" electricity_normed="0"
            traveltime="0.02" CO_perVeh="0.379379" CO2_perVeh="44.245735" HC_perVeh="0.002748" PMx_perVeh="0.000623" NOx_perVeh="0.016683" fuel_perVeh="0.019019" electricity_perVeh="0"/>
        <edge id=":1110673446_0" sampledSeconds="333.78" CO_abs="3398.272251" CO2_abs="280639.085865" HC_abs="22.092197" PMx_abs="5.110942" NOx_abs="114.394219" fuel_abs="120.633848" electricity_abs="0"
            CO_normed="8513.416913" CO2_normed="703062.428054" HC_normed="55.345796" PMx_normed="12.804031" NOx_normed="286.582595" fuel_normed="302.214233" electricity_normed="0"
            traveltime="0.02" CO_perVeh="0.231778" CO2_perVeh="19.140889" HC_perVeh="0.001507" PMx_perVeh="0.000349" NOx_perVeh="0.007802" fuel_perVeh="0.008228" electricity_perVeh="0"/>
        <edge id=":1110673451_0" sampledSeconds="37.20" CO_abs="390.793579" CO2_abs="30331.442581" HC_abs="2.473805" PMx_abs="0.424899" NOx_abs="11.674994" fuel_abs="13.038296" electricity_abs="0"
            CO_normed="1087.803978" CO2_normed="84429.902801" HC_normed="6.886028" PMx_normed="1.182738" NOx_normed="32.498245" fuel_normed="36.293098" electricity_normed="0"
            traveltime="0.03" CO_perVeh="0.280256" CO2_perVeh="21.752076" HC_perVeh="0.001774" PMx_perVeh="0.000305" NOx_perVeh="0.008373" fuel_perVeh="0.009350" electricity_perVeh="0"/>
        <edge id=":1110673464_0" sampledSeconds="323.11" CO_abs="509.008153" CO2_abs="39503.342359" HC_abs="3.220520" PMx_abs="0.543992" NOx_abs="15.126075" fuel_abs="16.980951" electricity_abs="0"
            CO_normed="27.092996" CO2_normed="2102.645864" HC_normed="0.171419" PMx_normed="0.028955" NOx_normed="0.805116" fuel_normed="0.903846" electricity_normed="0"
            traveltime="1.17" CO_perVeh="1.839997" CO2_perVeh="142.799371" HC_perVeh="0.011642" PMx_perVeh="0.001966" NOx_perVeh="0.054679" fuel_perVeh="0.061384" electricity_perVeh="0"/>
        <edge id=":1110673464_1" sampledSeconds="745.77" CO_abs="17655.364815" CO2_abs="2253969.438806" HC_abs="134.159271" PMx_abs="39.951117" NOx_abs="846.296990" fuel_abs="968.878049" electricity_abs="0"
            CO_normed="920.830514" CO2_normed="117557.686246" HC_normed="6.997190" PMx_normed="2.083684" NOx_normed="44.139337" fuel_normed="50.532656" electricity_normed="0"
            traveltime="0.70" CO_perVeh="16.617263" CO2_perVeh="2121.440268" HC_perVeh="0.126271" PMx_perVeh="0.037602" NOx_perVeh="0.796536" fuel_perVeh="0.911910" electricity_perVeh="0"/>
        <edge id=":1110673479_0" sampledSeconds="133.27" CO_abs="7047.378374" CO2_abs="482354.211995" HC_abs="43.457143" PMx_abs="8.638809" NOx_abs="198.644696" fuel_abs="207.342877" electricity_abs="0"
            CO_normed="17655.227659" CO2_normed="1208403.036314" HC_normed="108.869669" PMx_normed="21.642111" NOx_normed="497.648508" fuel_normed="519.439358" electricity_normed="0"
            traveltime="0.03" CO_perVeh="1.484602" CO2_perVeh="101.612804" HC_perVeh="0.009155" PMx_perVeh="0.001820" NOx_perVeh="0.041847" fuel_perVeh="0.043679" electricity_perVeh="0"/>
        <edge id=":1110673511_0" sampledSeconds="11.73" CO_abs="130.435517" CO2_abs="19354.857618" HC_abs="1.028565" PMx_abs="0.241876" NOx_abs="7.042449" fuel_abs="8.319857" electricity_abs="0"
            CO_normed="326.769562" CO2_normed="48488.161046" HC_normed="2.576781" PMx_normed="0.605953" NOx_normed="17.642878" fuel_normed="20.843065" electricity_normed="0"
            traveltime="0.02" CO_perVeh="0.258288" CO2_perVeh="38.326451" HC_perVeh="0.002037" PMx_perVeh="0.000479" NOx_perVeh="0.013945" fuel_perVeh="0.016475" electricity_perVeh="0"/>
        <edge id=":1110673517_0" sampledSeconds="17.34" CO_abs="636.729908" CO2_abs="46934.444397" HC_abs="3.998098" PMx_abs="0.790346" NOx_abs="18.943920" fuel_abs="20.175096" electricity_abs="0"
            CO_normed="1595.147995" CO2_normed="117581.071559" HC_normed="10.016112" PMx_normed="1.979989" NOx_normed="47.458671" fuel_normed="50.543038" electricity_normed="0"
            traveltime="0.03" CO_perVeh="1.022312" CO2_perVeh="75.356346" HC_perVeh="0.006419" PMx_perVeh="0.001269" NOx_perVeh="0.030416" fuel_perVeh="0.032392" electricity_perVeh="0"/>
        <edge id=":1110673534_0" sampledSeconds="472.93" CO_abs="3030.560012" CO2_abs="273364.687322" HC_abs="20.035866" PMx_abs="3.586782" NOx_abs="102.971444" fuel_abs="117.508760" electricity_abs="0"
            CO_normed="147.135991" CO2_normed="13272.063277" HC_normed="0.972757" PMx_normed="0.174141" NOx_normed="4.999342" fuel_normed="5.705140" electricity_normed="0"
            traveltime="1.42" CO_perVeh="9.129863" CO2_perVeh="823.538239" HC_perVeh="0.060360" PMx_perVeh="0.010806" NOx_perVeh="0.310212" fuel_perVeh="0.354007" electricity_perVeh="0"/>
        <edge id=":1110673534_1" sampledSeconds="245.90" CO_abs="3713.861926" CO2_abs="447697.856514" HC_abs="27.150552" PMx_abs="6.153214" NOx_abs="167.602254" fuel_abs="192.446534" electricity_abs="0"
            CO_normed="175.327354" CO2_normed="21135.325420" HC_normed="1.281748" PMx_normed="0.290486" NOx_normed="7.912319" fuel_normed="9.085190" electricity_normed="0"
            traveltime="1.23" CO_perVeh="18.574093" CO2_perVeh="2239.065926" HC_perVeh="0.135788" PMx_perVeh="0.030774" NOx_perVeh="0.838227" fuel_perVeh="0.962481" electricity_perVeh="0"/>
        <edge id=":1110673549_0" sampledSeconds="61.12" CO_abs="55.664149" CO2_abs="5558.544704" HC_abs="0.379925" PMx_abs="0.069538" NOx_abs="2.063560" fuel_abs="2.389401" electricity_abs="0"
            CO_normed="2.617977" CO2_normed="261.427527" HC_normed="0.017869" PMx_normed="0.003271" NOx_normed="0.097053" fuel_normed="0.112377" electricity_normed="0"
            traveltime="1.27" CO_perVeh="1.159715" CO2_perVeh="115.807544" HC_perVeh="0.007915" PMx_perVeh="0.001449" NOx_perVeh="0.042993" fuel_perVeh="0.049781" electricity_perVeh="0"/>
        <edge id=":1110673549_1" sampledSeconds="638.99" CO_abs="13565.237823" CO2_abs="1792778.050155" HC_abs="104.800400" PMx_abs="31.529898" NOx_abs="669.758551" fuel_abs="770.633236" electricity_abs="0"
            CO_normed="617.140938" CO2_normed="81561.174417" HC_normed="4.767820" PMx_normed="1.434430" NOx_normed="30.470193" fuel_normed="35.059416" electricity_normed="0"
            traveltime="0.80" CO_perVeh="17.075947" CO2_perVeh="2256.752412" HC_perVeh="0.131923" PMx_perVeh="0.039690" NOx_perVeh="0.843093" fuel_perVeh="0.970075" electricity_perVeh="0"/>
        <edge id=":1110673556_0" sampledSeconds="415.45" CO_abs="51600.287478" CO2_abs="2599006.744192" HC_abs="296.790829" PMx_abs="52.583652" NOx_abs="1120.295704" fuel_abs="1117.200072" electricity_abs="0"
            CO_normed="1799.582802" CO2_normed="90641.507385" HC_normed="10.350711" PMx_normed="1.833878" NOx_normed="39.070807" fuel_normed="38.962846" electricity_normed="0"
            traveltime="2.58" CO_perVeh="320.309424" CO2_perVeh="16133.366556" HC_perVeh="1.842333" PMx_perVeh="0.326414" NOx_perVeh="6.954249" fuel_perVeh="6.935033" electricity_perVeh="0"/>
        <edge id=":1110673556_2" sampledSeconds="247.90" CO_abs="23239.513601" CO2_abs="1001489.084979" HC_abs="129.311868" PMx_abs="19.177965" NOx_abs="426.154320" fuel_abs="430.501018" electricity_abs="0"
            CO_normed="847.453797" CO2_normed="36520.373959" HC_normed="4.715496" PMx_normed="0.699345" NOx_normed="15.540175" fuel_normed="15.698681" electricity_normed="0"
            traveltime="3.01" CO_perVeh="281.890847" CO2_perVeh="12147.870687" HC_perVeh="1.568528" PMx_perVeh="0.232625" NOx_perVeh="5.169170" fuel_perVeh="5.221895" electricity_perVeh="0"/>
        <edge id=":1110673556_3" sampledSeconds="366.40" CO_abs="31678.965179" CO2_abs="1112262.931960" HC_abs="170.146219" PMx_abs="21.353132" NOx_abs="475.216370" fuel_abs="478.123141" electricity_abs="0"
            CO_normed="2627.905696" CO2_normed="92266.968875" HC_normed="14.114357" PMx_normed="1.771334" NOx_normed="39.421231" fuel_normed="39.662360" electricity_normed="0"
            traveltime="1.75" CO_perVeh="151.700087" CO2_perVeh="5326.259316" HC_perVeh="0.814774" PMx_perVeh="0.102253" NOx_perVeh="2.275654" fuel_perVeh="2.289574" electricity_perVeh="0"/>
        <edge id=":1110673556_4" sampledSeconds="183.12" CO_abs="19351.013203" CO2_abs="765705.510425" HC_abs="106.085282" PMx_abs="15.008317" NOx_abs="328.587561" fuel_abs="329.147645" electricity_abs="0"
            CO_normed="980.685029" CO2_normed="38804.992948" HC_normed="5.376269" PMx_normed="0.760603" NOx_normed="16.652405" fuel_normed="16.680789" electricity_normed="0"
            traveltime="2.43" CO_perVeh="257.132704" CO2_perVeh="10174.553984" HC_perVeh="1.409642" PMx_perVeh="0.199428" NOx_perVeh="4.366211" fuel_perVeh="4.373653" electricity_perVeh="0"/>
        <edge id=":1110673556_5" sampledSeconds="25.13" CO_abs="1981.480051" CO2_abs="77499.139334" HC_abs="10.835546" PMx_abs="1.492057" NOx_abs="33.086581" fuel_abs="33.313990" electricity_abs="0"
            CO_normed="139.963587" CO2_normed="5474.219897" HC_normed="0.765378" PMx_normed="0.105393" NOx_normed="2.337100" fuel_normed="2.353163" electricity_normed="0"
            traveltime="1.74" CO_perVeh="136.991213" CO2_perVeh="5357.965189" HC_perVeh="0.749124" PMx_perVeh="0.103155" NOx_perVeh="2.287467" fuel_perVeh="2.303189" electricity_perVeh="0"/>
        <edge id=":1110673556_6" sampledSeconds="310.38" CO_abs="37375.795141" CO2_abs="1909432.330402" HC_abs="215.596744" PMx_abs="38.406292" NOx_abs="821.004905" fuel_abs="820.781944" electricity_abs="0"
            CO_normed="1336.363842" CO2_normed="68271.358915" HC_normed="7.708617" PMx_normed="1.373209" NOx_normed="29.354861" fuel_normed="29.346889" electricity_normed="0"
            traveltime="2.46" CO_perVeh="295.986231" CO2_perVeh="15121.168057" HC_perVeh="1.707353" PMx_perVeh="0.304147" NOx_perVeh="6.501698" fuel_perVeh="6.499933" electricity_perVeh="0"/>
        <edge id=":1110673561_0" sampledSeconds="102.27" CO_abs="9158.313195" CO2_abs="655971.576354" HC_abs="57.488994" PMx_abs="13.289802" NOx_abs="277.507065" fuel_abs="281.970899" electricity_abs="0"
            CO_normed="411.421078" CO2_normed="29468.366864" HC_normed="2.582592" PMx_normed="0.597021" NOx_normed="12.466516" fuel_normed="12.667046" electricity_normed="0"
            traveltime="1.21" CO_perVeh="108.076985" CO2_perVeh="7741.101287" HC_perVeh="0.678426" PMx_perVeh="0.156833" NOx_perVeh="3.274853" fuel_perVeh="3.327530" electricity_perVeh="0"/>
        <edge id=":1110673561_1" sampledSeconds="1310.49" CO_abs="123761.835026" CO2_abs="8563819.696594" HC_abs="770.668590" PMx_abs="179.221388" NOx_abs="3662.757489" fuel_abs="3681.172263" electricity_abs="0"
            CO_normed="5420.463744" CO2_normed="375074.223539" HC_normed="33.753387" PMx_normed="7.849456" NOx_normed="160.419762" fuel_normed="161.226284" electricity_normed="0"
            traveltime="1.19" CO_perVeh="112.443191" CO2_perVeh="7780.615191" HC_perVeh="0.700187" PMx_perVeh="0.162831" NOx_perVeh="3.327780" fuel_perVeh="3.344510" electricity_perVeh="0"/>
        <edge id=":1110673562_0" sampledSeconds="104.72" CO_abs="2138.154862" CO2_abs="173730.053613" HC_abs="13.683554" PMx_abs="2.256494" NOx_abs="65.599926" fuel_abs="74.679923" electricity_abs="0"
            CO_normed="5951.718475" CO2_normed="483590.963431" HC_normed="38.089225" PMx_normed="6.281125" NOx_normed="182.602440" fuel_normed="207.877307" electricity_normed="0"
            traveltime="0.03" CO_perVeh="0.545025" CO2_perVeh="44.284582" HC_perVeh="0.003488" PMx_perVeh="0.000575" NOx_perVeh="0.016722" fuel_perVeh="0.019036" electricity_perVeh="0"/>
        <edge id=":1110673564_0" sampledSeconds="28.56" CO_abs="583.876335" CO2_abs="62179.980507" HC_abs="4.075147" PMx_abs="0.893445" NOx_abs="23.664911" fuel_abs="26.728549" electricity_abs="0"
            CO_normed="4388.214629" CO2_normed="467323.444310" HC_normed="30.627406" PMx_normed="6.714830" NOx_normed="177.857368" fuel_normed="200.882624" electricity_normed="0"
            traveltime="7.851560e-03" CO_perVeh="0.160516" CO2_perVeh="17.094153" HC_perVeh="0.001120" PMx_perVeh="0.000246" NOx_perVeh="0.006506" fuel_perVeh="0.007348" electricity_perVeh="0"/>
        <edge id=":1110673588_0" sampledSeconds="11.49" CO_abs="166.470123" CO2_abs="24492.988388" HC_abs="1.308631" PMx_abs="0.314361" NOx_abs="8.952988" fuel_abs="10.528517" electricity_abs="0"
            CO_normed="500.452980" CO2_normed="73632.365927" HC_normed="3.934088" PMx_normed="0.945053" NOx_normed="26.915038" fuel_normed="31.651493" electricity_normed="0"
            traveltime="0.02" CO_perVeh="0.277450" CO2_perVeh="40.821647" HC_perVeh="0.002181" PMx_perVeh="0.000524" NOx_perVeh="0.014922" fuel_perVeh="0.017548" electricity_perVeh="0"/>
        <edge id=":1110673601_0" sampledSeconds="29.61" CO_abs="562.494975" CO2_abs="63820.409708" HC_abs="4.035034" PMx_abs="0.896787" NOx_abs="24.108387" fuel_abs="27.433709" electricity_abs="0"
            CO_normed="1509.828446" CO2_normed="171304.410193" HC_normed="10.830690" PMx_normed="2.407123" NOx_normed="64.710852" fuel_normed="73.636559" electricity_normed="0"
            traveltime="0.02" CO_perVeh="0.417491" CO2_perVeh="47.368362" HC_perVeh="0.002995" PMx_perVeh="0.000666" NOx_perVeh="0.017894" fuel_perVeh="0.020362" electricity_perVeh="0"/>
        <edge id=":1110673617_0" sampledSeconds="248.12" CO_abs="7153.658472" CO2_abs="844164.511637" HC_abs="52.850232" PMx_abs="15.335121" NOx_abs="321.120802" fuel_abs="362.867325" electricity_abs="0"
            CO_normed="17921.482603" CO2_normed="2114817.148151" HC_normed="132.401417" PMx_normed="38.417839" NOx_normed="804.478001" fuel_normed="909.062193" electricity_normed="0"
            traveltime="0.01" CO_perVeh="0.421598" CO2_perVeh="49.750539" HC_perVeh="0.003115" PMx_perVeh="0.000904" NOx_perVeh="0.018925" fuel_perVeh="0.021385" electricity_perVeh="0"/>
        <edge id=":1110673621_0" sampledSeconds="25.79" CO_abs="542.263060" CO2_abs="60794.782635" HC_abs="3.863109" PMx_abs="0.882565" NOx_abs="23.104380" fuel_abs="26.133083" electricity_abs="0"
            CO_normed="1630.185401" CO2_normed="182765.108549" HC_normed="11.613521" PMx_normed="2.653222" NOx_normed="69.457845" fuel_normed="78.562923" electricity_normed="0"
            traveltime="0.02" CO_perVeh="0.410805" CO2_perVeh="46.056654" HC_perVeh="0.002927" PMx_perVeh="0.000669" NOx_perVeh="0.017503" fuel_perVeh="0.019798" electricity_perVeh="0"/>
        <edge id=":1110673630_0" sampledSeconds="54.67" CO_abs="162.299020" CO2_abs="13045.538672" HC_abs="1.037772" PMx_abs="0.182041" NOx_abs="5.011934" fuel_abs="5.607761" electricity_abs="0"
            CO_normed="8.700313" CO2_normed="699.328118" HC_normed="0.055632" PMx_normed="0.009759" NOx_normed="0.268673" fuel_normed="0.300614" electricity_normed="0"
            traveltime="1.28" CO_perVeh="3.788346" CO2_perVeh="304.505947" HC_perVeh="0.024223" PMx_perVeh="0.004249" NOx_perVeh="0.116987" fuel_perVeh="0.130895" electricity_perVeh="0"/>
        <edge id=":1110673630_1" sampledSeconds="7.45" CO_abs="24.621406" CO2_abs="2251.384128" HC_abs="0.161338" PMx_abs="0.018590" NOx_abs="0.779522" fuel_abs="0.967798" electricity_abs="0"
            CO_normed="1.609096" CO2_normed="147.135933" HC_normed="0.010544" PMx_normed="0.001215" NOx_normed="0.050945" fuel_normed="0.063249" electricity_normed="0"
            traveltime="1.05" CO_perVeh="3.484876" CO2_perVeh="318.657446" HC_perVeh="0.022836" PMx_perVeh="0.002631" NOx_perVeh="0.110332" fuel_perVeh="0.136981" electricity_perVeh="0"/>
        <edge id=":1110673650_0" sampledSeconds="158.12" CO_abs="2680.575830" CO2_abs="330791.570556" HC_abs="19.780471" PMx_abs="4.552150" NOx_abs="123.723418" fuel_abs="142.193378" electricity_abs="0"
            CO_normed="6715.430054" CO2_normed="828705.395966" HC_normed="49.554416" PMx_normed="11.404133" NOx_normed="309.954282" fuel_normed="356.225581" electricity_normed="0"
            traveltime="0.02" CO_perVeh="0.390299" CO2_perVeh="48.164177" HC_perVeh="0.002880" PMx_perVeh="0.000663" NOx_perVeh="0.018014" fuel_perVeh="0.020704" electricity_perVeh="0"/>
        <edge id=":1110673655_0" sampledSeconds="44.95" CO_abs="821.308561" CO2_abs="91706.830969" HC_abs="5.846403" PMx_abs="1.304259" NOx_abs="34.733660" fuel_abs="39.420894" electricity_abs="0"
            CO_normed="2057.557982" CO2_normed="229745.714327" HC_normed="14.646522" PMx_normed="3.267454" NOx_normed="87.015431" fuel_normed="98.757981" electricity_normed="0"
            traveltime="0.02" CO_perVeh="0.439555" CO2_perVeh="49.080455" HC_perVeh="0.003129" PMx_perVeh="0.000698" NOx_perVeh="0.018589" fuel_perVeh="0.021098" electricity_perVeh="0"/>
        <edge id=":1110673663_0" sampledSeconds="109.13" CO_abs="1956.167150" CO2_abs="218912.187292" HC_abs="13.916600" PMx_abs="3.043913" NOx_abs="82.502025" fuel_abs="94.101203" electricity_abs="0"
            CO_normed="89.755083" CO2_normed="10044.377586" HC_normed="0.638537" PMx_normed="0.139664" NOx_normed="3.785452" fuel_normed="4.317658" electricity_normed="0"
            traveltime="1.28" CO_perVeh="22.976106" CO2_perVeh="2571.226913" HC_perVeh="0.163457" PMx_perVeh="0.035752" NOx_perVeh="0.969025" fuel_perVeh="1.105263" electricity_perVeh="0"/>
        <edge id=":1110673663_1" sampledSeconds="154.47" CO_abs="2300.361716" CO2_abs="285844.542350" HC_abs="16.977268" PMx_abs="3.926185" NOx_abs="106.736561" fuel_abs="122.872544" electricity_abs="0"
            CO_normed="105.676840" CO2_normed="13131.477462" HC_normed="0.779923" PMx_normed="0.180366" NOx_normed="4.903395" fuel_normed="5.644670" electricity_normed="0"
            traveltime="1.25" CO_perVeh="18.607494" CO2_perVeh="2312.180168" HC_perVeh="0.137328" PMx_perVeh="0.031759" NOx_perVeh="0.863386" fuel_perVeh="0.993909" electricity_perVeh="0"/>
        <edge id=":1110673666_0" sampledSeconds="255.06" CO_abs="5308.789702" CO2_abs="423679.939498" HC_abs="33.846754" PMx_abs="5.764751" NOx_abs="161.789377" fuel_abs="182.123512" electricity_abs="0"