<?xml version="1.0" encoding="UTF-8"?>

<!-- generated on Tue Nov 10 01:03:41 2020 by Eclipse SUMO sumo Version 1.7.0
<configuration xmlns:xsi="http://www.w3.org/2001/XMLSchema-instance" xsi:noNamespaceSchemaLocation="http://sumo.dlr.de/xsd/sumoConfiguration.xsd">

    <input>
        <net-file value="../dataSets/Porto/6AM7AM_Routing_SaoBento/Porto.net.xml"/>
        <route-files value="../results/Porto/6AM7AM_Routing_SaoBento/cost_PMx-cost_co/solution6/Porto.rou.xml"/>
        <additional-files value="moreOutputInfo.xml"/>
    </input>

    <output>
        <emission-output.precision value="6"/>
        <tripinfo-output value="../results/Porto/6AM7AM_Routing_SaoBento/cost_PMx-cost_co/solution6/Porto-tripinfo"/>
    </output>

    <processing>
        <collision.action value="warn"/>
        <time-to-teleport value="-1"/>
    </processing>

    <emissions>
        <device.emissions.probability value="1"/>
    </emissions>

    <gui_only>
        <quit-on-end value="true"/>
        <start value="true"/>
    </gui_only>

</configuration>
-->

<meandata xmlns:xsi="http://www.w3.org/2001/XMLSchema-instance" xsi:noNamespaceSchemaLocation="http://sumo.dlr.de/xsd/meandata_file.xsd">
    <interval begin="0.00" end="4705.00" id="emissions-detector">
        <edge id=":1092997347_0" sampledSeconds="305.17" CO_abs="39316.045804" CO2_abs="1551552.034648" HC_abs="215.697541" PMx_abs="31.742673" NOx_abs="674.108331" fuel_abs="666.951234" electricity_abs="0"
            CO_normed="68369.126120" CO2_normed="2698090.679516" HC_normed="375.089918" PMx_normed="55.199316" NOx_normed="1172.249053" fuel_normed="1159.803131" electricity_normed="0"
            traveltime="0.08" CO_perVeh="9.766579" CO2_perVeh="385.424192" HC_perVeh="0.053582" PMx_perVeh="0.007885" NOx_perVeh="0.167457" fuel_perVeh="0.165679" electricity_perVeh="0"/>
        <edge id=":1103427051_0" sampledSeconds="11.02" CO_abs="839.496949" CO2_abs="47489.298225" HC_abs="4.945384" PMx_abs="0.906386" NOx_abs="20.096641" fuel_abs="20.413583" electricity_abs="0"
            CO_normed="2214.950358" CO2_normed="125296.986778" HC_normed="13.048028" PMx_normed="2.391432" NOx_normed="53.023494" fuel_normed="53.859723" electricity_normed="0"
            traveltime="0.03" CO_perVeh="2.300209" CO2_perVeh="130.119959" HC_perVeh="0.013550" PMx_perVeh="0.002483" NOx_perVeh="0.055064" fuel_perVeh="0.055933" electricity_perVeh="0"/>
        <edge id=":1105984386_0" sampledSeconds="23.02" CO_abs="422.899029" CO2_abs="33990.762181" HC_abs="2.691818" PMx_abs="0.411409" NOx_abs="12.659416" fuel_abs="14.611380" electricity_abs="0"
            CO_normed="33.324246" CO2_normed="2678.456183" HC_normed="0.212114" PMx_normed="0.032419" NOx_normed="0.997556" fuel_normed="1.151370" electricity_normed="0"
            traveltime="0.97" CO_perVeh="17.748745" CO2_perVeh="1426.565961" HC_perVeh="0.112974" PMx_perVeh="0.017267" NOx_perVeh="0.531306" fuel_perVeh="0.613228" electricity_perVeh="0"/>
        <edge id=":1105984390_0" sampledSeconds="23.28" CO_abs="16.433511" CO2_abs="1382.036591" HC_abs="0.105693" PMx_abs="0.015071" NOx_abs="0.503462" fuel_abs="0.594089" electricity_abs="0"
            CO_normed="1.001114" CO2_normed="84.192378" HC_normed="0.006439" PMx_normed="0.000918" NOx_normed="0.030670" fuel_normed="0.036191" electricity_normed="0"
            traveltime="1.06" CO_perVeh="0.745252" CO2_perVeh="62.674681" HC_perVeh="0.004793" PMx_perVeh="0.000683" NOx_perVeh="0.022832" fuel_perVeh="0.026942" electricity_perVeh="0"/>
        <edge id=":1105984390_1" sampledSeconds="679.00" CO_abs="15094.354543" CO2_abs="1966018.116960" HC_abs="115.812367" PMx_abs="34.709509" NOx_abs="735.904424" fuel_abs="845.101115" electricity_abs="0"
            CO_normed="879.615135" CO2_normed="114568.614858" HC_normed="6.748901" PMx_normed="2.022677" NOx_normed="42.884422" fuel_normed="49.247799" electricity_normed="0"
            traveltime="0.64" CO_perVeh="14.153427" CO2_perVeh="1843.463624" HC_perVeh="0.108593" PMx_perVeh="0.032546" NOx_perVeh="0.690031" fuel_perVeh="0.792421" electricity_perVeh="0"/>
        <edge id=":1105984395_0" sampledSeconds="9.00" CO_abs="207.583862" CO2_abs="16903.944073" HC_abs="1.328402" PMx_abs="0.215053" NOx_abs="6.359540" fuel_abs="7.266367" electricity_abs="0"
            CO_normed="172.642865" CO2_normed="14058.632967" HC_normed="1.104802" PMx_normed="0.178855" NOx_normed="5.289087" fuel_normed="6.043275" electricity_normed="0"
            traveltime="0.09" CO_perVeh="2.105127" CO2_perVeh="171.424477" HC_perVeh="0.013471" PMx_perVeh="0.002181" NOx_perVeh="0.064493" fuel_perVeh="0.073689" electricity_perVeh="0"/>
        <edge id=":1105984398_0" sampledSeconds="23.08" CO_abs="1655.878079" CO2_abs="112895.647733" HC_abs="10.218569" PMx_abs="2.115686" NOx_abs="47.085972" fuel_abs="48.528741" electricity_abs="0"
            CO_normed="104.796054" CO2_normed="7144.860796" HC_normed="0.646706" PMx_normed="0.133896" NOx_normed="2.979944" fuel_normed="3.071253" electricity_normed="0"
            traveltime="1.09" CO_perVeh="78.167937" CO2_perVeh="5329.389904" HC_perVeh="0.482381" PMx_perVeh="0.099874" NOx_perVeh="2.222756" fuel_perVeh="2.290864" electricity_perVeh="0"/>
        <edge id=":1105984398_1" sampledSeconds="453.13" CO_abs="8320.884446" CO2_abs="963530.773364" HC_abs="59.987371" PMx_abs="13.854053" NOx_abs="364.896405" fuel_abs="414.180788" electricity_abs="0"
            CO_normed="509.741421" CO2_normed="59026.363009" HC_normed="3.674855" PMx_normed="0.848706" NOx_normed="22.353731" fuel_normed="25.372916" electricity_normed="0"
            traveltime="0.96" CO_perVeh="17.543266" CO2_perVeh="2031.451900" HC_perVeh="0.126474" PMx_perVeh="0.029209" NOx_perVeh="0.769326" fuel_perVeh="0.873235" electricity_perVeh="0"/>
        <edge id=":1106006327_0" sampledSeconds="38.09" CO_abs="5124.178956" CO2_abs="167629.417305" HC_abs="27.278158" PMx_abs="3.490867" NOx_abs="73.349640" fuel_abs="72.057941" electricity_abs="0"
            CO_normed="442.520546" CO2_normed="14476.360394" HC_normed="2.355723" PMx_normed="0.301469" NOx_normed="6.334424" fuel_normed="6.222874" electricity_normed="0"
            traveltime="2.07" CO_perVeh="277.983257" CO2_perVeh="9093.782986" HC_perVeh="1.479822" PMx_perVeh="0.189377" NOx_perVeh="3.979169" fuel_perVeh="3.909095" electricity_perVeh="0"/>
        <edge id=":1106006327_1" sampledSeconds="161.46" CO_abs="21736.915433" CO2_abs="724988.122206" HC_abs="116.055692" PMx_abs="15.094388" NOx_abs="317.112310" fuel_abs="311.646332" electricity_abs="0"
            CO_normed="1636.993974" CO2_normed="54598.417665" HC_normed="8.740084" PMx_normed="1.136749" NOx_normed="23.881537" fuel_normed="23.469897" electricity_normed="0"
            traveltime="2.29" CO_perVeh="308.583530" CO2_perVeh="10292.140791" HC_perVeh="1.647560" PMx_perVeh="0.214284" NOx_perVeh="4.501818" fuel_perVeh="4.424221" electricity_perVeh="0"/>
        <edge id=":1106006327_2" sampledSeconds="0.00" CO_abs="0" CO2_abs="0" HC_abs="0" PMx_abs="0" NOx_abs="0" fuel_abs="0" electricity_abs="0"
            CO_normed="0" CO2_normed="0" HC_normed="0" PMx_normed="0" NOx_normed="0" fuel_normed="0" electricity_normed="0"/>
        <edge id=":1106006327_3" sampledSeconds="0.00" CO_abs="0" CO2_abs="0" HC_abs="0" PMx_abs="0" NOx_abs="0" fuel_abs="0" electricity_abs="0"
            CO_normed="0" CO2_normed="0" HC_normed="0" PMx_normed="0" NOx_normed="0" fuel_normed="0" electricity_normed="0"/>
        <edge id=":1107381198_0" sampledSeconds="0.00" CO_abs="0" CO2_abs="0" HC_abs="0" PMx_abs="0" NOx_abs="0" fuel_abs="0" electricity_abs="0"
            CO_normed="0" CO2_normed="0" HC_normed="0" PMx_normed="0" NOx_normed="0" fuel_normed="0" electricity_normed="0"/>
        <edge id=":1107381198_1" sampledSeconds="35.76" CO_abs="1549.271331" CO2_abs="64007.228054" HC_abs="8.520642" PMx_abs="1.056562" NOx_abs="26.190845" fuel_abs="27.514514" electricity_abs="0"
            CO_normed="129.270974" CO2_normed="5340.753786" HC_normed="0.710961" PMx_normed="0.088159" NOx_normed="2.185360" fuel_normed="2.295807" electricity_normed="0"
            traveltime="1.47" CO_perVeh="63.787797" CO2_perVeh="2635.355070" HC_perVeh="0.350818" PMx_perVeh="0.043502" NOx_perVeh="1.078350" fuel_perVeh="1.132849" electricity_perVeh="0"/>
        <edge id=":1110338277_0" sampledSeconds="96.90" CO_abs="1627.184299" CO2_abs="203624.137016" HC_abs="12.066660" PMx_abs="2.738687" NOx_abs="75.800335" fuel_abs="87.529522" electricity_abs="0"
            CO_normed="4446.533685" CO2_normed="556434.562970" HC_normed="32.974022" PMx_normed="7.483886" NOx_normed="207.136181" fuel_normed="239.188007" electricity_normed="0"
            traveltime="0.02" CO_perVeh="0.366716" CO2_perVeh="45.890454" HC_perVeh="0.002719" PMx_perVeh="0.000617" NOx_perVeh="0.017083" fuel_perVeh="0.019726" electricity_perVeh="0"/>
        <edge id=":1110338293_0" sampledSeconds="124.36" CO_abs="5946.995245" CO2_abs="413559.110035" HC_abs="36.800132" PMx_abs="7.253343" NOx_abs="169.226403" fuel_abs="177.771049" electricity_abs="0"
            CO_normed="15167.681815" CO2_normed="1054773.500621" HC_normed="93.857934" PMx_normed="18.499493" NOx_normed="431.608253" fuel_normed="453.401187" electricity_normed="0"
            traveltime="0.03" CO_perVeh="1.364042" CO2_perVeh="94.856633" HC_perVeh="0.008441" PMx_perVeh="0.001664" NOx_perVeh="0.038815" fuel_perVeh="0.040775" electricity_perVeh="0"/>
        <edge id=":1110338295_0" sampledSeconds="0.00" CO_abs="0" CO2_abs="0" HC_abs="0" PMx_abs="0" NOx_abs="0" fuel_abs="0" electricity_abs="0"
            CO_normed="0" CO2_normed="0" HC_normed="0" PMx_normed="0" NOx_normed="0" fuel_normed="0" electricity_normed="0"/>
        <edge id=":1110673403_0" sampledSeconds="144.11" CO_abs="1940.164294" CO2_abs="250530.667551" HC_abs="14.492729" PMx_abs="3.343518" NOx_abs="92.889719" fuel_abs="107.692677" electricity_abs="0"
            CO_normed="4948.346765" CO2_normed="638973.009695" HC_normed="36.963389" PMx_normed="8.527570" NOx_normed="236.913206" fuel_normed="274.667828" electricity_normed="0"
            traveltime="0.02" CO_perVeh="0.311508" CO2_perVeh="40.224533" HC_perVeh="0.002327" PMx_perVeh="0.000537" NOx_perVeh="0.014914" fuel_perVeh="0.017291" electricity_perVeh="0"/>
        <edge id=":1110673412_0" sampledSeconds="253.22" CO_abs="44697.844658" CO2_abs="3049286.069972" HC_abs="278.142475" PMx_abs="66.987167" NOx_abs="1310.463848" fuel_abs="1310.737917" electricity_abs="0"
            CO_normed="117931.943838" CO2_normed="8045314.853530" HC_normed="733.858265" PMx_normed="176.740665" NOx_normed="3457.561547" fuel_normed="3458.284657" electricity_normed="0"
            traveltime="0.02" CO_perVeh="2.752708" CO2_perVeh="187.789699" HC_perVeh="0.017129" PMx_perVeh="0.004125" NOx_perVeh="0.080705" fuel_perVeh="0.080722" electricity_perVeh="0"/>
        <edge id=":1110673414_0" sampledSeconds="0.00" CO_abs="0" CO2_abs="0" HC_abs="0" PMx_abs="0" NOx_abs="0" fuel_abs="0" electricity_abs="0"
            CO_normed="0" CO2_normed="0" HC_normed="0" PMx_normed="0" NOx_normed="0" fuel_normed="0" electricity_normed="0"/>
        <edge id=":1110673414_1" sampledSeconds="322.61" CO_abs="21897.075917" CO2_abs="831676.292461" HC_abs="118.991544" PMx_abs="15.248943" NOx_abs="350.465835" fuel_abs="357.508294" electricity_abs="0"
            CO_normed="1855.415784" CO2_normed="70470.839388" HC_normed="10.082569" PMx_normed="1.292096" NOx_normed="29.696195" fuel_normed="30.292927" electricity_normed="0"
            traveltime="1.59" CO_perVeh="107.887969" CO2_perVeh="4097.709943" HC_perVeh="0.586277" PMx_perVeh="0.075132" NOx_perVeh="1.726762" fuel_perVeh="1.761461" electricity_perVeh="0"/>
        <edge id=":1110673417_0" sampledSeconds="29.44" CO_abs="611.198858" CO2_abs="67826.316764" HC_abs="4.326072" PMx_abs="0.970731" NOx_abs="25.716776" fuel_abs="29.155662" electricity_abs="0"
            CO_normed="1670.195757" CO2_normed="185345.939238" HC_normed="11.821664" PMx_normed="2.652674" NOx_normed="70.275081" fuel_normed="79.672371" electricity_normed="0"
            traveltime="0.02" CO_perVeh="0.453640" CO2_perVeh="50.341600" HC_perVeh="0.003211" PMx_perVeh="0.000720" NOx_perVeh="0.019087" fuel_perVeh="0.021640" electricity_perVeh="0"/>
        <edge id=":1110673446_0" sampledSeconds="334.46" CO_abs="3489.908377" CO2_abs="278182.046159" HC_abs="22.480714" PMx_abs="5.153473" NOx_abs="114.218350" fuel_abs="119.577626" electricity_abs="0"
            CO_normed="8900.935286" CO2_normed="709497.248440" HC_normed="57.336571" PMx_normed="13.143820" NOx_normed="291.311414" fuel_normed="304.980131" electricity_normed="0"
            traveltime="0.02" CO_perVeh="0.238286" CO2_perVeh="18.993878" HC_perVeh="0.001535" PMx_perVeh="0.000352" NOx_perVeh="0.007799" fuel_perVeh="0.008165" electricity_perVeh="0"/>
        <edge id=":1110673451_0" sampledSeconds="37.35" CO_abs="441.580687" CO2_abs="32682.826387" HC_abs="2.764134" PMx_abs="0.489739" NOx_abs="12.805075" fuel_abs="14.049030" electricity_abs="0"
            CO_normed="1251.379913" CO2_normed="92618.707438" HC_normed="7.833180" PMx_normed="1.387853" NOx_normed="36.287850" fuel_normed="39.813050" electricity_normed="0"
            traveltime="0.03" CO_perVeh="0.316671" CO2_perVeh="23.437883" HC_perVeh="0.001982" PMx_perVeh="0.000351" NOx_perVeh="0.009183" fuel_perVeh="0.010075" electricity_perVeh="0"/>
        <edge id=":1110673464_0" sampledSeconds="324.05" CO_abs="631.008616" CO2_abs="57275.855137" HC_abs="4.145876" PMx_abs="0.717671" NOx_abs="21.276890" fuel_abs="24.620695" electricity_abs="0"
            CO_normed="34.193493" CO2_normed="3103.700158" HC_normed="0.224659" PMx_normed="0.038890" NOx_normed="1.152966" fuel_normed="1.334162" electricity_normed="0"
            traveltime="1.17" CO_perVeh="2.281013" CO2_perVeh="207.044660" HC_perVeh="0.014987" PMx_perVeh="0.002594" NOx_perVeh="0.076913" fuel_perVeh="0.089001" electricity_perVeh="0"/>
        <edge id=":1110673464_1" sampledSeconds="745.50" CO_abs="16413.834721" CO2_abs="2128150.676035" HC_abs="125.578457" PMx_abs="37.582864" NOx_abs="797.260185" fuel_abs="914.794437" electricity_abs="0"
            CO_normed="871.543259" CO2_normed="113000.734284" HC_normed="6.667976" PMx_normed="1.995578" NOx_normed="42.332992" fuel_normed="48.573837" electricity_normed="0"
            traveltime="0.70" CO_perVeh="15.435408" CO2_perVeh="2001.291901" HC_perVeh="0.118093" PMx_perVeh="0.035343" NOx_perVeh="0.749736" fuel_perVeh="0.860264" electricity_perVeh="0"/>
        <edge id=":1110673479_0" sampledSeconds="134.02" CO_abs="6766.124747" CO2_abs="467982.914454" HC_abs="41.804332" PMx_abs="8.195183" NOx_abs="191.464336" fuel_abs="201.165517" electricity_abs="0"
            CO_normed="17256.853765" CO2_normed="1193580.228151" HC_normed="106.621037" PMx_normed="20.901635" NOx_normed="488.325619" fuel_normed="513.068269" electricity_normed="0"
            traveltime="0.03" CO_perVeh="1.425357" CO2_perVeh="98.585652" HC_perVeh="0.008807" PMx_perVeh="0.001726" NOx_perVeh="0.040334" fuel_perVeh="0.042378" electricity_perVeh="0"/>
        <edge id=":1110673511_0" sampledSeconds="11.71" CO_abs="285.013723" CO2_abs="29599.965011" HC_abs="1.987687" PMx_abs="0.447457" NOx_abs="11.405699" fuel_abs="12.723750" electricity_abs="0"
            CO_normed="726.921292" CO2_normed="75494.065915" HC_normed="5.069552" PMx_normed="1.141229" NOx_normed="29.089987" fuel_normed="32.451648" electricity_normed="0"
            traveltime="0.02" CO_perVeh="0.564384" CO2_perVeh="58.613792" HC_perVeh="0.003936" PMx_perVeh="0.000886" NOx_perVeh="0.022586" fuel_perVeh="0.025196" electricity_perVeh="0"/>
        <edge id=":1110673517_0" sampledSeconds="17.13" CO_abs="737.582035" CO2_abs="54147.106961" HC_abs="4.633010" PMx_abs="0.945672" NOx_abs="22.048277" fuel_abs="23.275462" electricity_abs="0"
            CO_normed="1881.186911" CO2_normed="138101.016690" HC_normed="11.816391" PMx_normed="2.411915" NOx_normed="56.233650" fuel_normed="59.363560" electricity_normed="0"
            traveltime="0.03" CO_perVeh="1.184237" CO2_perVeh="86.936752" HC_perVeh="0.007439" PMx_perVeh="0.001518" NOx_perVeh="0.035400" fuel_perVeh="0.037370" electricity_perVeh="0"/>
        <edge id=":1110673534_0" sampledSeconds="476.94" CO_abs="3012.550315" CO2_abs="254405.838788" HC_abs="19.550297" PMx_abs="3.538373" NOx_abs="97.378223" fuel_abs="109.358927" electricity_abs="0"
            CO_normed="148.903953" CO2_normed="12574.739332" HC_normed="0.966330" PMx_normed="0.174894" NOx_normed="4.813198" fuel_normed="5.405379" electricity_normed="0"
            traveltime="1.44" CO_perVeh="9.075607" CO2_perVeh="766.422827" HC_perVeh="0.058897" PMx_perVeh="0.010660" NOx_perVeh="0.293362" fuel_perVeh="0.329455" electricity_perVeh="0"/>
        <edge id=":1110673534_1" sampledSeconds="184.27" CO_abs="2739.683059" CO2_abs="332843.208097" HC_abs="20.091511" PMx_abs="4.602443" NOx_abs="124.704985" fuel_abs="143.075284" electricity_abs="0"
            CO_normed="131.674032" CO2_normed="15997.035512" HC_normed="0.965634" PMx_normed="0.221202" NOx_normed="5.993543" fuel_normed="6.876452" electricity_normed="0"
            traveltime="1.22" CO_perVeh="18.190512" CO2_perVeh="2209.959408" HC_perVeh="0.133400" PMx_perVeh="0.030559" NOx_perVeh="0.827996" fuel_perVeh="0.949969" electricity_perVeh="0"/>
        <edge id=":1110673549_0" sampledSeconds="59.82" CO_abs="103.697915" CO2_abs="14300.504910" HC_abs="0.801617" PMx_abs="0.182951" NOx_abs="5.196261" fuel_abs="6.147203" electricity_abs="0"
            CO_normed="4.965193" CO2_normed="684.727026" HC_normed="0.038382" PMx_normed="0.008760" NOx_normed="0.248804" fuel_normed="0.294336" electricity_normed="0"
            traveltime="1.25" CO_perVeh="2.160458" CO2_perVeh="297.938838" HC_perVeh="0.016701" PMx_perVeh="0.003812" NOx_perVeh="0.108260" fuel_perVeh="0.128072" electricity_perVeh="0"/>
        <edge id=":1110673549_1" sampledSeconds="638.73" CO_abs="14033.340753" CO2_abs="1814733.436250" HC_abs="107.404995" PMx_abs="32.129021" NOx_abs="679.603365" fuel_abs="780.070742" electricity_abs="0"
            CO_normed="649.970881" CO2_normed="84051.539248" HC_normed="4.974590" PMx_normed="1.488094" NOx_normed="31.476639" fuel_normed="36.129905" electricity_normed="0"
            traveltime="0.80" CO_perVeh="17.665201" CO2_perVeh="2284.390595" HC_perVeh="0.135202" PMx_perVeh="0.040444" NOx_perVeh="0.855486" fuel_perVeh="0.981955" electricity_perVeh="0"/>
        <edge id=":1110673556_0" sampledSeconds="418.57" CO_abs="51738.543618" CO2_abs="2589313.994293" HC_abs="297.175182" PMx_abs="52.367094" NOx_abs="1116.021842" fuel_abs="1113.033891" electricity_abs="0"
            CO_normed="1837.002715" CO2_normed="91934.880743" HC_normed="10.551353" PMx_normed="1.859320" NOx_normed="39.624910" fuel_normed="39.518822" electricity_normed="0"
            traveltime="2.60" CO_perVeh="321.167650" CO2_perVeh="16073.198691" HC_perVeh="1.844719" PMx_perVeh="0.325069" NOx_perVeh="6.927719" fuel_perVeh="6.909172" electricity_perVeh="0"/>
        <edge id=":1110673556_2" sampledSeconds="247.35" CO_abs="23776.738681" CO2_abs="1027524.104621" HC_abs="132.379124" PMx_abs="19.711418" NOx_abs="437.355715" fuel_abs="441.692356" electricity_abs="0"
            CO_normed="882.708210" CO2_normed="38146.693506" HC_normed="4.914557" PMx_normed="0.731784" NOx_normed="16.236772" fuel_normed="16.397769" electricity_normed="0"
            traveltime="3.00" CO_perVeh="288.407284" CO2_perVeh="12463.670486" HC_perVeh="1.605733" PMx_perVeh="0.239096" NOx_perVeh="5.305041" fuel_perVeh="5.357644" electricity_perVeh="0"/>
        <edge id=":1110673556_3" sampledSeconds="373.76" CO_abs="32106.180119" CO2_abs="1147533.370844" HC_abs="172.939179" PMx_abs="22.071126" NOx_abs="490.489594" fuel_abs="493.284125" electricity_abs="0"
            CO_normed="2711.460694" CO2_normed="96912.545130" HC_normed="14.605219" PMx_normed="1.863971" NOx_normed="41.423279" fuel_normed="41.659285" electricity_normed="0"
            traveltime="1.74" CO_perVeh="149.383986" CO2_perVeh="5339.255827" HC_perVeh="0.804653" PMx_perVeh="0.102693" NOx_perVeh="2.282155" fuel_perVeh="2.295158" electricity_perVeh="0"/>
        <edge id=":1110673556_4" sampledSeconds="168.20" CO_abs="17364.024212" CO2_abs="695862.732443" HC_abs="95.393375" PMx_abs="13.576780" NOx_abs="298.193020" fuel_abs="299.124802" electricity_abs="0"
            CO_normed="895.884669" CO2_normed="35902.550361" HC_normed="4.921754" PMx_normed="0.700484" NOx_normed="15.385060" fuel_normed="15.433135" electricity_normed="0"
            traveltime="2.40" CO_perVeh="248.143542" CO2_perVeh="9944.344751" HC_perVeh="1.363235" PMx_perVeh="0.194021" NOx_perVeh="4.261378" fuel_perVeh="4.274694" electricity_perVeh="0"/>
        <edge id=":1110673556_5" sampledSeconds="24.16" CO_abs="1919.733027" CO2_abs="78935.316891" HC_abs="10.591271" PMx_abs="1.520127" NOx_abs="33.689171" fuel_abs="33.931265" electricity_abs="0"
            CO_normed="138.051803" CO2_normed="5676.394909" HC_normed="0.761639" PMx_normed="0.109315" NOx_normed="2.422655" fuel_normed="2.440064" electricity_normed="0"
            traveltime="1.67" CO_perVeh="132.722283" CO2_perVeh="5457.256476" HC_perVeh="0.732236" PMx_perVeh="0.105095" NOx_perVeh="2.329128" fuel_perVeh="2.345865" electricity_perVeh="0"/>
        <edge id=":1110673556_6" sampledSeconds="303.73" CO_abs="36453.178039" CO2_abs="1889382.804551" HC_abs="210.959343" PMx_abs="38.109274" NOx_abs="812.819856" fuel_abs="812.162934" electricity_abs="0"
            CO_normed="1326.922499" CO2_normed="68774.924103" HC_normed="7.679075" PMx_normed="1.387206" NOx_normed="29.587241" fuel_normed="29.563328" electricity_normed="0"
            traveltime="2.41" CO_perVeh="288.679846" CO2_perVeh="14962.391941" HC_perVeh="1.670628" PMx_perVeh="0.301795" NOx_perVeh="6.436879" fuel_perVeh="6.431677" electricity_perVeh="0"/>
        <edge id=":1110673561_0" sampledSeconds="101.95" CO_abs="9104.896502" CO2_abs="661964.466177" HC_abs="57.356596" PMx_abs="13.290458" NOx_abs="279.048767" fuel_abs="284.547042" electricity_abs="0"
            CO_normed="416.410762" CO2_normed="30274.822771" HC_normed="2.623193" PMx_normed="0.607837" NOx_normed="12.762244" fuel_normed="13.013706" electricity_normed="0"
            traveltime="1.20" CO_perVeh="107.446616" CO2_perVeh="7811.823204" HC_perVeh="0.676864" PMx_perVeh="0.156840" NOx_perVeh="3.293046" fuel_perVeh="3.357931" electricity_perVeh="0"/>
        <edge id=":1110673561_1" sampledSeconds="1320.17" CO_abs="121034.843823" CO2_abs="8377901.032134" HC_abs="753.803568" PMx_abs="175.177062" NOx_abs="3582.859221" fuel_abs="3601.254966" electricity_abs="0"
            CO_normed="5396.796021" CO2_normed="373560.385788" HC_normed="33.611181" PMx_normed="7.810931" NOx_normed="159.755321" fuel_normed="160.575565" electricity_normed="0"
            traveltime="1.20" CO_perVeh="109.694699" CO2_perVeh="7592.948456" HC_perVeh="0.683177" PMx_perVeh="0.158764" NOx_perVeh="3.247170" fuel_perVeh="3.263842" electricity_perVeh="0"/>
        <edge id=":1110673562_0" sampledSeconds="104.14" CO_abs="2160.268919" CO2_abs="171912.997116" HC_abs="13.758308" PMx_abs="2.321503" NOx_abs="65.527098" fuel_abs="73.898738" electricity_abs="0"
            CO_normed="6121.909794" CO2_normed="487178.171069" HC_normed="38.989182" PMx_normed="6.578824" NOx_normed="185.694929" fuel_normed="209.419023" electricity_normed="0"
            traveltime="0.03" CO_perVeh="0.550662" CO2_perVeh="43.821406" HC_perVeh="0.003507" PMx_perVeh="0.000592" NOx_perVeh="0.016703" fuel_perVeh="0.018837" electricity_perVeh="0"/>
        <edge id=":1110673564_0" sampledSeconds="28.52" CO_abs="498.256722" CO2_abs="58918.386106" HC_abs="3.614647" PMx_abs="0.815233" NOx_abs="22.106580" fuel_abs="25.326541" electricity_abs="0"
            CO_normed="3812.378745" CO2_normed="450810.180617" HC_normed="27.657237" PMx_normed="6.237704" NOx_normed="169.147052" fuel_normed="193.784376" electricity_normed="0"
            traveltime="7.840912e-03" CO_perVeh="0.136978" CO2_perVeh="16.197494" HC_perVeh="0.000994" PMx_perVeh="0.000224" NOx_perVeh="0.006077" fuel_perVeh="0.006963" electricity_perVeh="0"/>
        <edge id=":1110673588_0" sampledSeconds="11.59" CO_abs="259.640537" CO2_abs="30736.357464" HC_abs="1.883774" PMx_abs="0.429840" NOx_abs="11.566800" fuel_abs="13.212262" electricity_abs="0"
            CO_normed="794.649039" CO2_normed="94070.892132" HC_normed="5.765431" PMx_normed="1.315556" NOx_normed="35.401046" fuel_normed="40.437104" electricity_normed="0"
            traveltime="0.02" CO_perVeh="0.432734" CO2_perVeh="51.227262" HC_perVeh="0.003140" PMx_perVeh="0.000716" NOx_perVeh="0.019278" fuel_perVeh="0.022020" electricity_perVeh="0"/>
        <edge id=":1110673601_0" sampledSeconds="29.48" CO_abs="542.371378" CO2_abs="59414.543767" HC_abs="3.838055" PMx_abs="0.855801" NOx_abs="22.581745" fuel_abs="25.539795" electricity_abs="0"
            CO_normed="1482.113982" CO2_normed="162359.463762" HC_normed="10.488081" PMx_normed="2.338609" NOx_normed="61.708122" fuel_normed="69.791455" electricity_normed="0"
            traveltime="0.02" CO_perVeh="0.402555" CO2_perVeh="44.098270" HC_perVeh="0.002849" PMx_perVeh="0.000635" NOx_perVeh="0.016760" fuel_perVeh="0.018956" electricity_perVeh="0"/>
        <edge id=":1110673617_0" sampledSeconds="247.91" CO_abs="6277.789433" CO2_abs="772883.754267" HC_abs="46.998513" PMx_abs="13.835815" NOx_abs="291.928198" fuel_abs="332.227154" electricity_abs="0"
            CO_normed="16011.365184" CO2_normed="1971223.177727" HC_normed="119.868684" PMx_normed="35.287945" NOx_normed="744.556509" fuel_normed="847.338119" electricity_normed="0"
            traveltime="0.01" CO_perVeh="0.370136" CO2_perVeh="45.568912" HC_perVeh="0.002771" PMx_perVeh="0.000816" NOx_perVeh="0.017212" fuel_perVeh="0.019588" electricity_perVeh="0"/>
        <edge id=":1110673621_0" sampledSeconds="25.61" CO_abs="415.946602" CO2_abs="52085.968181" HC_abs="3.062806" PMx_abs="0.705989" NOx_abs="19.396739" fuel_abs="22.389575" electricity_abs="0"
            CO_normed="1273.035296" CO2_normed="159412.952564" HC_normed="9.373944" PMx_normed="2.160731" NOx_normed="59.365153" fuel_normed="68.524947" electricity_normed="0"
            traveltime="0.02" CO_perVeh="0.315111" CO2_perVeh="39.459067" HC_perVeh="0.002320" PMx_perVeh="0.000535" NOx_perVeh="0.014694" fuel_perVeh="0.016962" electricity_perVeh="0"/>
        <edge id=":1110673630_0" sampledSeconds="54.43" CO_abs="139.156406" CO2_abs="13743.608838" HC_abs="0.947961" PMx_abs="0.180711" NOx_abs="5.158076" fuel_abs="5.907829" electricity_abs="0"
            CO_normed="7.594480" CO2_normed="750.059378" HC_normed="0.051735" PMx_normed="0.009862" NOx_normed="0.281503" fuel_normed="0.322421" electricity_normed="0"
            traveltime="1.27" CO_perVeh="3.248157" CO2_perVeh="320.800140" HC_perVeh="0.022127" PMx_perVeh="0.004218" NOx_perVeh="0.120399" fuel_perVeh="0.137899" electricity_perVeh="0"/>
        <edge id=":1110673630_1" sampledSeconds="7.39" CO_abs="6.215713" CO2_abs="739.417591" HC_abs="0.044764" PMx_abs="0.007142" NOx_abs="0.260265" fuel_abs="0.317849" electricity_abs="0"
            CO_normed="0.413558" CO2_normed="49.196568" HC_normed="0.002978" PMx_normed="0.000475" NOx_normed="0.017317" fuel_normed="0.021148" electricity_normed="0"
            traveltime="1.05" CO_perVeh="0.879762" CO2_perVeh="104.656028" HC_perVeh="0.006336" PMx_perVeh="0.001011" NOx_perVeh="0.036838" fuel_perVeh="0.044988" electricity_perVeh="0"/>
        <edge id=":1110673650_0" sampledSeconds="143.66" CO_abs="2043.929854" CO2_abs="264624.346029" HC_abs="15.340437" PMx_abs="3.543627" NOx_abs="98.213638" fuel_abs="113.750947" electricity_abs="0"
            CO_normed="5212.998565" CO2_normed="674918.629617" HC_normed="39.125451" PMx_normed="9.037945" NOx_normed="250.491744" fuel_normed="290.119312" electricity_normed="0"
            traveltime="0.02" CO_perVeh="0.328166" CO2_perVeh="42.487184" HC_perVeh="0.002463" PMx_perVeh="0.000569" NOx_perVeh="0.015769" fuel_perVeh="0.018263" electricity_perVeh="0"/>
        <edge id=":1110673655_0" sampledSeconds="45.08" CO_abs="714.743699" CO2_abs="78789.399305" HC_abs="5.059885" PMx_abs="1.098985" NOx_abs="29.732302" fuel_abs="33.868273" electricity_abs="0"
            CO_normed="1822.938233" CO2_normed="200950.646473" HC_normed="12.905127" PMx_normed="2.802936" NOx_normed="75.831587" fuel_normed="86.380294" electricity_normed="0"
            traveltime="0.02" CO_perVeh="0.382523" CO2_perVeh="42.167193" HC_perVeh="0.002708" PMx_perVeh="0.000588" NOx_perVeh="0.015912" fuel_perVeh="0.018126" electricity_perVeh="0"/>
        <edge id=":1110673663_0" sampledSeconds="108.12" CO_abs="1598.214736" CO2_abs="200016.654508" HC_abs="11.792860" PMx_abs="2.704677" NOx_abs="74.425612" fuel_abs="85.978795" electricity_abs="0"
            CO_normed="74.655895" CO2_normed="9343.189009" HC_normed="0.550869" PMx_normed="0.126341" NOx_normed="3.476573" fuel_normed="4.016246" electricity_normed="0"
            traveltime="1.27" CO_perVeh="18.771786" CO2_perVeh="2349.289966" HC_perVeh="0.138513" PMx_perVeh="0.031768" NOx_perVeh="0.874164" fuel_perVeh="1.009862" electricity_perVeh="0"/>
        <edge id=":1110673663_1" sampledSeconds="153.82" CO_abs="2963.986778" CO2_abs="346951.046303" HC_abs="21.448822" PMx_abs="5.001280" NOx_abs="131.352901" fuel_abs="149.139422" electricity_abs="0"
            CO_normed="138.623173" CO2_normed="16226.609141" HC_normed="1.003143" PMx_normed="0.233906" NOx_normed="6.143265" fuel_normed="6.975126" electricity_normed="0"
            traveltime="1.24" CO_perVeh="23.978344" CO2_perVeh="2806.797813" HC_perVeh="0.173519" PMx_perVeh="0.040460" NOx_perVeh="1.062631" fuel_perVeh="1.206522" electricity_perVeh="0"/>
        <edge id=":1110673666_0" sampledSeconds="193.02" CO_abs="3907.252730" CO2_abs="310628.274677" HC_abs="24.884768" PMx_abs="4.236079" NOx_abs="118.703585" fuel_abs="133.526999" electricity_abs="0"