<?xml version="1.0" encoding="UTF-8"?>

<!-- generated on Tue Nov 10 01:55:31 2020 by Eclipse SUMO sumo Version 1.7.0
<configuration xmlns:xsi="http://www.w3.org/2001/XMLSchema-instance" xsi:noNamespaceSchemaLocation="http://sumo.dlr.de/xsd/sumoConfiguration.xsd">

    <input>
        <net-file value="../dataSets/Porto/6AM7AM_Routing_SaoBento/Porto.net.xml"/>
        <route-files value="../results/Porto/6AM7AM_Routing_SaoBento/cost_co2-cost_hc/solution6/Porto.rou.xml"/>
        <additional-files value="moreOutputInfo.xml"/>
    </input>

    <output>
        <emission-output.precision value="6"/>
        <tripinfo-output value="../results/Porto/6AM7AM_Routing_SaoBento/cost_co2-cost_hc/solution6/Porto-tripinfo"/>
    </output>

    <processing>
        <collision.action value="warn"/>
        <time-to-teleport value="-1"/>
    </processing>

    <emissions>
        <device.emissions.probability value="1"/>
    </emissions>

    <gui_only>
        <quit-on-end value="true"/>
        <start value="true"/>
    </gui_only>

</configuration>
-->

<meandata xmlns:xsi="http://www.w3.org/2001/XMLSchema-instance" xsi:noNamespaceSchemaLocation="http://sumo.dlr.de/xsd/meandata_file.xsd">
    <interval begin="0.00" end="4699.00" id="emissions-detector">
        <edge id=":1092997347_0" sampledSeconds="273.85" CO_abs="35354.935221" CO2_abs="1381656.477907" HC_abs="193.630976" PMx_abs="28.258644" NOx_abs="600.369482" fuel_abs="593.920105" electricity_abs="0"
            CO_normed="61559.406641" CO2_normed="2405716.555004" HC_normed="337.146933" PMx_normed="49.203465" NOx_normed="1045.353041" fuel_normed="1034.123498" electricity_normed="0"
            traveltime="0.08" CO_perVeh="9.925063" CO2_perVeh="387.867427" HC_perVeh="0.054357" PMx_perVeh="0.007933" NOx_perVeh="0.168540" fuel_perVeh="0.166729" electricity_perVeh="0"/>
        <edge id=":1103427051_0" sampledSeconds="11.19" CO_abs="853.026362" CO2_abs="48727.085576" HC_abs="5.034912" PMx_abs="0.920964" NOx_abs="20.552139" fuel_abs="20.945662" electricity_abs="0"
            CO_normed="2253.520489" CO2_normed="128726.954431" HC_normed="13.301205" PMx_normed="2.432997" NOx_normed="54.294532" fuel_normed="55.334137" electricity_normed="0"
            traveltime="0.03" CO_perVeh="2.337279" CO2_perVeh="133.511478" HC_perVeh="0.013796" PMx_perVeh="0.002523" NOx_perVeh="0.056313" fuel_perVeh="0.057391" electricity_perVeh="0"/>
        <edge id=":1105984386_0" sampledSeconds="22.89" CO_abs="515.074562" CO2_abs="40956.312991" HC_abs="3.280232" PMx_abs="0.557093" NOx_abs="15.649079" fuel_abs="17.605525" electricity_abs="0"
            CO_normed="40.639460" CO2_normed="3231.459216" HC_normed="0.258811" PMx_normed="0.043955" NOx_normed="1.234715" fuel_normed="1.389079" electricity_normed="0"
            traveltime="0.96" CO_perVeh="21.617280" CO2_perVeh="1718.904733" HC_perVeh="0.137669" PMx_perVeh="0.023381" NOx_perVeh="0.656780" fuel_perVeh="0.738890" electricity_perVeh="0"/>
        <edge id=":1105984390_0" sampledSeconds="22.59" CO_abs="18.685059" CO2_abs="1318.597276" HC_abs="0.114458" PMx_abs="0.014740" NOx_abs="0.485862" fuel_abs="0.566820" electricity_abs="0"
            CO_normed="1.139730" CO2_normed="80.430282" HC_normed="0.006982" PMx_normed="0.000899" NOx_normed="0.029636" fuel_normed="0.034574" electricity_normed="0"
            traveltime="1.02" CO_perVeh="0.847358" CO2_perVeh="59.797739" HC_perVeh="0.005191" PMx_perVeh="0.000668" NOx_perVeh="0.022034" fuel_perVeh="0.025705" electricity_perVeh="0"/>
        <edge id=":1105984390_1" sampledSeconds="646.32" CO_abs="13901.175097" CO2_abs="1838899.751948" HC_abs="107.142104" PMx_abs="32.322047" NOx_abs="686.292912" fuel_abs="790.458866" electricity_abs="0"
            CO_normed="811.117634" CO2_normed="107297.692887" HC_normed="6.251619" PMx_normed="1.885954" NOx_normed="40.044405" fuel_normed="46.122369" electricity_normed="0"
            traveltime="0.64" CO_perVeh="13.686271" CO2_perVeh="1810.471467" HC_perVeh="0.105486" PMx_perVeh="0.031822" NOx_perVeh="0.675683" fuel_perVeh="0.778239" electricity_perVeh="0"/>
        <edge id=":1105984395_0" sampledSeconds="8.92" CO_abs="193.840868" CO2_abs="15058.441385" HC_abs="1.225050" PMx_abs="0.199183" NOx_abs="5.723365" fuel_abs="6.473050" electricity_abs="0"
            CO_normed="161.418971" CO2_normed="12539.760769" HC_normed="1.020148" PMx_normed="0.165868" NOx_normed="4.766073" fuel_normed="5.390365" electricity_normed="0"
            traveltime="0.09" CO_perVeh="1.965758" CO2_perVeh="152.709062" HC_perVeh="0.012423" PMx_perVeh="0.002020" NOx_perVeh="0.058041" fuel_perVeh="0.065644" electricity_perVeh="0"/>
        <edge id=":1105984398_0" sampledSeconds="23.19" CO_abs="1395.141815" CO2_abs="100327.597862" HC_abs="8.708260" PMx_abs="1.734042" NOx_abs="40.834256" fuel_abs="43.126469" electricity_abs="0"
            CO_normed="88.407500" CO2_normed="6357.570268" HC_normed="0.551826" PMx_normed="0.109883" NOx_normed="2.587590" fuel_normed="2.732843" electricity_normed="0"
            traveltime="1.10" CO_perVeh="66.233355" CO2_perVeh="4762.980575" HC_perVeh="0.413418" PMx_perVeh="0.082322" NOx_perVeh="1.938577" fuel_perVeh="2.047398" electricity_perVeh="0"/>
        <edge id=":1105984398_1" sampledSeconds="452.93" CO_abs="8157.721776" CO2_abs="957121.127071" HC_abs="59.082625" PMx_abs="13.645034" NOx_abs="361.555732" fuel_abs="411.425657" electricity_abs="0"
            CO_normed="500.384106" CO2_normed="58708.572433" HC_normed="3.624052" PMx_normed="0.836969" NOx_normed="22.177361" fuel_normed="25.236318" electricity_normed="0"
            traveltime="0.95" CO_perVeh="17.176554" CO2_perVeh="2015.273826" HC_perVeh="0.124402" PMx_perVeh="0.028730" NOx_perVeh="0.761276" fuel_perVeh="0.866280" electricity_perVeh="0"/>
        <edge id=":1106006327_0" sampledSeconds="444.81" CO_abs="60115.814157" CO2_abs="1957854.790143" HC_abs="319.827098" PMx_abs="40.861117" NOx_abs="857.139208" fuel_abs="841.612440" electricity_abs="0"
            CO_normed="5198.189014" CO2_normed="169294.875297" HC_normed="27.655314" PMx_normed="3.533244" NOx_normed="74.116465" fuel_normed="72.773872" electricity_normed="0"
            traveltime="2.08" CO_perVeh="281.546109" CO2_perVeh="9169.407514" HC_perVeh="1.497877" PMx_perVeh="0.191369" NOx_perVeh="4.014322" fuel_perVeh="3.941604" electricity_perVeh="0"/>
        <edge id=":1106006327_1" sampledSeconds="163.18" CO_abs="22032.108665" CO2_abs="730237.339480" HC_abs="117.523843" PMx_abs="15.225694" NOx_abs="319.529744" fuel_abs="313.902868" electricity_abs="0"
            CO_normed="1661.343408" CO2_normed="55063.952754" HC_normed="8.861951" PMx_normed="1.148102" NOx_normed="24.094318" fuel_normed="23.670020" electricity_normed="0"
            traveltime="2.32" CO_perVeh="312.774178" CO2_perVeh="10366.660196" HC_perVeh="1.668402" PMx_perVeh="0.216148" NOx_perVeh="4.536137" fuel_perVeh="4.456256" electricity_perVeh="0"/>
        <edge id=":1106006327_2" sampledSeconds="0.00" CO_abs="0" CO2_abs="0" HC_abs="0" PMx_abs="0" NOx_abs="0" fuel_abs="0" electricity_abs="0"
            CO_normed="0" CO2_normed="0" HC_normed="0" PMx_normed="0" NOx_normed="0" fuel_normed="0" electricity_normed="0"/>
        <edge id=":1106006327_3" sampledSeconds="0.00" CO_abs="0" CO2_abs="0" HC_abs="0" PMx_abs="0" NOx_abs="0" fuel_abs="0" electricity_abs="0"
            CO_normed="0" CO2_normed="0" HC_normed="0" PMx_normed="0" NOx_normed="0" fuel_normed="0" electricity_normed="0"/>
        <edge id=":1107381198_0" sampledSeconds="0.00" CO_abs="0" CO2_abs="0" HC_abs="0" PMx_abs="0" NOx_abs="0" fuel_abs="0" electricity_abs="0"
            CO_normed="0" CO2_normed="0" HC_normed="0" PMx_normed="0" NOx_normed="0" fuel_normed="0" electricity_normed="0"/>
        <edge id=":1107381198_1" sampledSeconds="35.42" CO_abs="1523.018502" CO2_abs="62356.156855" HC_abs="8.365765" PMx_abs="1.044350" NOx_abs="25.612517" fuel_abs="26.804764" electricity_abs="0"
            CO_normed="127.242707" CO2_normed="5209.632173" HC_normed="0.698930" PMx_normed="0.087252" NOx_normed="2.139834" fuel_normed="2.239441" electricity_normed="0"
            traveltime="1.46" CO_perVeh="62.706895" CO2_perVeh="2567.375891" HC_perVeh="0.344442" PMx_perVeh="0.042999" NOx_perVeh="1.054538" fuel_perVeh="1.103626" electricity_perVeh="0"/>
        <edge id=":1110338277_0" sampledSeconds="96.90" CO_abs="1455.080702" CO2_abs="171835.278835" HC_abs="10.570530" PMx_abs="2.375455" NOx_abs="64.503674" fuel_abs="73.864779" electricity_abs="0"
            CO_normed="3981.311013" CO2_normed="470166.147664" HC_normed="28.922496" PMx_normed="6.499587" NOx_normed="176.491370" fuel_normed="202.104705" electricity_normed="0"
            traveltime="0.02" CO_perVeh="0.327929" CO2_perVeh="38.726248" HC_perVeh="0.002382" PMx_perVeh="0.000535" NOx_perVeh="0.014537" fuel_perVeh="0.016647" electricity_perVeh="0"/>
        <edge id=":1110338293_0" sampledSeconds="124.09" CO_abs="5963.266978" CO2_abs="409404.307080" HC_abs="36.772535" PMx_abs="7.178736" NOx_abs="167.605907" fuel_abs="175.985138" electricity_abs="0"
            CO_normed="15228.602626" CO2_normed="1045510.041489" HC_normed="93.907304" PMx_normed="18.332588" NOx_normed="428.021043" fuel_normed="449.419378" electricity_normed="0"
            traveltime="0.03" CO_perVeh="1.367780" CO2_perVeh="93.904088" HC_perVeh="0.008434" PMx_perVeh="0.001647" NOx_perVeh="0.038443" fuel_perVeh="0.040365" electricity_perVeh="0"/>
        <edge id=":1110338295_0" sampledSeconds="0.00" CO_abs="0" CO2_abs="0" HC_abs="0" PMx_abs="0" NOx_abs="0" fuel_abs="0" electricity_abs="0"
            CO_normed="0" CO2_normed="0" HC_normed="0" PMx_normed="0" NOx_normed="0" fuel_normed="0" electricity_normed="0"/>
        <edge id=":1110673403_0" sampledSeconds="143.76" CO_abs="2165.123464" CO2_abs="269374.862112" HC_abs="16.011674" PMx_abs="3.680309" NOx_abs="100.569991" fuel_abs="115.792943" electricity_abs="0"
            CO_normed="5529.151217" CO2_normed="687911.969640" HC_normed="40.889569" PMx_normed="9.398534" NOx_normed="256.829088" fuel_normed="295.704474" electricity_normed="0"
            traveltime="0.02" CO_perVeh="0.347626" CO2_perVeh="43.250038" HC_perVeh="0.002571" PMx_perVeh="0.000591" NOx_perVeh="0.016147" fuel_perVeh="0.018591" electricity_perVeh="0"/>
        <edge id=":1110673412_0" sampledSeconds="252.59" CO_abs="44700.035811" CO2_abs="3053145.019801" HC_abs="278.267675" PMx_abs="67.078251" NOx_abs="1311.689182" fuel_abs="1312.396685" electricity_abs="0"
            CO_normed="118088.315870" CO2_normed="8065782.206987" HC_normed="735.126057" PMx_normed="177.206965" NOx_normed="3465.213477" fuel_normed="3467.082552" electricity_normed="0"
            traveltime="0.02" CO_perVeh="2.747434" CO2_perVeh="187.657869" HC_perVeh="0.017103" PMx_perVeh="0.004123" NOx_perVeh="0.080621" fuel_perVeh="0.080665" electricity_perVeh="0"/>
        <edge id=":1110673414_0" sampledSeconds="0.00" CO_abs="0" CO2_abs="0" HC_abs="0" PMx_abs="0" NOx_abs="0" fuel_abs="0" electricity_abs="0"
            CO_normed="0" CO2_normed="0" HC_normed="0" PMx_normed="0" NOx_normed="0" fuel_normed="0" electricity_normed="0"/>
        <edge id=":1110673414_1" sampledSeconds="131.15" CO_abs="8312.418875" CO2_abs="320925.053964" HC_abs="45.306888" PMx_abs="5.940763" NOx_abs="135.586995" fuel_abs="137.954155" electricity_abs="0"
            CO_normed="705.239657" CO2_normed="27227.823603" HC_normed="3.843913" PMx_normed="0.504024" NOx_normed="11.503430" fuel_normed="11.704264" electricity_normed="0"
            traveltime="1.56" CO_perVeh="99.038320" CO2_perVeh="3823.661746" HC_perVeh="0.539809" PMx_perVeh="0.070781" NOx_perVeh="1.615451" fuel_perVeh="1.643655" electricity_perVeh="0"/>
        <edge id=":1110673417_0" sampledSeconds="29.91" CO_abs="517.533907" CO2_abs="64687.072537" HC_abs="3.837780" PMx_abs="0.840243" NOx_abs="23.917193" fuel_abs="27.806318" electricity_abs="0"
            CO_normed="1416.047538" CO2_normed="176993.175700" HC_normed="10.500721" PMx_normed="2.299025" NOx_normed="65.440895" fuel_normed="76.082104" electricity_normed="0"
            traveltime="0.02" CO_perVeh="0.384121" CO2_perVeh="48.011611" HC_perVeh="0.002848" PMx_perVeh="0.000624" NOx_perVeh="0.017752" fuel_perVeh="0.020638" electricity_perVeh="0"/>
        <edge id=":1110673446_0" sampledSeconds="333.17" CO_abs="3187.617682" CO2_abs="252299.536602" HC_abs="20.498100" PMx_abs="4.712031" NOx_abs="103.769672" fuel_abs="108.451898" electricity_abs="0"
            CO_normed="8140.330321" CO2_normed="644306.116030" HC_normed="52.346711" PMx_normed="12.033277" NOx_normed="265.000227" fuel_normed="276.957389" electricity_normed="0"
            traveltime="0.02" CO_perVeh="0.217409" CO2_perVeh="17.207912" HC_perVeh="0.001398" PMx_perVeh="0.000321" NOx_perVeh="0.007078" fuel_perVeh="0.007397" electricity_perVeh="0"/>
        <edge id=":1110673451_0" sampledSeconds="37.52" CO_abs="338.782843" CO2_abs="23103.399380" HC_abs="2.067427" PMx_abs="0.312150" NOx_abs="8.859107" fuel_abs="9.931292" electricity_abs="0"
            CO_normed="961.290610" CO2_normed="65555.506505" HC_normed="5.866288" PMx_normed="0.885719" NOx_normed="25.137566" fuel_normed="28.179874" electricity_normed="0"
            traveltime="0.03" CO_perVeh="0.242952" CO2_perVeh="16.568175" HC_perVeh="0.001483" PMx_perVeh="0.000224" NOx_perVeh="0.006353" fuel_perVeh="0.007122" electricity_perVeh="0"/>
        <edge id=":1110673464_0" sampledSeconds="322.29" CO_abs="596.875197" CO2_abs="40257.696118" HC_abs="3.635740" PMx_abs="0.564429" NOx_abs="15.590380" fuel_abs="17.305259" electricity_abs="0"
            CO_normed="32.385148" CO2_normed="2184.294923" HC_normed="0.197267" PMx_normed="0.030625" NOx_normed="0.845900" fuel_normed="0.938946" electricity_normed="0"
            traveltime="1.17" CO_perVeh="2.157625" CO2_perVeh="145.526260" HC_perVeh="0.013143" PMx_perVeh="0.002040" NOx_perVeh="0.056357" fuel_perVeh="0.062556" electricity_perVeh="0"/>
        <edge id=":1110673464_1" sampledSeconds="710.16" CO_abs="15688.751514" CO2_abs="2064706.484648" HC_abs="120.643544" PMx_abs="36.300640" NOx_abs="771.190846" fuel_abs="887.522842" electricity_abs="0"
            CO_normed="834.106411" CO2_normed="109771.954444" HC_normed="6.414121" PMx_normed="1.929956" NOx_normed="41.001046" fuel_normed="47.185940" electricity_normed="0"
            traveltime="0.70" CO_perVeh="15.484693" CO2_perVeh="2037.851522" HC_perVeh="0.119074" PMx_perVeh="0.035828" NOx_perVeh="0.761160" fuel_perVeh="0.875979" electricity_perVeh="0"/>
        <edge id=":1110673479_0" sampledSeconds="133.32" CO_abs="6734.983016" CO2_abs="466554.721518" HC_abs="41.649795" PMx_abs="8.271587" NOx_abs="191.512323" fuel_abs="200.551438" electricity_abs="0"
            CO_normed="17199.360755" CO2_normed="1191457.045799" HC_normed="106.362533" PMx_normed="21.123439" NOx_normed="489.071691" fuel_normed="512.155193" electricity_normed="0"
            traveltime="0.03" CO_perVeh="1.418806" CO2_perVeh="98.285437" HC_perVeh="0.008774" PMx_perVeh="0.001743" NOx_perVeh="0.040344" fuel_perVeh="0.042249" electricity_perVeh="0"/>
        <edge id=":1110673511_0" sampledSeconds="11.91" CO_abs="170.085838" CO2_abs="24015.803001" HC_abs="1.326879" PMx_abs="0.308088" NOx_abs="8.806435" fuel_abs="10.323401" electricity_abs="0"
            CO_normed="434.354130" CO2_normed="61329.992767" HC_normed="3.388498" PMx_normed="0.786775" NOx_normed="22.489300" fuel_normed="26.363228" electricity_normed="0"
            traveltime="0.02" CO_perVeh="0.336804" CO2_perVeh="47.556046" HC_perVeh="0.002627" PMx_perVeh="0.000610" NOx_perVeh="0.017438" fuel_perVeh="0.020442" electricity_perVeh="0"/>
        <edge id=":1110673517_0" sampledSeconds="16.94" CO_abs="911.111606" CO2_abs="64217.182338" HC_abs="5.660979" PMx_abs="1.136175" NOx_abs="26.304330" fuel_abs="27.604148" electricity_abs="0"
            CO_normed="2326.737449" CO2_normed="163993.655682" HC_normed="14.456638" PMx_normed="2.901491" NOx_normed="67.174284" fuel_normed="70.493674" electricity_normed="0"
            traveltime="0.03" CO_perVeh="1.462850" CO2_perVeh="103.104922" HC_perVeh="0.009089" PMx_perVeh="0.001824" NOx_perVeh="0.042233" fuel_perVeh="0.044320" electricity_perVeh="0"/>
        <edge id=":1110673534_0" sampledSeconds="474.02" CO_abs="2990.068927" CO2_abs="261749.230923" HC_abs="19.608138" PMx_abs="3.573995" NOx_abs="99.587431" fuel_abs="112.515584" electricity_abs="0"
            CO_normed="147.981457" CO2_normed="12954.227318" HC_normed="0.970426" PMx_normed="0.176881" NOx_normed="4.928680" fuel_normed="5.568507" electricity_normed="0"
            traveltime="1.43" CO_perVeh="9.007879" CO2_perVeh="788.545525" HC_perVeh="0.059071" PMx_perVeh="0.010767" NOx_perVeh="0.300017" fuel_perVeh="0.338964" electricity_perVeh="0"/>
        <edge id=":1110673534_1" sampledSeconds="184.64" CO_abs="2452.058025" CO2_abs="322359.684328" HC_abs="18.438972" PMx_abs="4.256638" NOx_abs="119.129134" fuel_abs="138.569015" electricity_abs="0"
            CO_normed="118.000741" CO2_normed="15512.961482" HC_normed="0.887341" PMx_normed="0.204843" NOx_normed="5.732868" fuel_normed="6.668377" electricity_normed="0"
            traveltime="1.23" CO_perVeh="16.280785" CO2_perVeh="2140.352574" HC_perVeh="0.122428" PMx_perVeh="0.028263" NOx_perVeh="0.790975" fuel_perVeh="0.920049" electricity_perVeh="0"/>
        <edge id=":1110673549_0" sampledSeconds="59.92" CO_abs="8.103208" CO2_abs="7157.983394" HC_abs="0.158079" PMx_abs="0.064312" NOx_abs="2.311874" fuel_abs="3.076933" electricity_abs="0"
            CO_normed="0.388488" CO2_normed="343.171306" HC_normed="0.007579" PMx_normed="0.003083" NOx_normed="0.110837" fuel_normed="0.147516" electricity_normed="0"
            traveltime="1.25" CO_perVeh="0.168823" CO2_perVeh="149.130487" HC_perVeh="0.003293" PMx_perVeh="0.001340" NOx_perVeh="0.048166" fuel_perVeh="0.064105" electricity_perVeh="0"/>
        <edge id=":1110673549_1" sampledSeconds="638.63" CO_abs="13876.628668" CO2_abs="1816599.092588" HC_abs="106.615559" PMx_abs="32.039873" NOx_abs="679.037551" fuel_abs="780.872771" electricity_abs="0"
            CO_normed="643.533233" CO2_normed="84245.382348" HC_normed="4.944332" PMx_normed="1.485860" NOx_normed="31.490590" fuel_normed="36.213232" electricity_normed="0"
            traveltime="0.80" CO_perVeh="17.467927" CO2_perVeh="2286.738386" HC_perVeh="0.134208" PMx_perVeh="0.040332" NOx_perVeh="0.854774" fuel_perVeh="0.982964" electricity_perVeh="0"/>
        <edge id=":1110673556_0" sampledSeconds="418.88" CO_abs="51733.123431" CO2_abs="2595685.133934" HC_abs="297.277863" PMx_abs="52.359125" NOx_abs="1118.004938" fuel_abs="1115.772650" electricity_abs="0"
            CO_normed="1839.155632" CO2_normed="92278.768718" HC_normed="10.568476" PMx_normed="1.861411" NOx_normed="39.746007" fuel_normed="39.666647" electricity_normed="0"
            traveltime="2.60" CO_perVeh="321.134004" CO2_perVeh="16112.747620" HC_perVeh="1.845356" PMx_perVeh="0.325020" NOx_perVeh="6.940029" fuel_perVeh="6.926173" electricity_perVeh="0"/>
        <edge id=":1110673556_2" sampledSeconds="248.74" CO_abs="24222.452961" CO2_abs="1041155.620079" HC_abs="134.773252" PMx_abs="20.241384" NOx_abs="445.098962" fuel_abs="447.551690" electricity_abs="0"
            CO_normed="900.403522" CO2_normed="38702.116127" HC_normed="5.009827" PMx_normed="0.752418" NOx_normed="16.545338" fuel_normed="16.636512" electricity_normed="0"
            traveltime="3.02" CO_perVeh="293.813713" CO2_perVeh="12629.018156" HC_perVeh="1.634774" PMx_perVeh="0.245524" NOx_perVeh="5.398965" fuel_perVeh="5.428716" electricity_perVeh="0"/>
        <edge id=":1110673556_3" sampledSeconds="410.48" CO_abs="34702.429029" CO2_abs="1229977.645190" HC_abs="186.621051" PMx_abs="23.388479" NOx_abs="524.054999" fuel_abs="528.724663" electricity_abs="0"
            CO_normed="2934.463641" CO2_normed="104007.839785" HC_normed="15.780817" PMx_normed="1.977747" NOx_normed="44.314487" fuel_normed="44.709357" electricity_normed="0"
            traveltime="1.74" CO_perVeh="146.880011" CO2_perVeh="5205.950557" HC_perVeh="0.789884" PMx_perVeh="0.098993" NOx_perVeh="2.218093" fuel_perVeh="2.237857" electricity_perVeh="0"/>
        <edge id=":1110673556_4" sampledSeconds="204.62" CO_abs="21265.872149" CO2_abs="849019.111543" HC_abs="116.756272" PMx_abs="16.591604" NOx_abs="364.009422" fuel_abs="364.960904" electricity_abs="0"
            CO_normed="1098.598757" CO2_normed="43860.479081" HC_normed="6.031650" PMx_normed="0.857125" NOx_normed="18.804792" fuel_normed="18.853946" electricity_normed="0"
            traveltime="2.42" CO_perVeh="251.670139" CO2_perVeh="10047.683721" HC_perVeh="1.381748" PMx_perVeh="0.196353" NOx_perVeh="4.307855" fuel_perVeh="4.319116" electricity_perVeh="0"/>
        <edge id=":1110673556_5" sampledSeconds="25.22" CO_abs="2267.538004" CO2_abs="91882.843202" HC_abs="12.481118" PMx_abs="1.790426" NOx_abs="39.372395" fuel_abs="39.496904" electricity_abs="0"
            CO_normed="163.271357" CO2_normed="6615.914031" HC_normed="0.898688" PMx_normed="0.128917" NOx_normed="2.834962" fuel_normed="2.843927" electricity_normed="0"
            traveltime="1.74" CO_perVeh="156.768060" CO2_perVeh="6352.394098" HC_perVeh="0.862892" PMx_perVeh="0.123783" NOx_perVeh="2.722042" fuel_perVeh="2.730650" electricity_perVeh="0"/>
        <edge id=":1110673556_6" sampledSeconds="306.82" CO_abs="37132.760242" CO2_abs="1901416.454210" HC_abs="214.336614" PMx_abs="38.408641" NOx_abs="818.419971" fuel_abs="817.335964" electricity_abs="0"
            CO_normed="1353.385682" CO2_normed="69301.333575" HC_normed="7.811973" PMx_normed="1.399888" NOx_normed="29.829128" fuel_normed="29.789619" electricity_normed="0"
            traveltime="2.43" CO_perVeh="294.061591" CO2_perVeh="15057.688766" HC_perVeh="1.697374" PMx_perVeh="0.304166" NOx_perVeh="6.481228" fuel_perVeh="6.472643" electricity_perVeh="0"/>
        <edge id=":1110673561_0" sampledSeconds="99.94" CO_abs="9682.407116" CO2_abs="705357.552526" HC_abs="61.060630" PMx_abs="14.159992" NOx_abs="297.335626" fuel_abs="303.199658" electricity_abs="0"
            CO_normed="443.388530" CO2_normed="32300.588546" HC_normed="2.796162" PMx_normed="0.648432" NOx_normed="13.615954" fuel_normed="13.884486" electricity_normed="0"
            traveltime="1.18" CO_perVeh="114.261802" CO2_perVeh="8323.903740" HC_perVeh="0.720575" PMx_perVeh="0.167102" NOx_perVeh="3.508849" fuel_perVeh="3.578050" electricity_perVeh="0"/>
        <edge id=":1110673561_1" sampledSeconds="1309.06" CO_abs="122969.282981" CO2_abs="8497293.383783" HC_abs="765.564679" PMx_abs="178.102570" NOx_abs="3635.978344" fuel_abs="3652.575564" electricity_abs="0"
            CO_normed="5490.051431" CO2_normed="379367.729652" HC_normed="34.179182" PMx_normed="7.951516" NOx_normed="162.330849" fuel_normed="163.071844" electricity_normed="0"
            traveltime="1.19" CO_perVeh="111.578047" CO2_perVeh="7710.148219" HC_perVeh="0.694647" PMx_perVeh="0.161604" NOx_perVeh="3.299160" fuel_perVeh="3.314220" electricity_perVeh="0"/>
        <edge id=":1110673562_0" sampledSeconds="103.98" CO_abs="2082.252102" CO2_abs="169255.400891" HC_abs="13.334517" PMx_abs="2.283117" NOx_abs="64.446757" fuel_abs="72.756309" electricity_abs="0"
            CO_normed="5908.355258" CO2_normed="480259.348488" HC_normed="37.836468" PMx_normed="6.478305" NOx_normed="182.866586" fuel_normed="206.444802" electricity_normed="0"
            traveltime="0.03" CO_perVeh="0.530776" CO2_perVeh="43.143972" HC_perVeh="0.003399" PMx_perVeh="0.000582" NOx_perVeh="0.016428" fuel_perVeh="0.018546" electricity_perVeh="0"/>
        <edge id=":1110673564_0" sampledSeconds="28.57" CO_abs="479.299837" CO2_abs="59867.341372" HC_abs="3.540581" PMx_abs="0.789097" NOx_abs="22.182927" fuel_abs="25.734496" electricity_abs="0"
            CO_normed="3672.014073" CO2_normed="458655.945816" HC_normed="27.125114" PMx_normed="6.045430" NOx_normed="169.947939" fuel_normed="197.157240" electricity_normed="0"
            traveltime="7.855507e-03" CO_perVeh="0.131766" CO2_perVeh="16.458376" HC_perVeh="0.000973" PMx_perVeh="0.000217" NOx_perVeh="0.006098" fuel_perVeh="0.007075" electricity_perVeh="0"/>
        <edge id=":1110673588_0" sampledSeconds="11.73" CO_abs="192.946895" CO2_abs="26064.524442" HC_abs="1.473022" PMx_abs="0.322759" NOx_abs="9.508087" fuel_abs="11.204083" electricity_abs="0"
            CO_normed="591.282248" CO2_normed="79874.260898" HC_normed="4.514048" PMx_normed="0.989090" NOx_normed="29.137360" fuel_normed="34.334709" electricity_normed="0"
            traveltime="0.02" CO_perVeh="0.321578" CO2_perVeh="43.440874" HC_perVeh="0.002455" PMx_perVeh="0.000538" NOx_perVeh="0.015847" fuel_perVeh="0.018673" electricity_perVeh="0"/>
        <edge id=":1110673601_0" sampledSeconds="29.80" CO_abs="453.183504" CO2_abs="55184.071756" HC_abs="3.313884" PMx_abs="0.726965" NOx_abs="20.472390" fuel_abs="23.721360" electricity_abs="0"
            CO_normed="1239.975536" CO2_normed="150991.592680" HC_normed="9.067264" PMx_normed="1.989082" NOx_normed="56.015417" fuel_normed="64.905067" electricity_normed="0"
            traveltime="0.02" CO_perVeh="0.336359" CO2_perVeh="40.958357" HC_perVeh="0.002460" PMx_perVeh="0.000540" NOx_perVeh="0.015195" fuel_perVeh="0.017606" electricity_perVeh="0"/>
        <edge id=":1110673617_0" sampledSeconds="238.20" CO_abs="6214.345485" CO2_abs="737485.869891" HC_abs="45.998795" PMx_abs="13.379397" NOx_abs="280.222717" fuel_abs="317.011121" electricity_abs="0"
            CO_normed="15869.790557" CO2_normed="1883343.357882" HC_normed="117.468725" PMx_normed="34.167432" NOx_normed="715.614515" fuel_normed="809.562344" electricity_normed="0"
            traveltime="0.01" CO_perVeh="0.380871" CO2_perVeh="45.199775" HC_perVeh="0.002819" PMx_perVeh="0.000820" NOx_perVeh="0.017175" fuel_perVeh="0.019429" electricity_perVeh="0"/>
        <edge id=":1110673621_0" sampledSeconds="25.66" CO_abs="524.992128" CO2_abs="60023.272540" HC_abs="3.779166" PMx_abs="0.854871" NOx_abs="22.727216" fuel_abs="25.801461" electricity_abs="0"
            CO_normed="1608.828823" CO2_normed="183940.226554" HC_normed="11.581186" PMx_normed="2.619738" NOx_normed="69.647140" fuel_normed="79.068107" electricity_normed="0"
            traveltime="0.02" CO_perVeh="0.397721" CO2_perVeh="45.472176" HC_perVeh="0.002863" PMx_perVeh="0.000648" NOx_perVeh="0.017218" fuel_perVeh="0.019547" electricity_perVeh="0"/>
        <edge id=":1110673630_0" sampledSeconds="54.36" CO_abs="323.485393" CO2_abs="28116.743359" HC_abs="2.118148" PMx_abs="0.391794" NOx_abs="10.759929" fuel_abs="12.086258" electricity_abs="0"
            CO_normed="17.676803" CO2_normed="1536.434530" HC_normed="0.115746" PMx_normed="0.021410" NOx_normed="0.587974" fuel_normed="0.660451" electricity_normed="0"
            traveltime="1.27" CO_perVeh="7.550721" CO2_perVeh="656.294522" HC_perVeh="0.049441" PMx_perVeh="0.009145" NOx_perVeh="0.251156" fuel_perVeh="0.282115" electricity_perVeh="0"/>
        <edge id=":1110673630_1" sampledSeconds="7.49" CO_abs="0" CO2_abs="0" HC_abs="0" PMx_abs="0" NOx_abs="0" fuel_abs="0" electricity_abs="0"
            CO_normed="0" CO2_normed="0" HC_normed="0" PMx_normed="0" NOx_normed="0" fuel_normed="0" electricity_normed="0"
            traveltime="1.06" CO_perVeh="0" CO2_perVeh="0" HC_perVeh="0" PMx_perVeh="0" NOx_perVeh="0" fuel_perVeh="0" electricity_perVeh="0"/>
        <edge id=":1110673650_0" sampledSeconds="143.42" CO_abs="2087.737407" CO2_abs="287914.948468" HC_abs="16.006833" PMx_abs="3.732657" NOx_abs="105.816024" fuel_abs="123.762691" electricity_abs="0"
            CO_normed="5331.527748" CO2_normed="735258.434054" HC_normed="40.877208" PMx_normed="9.532217" NOx_normed="270.226067" fuel_normed="316.057096" electricity_normed="0"
            traveltime="0.02" CO_perVeh="0.335200" CO2_perVeh="46.226644" HC_perVeh="0.002570" PMx_perVeh="0.000599" NOx_perVeh="0.016989" fuel_perVeh="0.019871" electricity_perVeh="0"/>
        <edge id=":1110673655_0" sampledSeconds="44.99" CO_abs="777.060381" CO2_abs="85315.715004" HC_abs="5.507888" PMx_abs="1.195694" NOx_abs="32.232102" fuel_abs="36.673661" electricity_abs="0"
            CO_normed="1984.406164" CO2_normed="217873.713567" HC_normed="14.065685" PMx_normed="3.053486" NOx_normed="82.312242" fuel_normed="93.654805" electricity_normed="0"
            traveltime="0.02" CO_perVeh="0.415874" CO2_perVeh="45.660003" HC_perVeh="0.002948" PMx_perVeh="0.000640" NOx_perVeh="0.017250" fuel_perVeh="0.019627" electricity_perVeh="0"/>
        <edge id=":1110673663_0" sampledSeconds="108.10" CO_abs="2117.573795" CO2_abs="242626.408926" HC_abs="15.152799" PMx_abs="3.458968" NOx_abs="91.715960" fuel_abs="104.294799" electricity_abs="0"
            CO_normed="99.042527" CO2_normed="11348.049687" HC_normed="0.708722" PMx_normed="0.161782" NOx_normed="4.289711" fuel_normed="4.878045" electricity_normed="0"
            traveltime="1.27" CO_perVeh="24.871903" CO2_perVeh="2849.761633" HC_perVeh="0.177977" PMx_perVeh="0.040627" NOx_perVeh="1.077247" fuel_perVeh="1.224992" electricity_perVeh="0"/>
        <edge id=":1110673663_1" sampledSeconds="154.00" CO_abs="2594.586778" CO2_abs="312831.585712" HC_abs="18.949156" PMx_abs="4.427285" NOx_abs="117.712706" fuel_abs="134.472999" electricity_abs="0"
            CO_normed="121.501589" CO2_normed="14649.552297" HC_normed="0.887368" PMx_normed="0.207325" NOx_normed="5.512354" fuel_normed="6.297220" electricity_normed="0"
            traveltime="1.25" CO_perVeh="21.033807" CO2_perVeh="2536.064439" HC_perVeh="0.153617" PMx_perVeh="0.035891" NOx_perVeh="0.954274" fuel_perVeh="1.090146" electricity_perVeh="0"/>
        <edge id=":1110673666_0" sampledSeconds="191.44" CO_abs="3738.568970" CO2_abs="304023.046303" HC_abs="23.951798" PMx_abs="4.050817" NOx_abs="115.451485" fuel_abs="130.687752" electricity_abs="0"