<?xml version="1.0" encoding="UTF-8"?>

<!-- generated on Tue Nov 10 04:45:12 2020 by Eclipse SUMO sumo Version 1.7.0
<configuration xmlns:xsi="http://www.w3.org/2001/XMLSchema-instance" xsi:noNamespaceSchemaLocation="http://sumo.dlr.de/xsd/sumoConfiguration.xsd">

    <input>
        <net-file value="../dataSets/Porto/8AM9AM_Routing_SaoBento/Porto.net.xml"/>
        <route-files value="../results/Porto/8AM9AM_Routing_SaoBento/cost_PMx-ttime/solution3/Porto.rou.xml"/>
        <additional-files value="moreOutputInfo.xml"/>
    </input>

    <output>
        <emission-output.precision value="6"/>
        <tripinfo-output value="../results/Porto/8AM9AM_Routing_SaoBento/cost_PMx-ttime/solution3/Porto-tripinfo"/>
    </output>

    <processing>
        <collision.action value="warn"/>
        <time-to-teleport value="-1"/>
    </processing>

    <emissions>
        <device.emissions.probability value="1"/>
    </emissions>

    <gui_only>
        <quit-on-end value="true"/>
        <start value="true"/>
    </gui_only>

</configuration>
-->

<meandata xmlns:xsi="http://www.w3.org/2001/XMLSchema-instance" xsi:noNamespaceSchemaLocation="http://sumo.dlr.de/xsd/meandata_file.xsd">
    <interval begin="0.00" end="8561.00" id="emissions-detector">
        <edge id=":1092997347_0" sampledSeconds="603.92" CO_abs="72339.966611" CO2_abs="3081313.365719" HC_abs="402.284269" PMx_abs="62.352880" NOx_abs="1333.499061" fuel_abs="1324.531723" electricity_abs="0"
            CO_normed="69135.901658" CO2_normed="2944836.551749" HC_normed="384.466387" PMx_normed="59.591161" NOx_normed="1274.436031" fuel_normed="1265.865872" electricity_normed="0"
            traveltime="0.07" CO_perVeh="8.289243" CO2_perVeh="353.079441" HC_perVeh="0.046097" PMx_perVeh="0.007145" NOx_perVeh="0.152802" fuel_perVeh="0.151775" electricity_perVeh="0"/>
        <edge id=":1103427051_0" sampledSeconds="19.53" CO_abs="1691.684555" CO2_abs="94679.146527" HC_abs="9.950018" PMx_abs="1.855095" NOx_abs="40.388560" fuel_abs="40.698386" electricity_abs="0"
            CO_normed="2453.010403" CO2_normed="137288.556967" HC_normed="14.427925" PMx_normed="2.689962" NOx_normed="58.565031" fuel_normed="59.014291" electricity_normed="0"
            traveltime="0.03" CO_perVeh="2.630784" CO2_perVeh="147.238055" HC_perVeh="0.015474" PMx_perVeh="0.002885" NOx_perVeh="0.062809" fuel_perVeh="0.063291" electricity_perVeh="0"/>
        <edge id=":1105984386_0" sampledSeconds="10.47" CO_abs="106.451249" CO2_abs="8906.313732" HC_abs="0.685746" PMx_abs="0.108117" NOx_abs="3.313900" fuel_abs="3.828493" electricity_abs="0"
            CO_normed="4.610091" CO2_normed="385.706327" HC_normed="0.029698" PMx_normed="0.004682" NOx_normed="0.143515" fuel_normed="0.165801" electricity_normed="0"
            traveltime="1.00" CO_perVeh="10.211832" CO2_perVeh="854.379632" HC_perVeh="0.065783" PMx_perVeh="0.010372" NOx_perVeh="0.317901" fuel_perVeh="0.367266" electricity_perVeh="0"/>
        <edge id=":1105984390_0" sampledSeconds="10.60" CO_abs="3.340111" CO2_abs="450.861815" HC_abs="0.025090" PMx_abs="0.003439" NOx_abs="0.152359" fuel_abs="0.193810" electricity_abs="0"
            CO_normed="0.111828" CO2_normed="15.094955" HC_normed="0.000840" PMx_normed="0.000115" NOx_normed="0.005101" fuel_normed="0.006489" electricity_normed="0"
            traveltime="1.10" CO_perVeh="0.346223" CO2_perVeh="46.734542" HC_perVeh="0.002601" PMx_perVeh="0.000356" NOx_perVeh="0.015793" fuel_perVeh="0.020090" electricity_perVeh="0"/>
        <edge id=":1105984390_1" sampledSeconds="2400.66" CO_abs="64161.990242" CO2_abs="7521705.823280" HC_abs="472.122646" PMx_abs="136.404499" NOx_abs="2869.292041" fuel_abs="3233.233479" electricity_abs="0"
            CO_normed="2054.901951" CO2_normed="240896.018242" HC_normed="15.120568" PMx_normed="4.368597" NOx_normed="91.894185" fuel_normed="103.550058" electricity_normed="0"
            traveltime="0.65" CO_perVeh="17.334282" CO2_perVeh="2032.096753" HC_perVeh="0.127551" PMx_perVeh="0.036852" NOx_perVeh="0.775180" fuel_perVeh="0.873504" electricity_perVeh="0"/>
        <edge id=":1105984395_0" sampledSeconds="4.12" CO_abs="98.914961" CO2_abs="7474.160392" HC_abs="0.622234" PMx_abs="0.109312" NOx_abs="2.911880" fuel_abs="3.212843" electricity_abs="0"
            CO_normed="45.211838" CO2_normed="3416.273166" HC_normed="0.284409" PMx_normed="0.049964" NOx_normed="1.330956" fuel_normed="1.468519" electricity_normed="0"
            traveltime="0.10" CO_perVeh="2.292813" CO2_perVeh="173.248364" HC_perVeh="0.014423" PMx_perVeh="0.002534" NOx_perVeh="0.067496" fuel_perVeh="0.074473" electricity_perVeh="0"/>
        <edge id=":1105984398_0" sampledSeconds="11.33" CO_abs="576.148945" CO2_abs="39416.220818" HC_abs="3.544591" PMx_abs="0.666212" NOx_abs="15.982089" fuel_abs="16.943361" electricity_abs="0"
            CO_normed="20.039481" CO2_normed="1370.966002" HC_normed="0.123287" PMx_normed="0.023172" NOx_normed="0.555885" fuel_normed="0.589320" electricity_normed="0"
            traveltime="1.21" CO_perVeh="61.442651" CO2_perVeh="4203.491311" HC_perVeh="0.378008" PMx_perVeh="0.071047" NOx_perVeh="1.704389" fuel_perVeh="1.806903" electricity_perVeh="0"/>
        <edge id=":1105984398_1" sampledSeconds="644.03" CO_abs="13335.870938" CO2_abs="1504112.181639" HC_abs="95.268470" PMx_abs="22.063900" NOx_abs="572.813736" fuel_abs="646.553267" electricity_abs="0"
            CO_normed="448.990290" CO2_normed="50640.244506" HC_normed="3.207486" PMx_normed="0.742844" NOx_normed="19.285415" fuel_normed="21.768068" electricity_normed="0"
            traveltime="0.95" CO_perVeh="19.704642" CO2_perVeh="2222.426403" HC_perVeh="0.140766" PMx_perVeh="0.032601" NOx_perVeh="0.846371" fuel_perVeh="0.955326" electricity_perVeh="0"/>
        <edge id=":1106006327_0" sampledSeconds="66.95" CO_abs="9100.185383" CO2_abs="297839.323768" HC_abs="48.452972" PMx_abs="6.228680" NOx_abs="130.471699" fuel_abs="128.030520" electricity_abs="0"
            CO_normed="431.911255" CO2_normed="14135.992920" HC_normed="2.299666" PMx_normed="0.295624" NOx_normed="6.192423" fuel_normed="6.076560" electricity_normed="0"
            traveltime="2.08" CO_perVeh="282.102244" CO2_perVeh="9232.904407" HC_perVeh="1.502023" PMx_perVeh="0.193087" NOx_perVeh="4.044572" fuel_perVeh="3.968897" electricity_perVeh="0"/>
        <edge id=":1106006327_1" sampledSeconds="678.23" CO_abs="91545.004464" CO2_abs="3071168.797531" HC_abs="489.214553" PMx_abs="63.989025" NOx_abs="1343.676609" fuel_abs="1320.184530" electricity_abs="0"
            CO_normed="3788.950626" CO2_normed="127112.418695" HC_normed="20.248071" PMx_normed="2.648438" NOx_normed="55.613350" fuel_normed="54.641037" electricity_normed="0"
            traveltime="2.28" CO_perVeh="307.294422" CO2_perVeh="10309.170287" HC_perVeh="1.642175" PMx_perVeh="0.214796" NOx_perVeh="4.510397" fuel_perVeh="4.431540" electricity_perVeh="0"/>
        <edge id=":1106006327_2" sampledSeconds="0.00" CO_abs="0" CO2_abs="0" HC_abs="0" PMx_abs="0" NOx_abs="0" fuel_abs="0" electricity_abs="0"
            CO_normed="0" CO2_normed="0" HC_normed="0" PMx_normed="0" NOx_normed="0" fuel_normed="0" electricity_normed="0"/>
        <edge id=":1106006327_3" sampledSeconds="0.00" CO_abs="0" CO2_abs="0" HC_abs="0" PMx_abs="0" NOx_abs="0" fuel_abs="0" electricity_abs="0"
            CO_normed="0" CO2_normed="0" HC_normed="0" PMx_normed="0" NOx_normed="0" fuel_normed="0" electricity_normed="0"/>
        <edge id=":1107381198_0" sampledSeconds="0.00" CO_abs="0" CO2_abs="0" HC_abs="0" PMx_abs="0" NOx_abs="0" fuel_abs="0" electricity_abs="0"
            CO_normed="0" CO2_normed="0" HC_normed="0" PMx_normed="0" NOx_normed="0" fuel_normed="0" electricity_normed="0"/>
        <edge id=":1107381198_1" sampledSeconds="104.05" CO_abs="5157.244934" CO2_abs="202436.135163" HC_abs="28.140532" PMx_abs="3.491085" NOx_abs="83.839009" fuel_abs="87.020346" electricity_abs="0"
            CO_normed="236.497430" CO2_normed="9283.178587" HC_normed="1.290449" PMx_normed="0.160092" NOx_normed="3.844632" fuel_normed="3.990520" electricity_normed="0"
            traveltime="1.56" CO_perVeh="77.213845" CO2_perVeh="3030.857105" HC_perVeh="0.421318" PMx_perVeh="0.052268" NOx_perVeh="1.255231" fuel_perVeh="1.302861" electricity_perVeh="0"/>
        <edge id=":1110338277_0" sampledSeconds="160.86" CO_abs="2832.918817" CO2_abs="342427.616451" HC_abs="20.755162" PMx_abs="4.713959" NOx_abs="128.237191" fuel_abs="147.195259" electricity_abs="0"
            CO_normed="4254.554600" CO2_normed="514267.116335" HC_normed="31.170667" PMx_normed="7.079551" NOx_normed="192.590105" fuel_normed="221.061847" electricity_normed="0"
            traveltime="0.02" CO_perVeh="0.383692" CO2_perVeh="46.378533" HC_perVeh="0.002811" PMx_perVeh="0.000638" NOx_perVeh="0.017368" fuel_perVeh="0.019936" electricity_perVeh="0"/>
        <edge id=":1110338293_0" sampledSeconds="6716.99" CO_abs="652402.932790" CO2_abs="11357508.058775" HC_abs="3236.360234" PMx_abs="271.696936" NOx_abs="5137.968886" fuel_abs="4882.403465" electricity_abs="0"
            CO_normed="914476.719248" CO2_normed="15919880.470191" HC_normed="4536.423643" PMx_normed="380.839064" NOx_normed="7201.918775" fuel_normed="6843.691342" electricity_normed="0"
            traveltime="0.45" CO_perVeh="43.613778" CO2_perVeh="759.260597" HC_perVeh="0.216354" PMx_perVeh="0.018163" NOx_perVeh="0.343478" fuel_perVeh="0.326393" electricity_perVeh="0"/>
        <edge id=":1110338295_0" sampledSeconds="0.00" CO_abs="0" CO2_abs="0" HC_abs="0" PMx_abs="0" NOx_abs="0" fuel_abs="0" electricity_abs="0"
            CO_normed="0" CO2_normed="0" HC_normed="0" PMx_normed="0" NOx_normed="0" fuel_normed="0" electricity_normed="0"/>
        <edge id=":1110673403_0" sampledSeconds="201.08" CO_abs="2924.168317" CO2_abs="369545.095381" HC_abs="21.760932" PMx_abs="5.019776" NOx_abs="137.667204" fuel_abs="158.851939" electricity_abs="0"
            CO_normed="4098.822545" CO2_normed="517993.358787" HC_normed="30.502417" PMx_normed="7.036247" NOx_normed="192.968864" fuel_normed="222.663622" electricity_normed="0"
            traveltime="0.02" CO_perVeh="0.337963" CO2_perVeh="42.710455" HC_perVeh="0.002515" PMx_perVeh="0.000580" NOx_perVeh="0.015911" fuel_perVeh="0.018359" electricity_perVeh="0"/>
        <edge id=":1110673412_0" sampledSeconds="953.71" CO_abs="168804.251225" CO2_abs="11515302.442245" HC_abs="1050.452775" PMx_abs="253.082121" NOx_abs="4948.953980" fuel_abs="4949.861339" electricity_abs="0"
            CO_normed="244772.929528" CO2_normed="16697650.045750" HC_normed="1523.198623" PMx_normed="366.979219" NOx_normed="7176.181612" fuel_normed="7177.497319" electricity_normed="0"
            traveltime="0.02" CO_perVeh="2.752124" CO2_perVeh="187.741351" HC_perVeh="0.017126" PMx_perVeh="0.004126" NOx_perVeh="0.080686" fuel_perVeh="0.080701" electricity_perVeh="0"/>
        <edge id=":1110673414_0" sampledSeconds="0.00" CO_abs="0" CO2_abs="0" HC_abs="0" PMx_abs="0" NOx_abs="0" fuel_abs="0" electricity_abs="0"
            CO_normed="0" CO2_normed="0" HC_normed="0" PMx_normed="0" NOx_normed="0" fuel_normed="0" electricity_normed="0"/>
        <edge id=":1110673414_1" sampledSeconds="239.29" CO_abs="17241.742910" CO2_abs="667170.027518" HC_abs="94.015603" PMx_abs="12.364610" NOx_abs="281.930552" fuel_abs="286.792383" electricity_abs="0"
            CO_normed="802.918415" CO2_normed="31068.964644" HC_normed="4.378146" PMx_normed="0.575799" NOx_normed="13.129023" fuel_normed="13.355430" electricity_normed="0"
            traveltime="1.55" CO_perVeh="111.866055" CO2_perVeh="4328.662108" HC_perVeh="0.609982" PMx_perVeh="0.080223" NOx_perVeh="1.829192" fuel_perVeh="1.860736" electricity_perVeh="0"/>
        <edge id=":1110673417_0" sampledSeconds="29.30" CO_abs="366.475735" CO2_abs="46930.027655" HC_abs="2.734294" PMx_abs="0.605060" NOx_abs="17.290779" fuel_abs="20.173294" electricity_abs="0"
            CO_normed="550.383235" CO2_normed="70480.793114" HC_normed="4.106437" PMx_normed="0.908696" NOx_normed="25.967762" fuel_normed="30.296803" electricity_normed="0"
            traveltime="0.02" CO_perVeh="0.279455" CO2_perVeh="35.786399" HC_perVeh="0.002085" PMx_perVeh="0.000461" NOx_perVeh="0.013185" fuel_perVeh="0.015383" electricity_perVeh="0"/>
        <edge id=":1110673446_0" sampledSeconds="1327.53" CO_abs="13435.522583" CO2_abs="1093669.253721" HC_abs="87.156637" PMx_abs="19.964240" NOx_abs="446.771902" fuel_abs="470.118219" electricity_abs="0"
            CO_normed="18832.644667" CO2_normed="1533002.107774" HC_normed="122.167929" PMx_normed="27.983983" NOx_normed="626.242591" fuel_normed="658.967250" electricity_normed="0"
            traveltime="0.02" CO_perVeh="0.230638" CO2_perVeh="18.774271" HC_perVeh="0.001496" PMx_perVeh="0.000343" NOx_perVeh="0.007669" fuel_perVeh="0.008070" electricity_perVeh="0"/>
        <edge id=":1110673451_0" sampledSeconds="36.46" CO_abs="460.733207" CO2_abs="31382.156690" HC_abs="2.819902" PMx_abs="0.472402" NOx_abs="12.359167" fuel_abs="13.489947" electricity_abs="0"
            CO_normed="717.569142" CO2_normed="48876.154171" HC_normed="4.391857" PMx_normed="0.735742" NOx_normed="19.248791" fuel_normed="21.009925" electricity_normed="0"
            traveltime="0.03" CO_perVeh="0.339459" CO2_perVeh="23.121711" HC_perVeh="0.002078" PMx_perVeh="0.000348" NOx_perVeh="0.009106" fuel_perVeh="0.009939" electricity_perVeh="0"/>
        <edge id=":1110673464_0" sampledSeconds="1030.28" CO_abs="3498.961077" CO2_abs="261006.411909" HC_abs="21.910445" PMx_abs="3.706297" NOx_abs="100.942536" fuel_abs="112.196426" electricity_abs="0"
            CO_normed="104.203527" CO2_normed="7773.104090" HC_normed="0.652521" PMx_normed="0.110378" NOx_normed="3.006198" fuel_normed="3.341353" electricity_normed="0"
            traveltime="1.22" CO_perVeh="4.149281" CO2_perVeh="309.517323" HC_perVeh="0.025983" PMx_perVeh="0.004395" NOx_perVeh="0.119704" fuel_perVeh="0.133049" electricity_perVeh="0"/>
        <edge id=":1110673464_1" sampledSeconds="2612.41" CO_abs="64404.947543" CO2_abs="7800791.158646" HC_abs="478.905664" PMx_abs="139.422256" NOx_abs="2961.753916" fuel_abs="3353.200605" electricity_abs="0"
            CO_normed="1879.460721" CO2_normed="227642.147585" HC_normed="13.975392" PMx_normed="4.068611" NOx_normed="86.429698" fuel_normed="97.852868" electricity_normed="0"
            traveltime="0.72" CO_perVeh="17.751193" CO2_perVeh="2150.042138" HC_perVeh="0.131995" PMx_perVeh="0.038427" NOx_perVeh="0.816314" fuel_perVeh="0.924204" electricity_perVeh="0"/>
        <edge id=":1110673479_0" sampledSeconds="135.00" CO_abs="6217.340188" CO2_abs="427503.804697" HC_abs="38.359904" PMx_abs="7.517133" NOx_abs="175.094891" fuel_abs="183.765292" electricity_abs="0"
            CO_normed="8714.879366" CO2_normed="599234.395090" HC_normed="53.769285" PMx_normed="10.536806" NOx_normed="245.431455" fuel_normed="257.584804" electricity_normed="0"
            traveltime="0.03" CO_perVeh="1.314402" CO2_perVeh="90.378169" HC_perVeh="0.008110" PMx_perVeh="0.001589" NOx_perVeh="0.037017" fuel_perVeh="0.038850" electricity_perVeh="0"/>
        <edge id=":1110673511_0" sampledSeconds="63.23" CO_abs="1214.914899" CO2_abs="130434.564849" HC_abs="8.517516" PMx_abs="1.816501" NOx_abs="49.294382" fuel_abs="56.068396" electricity_abs="0"
            CO_normed="1702.952785" CO2_normed="182830.834972" HC_normed="11.939048" PMx_normed="2.546199" NOx_normed="69.096202" fuel_normed="78.591374" electricity_normed="0"
            traveltime="0.02" CO_perVeh="0.465633" CO2_perVeh="49.990890" HC_perVeh="0.003264" PMx_perVeh="0.000696" NOx_perVeh="0.018893" fuel_perVeh="0.021489" electricity_perVeh="0"/>
        <edge id=":1110673517_0" sampledSeconds="182.57" CO_abs="8067.647991" CO2_abs="575774.661039" HC_abs="50.240290" PMx_abs="9.889537" NOx_abs="233.937593" fuel_abs="247.500620" electricity_abs="0"
            CO_normed="11308.465820" CO2_normed="807066.456310" HC_normed="70.422086" PMx_normed="13.862218" NOx_normed="327.911589" fuel_normed="346.922957" electricity_normed="0"
            traveltime="0.03" CO_perVeh="1.235226" CO2_perVeh="88.156022" HC_perVeh="0.007692" PMx_perVeh="0.001514" NOx_perVeh="0.035818" fuel_perVeh="0.037894" electricity_perVeh="0"/>
        <edge id=":1110673534_0" sampledSeconds="735.87" CO_abs="5126.751049" CO2_abs="448521.984043" HC_abs="33.581572" PMx_abs="5.952412" NOx_abs="169.611304" fuel_abs="192.802020" electricity_abs="0"
            CO_normed="139.267339" CO2_normed="12184.025015" HC_normed="0.912238" PMx_normed="0.161696" NOx_normed="4.607463" fuel_normed="5.237435" electricity_normed="0"
            traveltime="1.45" CO_perVeh="10.110801" CO2_perVeh="884.559564" HC_perVeh="0.066228" PMx_perVeh="0.011739" NOx_perVeh="0.334502" fuel_perVeh="0.380237" electricity_perVeh="0"/>
        <edge id=":1110673534_1" sampledSeconds="199.74" CO_abs="3389.639490" CO2_abs="416002.193503" HC_abs="24.960762" PMx_abs="5.784174" NOx_abs="155.866295" fuel_abs="178.821774" electricity_abs="0"
            CO_normed="89.534096" CO2_normed="10988.301341" HC_normed="0.659315" PMx_normed="0.152783" NOx_normed="4.117060" fuel_normed="4.723407" electricity_normed="0"
            traveltime="1.22" CO_perVeh="20.719800" CO2_perVeh="2542.890517" HC_perVeh="0.152577" PMx_perVeh="0.035357" NOx_perVeh="0.952762" fuel_perVeh="1.093081" electricity_perVeh="0"/>
        <edge id=":1110673549_0" sampledSeconds="655.47" CO_abs="1780.466203" CO2_abs="169136.662852" HC_abs="12.027986" PMx_abs="2.474660" NOx_abs="64.700409" fuel_abs="72.704817" electricity_abs="0"
            CO_normed="46.852737" CO2_normed="4450.809294" HC_normed="0.316515" PMx_normed="0.065120" NOx_normed="1.702583" fuel_normed="1.913218" electricity_normed="0"
            traveltime="1.30" CO_perVeh="3.537362" CO2_perVeh="336.034219" HC_perVeh="0.023897" PMx_perVeh="0.004917" NOx_perVeh="0.128544" fuel_perVeh="0.144447" electricity_perVeh="0"/>
        <edge id=":1110673549_1" sampledSeconds="3195.67" CO_abs="70100.673964" CO2_abs="9145541.875255" HC_abs="537.749260" PMx_abs="161.166472" NOx_abs="3422.995861" fuel_abs="3931.249558" electricity_abs="0"
            CO_normed="1784.391534" CO2_normed="232797.012855" HC_normed="13.688245" PMx_normed="4.102444" NOx_normed="87.131328" fuel_normed="100.068773" electricity_normed="0"
            traveltime="0.81" CO_perVeh="17.682640" CO2_perVeh="2306.929678" HC_perVeh="0.135645" PMx_perVeh="0.040654" NOx_perVeh="0.863438" fuel_perVeh="0.991643" electricity_perVeh="0"/>
        <edge id=":1110673556_0" sampledSeconds="467.23" CO_abs="58017.006450" CO2_abs="2781938.214406" HC_abs="330.269833" PMx_abs="56.327766" NOx_abs="1200.382979" fuel_abs="1195.836580" electricity_abs="0"
            CO_normed="1132.103272" CO2_normed="54284.795924" HC_normed="6.444654" PMx_normed="1.099141" NOx_normed="23.423434" fuel_normed="23.334718" electricity_normed="0"
            traveltime="2.75" CO_perVeh="342.004675" CO2_perVeh="16399.258287" HC_perVeh="1.946909" PMx_perVeh="0.332047" NOx_perVeh="7.076142" fuel_perVeh="7.049342" electricity_perVeh="0"/>
        <edge id=":1110673556_2" sampledSeconds="178.67" CO_abs="17939.945880" CO2_abs="755777.926285" HC_abs="99.423154" PMx_abs="14.573797" NOx_abs="322.316581" fuel_abs="324.879577" electricity_abs="0"
            CO_normed="366.033758" CO2_normed="15420.349443" HC_normed="2.028559" PMx_normed="0.297353" NOx_normed="6.576316" fuel_normed="6.628609" electricity_normed="0"
            traveltime="3.09" CO_perVeh="310.207300" CO2_perVeh="13068.480318" HC_perVeh="1.719168" PMx_perVeh="0.252002" NOx_perVeh="5.573314" fuel_perVeh="5.617632" electricity_perVeh="0"/>
        <edge id=":1110673556_3" sampledSeconds="244.67" CO_abs="25749.363230" CO2_abs="880109.869815" HC_abs="137.846069" PMx_abs="17.546656" NOx_abs="380.181322" fuel_abs="378.328211" electricity_abs="0"
            CO_normed="1195.133169" CO2_normed="40849.495509" HC_normed="6.397999" PMx_normed="0.814412" NOx_normed="17.645769" fuel_normed="17.559758" electricity_normed="0"
            traveltime="1.89" CO_perVeh="198.738536" CO2_perVeh="6792.857197" HC_perVeh="1.063922" PMx_perVeh="0.135428" NOx_perVeh="2.934313" fuel_perVeh="2.920010" electricity_perVeh="0"/>
        <edge id=":1110673556_4" sampledSeconds="44.94" CO_abs="5110.609000" CO2_abs="200979.806711" HC_abs="27.998585" PMx_abs="3.999371" NOx_abs="86.635602" fuel_abs="86.393502" electricity_abs="0"
            CO_normed="144.913721" CO2_normed="5698.876912" HC_normed="0.793913" PMx_normed="0.113404" NOx_normed="2.456593" fuel_normed="2.449728" electricity_normed="0"
            traveltime="2.47" CO_perVeh="281.122005" CO2_perVeh="11055.403796" HC_perVeh="1.540133" PMx_perVeh="0.219996" NOx_perVeh="4.765611" fuel_perVeh="4.752294" electricity_perVeh="0"/>
        <edge id=":1110673556_5" sampledSeconds="22.80" CO_abs="935.785523" CO2_abs="42095.710300" HC_abs="5.229113" PMx_abs="0.699550" NOx_abs="17.228839" fuel_abs="18.095428" electricity_abs="0"
            CO_normed="36.983899" CO2_normed="1663.696940" HC_normed="0.206664" PMx_normed="0.027647" NOx_normed="0.680914" fuel_normed="0.715163" electricity_normed="0"
            traveltime="1.58" CO_perVeh="64.696283" CO2_perVeh="2910.320712" HC_perVeh="0.361519" PMx_perVeh="0.048364" NOx_perVeh="1.191130" fuel_perVeh="1.251042" electricity_perVeh="0"/>
        <edge id=":1110673556_6" sampledSeconds="213.21" CO_abs="25574.364972" CO2_abs="1292468.555391" HC_abs="147.178682" PMx_abs="26.012423" NOx_abs="555.852918" fuel_abs="555.576249" electricity_abs="0"
            CO_normed="511.623107" CO2_normed="25856.234502" HC_normed="2.944355" PMx_normed="0.520387" NOx_normed="11.120010" fuel_normed="11.114475" electricity_normed="0"
            traveltime="2.48" CO_perVeh="298.006071" CO2_perVeh="15060.529428" HC_perVeh="1.715004" PMx_perVeh="0.303111" NOx_perVeh="6.477093" fuel_perVeh="6.473869" electricity_perVeh="0"/>
        <edge id=":1110673561_0" sampledSeconds="104.91" CO_abs="9948.887428" CO2_abs="698910.055088" HC_abs="62.141445" PMx_abs="14.214192" NOx_abs="296.567618" fuel_abs="300.428131" electricity_abs="0"
            CO_normed="250.067113" CO2_normed="17567.232590" HC_normed="1.561937" PMx_normed="0.357276" NOx_normed="7.454282" fuel_normed="7.551316" electricity_normed="0"
            traveltime="1.24" CO_perVeh="117.406528" CO2_perVeh="8247.817012" HC_perVeh="0.733329" PMx_perVeh="0.167741" NOx_perVeh="3.499786" fuel_perVeh="3.545344" electricity_perVeh="0"/>
        <edge id=":1110673561_1" sampledSeconds="5254.81" CO_abs="486689.333384" CO2_abs="33691880.304824" HC_abs="3031.485233" PMx_abs="704.551439" NOx_abs="14407.062161" fuel_abs="14482.511975" electricity_abs="0"
            CO_normed="11926.487251" CO2_normed="825630.958694" HC_normed="74.287574" PMx_normed="17.265272" NOx_normed="353.049947" fuel_normed="354.898870" electricity_normed="0"
            traveltime="1.19" CO_perVeh="110.488104" CO2_perVeh="7648.723152" HC_perVeh="0.688207" PMx_perVeh="0.159947" NOx_perVeh="3.270688" fuel_perVeh="3.287817" electricity_perVeh="0"/>
        <edge id=":1110673562_0" sampledSeconds="301.83" CO_abs="6574.628586" CO2_abs="497676.301667" HC_abs="41.324818" PMx_abs="6.984620" NOx_abs="191.827371" fuel_abs="213.931590" electricity_abs="0"
            CO_normed="10239.658273" CO2_normed="775106.181780" HC_normed="64.361357" PMx_normed="10.878199" NOx_normed="298.761627" fuel_normed="333.187852" electricity_normed="0"
            traveltime="0.03" CO_perVeh="0.589359" CO2_perVeh="44.612417" HC_perVeh="0.003704" PMx_perVeh="0.000626" NOx_perVeh="0.017196" fuel_perVeh="0.019177" electricity_perVeh="0"/>
        <edge id=":1110673564_0" sampledSeconds="28.01" CO_abs="412.765639" CO2_abs="56353.381965" HC_abs="3.149574" PMx_abs="0.704166" NOx_abs="20.587060" fuel_abs="24.224021" electricity_abs="0"
            CO_normed="1735.727486" CO2_normed="236972.520820" HC_normed="13.244325" PMx_normed="2.961098" NOx_normed="86.570979" fuel_normed="101.864822" electricity_normed="0"
            traveltime="7.910154e-03" CO_perVeh="0.116584" CO2_perVeh="15.916786" HC_perVeh="0.000890" PMx_perVeh="0.000199" NOx_perVeh="0.005815" fuel_perVeh="0.006842" electricity_perVeh="0"/>
        <edge id=":1110673588_0" sampledSeconds="62.89" CO_abs="1117.739846" CO2_abs="119474.966536" HC_abs="7.847027" PMx_abs="1.670244" NOx_abs="45.204592" fuel_abs="51.357318" electricity_abs="0"
            CO_normed="1880.090384" CO2_normed="200962.448093" HC_normed="13.199064" PMx_normed="2.809428" NOx_normed="76.036226" fuel_normed="86.385396" electricity_normed="0"
            traveltime="0.02" CO_perVeh="0.360561" CO2_perVeh="38.540312" HC_perVeh="0.002531" PMx_perVeh="0.000539" NOx_perVeh="0.014582" fuel_perVeh="0.016567" electricity_perVeh="0"/>
        <edge id=":1110673601_0" sampledSeconds="29.12" CO_abs="567.720054" CO2_abs="60462.557452" HC_abs="3.977096" PMx_abs="0.871660" NOx_abs="23.005036" fuel_abs="25.990302" electricity_abs="0"
            CO_normed="852.617433" CO2_normed="90804.314760" HC_normed="5.972911" PMx_normed="1.309083" NOx_normed="34.549589" fuel_normed="39.032943" electricity_normed="0"
            traveltime="0.02" CO_perVeh="0.432914" CO2_perVeh="46.105602" HC_perVeh="0.003033" PMx_perVeh="0.000665" NOx_perVeh="0.017542" fuel_perVeh="0.019819" electricity_perVeh="0"/>
        <edge id=":1110673617_0" sampledSeconds="854.29" CO_abs="33397.279775" CO2_abs="3319323.900582" HC_abs="231.647615" PMx_abs="62.998730" NOx_abs="1306.641556" fuel_abs="1426.821598" electricity_abs="0"
            CO_normed="46813.147682" CO2_normed="4652714.263168" HC_normed="324.701715" PMx_normed="88.305660" NOx_normed="1831.526536" fuel_normed="1999.983551" electricity_normed="0"
            traveltime="0.02" CO_perVeh="0.592188" CO2_perVeh="58.856959" HC_perVeh="0.004107" PMx_perVeh="0.001117" NOx_perVeh="0.023169" fuel_perVeh="0.025300" electricity_perVeh="0"/>
        <edge id=":1110673621_0" sampledSeconds="26.57" CO_abs="435.297447" CO2_abs="46363.416688" HC_abs="3.054988" PMx_abs="0.660478" NOx_abs="17.621639" fuel_abs="19.929687" electricity_abs="0"
            CO_normed="732.190542" CO2_normed="77985.422299" HC_normed="5.138632" PMx_normed="1.110954" NOx_normed="29.640416" fuel_normed="33.522659" electricity_normed="0"
            traveltime="0.02" CO_perVeh="0.329771" CO2_perVeh="35.123801" HC_perVeh="0.002314" PMx_perVeh="0.000500" NOx_perVeh="0.013350" fuel_perVeh="0.015098" electricity_perVeh="0"/>
        <edge id=":1110673630_0" sampledSeconds="287.57" CO_abs="1152.323036" CO2_abs="99614.823048" HC_abs="7.529120" PMx_abs="1.367715" NOx_abs="37.962508" fuel_abs="42.820450" electricity_abs="0"
            CO_normed="34.562427" CO2_normed="2987.816752" HC_normed="0.225826" PMx_normed="0.041023" NOx_normed="1.138636" fuel_normed="1.284344" electricity_normed="0"
            traveltime="1.29" CO_perVeh="5.185014" CO2_perVeh="448.228659" HC_perVeh="0.033878" PMx_perVeh="0.006154" NOx_perVeh="0.170817" fuel_perVeh="0.192676" electricity_perVeh="0"/>
        <edge id=":1110673630_1" sampledSeconds="338.39" CO_abs="1445.045544" CO2_abs="115025.569690" HC_abs="9.195681" PMx_abs="1.511963" NOx_abs="43.591739" fuel_abs="49.445098" electricity_abs="0"
            CO_normed="52.839865" CO2_normed="4206.051212" HC_normed="0.336251" PMx_normed="0.055287" NOx_normed="1.593985" fuel_normed="1.808021" electricity_normed="0"
            traveltime="1.08" CO_perVeh="4.606521" CO2_perVeh="366.678878" HC_perVeh="0.029314" PMx_perVeh="0.004820" NOx_perVeh="0.138962" fuel_perVeh="0.157621" electricity_perVeh="0"/>
        <edge id=":1110673650_0" sampledSeconds="200.11" CO_abs="3213.733789" CO2_abs="394893.903271" HC_abs="23.669201" PMx_abs="5.478236" NOx_abs="147.979907" fuel_abs="169.748215" electricity_abs="0"
            CO_normed="4504.708032" CO2_normed="553524.919898" HC_normed="33.177247" PMx_normed="7.678873" NOx_normed="207.424235" fuel_normed="237.936992" electricity_normed="0"
            traveltime="0.02" CO_perVeh="0.371430" CO2_perVeh="45.640163" HC_perVeh="0.002736" PMx_perVeh="0.000633" NOx_perVeh="0.017103" fuel_perVeh="0.019619" electricity_perVeh="0"/>
        <edge id=":1110673655_0" sampledSeconds="20.59" CO_abs="405.534321" CO2_abs="45497.185014" HC_abs="2.897095" PMx_abs="0.644284" NOx_abs="17.225744" fuel_abs="19.557321" electricity_abs="0"
            CO_normed="568.439652" CO2_normed="63773.650294" HC_normed="4.060874" PMx_normed="0.903096" NOx_normed="24.145418" fuel_normed="27.413603" electricity_normed="0"
            traveltime="0.02" CO_perVeh="0.463300" CO2_perVeh="51.977921" HC_perVeh="0.003310" PMx_perVeh="0.000736" NOx_perVeh="0.019679" fuel_perVeh="0.022343" electricity_perVeh="0"/>
        <edge id=":1110673663_0" sampledSeconds="111.03" CO_abs="1768.305317" CO2_abs="217275.765962" HC_abs="13.065122" PMx_abs="2.962152" NOx_abs="81.185747" fuel_abs="93.397757" electricity_abs="0"
            CO_normed="45.396394" CO2_normed="5577.960004" HC_normed="0.335411" PMx_normed="0.076045" NOx_normed="2.084222" fuel_normed="2.397732" electricity_normed="0"
            traveltime="1.30" CO_perVeh="20.769580" CO2_perVeh="2552.006372" HC_perVeh="0.153456" PMx_perVeh="0.034792" NOx_perVeh="0.953565" fuel_perVeh="1.097001" electricity_perVeh="0"/>
        <edge id=":1110673663_1" sampledSeconds="170.07" CO_abs="2656.542474" CO2_abs="330414.343358" HC_abs="19.670686" PMx_abs="4.435930" NOx_abs="123.007786" fuel_abs="142.031366" electricity_abs="0"
            CO_normed="68.282823" CO2_normed="8492.852788" HC_normed="0.505608" PMx_normed="0.114020" NOx_normed="3.161748" fuel_normed="3.650724" electricity_normed="0"
            traveltime="1.27" CO_perVeh="19.903445" CO2_perVeh="2475.542461" HC_perVeh="0.147377" PMx_perVeh="0.033235" NOx_perVeh="0.921603" fuel_perVeh="1.064133" electricity_perVeh="0"/>