<?xml version="1.0" encoding="UTF-8"?>

<!-- generated on Tue Nov 10 00:30:01 2020 by Eclipse SUMO sumo Version 1.7.0
<configuration xmlns:xsi="http://www.w3.org/2001/XMLSchema-instance" xsi:noNamespaceSchemaLocation="http://sumo.dlr.de/xsd/sumoConfiguration.xsd">

    <input>
        <net-file value="../dataSets/Porto/6AM7AM_Routing_SaoBento/Porto.net.xml"/>
        <route-files value="../results/Porto/6AM7AM_Routing_SaoBento/cost_nox-length/solution9/Porto.rou.xml"/>
        <additional-files value="moreOutputInfo.xml"/>
    </input>

    <output>
        <emission-output.precision value="6"/>
        <tripinfo-output value="../results/Porto/6AM7AM_Routing_SaoBento/cost_nox-length/solution9/Porto-tripinfo"/>
    </output>

    <processing>
        <collision.action value="warn"/>
        <time-to-teleport value="-1"/>
    </processing>

    <emissions>
        <device.emissions.probability value="1"/>
    </emissions>

    <gui_only>
        <quit-on-end value="true"/>
        <start value="true"/>
    </gui_only>

</configuration>
-->

<meandata xmlns:xsi="http://www.w3.org/2001/XMLSchema-instance" xsi:noNamespaceSchemaLocation="http://sumo.dlr.de/xsd/meandata_file.xsd">
    <interval begin="0.00" end="4700.00" id="emissions-detector">
        <edge id=":1092997347_0" sampledSeconds="269.34" CO_abs="34151.746411" CO2_abs="1341884.393441" HC_abs="187.193424" PMx_abs="27.303925" NOx_abs="582.016729" fuel_abs="576.823715" electricity_abs="0"
            CO_normed="59451.782921" CO2_normed="2335968.963436" HC_normed="325.868629" PMx_normed="47.531011" NOx_normed="1013.181927" fuel_normed="1004.141863" electricity_normed="0"
            traveltime="0.08" CO_perVeh="9.593811" CO2_perVeh="376.958313" HC_perVeh="0.052586" PMx_perVeh="0.007670" NOx_perVeh="0.163498" fuel_perVeh="0.162040" electricity_perVeh="0"/>
        <edge id=":1103427051_0" sampledSeconds="11.08" CO_abs="807.640388" CO2_abs="45297.224822" HC_abs="4.754429" PMx_abs="0.897065" NOx_abs="19.388015" fuel_abs="19.471261" electricity_abs="0"
            CO_normed="2133.166102" CO2_normed="119640.505766" HC_normed="12.557552" PMx_normed="2.369358" NOx_normed="51.208257" fuel_normed="51.428129" electricity_normed="0"
            traveltime="0.03" CO_perVeh="2.212922" CO2_perVeh="124.113711" HC_perVeh="0.013027" PMx_perVeh="0.002458" NOx_perVeh="0.053123" fuel_perVeh="0.053351" electricity_perVeh="0"/>
        <edge id=":1105984386_0" sampledSeconds="22.81" CO_abs="498.661017" CO2_abs="38892.356994" HC_abs="3.155198" PMx_abs="0.515397" NOx_abs="14.789925" fuel_abs="16.718338" electricity_abs="0"
            CO_normed="39.336058" CO2_normed="3067.959883" HC_normed="0.248893" PMx_normed="0.040656" NOx_normed="1.166679" fuel_normed="1.318799" electricity_normed="0"
            traveltime="0.96" CO_perVeh="20.928417" CO2_perVeh="1632.282099" HC_perVeh="0.132421" PMx_perVeh="0.021631" NOx_perVeh="0.620722" fuel_perVeh="0.701656" electricity_perVeh="0"/>
        <edge id=":1105984390_0" sampledSeconds="22.94" CO_abs="23.336678" CO2_abs="1608.175187" HC_abs="0.142256" PMx_abs="0.018967" NOx_abs="0.599526" fuel_abs="0.691299" electricity_abs="0"
            CO_normed="1.423161" CO2_normed="98.072752" HC_normed="0.008675" PMx_normed="0.001157" NOx_normed="0.036561" fuel_normed="0.042158" electricity_normed="0"
            traveltime="1.04" CO_perVeh="1.058307" CO2_perVeh="72.929955" HC_perVeh="0.006451" PMx_perVeh="0.000860" NOx_perVeh="0.027188" fuel_perVeh="0.031350" electricity_perVeh="0"/>
        <edge id=":1105984390_1" sampledSeconds="646.99" CO_abs="14031.490847" CO2_abs="1866668.015806" HC_abs="108.584865" PMx_abs="32.784004" NOx_abs="696.227179" fuel_abs="802.395206" electricity_abs="0"
            CO_normed="818.547213" CO2_normed="108894.765227" HC_normed="6.334454" PMx_normed="1.912502" NOx_normed="40.615414" fuel_normed="46.808879" electricity_normed="0"
            traveltime="0.64" CO_perVeh="13.807054" CO2_perVeh="1836.810221" HC_perVeh="0.106848" PMx_perVeh="0.032260" NOx_perVeh="0.685091" fuel_perVeh="0.789561" electricity_perVeh="0"/>
        <edge id=":1105984395_0" sampledSeconds="8.90" CO_abs="175.475533" CO2_abs="14462.327598" HC_abs="1.128258" PMx_abs="0.190629" NOx_abs="5.479836" fuel_abs="6.216796" electricity_abs="0"
            CO_normed="146.094338" CO2_normed="12040.790784" HC_normed="0.939345" PMx_normed="0.158711" NOx_normed="4.562306" fuel_normed="5.175871" electricity_normed="0"
            traveltime="0.09" CO_perVeh="1.779514" CO2_perVeh="146.663816" HC_perVeh="0.011442" PMx_perVeh="0.001933" NOx_perVeh="0.055572" fuel_perVeh="0.063045" electricity_perVeh="0"/>
        <edge id=":1105984398_0" sampledSeconds="23.40" CO_abs="1648.286742" CO2_abs="110311.560568" HC_abs="10.121434" PMx_abs="2.069897" NOx_abs="46.080815" fuel_abs="47.417975" electricity_abs="0"
            CO_normed="104.426593" CO2_normed="6988.747832" HC_normed="0.641240" PMx_normed="0.131138" NOx_normed="2.919433" fuel_normed="3.004148" electricity_normed="0"
            traveltime="1.10" CO_perVeh="77.527367" CO2_perVeh="5188.517648" HC_perVeh="0.476063" PMx_perVeh="0.097358" NOx_perVeh="2.167417" fuel_perVeh="2.230310" electricity_perVeh="0"/>
        <edge id=":1105984398_1" sampledSeconds="451.61" CO_abs="8196.337368" CO2_abs="970555.427477" HC_abs="59.560320" PMx_abs="13.831173" NOx_abs="366.323227" fuel_abs="417.200461" electricity_abs="0"
            CO_normed="502.645768" CO2_normed="59519.948536" HC_normed="3.652576" PMx_normed="0.848206" NOx_normed="22.465012" fuel_normed="25.585092" electricity_normed="0"
            traveltime="0.95" CO_perVeh="17.323331" CO2_perVeh="2051.312969" HC_perVeh="0.125883" PMx_perVeh="0.029233" NOx_perVeh="0.774241" fuel_perVeh="0.881772" electricity_perVeh="0"/>
        <edge id=":1106006327_0" sampledSeconds="38.72" CO_abs="5285.623187" CO2_abs="171839.644812" HC_abs="28.116140" PMx_abs="3.601397" NOx_abs="75.316447" fuel_abs="73.867764" electricity_abs="0"
            CO_normed="456.948357" CO2_normed="14855.739910" HC_normed="2.430673" PMx_normed="0.311345" NOx_normed="6.511196" fuel_normed="6.385955" electricity_normed="0"
            traveltime="2.10" CO_perVeh="286.741498" CO2_perVeh="9322.184993" HC_perVeh="1.525282" PMx_perVeh="0.195373" NOx_perVeh="4.085867" fuel_perVeh="4.007276" electricity_perVeh="0"/>
        <edge id=":1106006327_1" sampledSeconds="158.93" CO_abs="21632.096637" CO2_abs="732180.157911" HC_abs="115.768436" PMx_abs="15.299106" NOx_abs="320.598783" fuel_abs="314.737573" electricity_abs="0"
            CO_normed="1630.833219" CO2_normed="55198.705153" HC_normed="8.727726" PMx_normed="1.153392" NOx_normed="24.169786" fuel_normed="23.727912" electricity_normed="0"
            traveltime="2.26" CO_perVeh="307.095492" CO2_perVeh="10394.241008" HC_perVeh="1.643482" PMx_perVeh="0.217191" NOx_perVeh="4.551313" fuel_perVeh="4.468105" electricity_perVeh="0"/>
        <edge id=":1106006327_2" sampledSeconds="0.00" CO_abs="0" CO2_abs="0" HC_abs="0" PMx_abs="0" NOx_abs="0" fuel_abs="0" electricity_abs="0"
            CO_normed="0" CO2_normed="0" HC_normed="0" PMx_normed="0" NOx_normed="0" fuel_normed="0" electricity_normed="0"/>
        <edge id=":1106006327_3" sampledSeconds="0.00" CO_abs="0" CO2_abs="0" HC_abs="0" PMx_abs="0" NOx_abs="0" fuel_abs="0" electricity_abs="0"
            CO_normed="0" CO2_normed="0" HC_normed="0" PMx_normed="0" NOx_normed="0" fuel_normed="0" electricity_normed="0"/>
        <edge id=":1107381198_0" sampledSeconds="0.00" CO_abs="0" CO2_abs="0" HC_abs="0" PMx_abs="0" NOx_abs="0" fuel_abs="0" electricity_abs="0"
            CO_normed="0" CO2_normed="0" HC_normed="0" PMx_normed="0" NOx_normed="0" fuel_normed="0" electricity_normed="0"/>
        <edge id=":1107381198_1" sampledSeconds="36.42" CO_abs="1378.994432" CO2_abs="55340.463129" HC_abs="7.549109" PMx_abs="0.932364" NOx_abs="22.773200" fuel_abs="23.788973" electricity_abs="0"
            CO_normed="115.185502" CO2_normed="4622.512524" HC_normed="0.630567" PMx_normed="0.077879" NOx_normed="1.902214" fuel_normed="1.987060" electricity_normed="0"
            traveltime="1.50" CO_perVeh="56.777025" CO2_perVeh="2278.520325" HC_perVeh="0.310818" PMx_perVeh="0.038388" NOx_perVeh="0.937636" fuel_perVeh="0.979458" electricity_perVeh="0"/>
        <edge id=":1110338277_0" sampledSeconds="96.61" CO_abs="1547.629508" CO2_abs="191717.557870" HC_abs="11.444463" PMx_abs="2.610397" NOx_abs="71.571480" fuel_abs="82.411347" electricity_abs="0"
            CO_normed="4233.636952" CO2_normed="524455.325481" HC_normed="31.307042" PMx_normed="7.140904" NOx_normed="195.788243" fuel_normed="225.441374" electricity_normed="0"
            traveltime="0.02" CO_perVeh="0.348787" CO2_perVeh="43.207086" HC_perVeh="0.002579" PMx_perVeh="0.000588" NOx_perVeh="0.016130" fuel_perVeh="0.018573" electricity_perVeh="0"/>
        <edge id=":1110338293_0" sampledSeconds="123.58" CO_abs="6459.866463" CO2_abs="438456.017044" HC_abs="39.745582" PMx_abs="7.855562" NOx_abs="180.636223" fuel_abs="188.473008" electricity_abs="0"
            CO_normed="16493.276076" CO2_normed="1119462.171177" HC_normed="101.478081" PMx_normed="20.056754" NOx_normed="461.198867" fuel_normed="481.207681" electricity_normed="0"
            traveltime="0.03" CO_perVeh="1.481681" CO2_perVeh="100.567389" HC_perVeh="0.009116" PMx_perVeh="0.001802" NOx_perVeh="0.041432" fuel_perVeh="0.043230" electricity_perVeh="0"/>
        <edge id=":1110338295_0" sampledSeconds="0.00" CO_abs="0" CO2_abs="0" HC_abs="0" PMx_abs="0" NOx_abs="0" fuel_abs="0" electricity_abs="0"
            CO_normed="0" CO2_normed="0" HC_normed="0" PMx_normed="0" NOx_normed="0" fuel_normed="0" electricity_normed="0"/>
        <edge id=":1110673403_0" sampledSeconds="143.59" CO_abs="2177.997802" CO2_abs="271434.653932" HC_abs="16.096719" PMx_abs="3.729071" NOx_abs="101.436743" fuel_abs="116.678326" electricity_abs="0"
            CO_normed="5560.845452" CO2_normed="693024.648337" HC_normed="41.098007" PMx_normed="9.521031" NOx_normed="258.987428" fuel_normed="297.902108" electricity_normed="0"
            traveltime="0.02" CO_perVeh="0.349692" CO2_perVeh="43.580624" HC_perVeh="0.002584" PMx_perVeh="0.000599" NOx_perVeh="0.016286" fuel_perVeh="0.018733" electricity_perVeh="0"/>
        <edge id=":1110673412_0" sampledSeconds="252.76" CO_abs="44728.492116" CO2_abs="3053502.103566" HC_abs="278.386901" PMx_abs="67.061206" NOx_abs="1312.072622" fuel_abs="1312.550193" electricity_abs="0"
            CO_normed="118138.350416" CO2_normed="8065009.224387" HC_normed="735.284552" PMx_normed="177.124242" NOx_normed="3465.488949" fuel_normed="3466.750326" electricity_normed="0"
            traveltime="0.02" CO_perVeh="2.755173" CO2_perVeh="188.088772" HC_perVeh="0.017148" PMx_perVeh="0.004131" NOx_perVeh="0.080821" fuel_perVeh="0.080850" electricity_perVeh="0"/>
        <edge id=":1110673414_0" sampledSeconds="0.00" CO_abs="0" CO2_abs="0" HC_abs="0" PMx_abs="0" NOx_abs="0" fuel_abs="0" electricity_abs="0"
            CO_normed="0" CO2_normed="0" HC_normed="0" PMx_normed="0" NOx_normed="0" fuel_normed="0" electricity_normed="0"/>
        <edge id=":1110673414_1" sampledSeconds="15.13" CO_abs="1032.125974" CO2_abs="38124.607203" HC_abs="5.584892" PMx_abs="0.709992" NOx_abs="16.143013" fuel_abs="16.388430" electricity_abs="0"
            CO_normed="87.548679" CO2_normed="3233.867862" HC_normed="0.473731" PMx_normed="0.060224" NOx_normed="1.369309" fuel_normed="1.390126" electricity_normed="0"
            traveltime="1.65" CO_perVeh="112.724934" CO2_perVeh="4163.826839" HC_perVeh="0.609961" PMx_perVeh="0.077543" NOx_perVeh="1.763079" fuel_perVeh="1.789883" electricity_perVeh="0"/>
        <edge id=":1110673417_0" sampledSeconds="29.46" CO_abs="537.797520" CO2_abs="59647.588515" HC_abs="3.817939" PMx_abs="0.841554" NOx_abs="22.571518" fuel_abs="25.639991" electricity_abs="0"
            CO_normed="1471.178625" CO2_normed="163169.695025" HC_normed="10.444211" PMx_normed="2.302123" NOx_normed="61.745795" fuel_normed="70.139792" electricity_normed="0"
            traveltime="0.02" CO_perVeh="0.399161" CO2_perVeh="44.271239" HC_perVeh="0.002834" PMx_perVeh="0.000625" NOx_perVeh="0.016753" fuel_perVeh="0.019030" electricity_perVeh="0"/>
        <edge id=":1110673446_0" sampledSeconds="334.06" CO_abs="3450.813183" CO2_abs="276379.666583" HC_abs="22.261974" PMx_abs="5.070984" NOx_abs="113.153381" fuel_abs="118.802930" electricity_abs="0"
            CO_normed="8810.586851" CO2_normed="705650.212553" HC_normed="56.839082" PMx_normed="12.947192" NOx_normed="288.902250" fuel_normed="303.326631" electricity_normed="0"
            traveltime="0.02" CO_perVeh="0.235495" CO2_perVeh="18.861092" HC_perVeh="0.001519" PMx_perVeh="0.000346" NOx_perVeh="0.007722" fuel_perVeh="0.008108" electricity_perVeh="0"/>
        <edge id=":1110673451_0" sampledSeconds="36.98" CO_abs="363.468480" CO2_abs="28448.295793" HC_abs="2.304016" PMx_abs="0.385973" NOx_abs="10.864473" fuel_abs="12.228822" electricity_abs="0"
            CO_normed="1031.116255" CO2_normed="80704.385227" HC_normed="6.536215" PMx_normed="1.094959" NOx_normed="30.821199" fuel_normed="34.691693" electricity_normed="0"
            traveltime="0.03" CO_perVeh="0.260655" CO2_perVeh="20.401168" HC_perVeh="0.001652" PMx_perVeh="0.000277" NOx_perVeh="0.007791" fuel_perVeh="0.008770" electricity_perVeh="0"/>
        <edge id=":1110673464_0" sampledSeconds="322.78" CO_abs="525.110172" CO2_abs="42275.851871" HC_abs="3.355095" PMx_abs="0.580074" NOx_abs="16.154702" fuel_abs="18.172733" electricity_abs="0"
            CO_normed="28.485272" CO2_normed="2293.307618" HC_normed="0.182001" PMx_normed="0.031467" NOx_normed="0.876332" fuel_normed="0.985803" electricity_normed="0"
            traveltime="1.17" CO_perVeh="1.898204" CO2_perVeh="152.821627" HC_perVeh="0.012128" PMx_perVeh="0.002097" NOx_perVeh="0.058397" fuel_perVeh="0.065692" electricity_perVeh="0"/>
        <edge id=":1110673464_1" sampledSeconds="709.92" CO_abs="16339.618397" CO2_abs="2090983.458286" HC_abs="124.347513" PMx_abs="37.084477" NOx_abs="784.482954" fuel_abs="898.817876" electricity_abs="0"
            CO_normed="868.525495" CO2_normed="111145.340113" HC_normed="6.609639" PMx_normed="1.971210" NOx_normed="41.698859" fuel_normed="47.776283" electricity_normed="0"
            traveltime="0.70" CO_perVeh="16.134604" CO2_perVeh="2064.747794" HC_perVeh="0.122787" PMx_perVeh="0.036619" NOx_perVeh="0.774640" fuel_perVeh="0.887540" electricity_perVeh="0"/>
        <edge id=":1110673479_0" sampledSeconds="133.14" CO_abs="7174.294335" CO2_abs="491326.966982" HC_abs="44.237838" PMx_abs="8.753171" NOx_abs="202.030641" fuel_abs="211.199938" electricity_abs="0"
            CO_normed="18317.347237" CO2_normed="1254451.830593" HC_normed="112.947672" PMx_normed="22.348523" NOx_normed="515.822913" fuel_normed="539.233885" electricity_normed="0"
            traveltime="0.03" CO_perVeh="1.511332" CO2_perVeh="103.502626" HC_perVeh="0.009319" PMx_perVeh="0.001844" NOx_perVeh="0.042560" fuel_perVeh="0.044491" electricity_perVeh="0"/>
        <edge id=":1110673511_0" sampledSeconds="11.86" CO_abs="184.996396" CO2_abs="22189.408886" HC_abs="1.356493" PMx_abs="0.310718" NOx_abs="8.334790" fuel_abs="9.538290" electricity_abs="0"
            CO_normed="472.331224" CO2_normed="56653.809921" HC_normed="3.463385" PMx_normed="0.793322" NOx_normed="21.280316" fuel_normed="24.353082" electricity_normed="0"
            traveltime="0.02" CO_perVeh="0.366329" CO2_perVeh="43.939424" HC_perVeh="0.002686" PMx_perVeh="0.000615" NOx_perVeh="0.016505" fuel_perVeh="0.018888" electricity_perVeh="0"/>
        <edge id=":1110673517_0" sampledSeconds="16.88" CO_abs="842.520350" CO2_abs="61333.948026" HC_abs="5.282562" PMx_abs="1.086788" NOx_abs="25.090799" fuel_abs="26.364750" electricity_abs="0"
            CO_normed="2151.115788" CO2_normed="156597.314110" HC_normed="13.487393" PMx_normed="2.774778" NOx_normed="64.061616" fuel_normed="67.314256" electricity_normed="0"
            traveltime="0.03" CO_perVeh="1.352722" CO2_perVeh="98.475699" HC_perVeh="0.008482" PMx_perVeh="0.001745" NOx_perVeh="0.040285" fuel_perVeh="0.042330" electricity_perVeh="0"/>
        <edge id=":1110673534_0" sampledSeconds="474.67" CO_abs="2709.696835" CO2_abs="235966.858826" HC_abs="17.735187" PMx_abs="3.189912" NOx_abs="89.604010" fuel_abs="101.432825" electricity_abs="0"
            CO_normed="134.077033" CO2_normed="11675.747592" HC_normed="0.877545" PMx_normed="0.157838" NOx_normed="4.433647" fuel_normed="5.018942" electricity_normed="0"
            traveltime="1.43" CO_perVeh="8.163231" CO2_perVeh="710.873571" HC_perVeh="0.053429" PMx_perVeh="0.009610" NOx_perVeh="0.269941" fuel_perVeh="0.305576" electricity_perVeh="0"/>
        <edge id=":1110673534_1" sampledSeconds="183.47" CO_abs="2880.031663" CO2_abs="370632.292486" HC_abs="21.535263" PMx_abs="5.016069" NOx_abs="137.834558" fuel_abs="159.319266" electricity_abs="0"
            CO_normed="138.566690" CO2_normed="17832.196260" HC_normed="1.036124" PMx_normed="0.241338" NOx_normed="6.631621" fuel_normed="7.665313" electricity_normed="0"
            traveltime="1.22" CO_perVeh="19.122376" CO2_perVeh="2460.865362" HC_perVeh="0.142986" PMx_perVeh="0.033305" NOx_perVeh="0.915172" fuel_perVeh="1.057823" electricity_perVeh="0"/>
        <edge id=":1110673549_0" sampledSeconds="60.23" CO_abs="38.806570" CO2_abs="6123.505220" HC_abs="0.312866" PMx_abs="0.054116" NOx_abs="2.094929" fuel_abs="2.632274" electricity_abs="0"
            CO_normed="1.860086" CO2_normed="293.513418" HC_normed="0.014996" PMx_normed="0.002594" NOx_normed="0.100415" fuel_normed="0.126171" electricity_normed="0"
            traveltime="1.25" CO_perVeh="0.808502" CO2_perVeh="127.578015" HC_perVeh="0.006518" PMx_perVeh="0.001127" NOx_perVeh="0.043646" fuel_perVeh="0.054841" electricity_perVeh="0"/>
        <edge id=":1110673549_1" sampledSeconds="638.41" CO_abs="13757.152488" CO2_abs="1869835.550719" HC_abs="107.266341" PMx_abs="32.572080" NOx_abs="695.412933" fuel_abs="803.756946" electricity_abs="0"
            CO_normed="637.856743" CO2_normed="86695.790822" HC_normed="4.973454" PMx_normed="1.510220" NOx_normed="32.243143" fuel_normed="37.266563" electricity_normed="0"
            traveltime="0.80" CO_perVeh="17.317530" CO2_perVeh="2353.752540" HC_perVeh="0.135027" PMx_perVeh="0.041002" NOx_perVeh="0.875387" fuel_perVeh="1.011771" electricity_perVeh="0"/>
        <edge id=":1110673556_0" sampledSeconds="417.27" CO_abs="51513.742443" CO2_abs="2587347.838180" HC_abs="296.093846" PMx_abs="52.252856" NOx_abs="1114.841941" fuel_abs="1112.188665" electricity_abs="0"
            CO_normed="1830.966805" CO2_normed="91962.800192" HC_normed="10.524143" PMx_normed="1.857237" NOx_normed="39.625127" fuel_normed="39.530821" electricity_normed="0"
            traveltime="2.59" CO_perVeh="319.772194" CO2_perVeh="16060.993753" HC_perVeh="1.838006" PMx_perVeh="0.324360" NOx_perVeh="6.920395" fuel_perVeh="6.903925" electricity_perVeh="0"/>
        <edge id=":1110673556_2" sampledSeconds="246.13" CO_abs="23650.626708" CO2_abs="1023806.645709" HC_abs="131.709344" PMx_abs="19.596233" NOx_abs="435.559927" fuel_abs="440.094391" electricity_abs="0"
            CO_normed="878.960391" CO2_normed="38049.118116" HC_normed="4.894893" PMx_normed="0.728281" NOx_normed="16.187306" fuel_normed="16.355826" electricity_normed="0"
            traveltime="2.99" CO_perVeh="286.877570" CO2_perVeh="12418.578422" HC_perVeh="1.597609" PMx_perVeh="0.237699" NOx_perVeh="5.283258" fuel_perVeh="5.338261" electricity_perVeh="0"/>
        <edge id=":1110673556_3" sampledSeconds="415.40" CO_abs="35490.922179" CO2_abs="1263977.609453" HC_abs="191.008248" PMx_abs="24.035733" NOx_abs="538.496596" fuel_abs="543.339924" electricity_abs="0"
            CO_normed="3000.500677" CO2_normed="106860.161430" HC_normed="16.148365" PMx_normed="2.032047" NOx_normed="45.525991" fuel_normed="45.935459" electricity_normed="0"
            traveltime="1.72" CO_perVeh="147.365125" CO2_perVeh="5248.277776" HC_perVeh="0.793103" PMx_perVeh="0.099801" NOx_perVeh="2.235941" fuel_perVeh="2.256052" electricity_perVeh="0"/>
        <edge id=":1110673556_4" sampledSeconds="193.67" CO_abs="19643.705038" CO2_abs="786352.091951" HC_abs="107.890690" PMx_abs="15.314566" NOx_abs="336.807504" fuel_abs="338.022779" electricity_abs="0"
            CO_normed="1014.581400" CO2_normed="40614.446436" HC_normed="5.572466" PMx_normed="0.790985" NOx_normed="17.395834" fuel_normed="17.458602" electricity_normed="0"
            traveltime="2.40" CO_perVeh="243.905747" CO2_perVeh="9763.728063" HC_perVeh="1.339623" PMx_perVeh="0.190153" NOx_perVeh="4.181965" fuel_perVeh="4.197054" electricity_perVeh="0"/>
        <edge id=":1110673556_5" sampledSeconds="23.88" CO_abs="1470.526561" CO2_abs="60685.219660" HC_abs="8.102249" PMx_abs="1.085264" NOx_abs="25.358545" fuel_abs="26.086372" electricity_abs="0"
            CO_normed="105.860975" CO2_normed="4368.636834" HC_normed="0.583269" PMx_normed="0.078127" NOx_normed="1.825523" fuel_normed="1.877918" electricity_normed="0"
            traveltime="1.65" CO_perVeh="101.666034" CO2_perVeh="4195.521359" HC_perVeh="0.560156" PMx_perVeh="0.075031" NOx_perVeh="1.753183" fuel_perVeh="1.803502" electricity_perVeh="0"/>
        <edge id=":1110673556_6" sampledSeconds="499.31" CO_abs="60083.743154" CO2_abs="2897732.230697" HC_abs="342.429197" PMx_abs="58.604198" NOx_abs="1249.900332" fuel_abs="1245.611296" electricity_abs="0"
            CO_normed="2189.419148" CO2_normed="105591.797382" HC_normed="12.477935" PMx_normed="2.135505" NOx_normed="45.545693" fuel_normed="45.389403" electricity_normed="0"
            traveltime="2.68" CO_perVeh="322.427211" CO2_perVeh="15550.091776" HC_perVeh="1.837577" PMx_perVeh="0.314488" NOx_perVeh="6.707336" fuel_perVeh="6.684320" electricity_perVeh="0"/>
        <edge id=":1110673561_0" sampledSeconds="100.72" CO_abs="9762.520304" CO2_abs="690144.034243" HC_abs="61.112830" PMx_abs="14.160127" NOx_abs="293.195683" fuel_abs="296.659841" electricity_abs="0"
            CO_normed="446.962052" CO2_normed="31597.188428" HC_normed="2.797957" PMx_normed="0.648300" NOx_normed="13.423516" fuel_normed="13.582117" electricity_normed="0"
            traveltime="1.19" CO_perVeh="115.207215" CO2_perVeh="8144.369458" HC_perVeh="0.721191" PMx_perVeh="0.167103" NOx_perVeh="3.459994" fuel_perVeh="3.500874" electricity_perVeh="0"/>
        <edge id=":1110673561_1" sampledSeconds="1315.22" CO_abs="121871.509625" CO2_abs="8446038.728875" HC_abs="759.246800" PMx_abs="176.464263" NOx_abs="3610.700857" fuel_abs="3630.544197" electricity_abs="0"
            CO_normed="5439.882888" CO2_normed="376999.199325" HC_normed="33.889903" PMx_normed="7.876697" NOx_normed="161.168019" fuel_normed="162.053751" electricity_normed="0"
            traveltime="1.19" CO_perVeh="110.592029" CO2_perVeh="7664.338944" HC_perVeh="0.688977" PMx_perVeh="0.160132" NOx_perVeh="3.276522" fuel_perVeh="3.294529" electricity_perVeh="0"/>
        <edge id=":1110673562_0" sampledSeconds="103.79" CO_abs="2463.772576" CO2_abs="196180.715565" HC_abs="15.706839" PMx_abs="2.715934" NOx_abs="75.205740" fuel_abs="84.330387" electricity_abs="0"
            CO_normed="6989.425747" CO2_normed="556541.037063" HC_normed="44.558410" PMx_normed="7.704777" NOx_normed="213.349616" fuel_normed="239.235141" electricity_normed="0"
            traveltime="0.03" CO_perVeh="0.628029" CO2_perVeh="50.007520" HC_perVeh="0.004004" PMx_perVeh="0.000692" NOx_perVeh="0.019170" fuel_perVeh="0.021496" electricity_perVeh="0"/>
        <edge id=":1110673564_0" sampledSeconds="28.17" CO_abs="487.818748" CO2_abs="58469.949358" HC_abs="3.563927" PMx_abs="0.823090" NOx_abs="21.992815" fuel_abs="25.133754" electricity_abs="0"
            CO_normed="3736.484024" CO2_normed="447854.931251" HC_normed="27.298167" PMx_normed="6.304520" NOx_normed="168.455601" fuel_normed="192.513864" electricity_normed="0"
            traveltime="7.743558e-03" CO_perVeh="0.134108" CO2_perVeh="16.074213" HC_perVeh="0.000980" PMx_perVeh="0.000226" NOx_perVeh="0.006046" fuel_perVeh="0.006910" electricity_perVeh="0"/>
        <edge id=":1110673588_0" sampledSeconds="11.74" CO_abs="169.012295" CO2_abs="22549.189000" HC_abs="1.287217" PMx_abs="0.297247" NOx_abs="8.335358" fuel_abs="9.692958" electricity_abs="0"
            CO_normed="517.824902" CO2_normed="69086.876936" HC_normed="3.943815" PMx_normed="0.910714" NOx_normed="25.538119" fuel_normed="29.697573" electricity_normed="0"
            traveltime="0.02" CO_perVeh="0.281687" CO2_perVeh="37.581982" HC_perVeh="0.002145" PMx_perVeh="0.000495" NOx_perVeh="0.013892" fuel_perVeh="0.016155" electricity_perVeh="0"/>
        <edge id=":1110673601_0" sampledSeconds="29.40" CO_abs="430.366537" CO2_abs="52726.684227" HC_abs="3.170013" PMx_abs="0.704891" NOx_abs="19.606059" fuel_abs="22.665017" electricity_abs="0"
            CO_normed="1177.294477" CO2_normed="144237.130103" HC_normed="8.671768" PMx_normed="1.928274" NOx_normed="53.633596" fuel_normed="62.001565" electricity_normed="0"
            traveltime="0.02" CO_perVeh="0.319424" CO2_perVeh="39.134451" HC_perVeh="0.002353" PMx_perVeh="0.000523" NOx_perVeh="0.014552" fuel_perVeh="0.016822" electricity_perVeh="0"/>
        <edge id=":1110673617_0" sampledSeconds="238.67" CO_abs="5827.021836" CO2_abs="718548.300163" HC_abs="43.759986" PMx_abs="12.872655" NOx_abs="271.560743" fuel_abs="308.870831" electricity_abs="0"
            CO_normed="14877.502561" CO2_normed="1834591.404671" HC_normed="111.727625" PMx_normed="32.866353" NOx_normed="693.346578" fuel_normed="788.606378" electricity_normed="0"
            traveltime="0.01" CO_perVeh="0.356866" CO2_perVeh="44.006224" HC_perVeh="0.002680" PMx_perVeh="0.000788" NOx_perVeh="0.016631" fuel_perVeh="0.018916" electricity_perVeh="0"/>
        <edge id=":1110673621_0" sampledSeconds="25.69" CO_abs="472.128311" CO2_abs="50491.589557" HC_abs="3.310920" PMx_abs="0.738367" NOx_abs="19.276709" fuel_abs="21.704186" electricity_abs="0"
            CO_normed="1446.520783" CO2_normed="154697.636091" HC_normed="10.144095" PMx_normed="2.262230" NOx_normed="59.060555" fuel_normed="66.497931" electricity_normed="0"
            traveltime="0.02" CO_perVeh="0.357673" CO2_perVeh="38.251204" HC_perVeh="0.002508" PMx_perVeh="0.000559" NOx_perVeh="0.014604" fuel_perVeh="0.016443" electricity_perVeh="0"/>
        <edge id=":1110673630_0" sampledSeconds="54.59" CO_abs="297.927774" CO2_abs="28348.786868" HC_abs="2.000319" PMx_abs="0.353147" NOx_abs="10.548963" fuel_abs="12.186048" electricity_abs="0"
            CO_normed="16.276747" CO2_normed="1548.784908" HC_normed="0.109284" PMx_normed="0.019294" NOx_normed="0.576324" fuel_normed="0.665763" electricity_normed="0"
            traveltime="1.27" CO_perVeh="6.954161" CO2_perVeh="661.710828" HC_perVeh="0.046691" PMx_perVeh="0.008243" NOx_perVeh="0.246231" fuel_perVeh="0.284444" electricity_perVeh="0"/>
        <edge id=":1110673630_1" sampledSeconds="7.28" CO_abs="50.668557" CO2_abs="4460.418116" HC_abs="0.332341" PMx_abs="0.061375" NOx_abs="1.701003" fuel_abs="1.917355" electricity_abs="0"
            CO_normed="3.374779" CO2_normed="297.086128" HC_normed="0.022136" PMx_normed="0.004088" NOx_normed="0.113295" fuel_normed="0.127705" electricity_normed="0"
            traveltime="1.03" CO_perVeh="7.171550" CO2_perVeh="631.320718" HC_perVeh="0.047039" PMx_perVeh="0.008687" NOx_perVeh="0.240757" fuel_perVeh="0.271380" electricity_perVeh="0"/>
        <edge id=":1110673650_0" sampledSeconds="143.30" CO_abs="2037.629885" CO2_abs="257162.594815" HC_abs="15.123090" PMx_abs="3.515459" NOx_abs="95.915310" fuel_abs="110.543380" electricity_abs="0"
            CO_normed="5202.459280" CO2_normed="656585.348464" HC_normed="38.612144" PMx_normed="8.975639" NOx_normed="244.890154" fuel_normed="282.238416" electricity_normed="0"
            traveltime="0.02" CO_perVeh="0.328127" CO2_perVeh="41.411881" HC_perVeh="0.002435" PMx_perVeh="0.000566" NOx_perVeh="0.015446" fuel_perVeh="0.017801" electricity_perVeh="0"/>
        <edge id=":1110673655_0" sampledSeconds="44.92" CO_abs="778.498794" CO2_abs="89231.913743" HC_abs="5.605353" PMx_abs="1.234622" NOx_abs="33.569272" fuel_abs="38.357070" electricity_abs="0"
            CO_normed="1987.656495" CO2_normed="227826.162749" HC_normed="14.311538" PMx_normed="3.152226" NOx_normed="85.708780" fuel_normed="97.932946" electricity_normed="0"
            traveltime="0.02" CO_perVeh="0.416651" CO2_perVeh="47.756752" HC_perVeh="0.003000" PMx_perVeh="0.000661" NOx_perVeh="0.017966" fuel_perVeh="0.020529" electricity_perVeh="0"/>
        <edge id=":1110673663_0" sampledSeconds="108.77" CO_abs="1677.983941" CO2_abs="205461.702900" HC_abs="12.326240" PMx_abs="2.776908" NOx_abs="76.607400" fuel_abs="88.319419" electricity_abs="0"
            CO_normed="78.465464" CO2_normed="9607.748557" HC_normed="0.576397" PMx_normed="0.129853" NOx_normed="3.582296" fuel_normed="4.129970" electricity_normed="0"
            traveltime="1.28" CO_perVeh="19.708713" CO2_perVeh="2413.244628" HC_perVeh="0.144778" PMx_perVeh="0.032616" NOx_perVeh="0.899790" fuel_perVeh="1.037353" electricity_perVeh="0"/>
        <edge id=":1110673663_1" sampledSeconds="154.45" CO_abs="2058.566912" CO2_abs="283942.222527" HC_abs="15.742301" PMx_abs="3.642156" NOx_abs="104.079794" fuel_abs="122.055036" electricity_abs="0"
            CO_normed="96.379869" CO2_normed="13293.866736" HC_normed="0.737037" PMx_normed="0.170522" NOx_normed="4.872903" fuel_normed="5.714484" electricity_normed="0"
            traveltime="1.25" CO_perVeh="16.673384" CO2_perVeh="2299.793023" HC_perVeh="0.127505" PMx_perVeh="0.029500" NOx_perVeh="0.842995" fuel_perVeh="0.988586" electricity_perVeh="0"/>
        <edge id=":1110673666_0" sampledSeconds="192.29" CO_abs="4310.702968" CO2_abs="336712.922073" HC_abs="27.345220" PMx_abs="4.752962" NOx_abs="129.784585" fuel_abs="144.739583" electricity_abs="0"