<?xml version="1.0" encoding="UTF-8"?>

<!-- generated on Tue Nov 10 03:59:27 2020 by Eclipse SUMO sumo Version 1.7.0
<configuration xmlns:xsi="http://www.w3.org/2001/XMLSchema-instance" xsi:noNamespaceSchemaLocation="http://sumo.dlr.de/xsd/sumoConfiguration.xsd">

    <input>
        <net-file value="../dataSets/Porto/8AM9AM_Routing_SaoBento/Porto.net.xml"/>
        <route-files value="../results/Porto/8AM9AM_Routing_SaoBento/cost_co-ttime/solution5/Porto.rou.xml"/>
        <additional-files value="moreOutputInfo.xml"/>
    </input>

    <output>
        <emission-output.precision value="6"/>
        <tripinfo-output value="../results/Porto/8AM9AM_Routing_SaoBento/cost_co-ttime/solution5/Porto-tripinfo"/>
    </output>

    <processing>
        <collision.action value="warn"/>
        <time-to-teleport value="-1"/>
    </processing>

    <emissions>
        <device.emissions.probability value="1"/>
    </emissions>

    <gui_only>
        <quit-on-end value="true"/>
        <start value="true"/>
    </gui_only>

</configuration>
-->

<meandata xmlns:xsi="http://www.w3.org/2001/XMLSchema-instance" xsi:noNamespaceSchemaLocation="http://sumo.dlr.de/xsd/meandata_file.xsd">
    <interval begin="0.00" end="8471.00" id="emissions-detector">
        <edge id=":1092997347_0" sampledSeconds="596.72" CO_abs="72453.702050" CO2_abs="3086120.504324" HC_abs="402.895865" PMx_abs="62.342066" NOx_abs="1334.822928" fuel_abs="1326.598289" electricity_abs="0"
            CO_normed="69980.287660" CO2_normed="2980766.952374" HC_normed="389.141862" PMx_normed="60.213842" NOx_normed="1289.254929" fuel_normed="1281.311061" electricity_normed="0"
            traveltime="0.07" CO_perVeh="8.288653" CO2_perVeh="353.050032" HC_perVeh="0.046091" PMx_perVeh="0.007132" NOx_perVeh="0.152703" fuel_perVeh="0.151762" electricity_perVeh="0"/>
        <edge id=":1103427051_0" sampledSeconds="19.27" CO_abs="1589.824254" CO2_abs="89253.224003" HC_abs="9.358038" PMx_abs="1.751240" NOx_abs="38.090831" fuel_abs="38.366013" electricity_abs="0"
            CO_normed="2329.801601" CO2_normed="130795.780497" HC_normed="13.713699" PMx_normed="2.566347" NOx_normed="55.820056" fuel_normed="56.223321" electricity_normed="0"
            traveltime="0.03" CO_perVeh="2.472378" CO2_perVeh="138.800059" HC_perVeh="0.014553" PMx_perVeh="0.002723" NOx_perVeh="0.059236" fuel_perVeh="0.059664" electricity_perVeh="0"/>
        <edge id=":1105984386_0" sampledSeconds="10.43" CO_abs="278.529604" CO2_abs="19062.244306" HC_abs="1.707757" PMx_abs="0.291603" NOx_abs="7.537161" fuel_abs="8.194096" electricity_abs="0"
            CO_normed="12.190456" CO2_normed="834.300724" HC_normed="0.074744" PMx_normed="0.012763" NOx_normed="0.329880" fuel_normed="0.358633" electricity_normed="0"
            traveltime="1.00" CO_perVeh="26.719250" CO2_perVeh="1828.634580" HC_perVeh="0.163825" PMx_perVeh="0.027973" NOx_perVeh="0.723037" fuel_perVeh="0.786057" electricity_perVeh="0"/>
        <edge id=":1105984390_0" sampledSeconds="10.97" CO_abs="23.288608" CO2_abs="1931.088243" HC_abs="0.148302" PMx_abs="0.016466" NOx_abs="0.671873" fuel_abs="0.830114" electricity_abs="0"
            CO_normed="0.787992" CO2_normed="65.340176" HC_normed="0.005018" PMx_normed="0.000557" NOx_normed="0.022733" fuel_normed="0.028088" electricity_normed="0"
            traveltime="1.14" CO_perVeh="2.414004" CO2_perVeh="200.168922" HC_perVeh="0.015372" PMx_perVeh="0.001707" NOx_perVeh="0.069644" fuel_perVeh="0.086046" electricity_perVeh="0"/>
        <edge id=":1105984390_1" sampledSeconds="2396.03" CO_abs="62668.172154" CO2_abs="7510624.301895" HC_abs="465.234135" PMx_abs="135.374546" NOx_abs="2854.769004" fuel_abs="3228.470671" electricity_abs="0"
            CO_normed="2028.383741" CO2_normed="243096.737885" HC_normed="15.058256" PMx_normed="4.381674" NOx_normed="92.400446" fuel_normed="104.496065" electricity_normed="0"
            traveltime="0.65" CO_perVeh="16.928201" CO2_perVeh="2028.802757" HC_perVeh="0.125671" PMx_perVeh="0.036568" NOx_perVeh="0.771143" fuel_perVeh="0.872089" electricity_perVeh="0"/>
        <edge id=":1105984395_0" sampledSeconds="4.20" CO_abs="100.260694" CO2_abs="7083.958253" HC_abs="0.617058" PMx_abs="0.092890" NOx_abs="2.695013" fuel_abs="3.045132" electricity_abs="0"
            CO_normed="46.313830" CO2_normed="3272.321644" HC_normed="0.285040" PMx_normed="0.042909" NOx_normed="1.244918" fuel_normed="1.406650" electricity_normed="0"
            traveltime="0.10" CO_perVeh="2.324007" CO2_perVeh="164.203618" HC_perVeh="0.014303" PMx_perVeh="0.002153" NOx_perVeh="0.062469" fuel_perVeh="0.070585" electricity_perVeh="0"/>
        <edge id=":1105984398_0" sampledSeconds="10.86" CO_abs="658.897996" CO2_abs="43460.411925" HC_abs="4.020641" PMx_abs="0.765582" NOx_abs="17.856344" fuel_abs="18.681757" electricity_abs="0"
            CO_normed="23.161128" CO2_normed="1527.690424" HC_normed="0.141331" PMx_normed="0.026911" NOx_normed="0.627674" fuel_normed="0.656688" electricity_normed="0"
            traveltime="1.17" CO_perVeh="71.196232" CO2_perVeh="4696.049414" HC_perVeh="0.434444" PMx_perVeh="0.082724" NOx_perVeh="1.929440" fuel_perVeh="2.018629" electricity_perVeh="0"/>
        <edge id=":1105984398_1" sampledSeconds="646.13" CO_abs="11990.492043" CO2_abs="1420295.027806" HC_abs="87.243296" PMx_abs="20.235820" NOx_abs="536.221422" fuel_abs="610.524375" electricity_abs="0"
            CO_normed="407.983299" CO2_normed="48326.344703" HC_normed="2.968503" PMx_normed="0.688535" NOx_normed="18.245238" fuel_normed="20.773438" electricity_normed="0"
            traveltime="0.95" CO_perVeh="17.689746" CO2_perVeh="2095.381812" HC_perVeh="0.128711" PMx_perVeh="0.029854" NOx_perVeh="0.791095" fuel_perVeh="0.900715" electricity_perVeh="0"/>
        <edge id=":1106006327_0" sampledSeconds="67.19" CO_abs="9105.331131" CO2_abs="296929.866126" HC_abs="48.452760" PMx_abs="6.203432" NOx_abs="130.033926" fuel_abs="127.639614" electricity_abs="0"
            CO_normed="436.746910" CO2_normed="14242.557439" HC_normed="2.324088" PMx_normed="0.297554" NOx_normed="6.237216" fuel_normed="6.122370" electricity_normed="0"
            traveltime="2.08" CO_perVeh="282.261761" CO2_perVeh="9204.711570" HC_perVeh="1.502017" PMx_perVeh="0.192304" NOx_perVeh="4.031002" fuel_perVeh="3.956779" electricity_perVeh="0"/>
        <edge id=":1106006327_1" sampledSeconds="686.14" CO_abs="92498.784275" CO2_abs="3076573.096554" HC_abs="493.660646" PMx_abs="64.096716" NOx_abs="1345.948650" fuel_abs="1322.508335" electricity_abs="0"
            CO_normed="3869.101615" CO2_normed="128688.977163" HC_normed="20.649171" PMx_normed="2.681081" NOx_normed="56.299249" fuel_normed="55.318772" electricity_normed="0"
            traveltime="2.30" CO_perVeh="310.496030" CO2_perVeh="10327.311211" HC_perVeh="1.657099" PMx_perVeh="0.215157" NOx_perVeh="4.518024" fuel_perVeh="4.439340" electricity_perVeh="0"/>
        <edge id=":1106006327_2" sampledSeconds="0.00" CO_abs="0" CO2_abs="0" HC_abs="0" PMx_abs="0" NOx_abs="0" fuel_abs="0" electricity_abs="0"
            CO_normed="0" CO2_normed="0" HC_normed="0" PMx_normed="0" NOx_normed="0" fuel_normed="0" electricity_normed="0"/>
        <edge id=":1106006327_3" sampledSeconds="0.00" CO_abs="0" CO2_abs="0" HC_abs="0" PMx_abs="0" NOx_abs="0" fuel_abs="0" electricity_abs="0"
            CO_normed="0" CO2_normed="0" HC_normed="0" PMx_normed="0" NOx_normed="0" fuel_normed="0" electricity_normed="0"/>
        <edge id=":1107381198_0" sampledSeconds="0.00" CO_abs="0" CO2_abs="0" HC_abs="0" PMx_abs="0" NOx_abs="0" fuel_abs="0" electricity_abs="0"
            CO_normed="0" CO2_normed="0" HC_normed="0" PMx_normed="0" NOx_normed="0" fuel_normed="0" electricity_normed="0"/>
        <edge id=":1107381198_1" sampledSeconds="105.08" CO_abs="4558.694069" CO2_abs="180050.867351" HC_abs="24.909409" PMx_abs="3.151225" NOx_abs="74.894787" fuel_abs="77.397590" electricity_abs="0"
            CO_normed="211.270535" CO2_normed="8344.372847" HC_normed="1.154415" PMx_normed="0.146042" NOx_normed="3.470964" fuel_normed="3.586955" electricity_normed="0"
            traveltime="1.57" CO_perVeh="68.252391" CO2_perVeh="2695.706723" HC_perVeh="0.372942" PMx_perVeh="0.047180" NOx_perVeh="1.121319" fuel_perVeh="1.158790" electricity_perVeh="0"/>
        <edge id=":1110338277_0" sampledSeconds="161.18" CO_abs="2465.528562" CO2_abs="299121.949954" HC_abs="18.040946" PMx_abs="4.135869" NOx_abs="112.085075" fuel_abs="128.579931" electricity_abs="0"
            CO_normed="3742.138229" CO2_normed="454002.318766" HC_normed="27.382248" PMx_normed="6.277353" NOx_normed="170.120862" fuel_normed="195.156480" electricity_normed="0"
            traveltime="0.02" CO_perVeh="0.333932" CO2_perVeh="40.513196" HC_perVeh="0.002443" PMx_perVeh="0.000560" NOx_perVeh="0.015181" fuel_perVeh="0.017415" electricity_perVeh="0"/>
        <edge id=":1110338293_0" sampledSeconds="6410.32" CO_abs="582780.213167" CO2_abs="10225958.718559" HC_abs="2892.828786" PMx_abs="243.744864" NOx_abs="4620.992453" fuel_abs="4395.966586" electricity_abs="0"
            CO_normed="825565.170346" CO2_normed="14486070.667302" HC_normed="4097.974906" PMx_normed="345.288440" NOx_normed="6546.087762" fuel_normed="6227.316613" electricity_normed="0"
            traveltime="0.43" CO_perVeh="38.980923" CO2_perVeh="683.992520" HC_perVeh="0.193495" PMx_perVeh="0.016304" NOx_perVeh="0.309088" fuel_perVeh="0.294037" electricity_perVeh="0"/>
        <edge id=":1110338295_0" sampledSeconds="0.00" CO_abs="0" CO2_abs="0" HC_abs="0" PMx_abs="0" NOx_abs="0" fuel_abs="0" electricity_abs="0"
            CO_normed="0" CO2_normed="0" HC_normed="0" PMx_normed="0" NOx_normed="0" fuel_normed="0" electricity_normed="0"/>
        <edge id=":1110673403_0" sampledSeconds="201.30" CO_abs="3026.038904" CO2_abs="372087.296037" HC_abs="22.242079" PMx_abs="5.077166" NOx_abs="138.968646" fuel_abs="159.944731" electricity_abs="0"
            CO_normed="4286.680067" CO2_normed="527098.046564" HC_normed="31.508080" PMx_normed="7.192303" NOx_normed="196.862679" fuel_normed="226.577354" electricity_normed="0"
            traveltime="0.02" CO_perVeh="0.349737" CO2_perVeh="43.004272" HC_perVeh="0.002571" PMx_perVeh="0.000587" NOx_perVeh="0.016061" fuel_perVeh="0.018486" electricity_perVeh="0"/>
        <edge id=":1110673412_0" sampledSeconds="950.91" CO_abs="169961.424338" CO2_abs="11575669.238283" HC_abs="1057.242443" PMx_abs="254.657023" NOx_abs="4976.711141" fuel_abs="4975.809884" electricity_abs="0"
            CO_normed="249069.290202" CO2_normed="16963518.233739" HC_normed="1549.331714" PMx_normed="373.186117" NOx_normed="7293.101456" fuel_normed="7291.780714" electricity_normed="0"
            traveltime="0.02" CO_perVeh="2.773153" CO2_perVeh="188.872851" HC_perVeh="0.017250" PMx_perVeh="0.004155" NOx_perVeh="0.081202" fuel_perVeh="0.081187" electricity_perVeh="0"/>
        <edge id=":1110673414_0" sampledSeconds="0.00" CO_abs="0" CO2_abs="0" HC_abs="0" PMx_abs="0" NOx_abs="0" fuel_abs="0" electricity_abs="0"
            CO_normed="0" CO2_normed="0" HC_normed="0" PMx_normed="0" NOx_normed="0" fuel_normed="0" electricity_normed="0"/>
        <edge id=":1110673414_1" sampledSeconds="7.14" CO_abs="415.352473" CO2_abs="15524.193139" HC_abs="2.243704" PMx_abs="0.246768" NOx_abs="6.299612" fuel_abs="6.673366" electricity_abs="0"
            CO_normed="19.547754" CO2_normed="730.615878" HC_normed="0.105596" PMx_normed="0.011614" NOx_normed="0.296479" fuel_normed="0.314069" electricity_normed="0"
            traveltime="1.56" CO_perVeh="90.726484" CO2_perVeh="3390.988487" HC_perVeh="0.490098" PMx_perVeh="0.053902" NOx_perVeh="1.376040" fuel_perVeh="1.457680" electricity_perVeh="0"/>
        <edge id=":1110673417_0" sampledSeconds="28.99" CO_abs="534.123022" CO2_abs="59291.135101" HC_abs="3.776012" PMx_abs="0.843114" NOx_abs="22.427871" fuel_abs="25.486758" electricity_abs="0"
            CO_normed="810.683036" CO2_normed="89991.098354" HC_normed="5.731168" PMx_normed="1.279664" NOx_normed="34.040649" fuel_normed="38.683377" electricity_normed="0"
            traveltime="0.02" CO_perVeh="0.407294" CO2_perVeh="45.212336" HC_perVeh="0.002879" PMx_perVeh="0.000643" NOx_perVeh="0.017102" fuel_perVeh="0.019435" electricity_perVeh="0"/>
        <edge id=":1110673446_0" sampledSeconds="1328.90" CO_abs="14721.144970" CO2_abs="1187069.064623" HC_abs="95.180008" PMx_abs="21.763541" NOx_abs="485.771730" fuel_abs="510.266450" electricity_abs="0"
            CO_normed="20853.941642" CO2_normed="1681599.430465" HC_normed="134.831790" PMx_normed="30.830185" NOx_normed="688.143166" fuel_normed="722.842332" electricity_normed="0"
            traveltime="0.02" CO_perVeh="0.252444" CO2_perVeh="20.356304" HC_perVeh="0.001632" PMx_perVeh="0.000373" NOx_perVeh="0.008330" fuel_perVeh="0.008750" electricity_perVeh="0"/>
        <edge id=":1110673451_0" sampledSeconds="37.02" CO_abs="295.225715" CO2_abs="17808.444250" HC_abs="1.750905" PMx_abs="0.259663" NOx_abs="6.987976" fuel_abs="7.655184" electricity_abs="0"
            CO_normed="464.684555" CO2_normed="28030.447802" HC_normed="2.755920" PMx_normed="0.408708" NOx_normed="10.999057" fuel_normed="12.049241" electricity_normed="0"
            traveltime="0.03" CO_perVeh="0.217516" CO2_perVeh="13.120886" HC_perVeh="0.001290" PMx_perVeh="0.000191" NOx_perVeh="0.005149" fuel_perVeh="0.005640" electricity_perVeh="0"/>
        <edge id=":1110673464_0" sampledSeconds="1030.34" CO_abs="4508.748506" CO2_abs="321712.485140" HC_abs="27.938319" PMx_abs="4.817050" NOx_abs="126.196714" fuel_abs="138.291358" electricity_abs="0"
            CO_normed="135.702902" CO2_normed="9682.801701" HC_normed="0.840879" PMx_normed="0.144982" NOx_normed="3.798229" fuel_normed="4.162250" electricity_normed="0"
            traveltime="1.22" CO_perVeh="5.346745" CO2_perVeh="381.505983" HC_perVeh="0.033131" PMx_perVeh="0.005712" NOx_perVeh="0.149652" fuel_perVeh="0.163994" electricity_perVeh="0"/>
        <edge id=":1110673464_1" sampledSeconds="2606.73" CO_abs="62384.249206" CO2_abs="7615566.012424" HC_abs="465.315267" PMx_abs="135.821512" NOx_abs="2887.412944" fuel_abs="3273.581102" electricity_abs="0"
            CO_normed="1839.834638" CO2_normed="224598.072689" HC_normed="13.723066" PMx_normed="4.005644" NOx_normed="85.155507" fuel_normed="96.544368" electricity_normed="0"
            traveltime="0.72" CO_perVeh="17.196942" CO2_perVeh="2099.319166" HC_perVeh="0.128270" PMx_perVeh="0.037441" NOx_perVeh="0.795949" fuel_perVeh="0.902401" electricity_perVeh="0"/>
        <edge id=":1110673479_0" sampledSeconds="133.84" CO_abs="6669.541118" CO2_abs="457189.942616" HC_abs="41.113887" PMx_abs="8.029738" NOx_abs="187.226143" fuel_abs="196.526100" electricity_abs="0"
            CO_normed="9448.057304" CO2_normed="647654.268845" HC_normed="58.241843" PMx_normed="11.374910" NOx_normed="265.224143" fuel_normed="278.398442" electricity_normed="0"
            traveltime="0.03" CO_perVeh="1.410001" CO2_perVeh="96.654087" HC_perVeh="0.008692" PMx_perVeh="0.001698" NOx_perVeh="0.039581" fuel_perVeh="0.041547" electricity_perVeh="0"/>
        <edge id=":1110673511_0" sampledSeconds="63.79" CO_abs="1172.291832" CO2_abs="125431.080847" HC_abs="8.223703" PMx_abs="1.772679" NOx_abs="47.568631" fuel_abs="53.917572" electricity_abs="0"
            CO_normed="1660.666035" CO2_normed="177685.393715" HC_normed="11.649679" PMx_normed="2.511173" NOx_normed="67.385619" fuel_normed="76.379514" electricity_normed="0"
            traveltime="0.02" CO_perVeh="0.449297" CO2_perVeh="48.073234" HC_perVeh="0.003152" PMx_perVeh="0.000679" NOx_perVeh="0.018231" fuel_perVeh="0.020665" electricity_perVeh="0"/>
        <edge id=":1110673517_0" sampledSeconds="183.10" CO_abs="7608.760472" CO2_abs="546107.584821" HC_abs="47.455182" PMx_abs="9.367806" NOx_abs="221.720769" fuel_abs="234.748017" electricity_abs="0"
            CO_normed="10778.553377" CO2_normed="773614.805555" HC_normed="67.224907" PMx_normed="13.270414" NOx_normed="314.089154" fuel_normed="332.543526" electricity_normed="0"
            traveltime="0.03" CO_perVeh="1.164967" CO2_perVeh="83.613768" HC_perVeh="0.007266" PMx_perVeh="0.001434" NOx_perVeh="0.033947" fuel_perVeh="0.035942" electricity_perVeh="0"/>
        <edge id=":1110673534_0" sampledSeconds="737.43" CO_abs="6162.409397" CO2_abs="506126.407120" HC_abs="39.661958" PMx_abs="7.073151" NOx_abs="194.188100" fuel_abs="217.563631" electricity_abs="0"
            CO_normed="169.179373" CO2_normed="13894.913896" HC_normed="1.088857" PMx_normed="0.194182" NOx_normed="5.331132" fuel_normed="5.972871" electricity_normed="0"
            traveltime="1.45" CO_perVeh="12.153291" CO2_perVeh="998.165018" HC_perVeh="0.078220" PMx_perVeh="0.013949" NOx_perVeh="0.382971" fuel_perVeh="0.429071" electricity_perVeh="0"/>
        <edge id=":1110673534_1" sampledSeconds="199.53" CO_abs="3236.692405" CO2_abs="398946.660427" HC_abs="23.839421" PMx_abs="5.547947" NOx_abs="149.525880" fuel_abs="171.490296" electricity_abs="0"
            CO_normed="86.402475" CO2_normed="10649.754331" HC_normed="0.636386" PMx_normed="0.148101" NOx_normed="3.991546" fuel_normed="4.577879" electricity_normed="0"
            traveltime="1.22" CO_perVeh="19.784908" CO2_perVeh="2438.638546" HC_perVeh="0.145723" PMx_perVeh="0.033913" NOx_perVeh="0.914006" fuel_perVeh="1.048268" electricity_perVeh="0"/>
        <edge id=":1110673549_0" sampledSeconds="651.30" CO_abs="1289.863052" CO2_abs="116742.399552" HC_abs="8.555412" PMx_abs="1.604604" NOx_abs="44.140049" fuel_abs="50.182897" electricity_abs="0"
            CO_normed="34.303201" CO2_normed="3104.700129" HC_normed="0.227526" PMx_normed="0.042674" NOx_normed="1.173880" fuel_normed="1.334587" electricity_normed="0"
            traveltime="1.29" CO_perVeh="2.562650" CO2_perVeh="231.939311" HC_perVeh="0.016998" PMx_perVeh="0.003188" NOx_perVeh="0.087696" fuel_perVeh="0.099701" electricity_perVeh="0"/>
        <edge id=":1110673549_1" sampledSeconds="3196.25" CO_abs="69241.535258" CO2_abs="9162699.364257" HC_abs="533.414886" PMx_abs="160.543320" NOx_abs="3422.385660" fuel_abs="3938.625320" electricity_abs="0"
            CO_normed="1781.248308" CO2_normed="235711.739721" HC_normed="13.722174" PMx_normed="4.130000" NOx_normed="88.041356" fuel_normed="101.321695" electricity_normed="0"
            traveltime="0.81" CO_perVeh="17.468213" CO2_perVeh="2311.560240" HC_perVeh="0.134570" PMx_perVeh="0.040502" NOx_perVeh="0.863397" fuel_perVeh="0.993634" electricity_perVeh="0"/>
        <edge id=":1110673556_0" sampledSeconds="470.80" CO_abs="58750.664408" CO2_abs="2808996.241295" HC_abs="334.232401" PMx_abs="56.805606" NOx_abs="1211.755348" fuel_abs="1207.467908" electricity_abs="0"
            CO_normed="1158.599474" CO2_normed="55395.144886" HC_normed="6.591270" PMx_normed="1.120242" NOx_normed="23.896566" fuel_normed="23.812015" electricity_normed="0"
            traveltime="2.78" CO_perVeh="346.329518" CO2_perVeh="16558.762754" HC_perVeh="1.970268" PMx_perVeh="0.334864" NOx_perVeh="7.143181" fuel_perVeh="7.117907" electricity_perVeh="0"/>
        <edge id=":1110673556_2" sampledSeconds="176.50" CO_abs="17867.124788" CO2_abs="759446.417774" HC_abs="99.213128" PMx_abs="14.804701" NOx_abs="324.936227" fuel_abs="326.456135" electricity_abs="0"
            CO_normed="368.421103" CO2_normed="15659.827189" HC_normed="2.045780" PMx_normed="0.305274" NOx_normed="6.700203" fuel_normed="6.731544" electricity_normed="0"
            traveltime="3.05" CO_perVeh="308.949837" CO2_perVeh="13131.986798" HC_perVeh="1.715546" PMx_perVeh="0.255996" NOx_perVeh="5.618643" fuel_perVeh="5.644924" electricity_perVeh="0"/>
        <edge id=":1110673556_3" sampledSeconds="351.96" CO_abs="35863.953309" CO2_abs="1242601.569007" HC_abs="192.373926" PMx_abs="24.632955" NOx_abs="535.847732" fuel_abs="534.150412" electricity_abs="0"
            CO_normed="1682.278063" CO2_normed="58286.975306" HC_normed="9.023725" PMx_normed="1.155463" NOx_normed="25.135123" fuel_normed="25.055507" electricity_normed="0"
            traveltime="1.83" CO_perVeh="186.733456" CO2_perVeh="6469.874726" HC_perVeh="1.001637" PMx_perVeh="0.128257" NOx_perVeh="2.790008" fuel_perVeh="2.781170" electricity_perVeh="0"/>
        <edge id=":1110673556_4" sampledSeconds="79.39" CO_abs="9207.634130" CO2_abs="350016.480487" HC_abs="50.164919" PMx_abs="7.042876" NOx_abs="151.429136" fuel_abs="150.458784" electricity_abs="0"
            CO_normed="263.860707" CO2_normed="10030.328612" HC_normed="1.437563" PMx_normed="0.201826" NOx_normed="4.339464" fuel_normed="4.311657" electricity_normed="0"
            traveltime="2.61" CO_perVeh="303.213603" CO2_perVeh="11526.278824" HC_perVeh="1.651965" PMx_perVeh="0.231927" NOx_perVeh="4.986664" fuel_perVeh="4.954709" electricity_perVeh="0"/>
        <edge id=":1110673556_5" sampledSeconds="22.69" CO_abs="1052.893273" CO2_abs="46821.282161" HC_abs="5.866622" PMx_abs="0.756794" NOx_abs="19.020843" fuel_abs="20.126824" electricity_abs="0"
            CO_normed="42.054313" CO2_normed="1870.120080" HC_normed="0.234323" PMx_normed="0.030228" NOx_normed="0.759724" fuel_normed="0.803899" electricity_normed="0"
            traveltime="1.57" CO_perVeh="72.792621" CO2_perVeh="3237.026915" HC_perVeh="0.405594" PMx_perVeh="0.052322" NOx_perVeh="1.315021" fuel_perVeh="1.391484" electricity_perVeh="0"/>
        <edge id=":1110673556_6" sampledSeconds="544.07" CO_abs="63237.281433" CO2_abs="3074034.018954" HC_abs="360.879817" PMx_abs="61.577410" NOx_abs="1322.004383" fuel_abs="1321.396390" electricity_abs="0"
            CO_normed="1278.522274" CO2_normed="62150.378328" HC_normed="7.296216" PMx_normed="1.244963" NOx_normed="26.728095" fuel_normed="26.715802" electricity_normed="0"
            traveltime="2.64" CO_perVeh="307.030983" CO2_perVeh="14925.114816" HC_perVeh="1.752151" PMx_perVeh="0.298972" NOx_perVeh="6.418624" fuel_perVeh="6.415672" electricity_perVeh="0"/>
        <edge id=":1110673561_0" sampledSeconds="102.97" CO_abs="9892.138664" CO2_abs="713650.966245" HC_abs="62.209203" PMx_abs="14.292663" NOx_abs="301.025201" fuel_abs="306.764695" electricity_abs="0"
            CO_normed="251.282401" CO2_normed="18128.327408" HC_normed="1.580253" PMx_normed="0.363066" NOx_normed="7.646712" fuel_normed="7.792508" electricity_normed="0"
            traveltime="1.22" CO_perVeh="116.736838" CO2_perVeh="8421.774071" HC_perVeh="0.734129" PMx_perVeh="0.168667" NOx_perVeh="3.552390" fuel_perVeh="3.620121" electricity_perVeh="0"/>
        <edge id=":1110673561_1" sampledSeconds="5244.98" CO_abs="493068.530659" CO2_abs="34205046.146219" HC_abs="3072.581803" PMx_abs="714.258911" NOx_abs="14618.366960" fuel_abs="14703.097978" electricity_abs="0"
            CO_normed="12211.185278" CO2_normed="847111.770381" HC_normed="76.094626" PMx_normed="17.689119" NOx_normed="362.034030" fuel_normed="364.132453" electricity_normed="0"
            traveltime="1.19" CO_perVeh="112.010484" CO2_perVeh="7770.367705" HC_perVeh="0.697999" PMx_perVeh="0.162258" NOx_perVeh="3.320858" fuel_perVeh="3.340106" electricity_perVeh="0"/>
        <edge id=":1110673562_0" sampledSeconds="301.37" CO_abs="6797.169730" CO2_abs="513259.665605" HC_abs="42.669946" PMx_abs="7.082533" NOx_abs="197.116920" fuel_abs="220.630461" electricity_abs="0"
            CO_normed="10698.728573" CO2_normed="807869.461465" HC_normed="67.162390" PMx_normed="11.147890" NOx_normed="310.261551" fuel_normed="347.271808" electricity_normed="0"
            traveltime="0.03" CO_perVeh="0.609308" CO2_perVeh="46.009333" HC_perVeh="0.003825" PMx_perVeh="0.000635" NOx_perVeh="0.017670" fuel_perVeh="0.019778" electricity_perVeh="0"/>
        <edge id=":1110673564_0" sampledSeconds="28.10" CO_abs="407.402065" CO2_abs="47105.390205" HC_abs="2.929303" PMx_abs="0.649128" NOx_abs="17.678462" fuel_abs="20.248640" electricity_abs="0"
            CO_normed="1731.374611" CO2_normed="200188.177003" HC_normed="12.448932" PMx_normed="2.758659" NOx_normed="75.129810" fuel_normed="86.052535" electricity_normed="0"
            traveltime="7.937102e-03" CO_perVeh="0.115069" CO2_perVeh="13.304728" HC_perVeh="0.000827" PMx_perVeh="0.000183" NOx_perVeh="0.004993" fuel_perVeh="0.005719" electricity_perVeh="0"/>
        <edge id=":1110673588_0" sampledSeconds="63.07" CO_abs="1152.629291" CO2_abs="119009.697721" HC_abs="7.975664" PMx_abs="1.708082" NOx_abs="45.334581" fuel_abs="51.157277" electricity_abs="0"
            CO_normed="1959.374547" CO2_normed="202306.651775" HC_normed="13.557970" PMx_normed="2.903598" NOx_normed="77.065041" fuel_normed="86.963143" electricity_normed="0"
            traveltime="0.02" CO_perVeh="0.371816" CO2_perVeh="38.390225" HC_perVeh="0.002573" PMx_perVeh="0.000551" NOx_perVeh="0.014624" fuel_perVeh="0.016502" electricity_perVeh="0"/>
        <edge id=":1110673601_0" sampledSeconds="28.91" CO_abs="545.840746" CO2_abs="57363.496107" HC_abs="3.822393" PMx_abs="0.863833" NOx_abs="22.056072" fuel_abs="24.658099" electricity_abs="0"
            CO_normed="828.468002" CO2_normed="87065.359961" HC_normed="5.801565" PMx_normed="1.311112" NOx_normed="33.476339" fuel_normed="37.425652" electricity_normed="0"
            traveltime="0.02" CO_perVeh="0.416230" CO2_perVeh="43.742419" HC_perVeh="0.002915" PMx_perVeh="0.000659" NOx_perVeh="0.016819" fuel_perVeh="0.018803" electricity_perVeh="0"/>
        <edge id=":1110673617_0" sampledSeconds="853.71" CO_abs="32132.786483" CO2_abs="3249409.984532" HC_abs="224.287155" PMx_abs="61.374106" NOx_abs="1274.587091" fuel_abs="1396.769147" electricity_abs="0"
            CO_normed="45519.234777" CO2_normed="4603107.049272" HC_normed="317.724692" PMx_normed="86.942424" NOx_normed="1805.577274" fuel_normed="1978.660106" electricity_normed="0"
            traveltime="0.02" CO_perVeh="0.569352" CO2_perVeh="57.575422" HC_perVeh="0.003974" PMx_perVeh="0.001087" NOx_perVeh="0.022584" fuel_perVeh="0.024749" electricity_perVeh="0"/>
        <edge id=":1110673621_0" sampledSeconds="26.32" CO_abs="703.993921" CO2_abs="69477.294203" HC_abs="4.813972" PMx_abs="1.047536" NOx_abs="26.837278" fuel_abs="29.865321" electricity_abs="0"
            CO_normed="1196.731492" CO2_normed="118105.658899" HC_normed="8.183354" PMx_normed="1.780725" NOx_normed="45.621155" fuel_normed="50.768577" electricity_normed="0"
            traveltime="0.02" CO_perVeh="0.533329" CO2_perVeh="52.634314" HC_perVeh="0.003647" PMx_perVeh="0.000794" NOx_perVeh="0.020331" fuel_perVeh="0.022625" electricity_perVeh="0"/>
        <edge id=":1110673630_0" sampledSeconds="285.07" CO_abs="1545.309264" CO2_abs="140470.433300" HC_abs="10.243031" PMx_abs="1.850751" NOx_abs="52.955543" fuel_abs="60.382710" electricity_abs="0"
            CO_normed="46.841977" CO2_normed="4257.990885" HC_normed="0.310490" PMx_normed="0.056101" NOx_normed="1.605208" fuel_normed="1.830343" electricity_normed="0"
            traveltime="1.28" CO_perVeh="6.953303" CO2_perVeh="632.063394" HC_perVeh="0.046090" PMx_perVeh="0.008328" NOx_perVeh="0.238280" fuel_perVeh="0.271699" electricity_perVeh="0"/>
        <edge id=":1110673630_1" sampledSeconds="336.66" CO_abs="1307.430863" CO2_abs="110021.734992" HC_abs="8.447638" PMx_abs="1.388293" NOx_abs="41.238167" fuel_abs="47.294174" electricity_abs="0"
            CO_normed="48.315748" CO2_normed="4065.822997" HC_normed="0.312180" PMx_normed="0.051304" NOx_normed="1.523945" fuel_normed="1.747743" electricity_normed="0"
            traveltime="1.07" CO_perVeh="4.167832" CO2_perVeh="350.727638" HC_perVeh="0.026929" PMx_perVeh="0.004426" NOx_perVeh="0.131459" fuel_perVeh="0.150765" electricity_perVeh="0"/>
        <edge id=":1110673650_0" sampledSeconds="200.43" CO_abs="3186.309546" CO2_abs="389414.435074" HC_abs="23.395306" PMx_abs="5.347997" NOx_abs="145.676936" fuel_abs="167.392908" electricity_abs="0"
            CO_normed="4513.719106" CO2_normed="551643.633678" HC_normed="33.141739" PMx_normed="7.575961" NOx_normed="206.365628" fuel_normed="237.128426" electricity_normed="0"
            traveltime="0.02" CO_perVeh="0.368262" CO2_perVeh="45.007074" HC_perVeh="0.002704" PMx_perVeh="0.000618" NOx_perVeh="0.016837" fuel_perVeh="0.019347" electricity_perVeh="0"/>
        <edge id=":1110673655_0" sampledSeconds="20.66" CO_abs="385.138792" CO2_abs="47457.600129" HC_abs="2.828405" PMx_abs="0.633334" NOx_abs="17.638143" fuel_abs="20.400053" electricity_abs="0"
            CO_normed="545.586768" CO2_normed="67228.332139" HC_normed="4.006712" PMx_normed="0.897180" NOx_normed="24.986154" fuel_normed="28.898670" electricity_normed="0"
            traveltime="0.02" CO_perVeh="0.440008" CO2_perVeh="54.218743" HC_perVeh="0.003231" PMx_perVeh="0.000724" NOx_perVeh="0.020151" fuel_perVeh="0.023306" electricity_perVeh="0"/>
        <edge id=":1110673663_0" sampledSeconds="111.89" CO_abs="1823.461049" CO2_abs="203027.310741" HC_abs="12.980359" PMx_abs="2.850614" NOx_abs="76.709785" fuel_abs="87.272927" electricity_abs="0"
            CO_normed="47.309724" CO2_normed="5267.546568" HC_normed="0.336776" PMx_normed="0.073959" NOx_normed="1.990236" fuel_normed="2.264297" electricity_normed="0"
            traveltime="1.31" CO_perVeh="21.417410" CO2_perVeh="2384.651544" HC_perVeh="0.152460" PMx_perVeh="0.033482" NOx_perVeh="0.900993" fuel_perVeh="1.025062" electricity_perVeh="0"/>
        <edge id=":1110673663_1" sampledSeconds="170.25" CO_abs="2700.214345" CO2_abs="336893.679249" HC_abs="19.964926" PMx_abs="4.527543" NOx_abs="125.340094" fuel_abs="144.816550" electricity_abs="0"
            CO_normed="70.142745" CO2_normed="8751.396937" HC_normed="0.518624" PMx_normed="0.117611" NOx_normed="3.255926" fuel_normed="3.761861" electricity_normed="0"
            traveltime="1.27" CO_perVeh="20.158724" CO2_perVeh="2515.113985" HC_perVeh="0.149050" PMx_perVeh="0.033801" NOx_perVeh="0.935739" fuel_perVeh="1.081143" electricity_perVeh="0"/>