<?xml version="1.0" encoding="UTF-8"?>

<!-- generated on Wed Nov 11 15:39:25 2020 by Eclipse SUMO sumo Version 1.7.0
<configuration xmlns:xsi="http://www.w3.org/2001/XMLSchema-instance" xsi:noNamespaceSchemaLocation="http://sumo.dlr.de/xsd/sumoConfiguration.xsd">

    <input>
        <net-file value="../dataSets/Porto/6PM7PM_Routing_A3/Porto.net.xml"/>
        <route-files value="../results/Porto/6PM7PM_Routing_A3/inputdata/Porto-base.rou.xml"/>
        <additional-files value="moreOutputInfo.xml"/>
    </input>

    <output>
        <emission-output.precision value="6"/>
        <tripinfo-output value="../results/Porto/6PM7PM_Routing_A3/inputdata/Porto-tripinfo"/>
    </output>

    <processing>
        <collision.action value="warn"/>
        <time-to-teleport value="-1"/>
    </processing>

    <emissions>
        <device.emissions.probability value="1"/>
    </emissions>

    <gui_only>
        <quit-on-end value="true"/>
        <start value="true"/>
    </gui_only>

</configuration>
-->

<meandata xmlns:xsi="http://www.w3.org/2001/XMLSchema-instance" xsi:noNamespaceSchemaLocation="http://sumo.dlr.de/xsd/meandata_file.xsd">
    <interval begin="0.00" end="28117.00" id="emissions-detector">
        <edge id=":1092997347_0" sampledSeconds="913.62" CO_abs="112283.359941" CO2_abs="4952114.609368" HC_abs="628.532182" PMx_abs="100.106534" NOx_abs="2141.613596" fuel_abs="2128.710192" electricity_abs="0"
            CO_normed="32673.543973" CO2_normed="1441025.050659" HC_normed="182.897750" PMx_normed="29.130187" NOx_normed="623.192128" fuel_normed="619.437342" electricity_normed="0"
            traveltime="0.06" CO_perVeh="7.977155" CO2_perVeh="351.822274" HC_perVeh="0.044654" PMx_perVeh="0.007112" NOx_perVeh="0.152151" fuel_perVeh="0.151234" electricity_perVeh="0"/>
        <edge id=":1103427051_0" sampledSeconds="44.10" CO_abs="3414.489443" CO2_abs="195298.832304" HC_abs="20.176722" PMx_abs="3.778373" NOx_abs="82.933160" fuel_abs="83.950364" electricity_abs="0"
            CO_normed="1507.513799" CO2_normed="86225.390247" HC_normed="8.908122" PMx_normed="1.668170" NOx_normed="36.615396" fuel_normed="37.064497" electricity_normed="0"
            traveltime="0.03" CO_perVeh="2.338912" CO2_perVeh="133.778962" HC_perVeh="0.013821" PMx_perVeh="0.002588" NOx_perVeh="0.056809" fuel_perVeh="0.057506" electricity_perVeh="0"/>
        <edge id=":1105984386_0" sampledSeconds="12.79" CO_abs="232.249577" CO2_abs="18935.995095" HC_abs="1.490033" PMx_abs="0.257645" NOx_abs="7.231137" fuel_abs="8.139843" electricity_abs="0"
            CO_normed="3.062452" CO2_normed="249.690732" HC_normed="0.019648" PMx_normed="0.003397" NOx_normed="0.095350" fuel_normed="0.107332" electricity_normed="0"
            traveltime="0.95" CO_perVeh="17.328595" CO2_perVeh="1412.851640" HC_perVeh="0.111174" PMx_perVeh="0.019223" NOx_perVeh="0.539529" fuel_perVeh="0.607330" electricity_perVeh="0"/>
        <edge id=":1105984390_0" sampledSeconds="12.62" CO_abs="0" CO2_abs="0" HC_abs="0" PMx_abs="0" NOx_abs="0" fuel_abs="0" electricity_abs="0"
            CO_normed="0" CO2_normed="0" HC_normed="0" PMx_normed="0" NOx_normed="0" fuel_normed="0" electricity_normed="0"
            traveltime="1.02" CO_perVeh="0" CO2_perVeh="0" HC_perVeh="0" PMx_perVeh="0" NOx_perVeh="0" fuel_perVeh="0" electricity_perVeh="0"/>
        <edge id=":1105984390_1" sampledSeconds="3211.94" CO_abs="98707.449027" CO2_abs="10861465.745616" HC_abs="709.658860" PMx_abs="200.705461" NOx_abs="4192.986945" fuel_abs="4668.838663" electricity_abs="0"
            CO_normed="962.539857" CO2_normed="105914.941497" HC_normed="6.920196" PMx_normed="1.957167" NOx_normed="40.887664" fuel_normed="45.527904" electricity_normed="0"
            traveltime="0.65" CO_perVeh="20.040531" CO2_perVeh="2205.198755" HC_perVeh="0.144082" PMx_perVeh="0.040749" NOx_perVeh="0.851300" fuel_perVeh="0.947912" electricity_perVeh="0"/>
        <edge id=":1105984395_0" sampledSeconds="5.05" CO_abs="20.452252" CO2_abs="1947.922230" HC_abs="0.137459" PMx_abs="0.024787" NOx_abs="0.728385" fuel_abs="0.837336" electricity_abs="0"
            CO_normed="2.846340" CO2_normed="271.092378" HC_normed="0.019130" PMx_normed="0.003450" NOx_normed="0.101369" fuel_normed="0.116532" electricity_normed="0"
            traveltime="0.09" CO_perVeh="0.368726" CO2_perVeh="35.118331" HC_perVeh="0.002478" PMx_perVeh="0.000447" NOx_perVeh="0.013132" fuel_perVeh="0.015096" electricity_perVeh="0"/>
        <edge id=":1105984398_0" sampledSeconds="13.48" CO_abs="838.870015" CO2_abs="59770.431242" HC_abs="5.230872" PMx_abs="1.074602" NOx_abs="24.594619" fuel_abs="25.692651" electricity_abs="0"
            CO_normed="8.883864" CO2_normed="632.985277" HC_normed="0.055396" PMx_normed="0.011380" NOx_normed="0.260464" fuel_normed="0.272092" electricity_normed="0"
            traveltime="1.08" CO_perVeh="66.916987" CO2_perVeh="4767.910489" HC_perVeh="0.417269" PMx_perVeh="0.085721" NOx_perVeh="1.961922" fuel_perVeh="2.049513" electricity_perVeh="0"/>
        <edge id=":1105984398_1" sampledSeconds="75850.14" CO_abs="12210439.676800" CO2_abs="198738490.683665" HC_abs="60265.580149" PMx_abs="4947.820687" NOx_abs="90850.331225" fuel_abs="85434.781450" electricity_abs="0"
            CO_normed="125170.614385" CO2_normed="2037291.009921" HC_normed="617.789358" PMx_normed="50.720676" NOx_normed="931.317142" fuel_normed="875.801721" electricity_normed="0"
            traveltime="36.16" CO_perVeh="5821.431395" CO2_perVeh="94750.272689" HC_perVeh="28.732130" PMx_perVeh="2.358916" NOx_perVeh="43.313671" fuel_perVeh="40.731762" electricity_perVeh="0"/>
        <edge id=":1106006327_0" sampledSeconds="136.43" CO_abs="18424.126457" CO2_abs="603484.754614" HC_abs="98.102337" PMx_abs="12.587116" NOx_abs="264.168544" fuel_abs="259.416644" electricity_abs="0"
            CO_normed="266.248214" CO2_normed="8720.996281" HC_normed="1.417683" PMx_normed="0.181897" NOx_normed="3.817516" fuel_normed="3.748846" electricity_normed="0"
            traveltime="2.07" CO_perVeh="278.929242" CO2_perVeh="9136.365063" HC_perVeh="1.485205" PMx_perVeh="0.190561" NOx_perVeh="3.999339" fuel_perVeh="3.927399" electricity_perVeh="0"/>
        <edge id=":1106006327_1" sampledSeconds="738.16" CO_abs="99773.888780" CO2_abs="3328400.706821" HC_abs="532.740786" PMx_abs="69.405818" NOx_abs="1456.515483" fuel_abs="1430.759637" electricity_abs="0"
            CO_normed="1257.351521" CO2_normed="41944.538221" HC_normed="6.713605" PMx_normed="0.874653" NOx_normed="18.355022" fuel_normed="18.030447" electricity_normed="0"
            traveltime="2.30" CO_perVeh="310.447988" CO2_perVeh="10356.369934" HC_perVeh="1.657631" PMx_perVeh="0.215957" NOx_perVeh="4.531970" fuel_perVeh="4.451831" electricity_perVeh="0"/>
        <edge id=":1106006327_2" sampledSeconds="0.00" CO_abs="0" CO2_abs="0" HC_abs="0" PMx_abs="0" NOx_abs="0" fuel_abs="0" electricity_abs="0"
            CO_normed="0" CO2_normed="0" HC_normed="0" PMx_normed="0" NOx_normed="0" fuel_normed="0" electricity_normed="0"/>
        <edge id=":1106006327_3" sampledSeconds="0.00" CO_abs="0" CO2_abs="0" HC_abs="0" PMx_abs="0" NOx_abs="0" fuel_abs="0" electricity_abs="0"
            CO_normed="0" CO2_normed="0" HC_normed="0" PMx_normed="0" NOx_normed="0" fuel_normed="0" electricity_normed="0"/>
        <edge id=":1107381198_0" sampledSeconds="0.00" CO_abs="0" CO2_abs="0" HC_abs="0" PMx_abs="0" NOx_abs="0" fuel_abs="0" electricity_abs="0"
            CO_normed="0" CO2_normed="0" HC_normed="0" PMx_normed="0" NOx_normed="0" fuel_normed="0" electricity_normed="0"/>
        <edge id=":1107381198_1" sampledSeconds="157.62" CO_abs="7512.911521" CO2_abs="296544.772261" HC_abs="41.052654" PMx_abs="5.217362" NOx_abs="123.520356" fuel_abs="127.474221" electricity_abs="0"
            CO_normed="104.899268" CO2_normed="4140.515898" HC_normed="0.573199" PMx_normed="0.072848" NOx_normed="1.724657" fuel_normed="1.779863" electricity_normed="0"
            traveltime="1.57" CO_perVeh="74.988461" CO2_perVeh="2959.895900" HC_perVeh="0.409758" PMx_perVeh="0.052076" NOx_perVeh="1.232891" fuel_perVeh="1.272356" electricity_perVeh="0"/>
        <edge id=":1110338277_0" sampledSeconds="298.92" CO_abs="5362.345675" CO2_abs="595343.537948" HC_abs="38.043181" PMx_abs="8.382691" NOx_abs="225.099418" fuel_abs="255.913181" electricity_abs="0"
            CO_normed="2452.055496" CO2_normed="272234.481505" HC_normed="17.396117" PMx_normed="3.833178" NOx_normed="102.931869" fuel_normed="117.022169" electricity_normed="0"
            traveltime="0.02" CO_perVeh="0.401294" CO2_perVeh="44.552863" HC_perVeh="0.002847" PMx_perVeh="0.000627" NOx_perVeh="0.016845" fuel_perVeh="0.019151" electricity_perVeh="0"/>
        <edge id=":1110338293_0" sampledSeconds="27811.87" CO_abs="4050487.320844" CO2_abs="65470426.286059" HC_abs="19980.039264" PMx_abs="1631.587954" NOx_abs="29968.277419" fuel_abs="28144.800832" electricity_abs="0"
            CO_normed="1728699.642569" CO2_normed="27941996.494388" HC_normed="8527.242279" PMx_normed="696.342264" NOx_normed="12790.103106" fuel_normed="12011.865063" electricity_normed="0"
            traveltime="1.83" CO_perVeh="266.025224" CO2_perVeh="4299.923299" HC_perVeh="1.312236" PMx_perVeh="0.107158" NOx_perVeh="1.968237" fuel_perVeh="1.848476" electricity_perVeh="0"/>
        <edge id=":1110338295_0" sampledSeconds="0.00" CO_abs="0" CO2_abs="0" HC_abs="0" PMx_abs="0" NOx_abs="0" fuel_abs="0" electricity_abs="0"
            CO_normed="0" CO2_normed="0" HC_normed="0" PMx_normed="0" NOx_normed="0" fuel_normed="0" electricity_normed="0"/>
        <edge id=":1110673403_0" sampledSeconds="25409.81" CO_abs="4090784.804274" CO2_abs="66237440.643105" HC_abs="20182.059425" PMx_abs="1651.256296" NOx_abs="30297.218325" fuel_abs="28474.525023" electricity_abs="0"
            CO_normed="1745898.127513" CO2_normed="28269349.067015" HC_normed="8613.462073" PMx_normed="704.736478" NOx_normed="12930.491158" fuel_normed="12152.587412" electricity_normed="0"
            traveltime="0.97" CO_perVeh="155.955001" CO2_perVeh="2525.202526" HC_perVeh="0.769411" PMx_perVeh="0.062952" NOx_perVeh="1.155036" fuel_perVeh="1.085548" electricity_perVeh="0"/>
        <edge id=":1110673412_0" sampledSeconds="1139.02" CO_abs="196621.870290" CO2_abs="13447922.056597" HC_abs="1224.211278" PMx_abs="294.748835" NOx_abs="5775.973084" fuel_abs="5780.599937" electricity_abs="0"
            CO_normed="86809.517992" CO2_normed="5937323.401568" HC_normed="540.495270" PMx_normed="130.133053" NOx_normed="2550.120384" fuel_normed="2552.163162" electricity_normed="0"
            traveltime="0.02" CO_perVeh="2.715135" CO2_perVeh="185.701257" HC_perVeh="0.016905" PMx_perVeh="0.004070" NOx_perVeh="0.079760" fuel_perVeh="0.079824" electricity_perVeh="0"/>
        <edge id=":1110673414_0" sampledSeconds="0.00" CO_abs="0" CO2_abs="0" HC_abs="0" PMx_abs="0" NOx_abs="0" fuel_abs="0" electricity_abs="0"
            CO_normed="0" CO2_normed="0" HC_normed="0" PMx_normed="0" NOx_normed="0" fuel_normed="0" electricity_normed="0"/>
        <edge id=":1110673414_1" sampledSeconds="316.33" CO_abs="22469.788871" CO2_abs="838499.726390" HC_abs="121.799289" PMx_abs="15.653024" NOx_abs="355.151097" fuel_abs="360.441357" electricity_abs="0"
            CO_normed="318.599259" CO2_normed="11889.092194" HC_normed="1.726993" PMx_normed="0.221944" NOx_normed="5.035689" fuel_normed="5.110700" electricity_normed="0"
            traveltime="1.61" CO_perVeh="114.142614" CO2_perVeh="4259.432572" HC_perVeh="0.618719" PMx_perVeh="0.079515" NOx_perVeh="1.804106" fuel_perVeh="1.830979" electricity_perVeh="0"/>
        <edge id=":1110673417_0" sampledSeconds="182.35" CO_abs="3746.106390" CO2_abs="330568.385750" HC_abs="24.713413" PMx_abs="4.945753" NOx_abs="128.233730" fuel_abs="142.097549" electricity_abs="0"
            CO_normed="1712.993030" CO2_normed="151159.972958" HC_normed="11.300775" PMx_normed="2.261559" NOx_normed="58.637813" fuel_normed="64.977362" electricity_normed="0"
            traveltime="0.02" CO_perVeh="0.509855" CO2_perVeh="44.991250" HC_perVeh="0.003364" PMx_perVeh="0.000673" NOx_perVeh="0.017453" fuel_perVeh="0.019340" electricity_perVeh="0"/>
        <edge id=":1110673446_0" sampledSeconds="1573.37" CO_abs="19376.197019" CO2_abs="1588206.687204" HC_abs="125.775639" PMx_abs="28.815526" NOx_abs="647.535154" fuel_abs="682.697304" electricity_abs="0"
            CO_normed="8269.529617" CO2_normed="677827.657519" HC_normed="53.679542" PMx_normed="12.298123" NOx_normed="276.360275" fuel_normed="291.367061" electricity_normed="0"
            traveltime="0.02" CO_perVeh="0.282710" CO2_perVeh="23.172881" HC_perVeh="0.001835" PMx_perVeh="0.000420" NOx_perVeh="0.009448" fuel_perVeh="0.009961" electricity_perVeh="0"/>
        <edge id=":1110673451_0" sampledSeconds="220.38" CO_abs="4837.074000" CO2_abs="311790.258399" HC_abs="29.203177" PMx_abs="4.778670" NOx_abs="123.590020" fuel_abs="134.026360" electricity_abs="0"
            CO_normed="2293.783832" CO2_normed="147853.734229" HC_normed="13.848408" PMx_normed="2.266088" NOx_normed="58.607495" fuel_normed="63.556501" electricity_normed="0"
            traveltime="0.03" CO_perVeh="0.636091" CO2_perVeh="41.001456" HC_perVeh="0.003840" PMx_perVeh="0.000628" NOx_perVeh="0.016252" fuel_perVeh="0.017625" electricity_perVeh="0"/>
        <edge id=":1110673464_0" sampledSeconds="1092.82" CO_abs="4026.311766" CO2_abs="295080.121558" HC_abs="25.050146" PMx_abs="4.144443" NOx_abs="113.672146" fuel_abs="126.843518" electricity_abs="0"
            CO_normed="36.509528" CO2_normed="2675.708368" HC_normed="0.227148" PMx_normed="0.037581" NOx_normed="1.030749" fuel_normed="1.150183" electricity_normed="0"
            traveltime="1.22" CO_perVeh="4.510180" CO2_perVeh="330.541820" HC_perVeh="0.028061" PMx_perVeh="0.004643" NOx_perVeh="0.127333" fuel_perVeh="0.142087" electricity_perVeh="0"/>
        <edge id=":1110673464_1" sampledSeconds="3534.74" CO_abs="100598.338649" CO2_abs="11212523.062687" HC_abs="725.445145" PMx_abs="205.021674" NOx_abs="4323.923041" fuel_abs="4819.742954" electricity_abs="0"
            CO_normed="893.841156" CO2_normed="99626.044669" HC_normed="6.445760" PMx_normed="1.821668" NOx_normed="38.419127" fuel_normed="42.824610" electricity_normed="0"
            traveltime="0.73" CO_perVeh="20.862919" CO2_perVeh="2325.346108" HC_perVeh="0.150449" PMx_perVeh="0.042519" NOx_perVeh="0.896731" fuel_perVeh="0.999558" electricity_perVeh="0"/>
        <edge id=":1110673479_0" sampledSeconds="346.77" CO_abs="15901.527291" CO2_abs="1119182.558358" HC_abs="98.655298" PMx_abs="19.300769" NOx_abs="455.535707" fuel_abs="481.088204" electricity_abs="0"
            CO_normed="6786.582050" CO2_normed="477653.757524" HC_normed="42.104903" PMx_normed="8.237338" NOx_normed="194.417203" fuel_normed="205.322703" electricity_normed="0"
            traveltime="0.03" CO_perVeh="1.294035" CO2_perVeh="91.076839" HC_perVeh="0.008028" PMx_perVeh="0.001571" NOx_perVeh="0.037071" fuel_perVeh="0.039150" electricity_perVeh="0"/>
        <edge id=":1110673511_0" sampledSeconds="105.79" CO_abs="1843.853602" CO2_abs="206969.957729" HC_abs="13.140378" PMx_abs="2.853676" NOx_abs="77.880358" fuel_abs="88.967768" electricity_abs="0"
            CO_normed="786.934709" CO2_normed="88332.307599" HC_normed="5.608157" PMx_normed="1.217915" NOx_normed="33.238407" fuel_normed="37.970382" electricity_normed="0"
            traveltime="0.02" CO_perVeh="0.419678" CO2_perVeh="47.108218" HC_perVeh="0.002991" PMx_perVeh="0.000650" NOx_perVeh="0.017726" fuel_perVeh="0.020250" electricity_perVeh="0"/>
        <edge id=":1110673517_0" sampledSeconds="21687.20" CO_abs="3529121.013933" CO2_abs="57217062.069806" HC_abs="17413.341036" PMx_abs="1428.253964" NOx_abs="26191.570296" fuel_abs="24596.786150" electricity_abs="0"
            CO_normed="1506186.725725" CO2_normed="24419559.157722" HC_normed="7431.806111" PMx_normed="609.561745" NOx_normed="11178.249584" fuel_normed="10497.614745" electricity_normed="0"
            traveltime="1.62" CO_perVeh="263.479185" CO2_perVeh="4271.744946" HC_perVeh="1.300055" PMx_perVeh="0.106631" NOx_perVeh="1.955426" fuel_perVeh="1.836361" electricity_perVeh="0"/>
        <edge id=":1110673534_0" sampledSeconds="2549.71" CO_abs="38092.712721" CO2_abs="2502687.558113" HC_abs="231.047635" PMx_abs="38.015966" NOx_abs="988.315081" fuel_abs="1075.806928" electricity_abs="0"
            CO_normed="315.068122" CO2_normed="20699.945313" HC_normed="1.911015" PMx_normed="0.314433" NOx_normed="8.174440" fuel_normed="8.898092" electricity_normed="0"
            traveltime="1.60" CO_perVeh="23.931495" CO2_perVeh="1572.296949" HC_perVeh="0.145154" PMx_perVeh="0.023883" NOx_perVeh="0.620902" fuel_perVeh="0.675869" electricity_perVeh="0"/>
        <edge id=":1110673534_1" sampledSeconds="99784.77" CO_abs="16356663.649109" CO2_abs="261424751.221798" HC_abs="80617.799348" PMx_abs="6559.414984" NOx_abs="119878.925358" fuel_abs="112382.861519" electricity_abs="0"
            CO_normed="131548.281688" CO2_normed="2102505.593547" HC_normed="648.367736" PMx_normed="52.754021" NOx_normed="964.124896" fuel_normed="903.837888" electricity_normed="0"
            traveltime="230.88" CO_perVeh="37845.553660" CO2_perVeh="604876.682844" HC_perVeh="186.531026" PMx_perVeh="15.176976" NOx_perVeh="277.372232" fuel_perVeh="260.028066" electricity_perVeh="0"/>
        <edge id=":1110673549_0" sampledSeconds="84890.57" CO_abs="13749870.536416" CO2_abs="219363957.530154" HC_abs="67760.481227" PMx_abs="5509.284499" NOx_abs="100631.776976" fuel_abs="94301.524413" electricity_abs="0"
            CO_normed="110167.971753" CO2_normed="1757607.987125" HC_normed="542.916732" PMx_normed="44.141994" NOx_normed="806.291138" fuel_normed="755.571309" electricity_normed="0"
            traveltime="79.21" CO_perVeh="12830.348686" CO2_perVeh="204694.004710" HC_perVeh="63.229003" PMx_perVeh="5.140851" NOx_perVeh="93.902032" fuel_perVeh="87.995115" electricity_perVeh="0"/>
        <edge id=":1110673549_1" sampledSeconds="2967.84" CO_abs="67423.607269" CO2_abs="8631986.366956" HC_abs="513.683432" PMx_abs="152.973670" NOx_abs="3241.293939" fuel_abs="3710.494882" electricity_abs="0"
            CO_normed="522.559155" CO2_normed="66901.248512" HC_normed="3.981246" PMx_normed="1.185605" NOx_normed="25.121288" fuel_normed="28.757777" electricity_normed="0"
            traveltime="0.81" CO_perVeh="18.332889" CO2_perVeh="2347.089613" HC_perVeh="0.139674" PMx_perVeh="0.041594" NOx_perVeh="0.881328" fuel_perVeh="1.008906" electricity_perVeh="0"/>
        <edge id=":1110673556_0" sampledSeconds="1391.41" CO_abs="171117.152461" CO2_abs="8617092.303476" HC_abs="984.047752" PMx_abs="173.697384" NOx_abs="3710.499819" fuel_abs="3704.114553" electricity_abs="0"
            CO_normed="1016.669488" CO2_normed="51197.292012" HC_normed="5.846587" PMx_normed="1.032000" NOx_normed="22.045434" fuel_normed="22.007497" electricity_normed="0"
            traveltime="2.59" CO_perVeh="317.940960" CO2_perVeh="16010.823926" HC_perVeh="1.828391" PMx_perVeh="0.322735" NOx_perVeh="6.894223" fuel_perVeh="6.882359" electricity_perVeh="0"/>
        <edge id=":1110673556_2" sampledSeconds="277.09" CO_abs="27837.809078" CO2_abs="1185184.083373" HC_abs="154.606709" PMx_abs="23.009444" NOx_abs="506.513006" fuel_abs="509.464109" electricity_abs="0"
            CO_normed="172.938059" CO2_normed="7362.771770" HC_normed="0.960470" PMx_normed="0.142943" NOx_normed="3.146633" fuel_normed="3.164967" electricity_normed="0"
            traveltime="3.08" CO_perVeh="309.913814" CO2_perVeh="13194.462187" HC_perVeh="1.721211" PMx_perVeh="0.256160" NOx_perVeh="5.638927" fuel_perVeh="5.671781" electricity_perVeh="0"/>
        <edge id=":1110673556_3" sampledSeconds="904.64" CO_abs="85299.633407" CO2_abs="2982810.050398" HC_abs="458.035535" PMx_abs="58.224046" NOx_abs="1280.469830" fuel_abs="1282.205117" electricity_abs="0"
            CO_normed="1205.459120" CO2_normed="42153.235999" HC_normed="6.472983" PMx_normed="0.822825" NOx_normed="18.095670" fuel_normed="18.120193" electricity_normed="0"
            traveltime="1.79" CO_perVeh="169.064993" CO2_perVeh="5911.968659" HC_perVeh="0.907832" PMx_perVeh="0.115401" NOx_perVeh="2.537908" fuel_perVeh="2.541347" electricity_perVeh="0"/>
        <edge id=":1110673556_4" sampledSeconds="479.12" CO_abs="50226.508834" CO2_abs="1969669.517024" HC_abs="274.926063" PMx_abs="38.652574" NOx_abs="845.665731" fuel_abs="846.686233" electricity_abs="0"
            CO_normed="433.636031" CO2_normed="17005.356174" HC_normed="2.373604" PMx_normed="0.333711" NOx_normed="7.301147" fuel_normed="7.309958" electricity_normed="0"
            traveltime="2.49" CO_perVeh="260.560513" CO2_perVeh="10218.072305" HC_perVeh="1.426236" PMx_perVeh="0.200518" NOx_perVeh="4.387068" fuel_perVeh="4.392362" electricity_perVeh="0"/>
        <edge id=":1110673556_5" sampledSeconds="123.20" CO_abs="9378.652173" CO2_abs="381679.813458" HC_abs="51.597470" PMx_abs="7.097838" NOx_abs="161.322357" fuel_abs="164.069976" electricity_abs="0"
            CO_normed="112.857993" CO2_normed="4592.943291" HC_normed="0.620898" PMx_normed="0.085412" NOx_normed="1.941272" fuel_normed="1.974336" electricity_normed="0"
            traveltime="1.70" CO_perVeh="129.680129" CO2_perVeh="5277.548038" HC_perVeh="0.713446" PMx_perVeh="0.098143" NOx_perVeh="2.230630" fuel_perVeh="2.268622" electricity_perVeh="0"/>
        <edge id=":1110673556_6" sampledSeconds="923.74" CO_abs="104843.854689" CO2_abs="5265054.987066" HC_abs="602.475333" PMx_abs="105.636587" NOx_abs="2263.967180" fuel_abs="2263.219973" electricity_abs="0"
            CO_normed="638.621871" CO2_normed="32070.351460" HC_normed="3.669780" PMx_normed="0.643451" NOx_normed="13.790212" fuel_normed="13.785660" electricity_normed="0"
            traveltime="2.55" CO_perVeh="289.092964" CO2_perVeh="14517.687832" HC_perVeh="1.661245" PMx_perVeh="0.291279" NOx_perVeh="6.242588" fuel_perVeh="6.240528" electricity_perVeh="0"/>
        <edge id=":1110673561_0" sampledSeconds="167.97" CO_abs="16550.437768" CO2_abs="1173981.687678" HC_abs="103.648270" PMx_abs="23.862117" NOx_abs="497.774103" fuel_abs="504.638702" electricity_abs="0"
            CO_normed="126.662211" CO2_normed="8984.603201" HC_normed="0.793231" PMx_normed="0.182619" NOx_normed="3.809517" fuel_normed="3.862052" electricity_normed="0"
            traveltime="1.20" CO_perVeh="118.023914" CO2_perVeh="8371.857905" HC_perVeh="0.739133" PMx_perVeh="0.170165" NOx_perVeh="3.549710" fuel_perVeh="3.598662" electricity_perVeh="0"/>
        <edge id=":1110673561_1" sampledSeconds="6224.59" CO_abs="576453.524173" CO2_abs="40096561.853187" HC_abs="3594.181542" PMx_abs="834.191368" NOx_abs="17118.733612" fuel_abs="17235.579293" electricity_abs="0"
            CO_normed="4301.109854" CO2_normed="299173.671553" HC_normed="26.817374" PMx_normed="6.224177" NOx_normed="127.728517" fuel_normed="128.600341" electricity_normed="0"
            traveltime="1.20" CO_perVeh="111.317883" CO2_perVeh="7742.973558" HC_perVeh="0.694066" PMx_perVeh="0.161089" NOx_perVeh="3.305767" fuel_perVeh="3.328331" electricity_perVeh="0"/>
        <edge id=":1110673562_0" sampledSeconds="279.70" CO_abs="6014.450708" CO2_abs="460412.844233" HC_abs="37.871036" PMx_abs="6.183934" NOx_abs="175.596396" fuel_abs="197.913860" electricity_abs="0"
            CO_normed="2852.106416" CO2_normed="218331.896116" HC_normed="17.958785" PMx_normed="2.932477" NOx_normed="83.269384" fuel_normed="93.852526" electricity_normed="0"
            traveltime="0.03" CO_perVeh="0.586026" CO2_perVeh="44.860943" HC_perVeh="0.003690" PMx_perVeh="0.000603" NOx_perVeh="0.017109" fuel_perVeh="0.019284" electricity_perVeh="0"/>
        <edge id=":1110673564_0" sampledSeconds="167.67" CO_abs="4158.139721" CO2_abs="386642.985302" HC_abs="27.903212" PMx_abs="5.838564" NOx_abs="150.022615" fuel_abs="166.201437" electricity_abs="0"
            CO_normed="5323.933207" CO2_normed="495043.833655" HC_normed="35.726274" PMx_normed="7.475489" NOx_normed="192.083584" fuel_normed="212.798368" electricity_normed="0"
            traveltime="8.452544e-03" CO_perVeh="0.209621" CO2_perVeh="19.491492" HC_perVeh="0.001407" PMx_perVeh="0.000294" NOx_perVeh="0.007563" fuel_perVeh="0.008379" electricity_perVeh="0"/>
        <edge id=":1110673588_0" sampledSeconds="104.65" CO_abs="2024.588311" CO2_abs="221010.913367" HC_abs="14.282121" PMx_abs="3.147454" NOx_abs="83.831681" fuel_abs="95.003279" electricity_abs="0"
            CO_normed="1036.884151" CO2_normed="113189.783849" HC_normed="7.314527" PMx_normed="1.611955" NOx_normed="42.934033" fuel_normed="48.655519" electricity_normed="0"
            traveltime="0.02" CO_perVeh="0.387853" CO2_perVeh="42.339298" HC_perVeh="0.002736" PMx_perVeh="0.000603" NOx_perVeh="0.016060" fuel_perVeh="0.018200" electricity_perVeh="0"/>
        <edge id=":1110673601_0" sampledSeconds="174.56" CO_abs="3876.497540" CO2_abs="355035.169669" HC_abs="25.879661" PMx_abs="5.343216" NOx_abs="137.758338" fuel_abs="152.614641" electricity_abs="0"
            CO_normed="1772.617372" CO2_normed="162347.970827" HC_normed="11.834068" PMx_normed="2.443308" NOx_normed="62.993158" fuel_normed="69.786543" electricity_normed="0"
            traveltime="0.02" CO_perVeh="0.527602" CO2_perVeh="48.321245" HC_perVeh="0.003522" PMx_perVeh="0.000727" NOx_perVeh="0.018749" fuel_perVeh="0.020771" electricity_perVeh="0"/>
        <edge id=":1110673617_0" sampledSeconds="1124.66" CO_abs="48078.944521" CO2_abs="4579066.134540" HC_abs="328.761813" PMx_abs="87.361166" NOx_abs="1817.891018" fuel_abs="1968.325448" electricity_abs="0"
            CO_normed="20519.519659" CO2_normed="1954290.771223" HC_normed="140.311618" PMx_normed="37.284703" NOx_normed="775.854188" fuel_normed="840.057807" electricity_normed="0"
            traveltime="0.02" CO_perVeh="0.666661" CO2_perVeh="63.493184" HC_perVeh="0.004559" PMx_perVeh="0.001211" NOx_perVeh="0.025207" fuel_perVeh="0.027293" electricity_perVeh="0"/>
        <edge id=":1110673621_0" sampledSeconds="43.38" CO_abs="1069.798612" CO2_abs="101172.248336" HC_abs="7.240544" PMx_abs="1.616252" NOx_abs="39.699574" fuel_abs="43.489526" electricity_abs="0"
            CO_normed="547.892734" CO2_normed="51814.929617" HC_normed="3.708213" PMx_normed="0.827757" NOx_normed="20.331965" fuel_normed="22.272973" electricity_normed="0"
            traveltime="0.02" CO_perVeh="0.486272" CO2_perVeh="45.987386" HC_perVeh="0.003291" PMx_perVeh="0.000735" NOx_perVeh="0.018045" fuel_perVeh="0.019768" electricity_perVeh="0"/>
        <edge id=":1110673630_0" sampledSeconds="65174.67" CO_abs="10711393.042751" CO2_abs="170661644.027929" HC_abs="52781.451121" PMx_abs="4288.951915" NOx_abs="78309.731542" fuel_abs="73365.082677" electricity_abs="0"
            CO_normed="97820.856659" CO2_normed="1558552.482478" HC_normed="482.021969" PMx_normed="39.168477" NOx_normed="715.156749" fuel_normed="670.000177" electricity_normed="0"
            traveltime="546.00" CO_perVeh="89734.304633" CO2_perVeh="1429711.699805" HC_perVeh="442.174682" PMx_perVeh="35.930538" NOx_perVeh="656.036920" fuel_perVeh="614.613305" electricity_perVeh="0"/>
        <edge id=":1110673630_1" sampledSeconds="1113.42" CO_abs="8593.074791" CO2_abs="600866.337068" HC_abs="52.910344" PMx_abs="8.772021" NOx_abs="234.583344" fuel_abs="258.288913" electricity_abs="0"
            CO_normed="95.671872" CO2_normed="6689.806456" HC_normed="0.589083" PMx_normed="0.097664" NOx_normed="2.611758" fuel_normed="2.875686" electricity_normed="0"
            traveltime="1.13" CO_perVeh="8.699933" CO2_perVeh="608.338319" HC_perVeh="0.053568" PMx_perVeh="0.008881" NOx_perVeh="0.237500" fuel_perVeh="0.261501" electricity_perVeh="0"/>
        <edge id=":1110673650_0" sampledSeconds="646.89" CO_abs="11218.547422" CO2_abs="1177329.086560" HC_abs="78.104390" PMx_abs="16.881171" NOx_abs="447.814877" fuel_abs="506.084319" electricity_abs="0"
            CO_normed="4787.942137" CO2_normed="502470.001733" HC_normed="33.334021" PMx_normed="7.204682" NOx_normed="191.122045" fuel_normed="215.990747" electricity_normed="0"
            traveltime="0.02" CO_perVeh="0.426033" CO2_perVeh="44.709989" HC_perVeh="0.002966" PMx_perVeh="0.000641" NOx_perVeh="0.017006" fuel_perVeh="0.019219" electricity_perVeh="0"/>
        <edge id=":1110673655_0" sampledSeconds="73.54" CO_abs="1449.806366" CO2_abs="159493.246353" HC_abs="10.221672" PMx_abs="2.250476" NOx_abs="60.296863" fuel_abs="68.559449" electricity_abs="0"
            CO_normed="618.760052" CO2_normed="68069.813857" HC_normed="4.362488" PMx_normed="0.960477" NOx_normed="25.733982" fuel_normed="29.260355" electricity_normed="0"
            traveltime="0.02" CO_perVeh="0.465552" CO2_perVeh="51.215386" HC_perVeh="0.003282" PMx_perVeh="0.000723" NOx_perVeh="0.019362" fuel_perVeh="0.022015" electricity_perVeh="0"/>
        <edge id=":1110673663_0" sampledSeconds="183.96" CO_abs="2992.676575" CO2_abs="339359.516424" HC_abs="21.461151" PMx_abs="4.725074" NOx_abs="127.956235" fuel_abs="145.876444" electricity_abs="0"
            CO_normed="23.392649" CO2_normed="2652.648188" HC_normed="0.167754" PMx_normed="0.036934" NOx_normed="1.000187" fuel_normed="1.140262" electricity_normed="0"
            traveltime="1.30" CO_perVeh="21.090239" CO2_perVeh="2391.562569" HC_perVeh="0.151243" PMx_perVeh="0.033299" NOx_perVeh="0.901744" fuel_perVeh="1.028033" electricity_perVeh="0"/>
        <edge id=":1110673663_1" sampledSeconds="78.53" CO_abs="1130.462851" CO2_abs="150087.879792" HC_abs="8.572007" PMx_abs="2.006227" NOx_abs="55.614034" fuel_abs="64.516495" electricity_abs="0"
            CO_normed="8.847214" CO2_normed="1174.615813" HC_normed="0.067086" PMx_normed="0.015701" NOx_normed="0.435246" fuel_normed="0.504918" electricity_normed="0"
            traveltime="1.25" CO_perVeh="17.951307" CO2_perVeh="2383.336748" HC_perVeh="0.136120" PMx_perVeh="0.031858" NOx_perVeh="0.883129" fuel_perVeh="1.024497" electricity_perVeh="0"/>