<?xml version="1.0" encoding="UTF-8"?>

<!-- generated on Mon Nov  9 21:36:58 2020 by Eclipse SUMO sumo Version 1.7.0
<configuration xmlns:xsi="http://www.w3.org/2001/XMLSchema-instance" xsi:noNamespaceSchemaLocation="http://sumo.dlr.de/xsd/sumoConfiguration.xsd">

    <input>
        <net-file value="../dataSets/Porto/6AM7AM_Routing_SaoBento/Porto.net.xml"/>
        <route-files value="../results/Porto/6AM7AM_Routing_SaoBento/cost_co-ttime/solution8/Porto.rou.xml"/>
        <additional-files value="moreOutputInfo.xml"/>
    </input>

    <output>
        <emission-output.precision value="6"/>
        <tripinfo-output value="../results/Porto/6AM7AM_Routing_SaoBento/cost_co-ttime/solution8/Porto-tripinfo"/>
    </output>

    <processing>
        <collision.action value="warn"/>
        <time-to-teleport value="-1"/>
    </processing>

    <emissions>
        <device.emissions.probability value="1"/>
    </emissions>

    <gui_only>
        <quit-on-end value="true"/>
        <start value="true"/>
    </gui_only>

</configuration>
-->

<meandata xmlns:xsi="http://www.w3.org/2001/XMLSchema-instance" xsi:noNamespaceSchemaLocation="http://sumo.dlr.de/xsd/meandata_file.xsd">
    <interval begin="0.00" end="4698.00" id="emissions-detector">
        <edge id=":1092997347_0" sampledSeconds="286.47" CO_abs="36688.150118" CO2_abs="1446523.026240" HC_abs="201.243810" PMx_abs="29.572040" NOx_abs="628.330175" fuel_abs="621.803454" electricity_abs="0"
            CO_normed="63894.374988" CO2_normed="2519197.189551" HC_normed="350.476855" PMx_normed="51.501289" NOx_normed="1094.270595" fuel_normed="1082.903960" electricity_normed="0"
            traveltime="0.08" CO_perVeh="9.690832" CO2_perVeh="382.085530" HC_perVeh="0.053157" PMx_perVeh="0.007811" NOx_perVeh="0.165968" fuel_perVeh="0.164244" electricity_perVeh="0"/>
        <edge id=":1103427051_0" sampledSeconds="11.23" CO_abs="877.884928" CO2_abs="49189.588424" HC_abs="5.163575" PMx_abs="0.957065" NOx_abs="20.938458" fuel_abs="21.144442" electricity_abs="0"
            CO_normed="2319.685369" CO2_normed="129976.452435" HC_normed="13.644009" PMx_normed="2.528908" NOx_normed="55.326880" fuel_normed="55.871165" electricity_normed="0"
            traveltime="0.03" CO_perVeh="2.405391" CO2_perVeh="134.778729" HC_perVeh="0.014148" PMx_perVeh="0.002622" NOx_perVeh="0.057371" fuel_perVeh="0.057935" electricity_perVeh="0"/>
        <edge id=":1105984386_0" sampledSeconds="22.85" CO_abs="457.476210" CO2_abs="39778.437871" HC_abs="2.983499" PMx_abs="0.491300" NOx_abs="14.829778" fuel_abs="17.099247" electricity_abs="0"
            CO_normed="36.102624" CO2_normed="3139.192748" HC_normed="0.235449" PMx_normed="0.038772" NOx_normed="1.170321" fuel_normed="1.349420" electricity_normed="0"
            traveltime="0.96" CO_perVeh="19.199922" CO2_perVeh="1669.470227" HC_perVeh="0.125215" PMx_perVeh="0.020619" NOx_perVeh="0.622394" fuel_perVeh="0.717642" electricity_perVeh="0"/>
        <edge id=":1105984390_0" sampledSeconds="22.56" CO_abs="19.278833" CO2_abs="1555.922276" HC_abs="0.122661" PMx_abs="0.017840" NOx_abs="0.573479" fuel_abs="0.668835" electricity_abs="0"
            CO_normed="1.176198" CO2_normed="94.926561" HC_normed="0.007484" PMx_normed="0.001088" NOx_normed="0.034988" fuel_normed="0.040806" electricity_normed="0"
            traveltime="1.02" CO_perVeh="0.874286" CO2_perVeh="70.560311" HC_perVeh="0.005563" PMx_perVeh="0.000809" NOx_perVeh="0.026007" fuel_perVeh="0.030331" electricity_perVeh="0"/>
        <edge id=":1105984390_1" sampledSeconds="645.24" CO_abs="14737.183988" CO2_abs="1863731.293768" HC_abs="111.894582" PMx_abs="33.218870" NOx_abs="700.931222" fuel_abs="801.132472" electricity_abs="0"
            CO_normed="860.080830" CO2_normed="108769.732312" HC_normed="6.530310" PMx_normed="1.938696" NOx_normed="40.907239" fuel_normed="46.755112" electricity_normed="0"
            traveltime="0.64" CO_perVeh="14.520279" CO2_perVeh="1836.300523" HC_perVeh="0.110248" PMx_perVeh="0.032730" NOx_perVeh="0.690615" fuel_perVeh="0.789341" electricity_perVeh="0"/>
        <edge id=":1105984395_0" sampledSeconds="9.03" CO_abs="266.616844" CO2_abs="20602.035478" HC_abs="1.682789" PMx_abs="0.274459" NOx_abs="7.844821" fuel_abs="8.856028" electricity_abs="0"
            CO_normed="222.069668" CO2_normed="17159.783007" HC_normed="1.401623" PMx_normed="0.228602" NOx_normed="6.534084" fuel_normed="7.376335" electricity_normed="0"
            traveltime="0.09" CO_perVeh="2.703786" CO2_perVeh="208.927168" HC_perVeh="0.017065" PMx_perVeh="0.002783" NOx_perVeh="0.079555" fuel_perVeh="0.089810" electricity_perVeh="0"/>
        <edge id=":1105984398_0" sampledSeconds="22.86" CO_abs="1540.658084" CO2_abs="106304.741687" HC_abs="9.528576" PMx_abs="1.942654" NOx_abs="44.015669" fuel_abs="45.695668" electricity_abs="0"
            CO_normed="97.649372" CO2_normed="6737.764448" HC_normed="0.603936" PMx_normed="0.123129" NOx_normed="2.789783" fuel_normed="2.896264" electricity_normed="0"
            traveltime="1.10" CO_perVeh="73.973471" CO2_perVeh="5104.137509" HC_perVeh="0.457507" PMx_perVeh="0.093275" NOx_perVeh="2.113377" fuel_perVeh="2.194041" electricity_perVeh="0"/>
        <edge id=":1105984398_1" sampledSeconds="451.57" CO_abs="8540.946442" CO2_abs="966554.105405" HC_abs="61.101426" PMx_abs="14.129042" NOx_abs="367.735436" fuel_abs="415.480182" electricity_abs="0"
            CO_normed="524.002125" CO2_normed="59299.798791" HC_normed="3.748680" PMx_normed="0.866842" NOx_normed="22.561217" fuel_normed="25.490442" electricity_normed="0"
            traveltime="0.96" CO_perVeh="18.076080" CO2_perVeh="2045.617451" HC_perVeh="0.129315" PMx_perVeh="0.029903" NOx_perVeh="0.778276" fuel_perVeh="0.879323" electricity_perVeh="0"/>
        <edge id=":1106006327_0" sampledSeconds="307.48" CO_abs="41174.002721" CO2_abs="1325622.247678" HC_abs="218.660068" PMx_abs="27.576371" NOx_abs="579.797409" fuel_abs="569.838597" electricity_abs="0"
            CO_normed="3561.056427" CO2_normed="114650.393752" HC_normed="18.911468" PMx_normed="2.385025" NOx_normed="50.145508" fuel_normed="49.284191" electricity_normed="0"
            traveltime="2.11" CO_perVeh="282.146768" CO2_perVeh="9083.888097" HC_perVeh="1.498378" PMx_perVeh="0.188968" NOx_perVeh="3.973089" fuel_perVeh="3.904845" electricity_perVeh="0"/>
        <edge id=":1106006327_1" sampledSeconds="162.56" CO_abs="21953.538324" CO2_abs="729678.966341" HC_abs="117.154507" PMx_abs="15.213119" NOx_abs="319.287519" fuel_abs="313.662791" electricity_abs="0"
            CO_normed="1655.771135" CO2_normed="55033.560076" HC_normed="8.835981" PMx_normed="1.147398" NOx_normed="24.081178" fuel_normed="23.656952" electricity_normed="0"
            traveltime="2.31" CO_perVeh="311.658771" CO2_perVeh="10358.733370" HC_perVeh="1.663159" PMx_perVeh="0.215970" NOx_perVeh="4.532698" fuel_perVeh="4.452848" electricity_perVeh="0"/>
        <edge id=":1106006327_2" sampledSeconds="0.00" CO_abs="0" CO2_abs="0" HC_abs="0" PMx_abs="0" NOx_abs="0" fuel_abs="0" electricity_abs="0"
            CO_normed="0" CO2_normed="0" HC_normed="0" PMx_normed="0" NOx_normed="0" fuel_normed="0" electricity_normed="0"/>
        <edge id=":1106006327_3" sampledSeconds="0.00" CO_abs="0" CO2_abs="0" HC_abs="0" PMx_abs="0" NOx_abs="0" fuel_abs="0" electricity_abs="0"
            CO_normed="0" CO2_normed="0" HC_normed="0" PMx_normed="0" NOx_normed="0" fuel_normed="0" electricity_normed="0"/>
        <edge id=":1107381198_0" sampledSeconds="0.00" CO_abs="0" CO2_abs="0" HC_abs="0" PMx_abs="0" NOx_abs="0" fuel_abs="0" electricity_abs="0"
            CO_normed="0" CO2_normed="0" HC_normed="0" PMx_normed="0" NOx_normed="0" fuel_normed="0" electricity_normed="0"/>
        <edge id=":1107381198_1" sampledSeconds="36.04" CO_abs="1368.292124" CO2_abs="58184.375318" HC_abs="7.578565" PMx_abs="1.033493" NOx_abs="24.276175" fuel_abs="25.011324" electricity_abs="0"
            CO_normed="114.340208" CO2_normed="4862.129576" HC_normed="0.633297" PMx_normed="0.086363" NOx_normed="2.028619" fuel_normed="2.090051" electricity_normed="0"
            traveltime="1.48" CO_perVeh="56.336381" CO2_perVeh="2395.612076" HC_perVeh="0.312031" PMx_perVeh="0.042552" NOx_perVeh="0.999517" fuel_perVeh="1.029786" electricity_perVeh="0"/>
        <edge id=":1110338277_0" sampledSeconds="96.88" CO_abs="1447.225337" CO2_abs="181069.667248" HC_abs="10.743622" PMx_abs="2.457477" NOx_abs="67.546147" fuel_abs="77.834265" electricity_abs="0"
            CO_normed="3960.660472" CO2_normed="495538.224543" HC_normed="29.402359" PMx_normed="6.725444" NOx_normed="184.855356" fuel_normed="213.011124" electricity_normed="0"
            traveltime="0.02" CO_perVeh="0.326162" CO2_perVeh="40.807747" HC_perVeh="0.002421" PMx_perVeh="0.000554" NOx_perVeh="0.015223" fuel_perVeh="0.017542" electricity_perVeh="0"/>
        <edge id=":1110338293_0" sampledSeconds="123.74" CO_abs="6347.763921" CO2_abs="434529.650417" HC_abs="39.122559" PMx_abs="7.670556" NOx_abs="178.250681" fuel_abs="186.785367" electricity_abs="0"
            CO_normed="16213.956375" CO2_normed="1109909.707323" HC_normed="99.929908" PMx_normed="19.592734" NOx_normed="455.301867" fuel_normed="477.101832" electricity_normed="0"
            traveltime="0.03" CO_perVeh="1.455965" CO2_perVeh="99.666574" HC_perVeh="0.008973" PMx_perVeh="0.001759" NOx_perVeh="0.040885" fuel_perVeh="0.042842" electricity_perVeh="0"/>
        <edge id=":1110338295_0" sampledSeconds="0.00" CO_abs="0" CO2_abs="0" HC_abs="0" PMx_abs="0" NOx_abs="0" fuel_abs="0" electricity_abs="0"
            CO_normed="0" CO2_normed="0" HC_normed="0" PMx_normed="0" NOx_normed="0" fuel_normed="0" electricity_normed="0"/>
        <edge id=":1110673403_0" sampledSeconds="143.72" CO_abs="2121.328538" CO2_abs="268973.787525" HC_abs="15.756351" PMx_abs="3.645957" NOx_abs="100.130135" fuel_abs="115.620550" electricity_abs="0"
            CO_normed="5418.463698" CO2_normed="687033.940038" HC_normed="40.246107" PMx_normed="9.312788" NOx_normed="255.760242" fuel_normed="295.327076" electricity_normed="0"
            traveltime="0.02" CO_perVeh="0.340595" CO2_perVeh="43.185733" HC_perVeh="0.002530" PMx_perVeh="0.000585" NOx_perVeh="0.016077" fuel_perVeh="0.018564" electricity_perVeh="0"/>
        <edge id=":1110673412_0" sampledSeconds="253.03" CO_abs="45368.175277" CO2_abs="3088623.503768" HC_abs="282.158032" PMx_abs="67.939058" NOx_abs="1328.138717" fuel_abs="1327.647066" electricity_abs="0"
            CO_normed="119878.914724" CO2_normed="8161245.881274" HC_normed="745.562247" PMx_normed="179.519245" NOx_normed="3509.416613" fuel_normed="3508.117494" electricity_normed="0"
            traveltime="0.02" CO_perVeh="2.788082" CO2_perVeh="189.810061" HC_perVeh="0.017340" PMx_perVeh="0.004175" NOx_perVeh="0.081620" fuel_perVeh="0.081590" electricity_perVeh="0"/>
        <edge id=":1110673414_0" sampledSeconds="0.00" CO_abs="0" CO2_abs="0" HC_abs="0" PMx_abs="0" NOx_abs="0" fuel_abs="0" electricity_abs="0"
            CO_normed="0" CO2_normed="0" HC_normed="0" PMx_normed="0" NOx_normed="0" fuel_normed="0" electricity_normed="0"/>
        <edge id=":1110673414_1" sampledSeconds="14.53" CO_abs="984.135678" CO2_abs="35722.802543" HC_abs="5.307175" PMx_abs="0.650069" NOx_abs="15.026512" fuel_abs="15.356017" electricity_abs="0"
            CO_normed="83.513506" CO2_normed="3031.428024" HC_normed="0.450365" PMx_normed="0.055165" NOx_normed="1.275146" fuel_normed="1.303108" electricity_normed="0"
            traveltime="1.59" CO_perVeh="107.483614" CO2_perVeh="3901.510728" HC_perVeh="0.579630" PMx_perVeh="0.070998" NOx_perVeh="1.641139" fuel_perVeh="1.677127" electricity_perVeh="0"/>
        <edge id=":1110673417_0" sampledSeconds="29.59" CO_abs="430.815132" CO2_abs="51907.662430" HC_abs="3.149116" PMx_abs="0.722595" NOx_abs="19.484821" fuel_abs="22.312914" electricity_abs="0"
            CO_normed="1179.023350" CO2_normed="142057.094772" HC_normed="8.618271" PMx_normed="1.977545" NOx_normed="53.324633" fuel_normed="61.064351" electricity_normed="0"
            traveltime="0.02" CO_perVeh="0.319757" CO2_perVeh="38.526562" HC_perVeh="0.002337" PMx_perVeh="0.000536" NOx_perVeh="0.014462" fuel_perVeh="0.016561" electricity_perVeh="0"/>
        <edge id=":1110673446_0" sampledSeconds="333.68" CO_abs="3479.441472" CO2_abs="278412.680228" HC_abs="22.456070" PMx_abs="5.159677" NOx_abs="114.316313" fuel_abs="119.676755" electricity_abs="0"
            CO_normed="8887.462252" CO2_normed="711143.499944" HC_normed="57.359056" PMx_normed="13.179251" NOx_normed="291.995692" fuel_normed="305.687753" electricity_normed="0"
            traveltime="0.02" CO_perVeh="0.237571" CO2_perVeh="19.009585" HC_perVeh="0.001533" PMx_perVeh="0.000352" NOx_perVeh="0.007805" fuel_perVeh="0.008171" electricity_perVeh="0"/>
        <edge id=":1110673451_0" sampledSeconds="37.16" CO_abs="339.406751" CO2_abs="25473.786961" HC_abs="2.126093" PMx_abs="0.346679" NOx_abs="9.753995" fuel_abs="10.950204" electricity_abs="0"
            CO_normed="963.265933" CO2_normed="72296.826908" HC_normed="6.034038" PMx_normed="0.983904" NOx_normed="27.682689" fuel_normed="31.077633" electricity_normed="0"
            traveltime="0.03" CO_perVeh="0.243399" CO2_perVeh="18.268054" HC_perVeh="0.001525" PMx_perVeh="0.000249" NOx_perVeh="0.006995" fuel_perVeh="0.007853" electricity_perVeh="0"/>
        <edge id=":1110673464_0" sampledSeconds="320.06" CO_abs="490.970280" CO2_abs="39760.031058" HC_abs="3.140422" PMx_abs="0.521787" NOx_abs="15.025983" fuel_abs="17.091316" electricity_abs="0"
            CO_normed="26.644649" CO2_normed="2157.751894" HC_normed="0.170429" PMx_normed="0.028317" NOx_normed="0.815451" fuel_normed="0.927535" electricity_normed="0"
            traveltime="1.16" CO_perVeh="1.774793" CO2_perVeh="143.727267" HC_perVeh="0.011352" PMx_perVeh="0.001886" NOx_perVeh="0.054317" fuel_perVeh="0.061783" electricity_perVeh="0"/>
        <edge id=":1110673464_1" sampledSeconds="710.28" CO_abs="15353.347030" CO2_abs="1994647.165149" HC_abs="117.648891" PMx_abs="35.278457" NOx_abs="746.697528" fuel_abs="857.407394" electricity_abs="0"
            CO_normed="816.448083" CO2_normed="106069.761322" HC_normed="6.256239" PMx_normed="1.876010" NOx_normed="39.707288" fuel_normed="45.594529" electricity_normed="0"
            traveltime="0.70" CO_perVeh="15.151473" CO2_perVeh="1968.420488" HC_perVeh="0.116102" PMx_perVeh="0.034815" NOx_perVeh="0.736880" fuel_perVeh="0.846134" electricity_perVeh="0"/>
        <edge id=":1110673479_0" sampledSeconds="133.40" CO_abs="6941.466700" CO2_abs="474777.938900" HC_abs="42.782235" PMx_abs="8.431549" NOx_abs="195.071754" fuel_abs="204.086282" electricity_abs="0"
            CO_normed="17730.438569" CO2_normed="1212715.041890" HC_normed="109.277740" PMx_normed="21.536523" NOx_normed="498.267571" fuel_normed="521.293186" electricity_normed="0"
            traveltime="0.03" CO_perVeh="1.462292" CO2_perVeh="100.016886" HC_perVeh="0.009013" PMx_perVeh="0.001776" NOx_perVeh="0.041094" fuel_perVeh="0.042993" electricity_perVeh="0"/>
        <edge id=":1110673511_0" sampledSeconds="11.85" CO_abs="154.878396" CO2_abs="19832.928010" HC_abs="1.159129" PMx_abs="0.248231" NOx_abs="7.275918" fuel_abs="8.525373" electricity_abs="0"
            CO_normed="395.602545" CO2_normed="50658.819950" HC_normed="2.960739" PMx_normed="0.634050" NOx_normed="18.584721" fuel_normed="21.776176" electricity_normed="0"
            traveltime="0.02" CO_perVeh="0.306690" CO2_perVeh="39.273125" HC_perVeh="0.002295" PMx_perVeh="0.000492" NOx_perVeh="0.014408" fuel_perVeh="0.016882" electricity_perVeh="0"/>
        <edge id=":1110673517_0" sampledSeconds="16.95" CO_abs="766.222092" CO2_abs="56466.594047" HC_abs="4.813799" PMx_abs="0.964562" NOx_abs="22.861983" fuel_abs="24.272538" electricity_abs="0"
            CO_normed="1957.144553" CO2_normed="144231.402418" HC_normed="12.295783" PMx_normed="2.463759" NOx_normed="58.395871" fuel_normed="61.998819" electricity_normed="0"
            traveltime="0.03" CO_perVeh="1.230220" CO2_perVeh="90.660841" HC_perVeh="0.007729" PMx_perVeh="0.001549" NOx_perVeh="0.036706" fuel_perVeh="0.038971" electricity_perVeh="0"/>
        <edge id=":1110673534_0" sampledSeconds="474.90" CO_abs="2931.392126" CO2_abs="254952.660505" HC_abs="19.185835" PMx_abs="3.484727" NOx_abs="97.079812" fuel_abs="109.594014" electricity_abs="0"
            CO_normed="145.108365" CO2_normed="12620.544146" HC_normed="0.949728" PMx_normed="0.172499" NOx_normed="4.805598" fuel_normed="5.425070" electricity_normed="0"
            traveltime="1.43" CO_perVeh="8.831110" CO2_perVeh="768.070182" HC_perVeh="0.057799" PMx_perVeh="0.010498" NOx_perVeh="0.292463" fuel_perVeh="0.330163" electricity_perVeh="0"/>
        <edge id=":1110673534_1" sampledSeconds="184.73" CO_abs="2814.337733" CO2_abs="360781.652305" HC_abs="21.091098" PMx_abs="4.852587" NOx_abs="134.045233" fuel_abs="155.084953" electricity_abs="0"
            CO_normed="135.463608" CO2_normed="17365.642980" HC_normed="1.015186" PMx_normed="0.233571" NOx_normed="6.452051" fuel_normed="7.464764" electricity_normed="0"
            traveltime="1.23" CO_perVeh="18.686192" CO2_perVeh="2395.460648" HC_perVeh="0.140037" PMx_perVeh="0.032219" NOx_perVeh="0.890012" fuel_perVeh="1.029708" electricity_perVeh="0"/>
        <edge id=":1110673549_0" sampledSeconds="60.81" CO_abs="78.053466" CO2_abs="8168.495999" HC_abs="0.542524" PMx_abs="0.105681" NOx_abs="3.023037" fuel_abs="3.511312" electricity_abs="0"
            CO_normed="3.742871" CO2_normed="391.701121" HC_normed="0.026015" PMx_normed="0.005068" NOx_normed="0.144963" fuel_normed="0.168377" electricity_normed="0"
            traveltime="1.27" CO_perVeh="1.626177" CO2_perVeh="170.183656" HC_perVeh="0.011303" PMx_perVeh="0.002202" NOx_perVeh="0.062982" fuel_perVeh="0.073155" electricity_perVeh="0"/>
        <edge id=":1110673549_1" sampledSeconds="638.10" CO_abs="14608.778711" CO2_abs="1891154.720588" HC_abs="111.788671" PMx_abs="33.465429" NOx_abs="708.074609" fuel_abs="812.920754" electricity_abs="0"
            CO_normed="677.631141" CO2_normed="87721.592338" HC_normed="5.185340" PMx_normed="1.552301" NOx_normed="32.844183" fuel_normed="37.707493" electricity_normed="0"
            traveltime="0.80" CO_perVeh="18.389577" CO2_perVeh="2380.591501" HC_perVeh="0.140720" PMx_perVeh="0.042126" NOx_perVeh="0.891327" fuel_perVeh="1.023307" electricity_perVeh="0"/>
        <edge id=":1110673556_0" sampledSeconds="418.76" CO_abs="51622.392194" CO2_abs="2586667.361555" HC_abs="296.570622" PMx_abs="52.255083" NOx_abs="1114.726198" fuel_abs="1111.896230" electricity_abs="0"
            CO_normed="1835.609682" CO2_normed="91977.753298" HC_normed="10.545577" PMx_normed="1.858107" NOx_normed="39.637880" fuel_normed="39.537251" electricity_normed="0"
            traveltime="2.60" CO_perVeh="320.446639" CO2_perVeh="16056.769686" HC_perVeh="1.840966" PMx_perVeh="0.324374" NOx_perVeh="6.919677" fuel_perVeh="6.902110" electricity_perVeh="0"/>
        <edge id=":1110673556_2" sampledSeconds="244.24" CO_abs="23199.945763" CO2_abs="1016642.610957" HC_abs="129.528040" PMx_abs="19.615502" NOx_abs="433.521013" fuel_abs="437.014370" electricity_abs="0"
            CO_normed="862.578176" CO2_normed="37798.956016" HC_normed="4.815876" PMx_normed="0.729308" NOx_normed="16.118390" fuel_normed="16.248273" electricity_normed="0"
            traveltime="2.96" CO_perVeh="281.410896" CO2_perVeh="12331.680053" HC_perVeh="1.571150" PMx_perVeh="0.237932" NOx_perVeh="5.258527" fuel_perVeh="5.300901" electricity_perVeh="0"/>
        <edge id=":1110673556_3" sampledSeconds="417.48" CO_abs="35928.978187" CO2_abs="1282598.464888" HC_abs="193.461209" PMx_abs="24.507229" NOx_abs="547.194758" fuel_abs="551.344129" electricity_abs="0"
            CO_normed="3038.828262" CO2_normed="108480.581977" HC_normed="16.362708" PMx_normed="2.072791" NOx_normed="46.281052" fuel_normed="46.632000" electricity_normed="0"
            traveltime="1.73" CO_perVeh="149.184017" CO2_perVeh="5325.595144" HC_perVeh="0.803288" PMx_perVeh="0.101759" NOx_perVeh="2.272058" fuel_perVeh="2.289287" electricity_perVeh="0"/>
        <edge id=":1110673556_4" sampledSeconds="190.06" CO_abs="18890.736940" CO2_abs="764282.849660" HC_abs="103.944979" PMx_abs="14.853874" NOx_abs="327.133479" fuel_abs="328.535931" electricity_abs="0"
            CO_normed="976.106574" CO2_normed="39491.392856" HC_normed="5.370959" PMx_normed="0.767517" NOx_normed="16.903371" fuel_normed="16.975838" electricity_normed="0"
            traveltime="2.36" CO_perVeh="234.556530" CO2_perVeh="9489.705672" HC_perVeh="1.290631" PMx_perVeh="0.184433" NOx_perVeh="4.061848" fuel_perVeh="4.079261" electricity_perVeh="0"/>
        <edge id=":1110673556_5" sampledSeconds="24.83" CO_abs="1886.632631" CO2_abs="75845.694382" HC_abs="10.374155" PMx_abs="1.499150" NOx_abs="32.628501" fuel_abs="32.603131" electricity_abs="0"
            CO_normed="135.873637" CO2_normed="5462.340793" HC_normed="0.747138" PMx_normed="0.107967" NOx_normed="2.349876" fuel_normed="2.348049" electricity_normed="0"
            traveltime="1.72" CO_perVeh="130.433861" CO2_perVeh="5243.652945" HC_perVeh="0.717226" PMx_perVeh="0.103645" NOx_perVeh="2.255798" fuel_perVeh="2.254044" electricity_perVeh="0"/>
        <edge id=":1110673556_6" sampledSeconds="525.59" CO_abs="61635.980212" CO2_abs="3121233.906976" HC_abs="354.867743" PMx_abs="62.846440" NOx_abs="1343.165532" fuel_abs="1341.683046" electricity_abs="0"
            CO_normed="2246.937972" CO2_normed="113784.496684" HC_normed="12.936694" PMx_normed="2.291065" NOx_normed="48.965063" fuel_normed="48.911019" electricity_normed="0"
            traveltime="2.49" CO_perVeh="292.296862" CO2_perVeh="14801.855575" HC_perVeh="1.682892" PMx_perVeh="0.298037" NOx_perVeh="6.369706" fuel_perVeh="6.362676" electricity_perVeh="0"/>
        <edge id=":1110673561_0" sampledSeconds="101.87" CO_abs="9077.099522" CO2_abs="655235.703779" HC_abs="57.099277" PMx_abs="13.161946" NOx_abs="276.466750" fuel_abs="281.654697" electricity_abs="0"
            CO_normed="415.758029" CO2_normed="30011.734891" HC_normed="2.615316" PMx_normed="0.602856" NOx_normed="12.662996" fuel_normed="12.900619" electricity_normed="0"
            traveltime="1.20" CO_perVeh="107.118585" CO2_perVeh="7732.417276" HC_perVeh="0.673827" PMx_perVeh="0.155324" NOx_perVeh="3.262576" fuel_perVeh="3.323799" electricity_perVeh="0"/>
        <edge id=":1110673561_1" sampledSeconds="1315.01" CO_abs="121471.260615" CO2_abs="8430182.085581" HC_abs="757.034537" PMx_abs="176.003881" NOx_abs="3602.933622" fuel_abs="3623.728260" electricity_abs="0"
            CO_normed="5424.325510" CO2_normed="376451.610963" HC_normed="33.805542" PMx_normed="7.859492" NOx_normed="160.889783" fuel_normed="161.818372" electricity_normed="0"
            traveltime="1.19" CO_perVeh="110.104382" CO2_perVeh="7641.313545" HC_perVeh="0.686194" PMx_perVeh="0.159534" NOx_perVeh="3.265783" fuel_perVeh="3.284632" electricity_perVeh="0"/>
        <edge id=":1110673562_0" sampledSeconds="104.39" CO_abs="2288.916259" CO2_abs="180033.003042" HC_abs="14.526624" PMx_abs="2.425666" NOx_abs="68.641812" fuel_abs="77.389239" electricity_abs="0"
            CO_normed="6496.143773" CO2_normed="510949.348779" HC_normed="41.227824" PMx_normed="6.884251" NOx_normed="194.811442" fuel_normed="219.637404" electricity_normed="0"
            traveltime="0.03" CO_perVeh="0.583455" CO2_perVeh="45.891232" HC_perVeh="0.003703" PMx_perVeh="0.000618" NOx_perVeh="0.017497" fuel_perVeh="0.019727" electricity_perVeh="0"/>
        <edge id=":1110673564_0" sampledSeconds="28.18" CO_abs="573.537359" CO2_abs="61631.760188" HC_abs="4.043077" PMx_abs="0.901925" NOx_abs="23.544667" fuel_abs="26.492869" electricity_abs="0"
            CO_normed="4394.922288" CO2_normed="472274.024426" HC_normed="30.981436" PMx_normed="6.911304" NOx_normed="180.418905" fuel_normed="203.010492" electricity_normed="0"
            traveltime="7.748297e-03" CO_perVeh="0.157674" CO2_perVeh="16.943439" HC_perVeh="0.001111" PMx_perVeh="0.000248" NOx_perVeh="0.006473" fuel_perVeh="0.007283" electricity_perVeh="0"/>
        <edge id=":1110673588_0" sampledSeconds="11.63" CO_abs="193.824866" CO2_abs="22771.981205" HC_abs="1.411007" PMx_abs="0.325087" NOx_abs="8.610978" fuel_abs="9.788706" electricity_abs="0"
            CO_normed="594.099205" CO2_normed="69799.176106" HC_normed="4.324927" PMx_normed="0.996434" NOx_normed="26.393801" fuel_normed="30.003696" electricity_normed="0"
            traveltime="0.02" CO_perVeh="0.323041" CO2_perVeh="37.953302" HC_perVeh="0.002352" PMx_perVeh="0.000542" NOx_perVeh="0.014352" fuel_perVeh="0.016315" electricity_perVeh="0"/>
        <edge id=":1110673601_0" sampledSeconds="29.67" CO_abs="304.902682" CO2_abs="42830.299567" HC_abs="2.363262" PMx_abs="0.515683" NOx_abs="15.519028" fuel_abs="18.411024" electricity_abs="0"
            CO_normed="834.435365" CO2_normed="117214.831876" HC_normed="6.467602" PMx_normed="1.411285" NOx_normed="42.471341" fuel_normed="50.385944" electricity_normed="0"
            traveltime="0.02" CO_perVeh="0.226303" CO2_perVeh="31.789222" HC_perVeh="0.001754" PMx_perVeh="0.000383" NOx_perVeh="0.011518" fuel_perVeh="0.013665" electricity_perVeh="0"/>
        <edge id=":1110673617_0" sampledSeconds="238.25" CO_abs="5945.303038" CO2_abs="719219.239044" HC_abs="44.315624" PMx_abs="12.964148" NOx_abs="272.428787" fuel_abs="309.159200" electricity_abs="0"
            CO_normed="15185.959229" CO2_normed="1837086.178913" HC_normed="113.194443" PMx_normed="33.114043" NOx_normed="695.858971" fuel_normed="789.678671" electricity_normed="0"
            traveltime="0.01" CO_perVeh="0.364665" CO2_perVeh="44.114537" HC_perVeh="0.002718" PMx_perVeh="0.000795" NOx_perVeh="0.016710" fuel_perVeh="0.018963" electricity_perVeh="0"/>
        <edge id=":1110673621_0" sampledSeconds="25.75" CO_abs="445.107367" CO2_abs="54234.348943" HC_abs="3.275189" PMx_abs="0.739332" NOx_abs="20.276571" fuel_abs="23.313078" electricity_abs="0"
            CO_normed="1364.313770" CO2_normed="166235.552314" HC_normed="10.038894" PMx_normed="2.266152" NOx_normed="62.150410" fuel_normed="71.457710" electricity_normed="0"
            traveltime="0.02" CO_perVeh="0.337203" CO2_perVeh="41.086628" HC_perVeh="0.002481" PMx_perVeh="0.000560" NOx_perVeh="0.015361" fuel_perVeh="0.017661" electricity_perVeh="0"/>
        <edge id=":1110673630_0" sampledSeconds="54.18" CO_abs="150.816403" CO2_abs="14054.737020" HC_abs="1.005699" PMx_abs="0.175152" NOx_abs="5.236836" fuel_abs="6.041590" electricity_abs="0"
            CO_normed="8.243090" CO2_normed="768.182127" HC_normed="0.054968" PMx_normed="0.009573" NOx_normed="0.286227" fuel_normed="0.330212" electricity_normed="0"
            traveltime="1.26" CO_perVeh="3.520322" CO2_perVeh="328.062422" HC_perVeh="0.023475" PMx_perVeh="0.004088" NOx_perVeh="0.122237" fuel_perVeh="0.141021" electricity_perVeh="0"/>
        <edge id=":1110673630_1" sampledSeconds="7.51" CO_abs="0" CO2_abs="0" HC_abs="0" PMx_abs="0" NOx_abs="0" fuel_abs="0" electricity_abs="0"
            CO_normed="0" CO2_normed="0" HC_normed="0" PMx_normed="0" NOx_normed="0" fuel_normed="0" electricity_normed="0"
            traveltime="1.06" CO_perVeh="0" CO2_perVeh="0" HC_perVeh="0" PMx_perVeh="0" NOx_perVeh="0" fuel_perVeh="0" electricity_perVeh="0"/>
        <edge id=":1110673650_0" sampledSeconds="143.45" CO_abs="2103.253471" CO2_abs="263482.232684" HC_abs="15.578099" PMx_abs="3.631871" NOx_abs="98.480412" fuel_abs="113.259893" electricity_abs="0"
            CO_normed="5372.294946" CO2_normed="673006.980035" HC_normed="39.790802" PMx_normed="9.276810" NOx_normed="251.546392" fuel_normed="289.297301" electricity_normed="0"
            traveltime="0.02" CO_perVeh="0.337691" CO2_perVeh="42.303810" HC_perVeh="0.002501" PMx_perVeh="0.000583" NOx_perVeh="0.015812" fuel_perVeh="0.018185" electricity_perVeh="0"/>
        <edge id=":1110673655_0" sampledSeconds="44.81" CO_abs="740.493355" CO2_abs="89193.490263" HC_abs="5.424329" PMx_abs="1.202202" NOx_abs="33.282478" fuel_abs="38.340577" electricity_abs="0"
            CO_normed="1891.426195" CO2_normed="227825.007058" HC_normed="13.855247" PMx_normed="3.070758" NOx_normed="85.012715" fuel_normed="97.932507" electricity_normed="0"
            traveltime="0.02" CO_perVeh="0.396304" CO2_perVeh="47.735344" HC_perVeh="0.002903" PMx_perVeh="0.000643" NOx_perVeh="0.017812" fuel_perVeh="0.020519" electricity_perVeh="0"/>
        <edge id=":1110673663_0" sampledSeconds="108.46" CO_abs="1962.723726" CO2_abs="224617.303460" HC_abs="14.014690" PMx_abs="3.160834" NOx_abs="84.685133" fuel_abs="96.553506" electricity_abs="0"
            CO_normed="91.819466" CO2_normed="10507.969417" HC_normed="0.655630" PMx_normed="0.147869" NOx_normed="3.961711" fuel_normed="4.516933" electricity_normed="0"
            traveltime="1.27" CO_perVeh="23.053116" CO2_perVeh="2638.236193" HC_perVeh="0.164609" PMx_perVeh="0.037125" NOx_perVeh="0.994667" fuel_perVeh="1.134066" electricity_perVeh="0"/>
        <edge id=":1110673663_1" sampledSeconds="154.80" CO_abs="2600.086265" CO2_abs="328336.122109" HC_abs="19.335156" PMx_abs="4.437130" NOx_abs="122.135670" fuel_abs="141.137969" electricity_abs="0"
            CO_normed="121.785041" CO2_normed="15378.885147" HC_normed="0.905636" PMx_normed="0.207830" NOx_normed="5.720694" fuel_normed="6.610740" electricity_normed="0"
            traveltime="1.25" CO_perVeh="21.009058" CO2_perVeh="2653.001442" HC_perVeh="0.156231" PMx_perVeh="0.035853" NOx_perVeh="0.986873" fuel_perVeh="1.140414" electricity_perVeh="0"/>
        <edge id=":1110673666_0" sampledSeconds="191.37" CO_abs="4117.148081" CO2_abs="338287.896884" HC_abs="26.430559" PMx_abs="4.360816" NOx_abs="127.448807" fuel_abs="145.417081" electricity_abs="0"
            CO_normed="257.964247" CO2_normed="21195.784306" HC_normed="1.656035" PMx_normed="0.273232" NOx_normed="7.985439" fuel_normed="9.111260" electricity_normed="0"