<?xml version="1.0" encoding="UTF-8"?>

<!-- generated on qui 01 out 2020 01:00:26 WEST by Eclipse SUMO GUI Version 1.1.0
<configuration xmlns:xsi="http://www.w3.org/2001/XMLSchema-instance" xsi:noNamespaceSchemaLocation="http://sumo.dlr.de/xsd/sumoConfiguration.xsd">

    <input>
        <net-file value="../dataSets/Angeja_Estarreja/angeja_estarreja.net.xml"/>
        <route-files value="../dataSets/Angeja_Estarreja/angeja_estarreja.rou.xml"/>
        <additional-files value="moreOutputInfo.xml"/>
    </input>

    <output>
        <emission-output.precision value="6"/>
        <tripinfo-output value="../results/angeja_estarreja/inputdata/angeja_estarreja-tripinfo"/>
    </output>

    <processing>
        <collision.action value="warn"/>
        <time-to-teleport value="-1"/>
    </processing>

    <emissions>
        <device.emissions.probability value="1"/>
    </emissions>

    <gui_only>
        <gui-settings-file value="gui-settings.xml"/>
        <quit-on-end value="true"/>
        <start value="true"/>
    </gui_only>

</configuration>
-->

<meandata xmlns:xsi="http://www.w3.org/2001/XMLSchema-instance" xsi:noNamespaceSchemaLocation="http://sumo.dlr.de/xsd/meandata_file.xsd">
    <interval begin="0.00" end="19532.00" id="emissions-detector">
        <edge id=":10_0" sampledSeconds="462.48" CO_abs="41275.142962" CO2_abs="2069029.917678" HC_abs="236.655621" PMx_abs="39.340965" NOx_abs="876.862133" fuel_abs="889.389946" electricity_abs="0"
            CO_normed="434.965250" CO2_normed="21803.827937" HC_normed="2.493922" PMx_normed="0.414583" NOx_normed="9.240539" fuel_normed="9.372559" electricity_normed="0"
            traveltime="2.21" CO_perVeh="197.464914" CO2_perVeh="9898.471202" HC_perVeh="1.132187" PMx_perVeh="0.188212" NOx_perVeh="4.195007" fuel_perVeh="4.254941" electricity_perVeh="0"/>
        <edge id=":10_1" sampledSeconds="0.00" CO_abs="0" CO2_abs="0" HC_abs="0" PMx_abs="0" NOx_abs="0" fuel_abs="0" electricity_abs="0"
            CO_normed="0" CO2_normed="0" HC_normed="0" PMx_normed="0" NOx_normed="0" fuel_normed="0" electricity_normed="0"/>
        <edge id=":100_0" sampledSeconds="13.22" CO_abs="0" CO2_abs="0" HC_abs="0" PMx_abs="0" NOx_abs="0" fuel_abs="0" electricity_abs="0"
            CO_normed="0" CO2_normed="0" HC_normed="0" PMx_normed="0" NOx_normed="0" fuel_normed="0" electricity_normed="0"
            traveltime="1.90" CO_perVeh="0" CO2_perVeh="0" HC_perVeh="0" PMx_perVeh="0" NOx_perVeh="0" fuel_perVeh="0" electricity_perVeh="0"/>
        <edge id=":100_1" sampledSeconds="772.65" CO_abs="18752.497484" CO2_abs="1201648.383793" HC_abs="115.646574" PMx_abs="27.517620" NOx_abs="477.663716" fuel_abs="516.533516" electricity_abs="0"
            CO_normed="116.925833" CO2_normed="7492.534685" HC_normed="0.721081" PMx_normed="0.171578" NOx_normed="2.978335" fuel_normed="3.220697" electricity_normed="0"
            traveltime="1.17" CO_perVeh="28.322346" CO2_perVeh="1814.878307" HC_perVeh="0.174664" PMx_perVeh="0.041561" NOx_perVeh="0.721427" fuel_perVeh="0.780133" electricity_perVeh="0"/>
        <edge id=":101_0" sampledSeconds="329.41" CO_abs="29862.651173" CO2_abs="1797400.309027" HC_abs="181.535531" PMx_abs="42.494536" NOx_abs="718.830491" fuel_abs="772.619903" electricity_abs="0"
            CO_normed="673.693085" CO2_normed="40548.849896" HC_normed="4.095391" PMx_normed="0.958665" NOx_normed="16.216615" fuel_normed="17.430090" electricity_normed="0"
            traveltime="0.29" CO_perVeh="26.112394" CO2_perVeh="1571.676445" HC_perVeh="0.158738" PMx_perVeh="0.037158" NOx_perVeh="0.628557" fuel_perVeh="0.675592" electricity_perVeh="0"/>
        <edge id=":102_0" sampledSeconds="260.74" CO_abs="20330.806996" CO2_abs="1261476.240831" HC_abs="124.438392" PMx_abs="29.442943" NOx_abs="501.415760" fuel_abs="542.250839" electricity_abs="0"
            CO_normed="462.621043" CO2_normed="28704.490428" HC_normed="2.831556" PMx_normed="0.669965" NOx_normed="11.409556" fuel_normed="12.338745" electricity_normed="0"
            traveltime="0.29" CO_perVeh="22.399341" CO2_perVeh="1389.823681" HC_perVeh="0.137099" PMx_perVeh="0.032439" NOx_perVeh="0.552432" fuel_perVeh="0.597422" electricity_perVeh="0"/>
        <edge id=":103_0" sampledSeconds="325.78" CO_abs="25395.226126" CO2_abs="1560027.267784" HC_abs="155.141095" PMx_abs="36.582171" NOx_abs="618.392789" fuel_abs="670.584500" electricity_abs="0"
            CO_normed="581.449483" CO2_normed="35718.408040" HC_normed="3.552113" PMx_normed="0.837586" NOx_normed="14.158731" fuel_normed="15.353713" electricity_normed="0"
            traveltime="0.28" CO_perVeh="22.079228" CO2_perVeh="1356.325697" HC_perVeh="0.134883" PMx_perVeh="0.031805" NOx_perVeh="0.537646" fuel_perVeh="0.583022" electricity_perVeh="0"/>
        <edge id=":104_0" sampledSeconds="260.64" CO_abs="19123.934447" CO2_abs="1201085.655561" HC_abs="117.473708" PMx_abs="27.914602" NOx_abs="475.975239" fuel_abs="516.291757" electricity_abs="0"
            CO_normed="435.696940" CO2_normed="27364.104723" HC_normed="2.676381" PMx_normed="0.635973" NOx_normed="10.844053" fuel_normed="11.762576" electricity_normed="0"
            traveltime="0.29" CO_perVeh="21.056471" CO2_perVeh="1322.459303" HC_perVeh="0.129345" PMx_perVeh="0.030735" NOx_perVeh="0.524074" fuel_perVeh="0.568465" electricity_perVeh="0"/>
        <edge id=":105_0" sampledSeconds="124.14" CO_abs="9868.728593" CO2_abs="602515.801125" HC_abs="60.210972" PMx_abs="14.154857" NOx_abs="238.967557" fuel_abs="258.994054" electricity_abs="0"
            CO_normed="8267.882760" CO2_normed="504779.309490" HC_normed="50.443910" PMx_normed="11.858741" NOx_normed="200.203676" fuel_normed="216.981595" electricity_normed="0"
            traveltime="7.743414e-03" CO_perVeh="0.615557" CO2_perVeh="37.581616" HC_perVeh="0.003756" PMx_perVeh="0.000883" NOx_perVeh="0.014905" fuel_perVeh="0.016155" electricity_perVeh="0"/>
        <edge id=":106_0" sampledSeconds="100.60" CO_abs="8072.047898" CO2_abs="509552.679400" HC_abs="49.613158" PMx_abs="11.802662" NOx_abs="201.943392" fuel_abs="219.033370" electricity_abs="0"
            CO_normed="4799.299154" CO2_normed="302958.527254" HC_normed="29.497891" PMx_normed="7.017365" NOx_normed="120.067022" fuel_normed="130.228002" electricity_normed="0"
            traveltime="0.01" CO_perVeh="0.880208" CO2_perVeh="55.563645" HC_perVeh="0.005410" PMx_perVeh="0.001287" NOx_perVeh="0.022021" fuel_perVeh="0.023884" electricity_perVeh="0"/>
        <edge id=":107_0" sampledSeconds="331.44" CO_abs="28522.302823" CO2_abs="1726913.285308" HC_abs="173.507937" PMx_abs="40.671187" NOx_abs="693.439381" fuel_abs="742.320454" electricity_abs="0"
            CO_normed="643.455200" CO2_normed="38958.682291" HC_normed="3.914291" PMx_normed="0.917531" NOx_normed="15.643799" fuel_normed="16.746542" electricity_normed="0"
            traveltime="0.29" CO_perVeh="24.930730" CO2_perVeh="1509.457679" HC_perVeh="0.151660" PMx_perVeh="0.035550" NOx_perVeh="0.606120" fuel_perVeh="0.648846" electricity_perVeh="0"/>
        <edge id=":108_0" sampledSeconds="111.81" CO_abs="8846.596653" CO2_abs="622515.757863" HC_abs="55.094531" PMx_abs="11.853410" NOx_abs="259.399333" fuel_abs="267.591030" electricity_abs="0"
            CO_normed="135.539658" CO2_normed="9537.630803" HC_normed="0.844109" PMx_normed="0.181607" NOx_normed="3.974285" fuel_normed="4.099791" electricity_normed="0"
            traveltime="0.97" CO_perVeh="76.783986" CO2_perVeh="5403.122036" HC_perVeh="0.478193" PMx_perVeh="0.102882" NOx_perVeh="2.251455" fuel_perVeh="2.322555" electricity_perVeh="0"/>
        <edge id=":108_1" sampledSeconds="345.64" CO_abs="39650.120737" CO2_abs="2587421.878661" HC_abs="244.919134" PMx_abs="58.926226" NOx_abs="1071.395130" fuel_abs="1112.209147" electricity_abs="0"
            CO_normed="566.513924" CO2_normed="36968.626969" HC_normed="3.499361" PMx_normed="0.841928" NOx_normed="15.307904" fuel_normed="15.891048" electricity_normed="0"
            traveltime="0.52" CO_perVeh="59.406330" CO2_perVeh="3876.639869" HC_perVeh="0.366953" PMx_perVeh="0.088287" NOx_perVeh="1.605232" fuel_perVeh="1.666382" electricity_perVeh="0"/>
        <edge id=":109_0" sampledSeconds="337.83" CO_abs="740.084887" CO2_abs="51524.090008" HC_abs="4.532692" PMx_abs="0.856218" NOx_abs="20.529963" fuel_abs="22.148052" electricity_abs="0"
            CO_normed="10.869100" CO2_normed="756.697658" HC_normed="0.066568" PMx_normed="0.012575" NOx_normed="0.301509" fuel_normed="0.325273" electricity_normed="0"
            traveltime="0.95" CO_perVeh="2.075015" CO2_perVeh="144.460796" HC_perVeh="0.012709" PMx_perVeh="0.002401" NOx_perVeh="0.057561" fuel_perVeh="0.062098" electricity_perVeh="0"/>
        <edge id=":109_1" sampledSeconds="445.35" CO_abs="7937.291164" CO2_abs="457162.454357" HC_abs="47.725351" PMx_abs="10.906685" NOx_abs="183.568653" fuel_abs="196.513288" electricity_abs="0"
            CO_normed="76.036660" CO2_normed="4379.467150" HC_normed="0.457193" PMx_normed="0.104482" NOx_normed="1.758528" fuel_normed="1.882533" electricity_normed="0"
            traveltime="0.76" CO_perVeh="13.600354" CO2_perVeh="783.336684" HC_perVeh="0.081776" PMx_perVeh="0.018688" NOx_perVeh="0.314540" fuel_perVeh="0.336721" electricity_perVeh="0"/>
        <edge id=":11_0" sampledSeconds="324.36" CO_abs="19411.051324" CO2_abs="1248817.731016" HC_abs="117.751990" PMx_abs="22.228528" NOx_abs="513.606370" fuel_abs="536.813045" electricity_abs="0"
            CO_normed="196.038772" CO2_normed="12612.232632" HC_normed="1.189217" PMx_normed="0.224493" NOx_normed="5.187084" fuel_normed="5.421456" electricity_normed="0"
            traveltime="1.82" CO_perVeh="109.178564" CO2_perVeh="7024.046473" HC_perVeh="0.662303" PMx_perVeh="0.125026" NOx_perVeh="2.888808" fuel_perVeh="3.019336" electricity_perVeh="0"/>
        <edge id=":11_1" sampledSeconds="55.29" CO_abs="1792.884799" CO2_abs="119489.577391" HC_abs="10.931061" PMx_abs="1.892237" NOx_abs="47.569216" fuel_abs="51.363741" electricity_abs="0"
            CO_normed="18.564710" CO2_normed="1237.273775" HC_normed="0.113187" PMx_normed="0.019593" NOx_normed="0.492563" fuel_normed="0.531854" electricity_normed="0"
            traveltime="1.83" CO_perVeh="59.362629" CO2_perVeh="3956.314132" HC_perVeh="0.361929" PMx_perVeh="0.062652" NOx_perVeh="1.575022" fuel_perVeh="1.700660" electricity_perVeh="0"/>
        <edge id=":110_0" sampledSeconds="109.13" CO_abs="110.931794" CO2_abs="10082.452896" HC_abs="0.740770" PMx_abs="0.154864" NOx_abs="3.860882" fuel_abs="4.334025" electricity_abs="0"
            CO_normed="1.405235" CO2_normed="127.720025" HC_normed="0.009384" PMx_normed="0.001962" NOx_normed="0.048908" fuel_normed="0.054901" electricity_normed="0"
            traveltime="1.08" CO_perVeh="1.094610" CO2_perVeh="99.487769" HC_perVeh="0.007309" PMx_perVeh="0.001528" NOx_perVeh="0.038097" fuel_perVeh="0.042766" electricity_perVeh="0"/>
        <edge id=":110_1" sampledSeconds="382.52" CO_abs="8165.781124" CO2_abs="458848.067326" HC_abs="48.857035" PMx_abs="11.150164" NOx_abs="184.833894" fuel_abs="197.237792" electricity_abs="0"
            CO_normed="102.384965" CO2_normed="5753.171988" HC_normed="0.612584" PMx_normed="0.139804" NOx_normed="2.317502" fuel_normed="2.473025" electricity_normed="0"
            traveltime="0.59" CO_perVeh="12.641327" CO2_perVeh="710.336007" HC_perVeh="0.075635" PMx_perVeh="0.017261" NOx_perVeh="0.286139" fuel_perVeh="0.305341" electricity_perVeh="0"/>
        <edge id=":111_0" sampledSeconds="304.14" CO_abs="59520.934719" CO2_abs="3841259.222669" HC_abs="366.346781" PMx_abs="88.430863" NOx_abs="1634.226303" fuel_abs="1651.169197" electricity_abs="0"
            CO_normed="1342.775694" CO2_normed="86657.737205" HC_normed="8.264681" PMx_normed="1.994976" NOx_normed="36.867690" fuel_normed="37.249917" electricity_normed="0"
            traveltime="0.34" CO_perVeh="66.925193" CO2_perVeh="4319.102424" HC_perVeh="0.411919" PMx_perVeh="0.099431" NOx_perVeh="1.837520" fuel_perVeh="1.856571" electricity_perVeh="0"/>
        <edge id=":114_0" sampledSeconds="117.71" CO_abs="10598.641439" CO2_abs="743688.619467" HC_abs="65.979728" PMx_abs="14.608517" NOx_abs="312.608243" fuel_abs="319.677045" electricity_abs="0"
            CO_normed="137.568069" CO2_normed="9652.917098" HC_normed="0.856403" PMx_normed="0.189615" NOx_normed="4.057587" fuel_normed="4.149339" electricity_normed="0"
            traveltime="1.10" CO_perVeh="98.831566" CO2_perVeh="6934.842656" HC_perVeh="0.615256" PMx_perVeh="0.136223" NOx_perVeh="2.915049" fuel_perVeh="2.980965" electricity_perVeh="0"/>
        <edge id=":114_1" sampledSeconds="352.46" CO_abs="43824.139506" CO2_abs="2852264.093786" HC_abs="270.597522" PMx_abs="64.994651" NOx_abs="1179.085934" fuel_abs="1226.052454" electricity_abs="0"
            CO_normed="565.245292" CO2_normed="36788.602557" HC_normed="3.490176" PMx_normed="0.838303" NOx_normed="15.207892" fuel_normed="15.813668" electricity_normed="0"
            traveltime="0.57" CO_perVeh="70.387050" CO2_perVeh="4581.092896" HC_perVeh="0.434613" PMx_perVeh="0.104390" NOx_perVeh="1.893759" fuel_perVeh="1.969194" electricity_perVeh="0"/>
        <edge id=":115_0" sampledSeconds="89.60" CO_abs="356.265298" CO2_abs="24443.673381" HC_abs="2.185029" PMx_abs="0.367487" NOx_abs="9.593492" fuel_abs="10.507370" electricity_abs="0"
            CO_normed="7.863988" CO2_normed="539.555075" HC_normed="0.048231" PMx_normed="0.008112" NOx_normed="0.211761" fuel_normed="0.231933" electricity_normed="0"
            traveltime="0.71" CO_perVeh="2.835993" CO2_perVeh="194.579983" HC_perVeh="0.017394" PMx_perVeh="0.002925" NOx_perVeh="0.076367" fuel_perVeh="0.083642" electricity_perVeh="0"/>
        <edge id=":115_1" sampledSeconds="87.39" CO_abs="1871.056484" CO2_abs="204880.701443" HC_abs="13.221465" PMx_abs="3.147146" NOx_abs="78.330895" fuel_abs="88.069306" electricity_abs="0"
            CO_normed="36.883411" CO2_normed="4038.733778" HC_normed="0.260630" PMx_normed="0.062038" NOx_normed="1.544107" fuel_normed="1.736076" electricity_normed="0"
            traveltime="0.67" CO_perVeh="14.414717" CO2_perVeh="1578.411649" HC_perVeh="0.101859" PMx_perVeh="0.024246" NOx_perVeh="0.603465" fuel_perVeh="0.678491" electricity_perVeh="0"/>
        <edge id=":116_0" sampledSeconds="91.86" CO_abs="426.800688" CO2_abs="32107.222344" HC_abs="2.679787" PMx_abs="0.453506" NOx_abs="12.312809" fuel_abs="13.801646" electricity_abs="0"
            CO_normed="10.516695" CO2_normed="791.146521" HC_normed="0.066032" PMx_normed="0.011175" NOx_normed="0.303397" fuel_normed="0.340083" electricity_normed="0"
            traveltime="0.65" CO_perVeh="3.037670" CO2_perVeh="228.516807" HC_perVeh="0.019073" PMx_perVeh="0.003228" NOx_perVeh="0.087634" fuel_perVeh="0.098230" electricity_perVeh="0"/>
        <edge id=":117_0" sampledSeconds="270.64" CO_abs="15421.567266" CO2_abs="1131702.749180" HC_abs="96.993175" PMx_abs="20.465093" NOx_abs="463.004417" fuel_abs="486.468466" electricity_abs="0"
            CO_normed="340.406483" CO2_normed="24980.531853" HC_normed="2.140970" PMx_normed="0.451734" NOx_normed="10.220083" fuel_normed="10.738015" electricity_normed="0"
            traveltime="0.69" CO_perVeh="39.444851" CO2_perVeh="2894.637478" HC_perVeh="0.248086" PMx_perVeh="0.052345" NOx_perVeh="1.184260" fuel_perVeh="1.244275" electricity_perVeh="0"/>
        <edge id=":117_1" sampledSeconds="85.62" CO_abs="4422.783442" CO2_abs="346219.570693" HC_abs="28.322797" PMx_abs="6.135177" NOx_abs="140.439494" fuel_abs="148.824311" electricity_abs="0"
            CO_normed="92.006336" CO2_normed="7202.340955" HC_normed="0.589194" PMx_normed="0.127629" NOx_normed="2.921537" fuel_normed="3.095964" electricity_normed="0"
            traveltime="0.73" CO_perVeh="37.808863" CO2_perVeh="2959.712661" HC_perVeh="0.242122" PMx_perVeh="0.052448" NOx_perVeh="1.200569" fuel_perVeh="1.272248" electricity_perVeh="0"/>
        <edge id=":118_0" sampledSeconds="1011.79" CO_abs="23671.149655" CO2_abs="2411161.870954" HC_abs="163.893777" PMx_abs="38.932565" NOx_abs="934.420841" fuel_abs="1036.452230" electricity_abs="0"
            CO_normed="70.154346" CO2_normed="7145.976697" HC_normed="0.485733" PMx_normed="0.115385" NOx_normed="2.769349" fuel_normed="3.071740" electricity_normed="0"
            traveltime="4.43" CO_perVeh="103.549581" CO2_perVeh="10547.641572" HC_perVeh="0.716954" PMx_perVeh="0.170311" NOx_perVeh="4.087629" fuel_perVeh="4.533966" electricity_perVeh="0"/>
        <edge id=":118_4" sampledSeconds="331.95" CO_abs="8848.652253" CO2_abs="829360.659333" HC_abs="59.475648" PMx_abs="13.412818" NOx_abs="321.692684" fuel_abs="356.506137" electricity_abs="0"
            CO_normed="26.275511" CO2_normed="2462.733798" HC_normed="0.176609" PMx_normed="0.039829" NOx_normed="0.955246" fuel_normed="1.058622" electricity_normed="0"
            traveltime="4.61" CO_perVeh="122.957101" CO2_perVeh="11524.442313" HC_perVeh="0.826448" PMx_perVeh="0.186379" NOx_perVeh="4.470104" fuel_perVeh="4.953857" electricity_perVeh="0"/>
        <edge id=":118_5" sampledSeconds="267.42" CO_abs="7300.220665" CO2_abs="717419.539720" HC_abs="49.878191" PMx_abs="11.877587" NOx_abs="279.567912" fuel_abs="308.386832" electricity_abs="0"
            CO_normed="21.892695" CO2_normed="2151.475625" HC_normed="0.149580" PMx_normed="0.035620" NOx_normed="0.838399" fuel_normed="0.924824" electricity_normed="0"
            traveltime="4.29" CO_perVeh="117.101371" CO2_perVeh="11507.982532" HC_perVeh="0.800086" PMx_perVeh="0.190526" NOx_perVeh="4.484493" fuel_perVeh="4.946771" electricity_perVeh="0"/>
        <edge id=":119_0" sampledSeconds="162.14" CO_abs="3226.815107" CO2_abs="363341.487721" HC_abs="22.954435" PMx_abs="5.467160" NOx_abs="137.804711" fuel_abs="156.184832" electricity_abs="0"
            CO_normed="67.584514" CO2_normed="7610.060389" HC_normed="0.480773" PMx_normed="0.114508" NOx_normed="2.886271" fuel_normed="3.271237" electricity_normed="0"
            traveltime="0.63" CO_perVeh="12.613705" CO2_perVeh="1420.311430" HC_perVeh="0.089729" PMx_perVeh="0.021371" NOx_perVeh="0.538682" fuel_perVeh="0.610531" electricity_perVeh="0"/>
        <edge id=":12_0" sampledSeconds="721.47" CO_abs="61466.193086" CO2_abs="3057224.692341" HC_abs="351.834227" PMx_abs="58.107225" NOx_abs="1295.931506" fuel_abs="1314.174198" electricity_abs="0"
            CO_normed="562.513092" CO2_normed="27978.451709" HC_normed="3.219841" PMx_normed="0.531773" NOx_normed="11.859827" fuel_normed="12.026777" electricity_normed="0"
            traveltime="2.58" CO_perVeh="220.006332" CO2_perVeh="10942.743606" HC_perVeh="1.259322" PMx_perVeh="0.207984" NOx_perVeh="4.638536" fuel_perVeh="4.703832" electricity_perVeh="0"/>
        <edge id=":12_1" sampledSeconds="61.77" CO_abs="1556.553477" CO2_abs="108015.729460" HC_abs="9.567963" PMx_abs="1.619834" NOx_abs="42.334485" fuel_abs="46.431688" electricity_abs="0"
            CO_normed="14.230800" CO2_normed="987.534462" HC_normed="0.087475" PMx_normed="0.014809" NOx_normed="0.387043" fuel_normed="0.424502" electricity_normed="0"
            traveltime="2.10" CO_perVeh="52.807145" CO2_perVeh="3664.507785" HC_perVeh="0.324600" PMx_perVeh="0.054954" NOx_perVeh="1.436226" fuel_perVeh="1.575227" electricity_perVeh="0"/>
        <edge id=":120_0" sampledSeconds="42.91" CO_abs="988.358949" CO2_abs="100105.725717" HC_abs="6.838222" PMx_abs="1.633676" NOx_abs="38.761207" fuel_abs="43.031034" electricity_abs="0"
            CO_normed="759.030526" CO2_normed="76878.245226" HC_normed="5.251553" PMx_normed="1.254615" NOx_normed="29.767464" fuel_normed="33.046565" electricity_normed="0"
            traveltime="0.02" CO_perVeh="0.392076" CO2_perVeh="39.711362" HC_perVeh="0.002713" PMx_perVeh="0.000648" NOx_perVeh="0.015376" fuel_perVeh="0.017070" electricity_perVeh="0"/>
        <edge id=":121_0" sampledSeconds="399.72" CO_abs="56518.389224" CO2_abs="1394992.667693" HC_abs="290.004874" PMx_abs="30.230402" NOx_abs="617.124169" fuel_abs="599.668035" electricity_abs="0"
            CO_normed="31566.877231" CO2_normed="779136.894807" HC_normed="161.974684" PMx_normed="16.884406" NOx_normed="344.678664" fuel_normed="334.928994" electricity_normed="0"
            traveltime="0.13" CO_perVeh="18.625202" CO2_perVeh="459.709146" HC_perVeh="0.095569" PMx_perVeh="0.009962" NOx_perVeh="0.203369" fuel_perVeh="0.197616" electricity_perVeh="0"/>
        <edge id=":122_0" sampledSeconds="156.48" CO_abs="1406.709347" CO2_abs="128179.896386" HC_abs="9.455217" PMx_abs="2.297219" NOx_abs="51.388658" fuel_abs="55.098648" electricity_abs="0"
            CO_normed="30.253759" CO2_normed="2756.734107" HC_normed="0.203351" PMx_normed="0.049406" NOx_normed="1.105203" fuel_normed="1.184993" electricity_normed="0"
            traveltime="0.61" CO_perVeh="5.457904" CO2_perVeh="497.326316" HC_perVeh="0.036685" PMx_perVeh="0.008913" NOx_perVeh="0.199383" fuel_perVeh="0.213778" electricity_perVeh="0"/>
        <edge id=":123_0" sampledSeconds="367.16" CO_abs="37474.691605" CO2_abs="2152423.204357" HC_abs="221.796613" PMx_abs="42.013836" NOx_abs="912.202366" fuel_abs="925.231649" electricity_abs="0"
            CO_normed="139.593167" CO2_normed="8017.773060" HC_normed="0.826192" PMx_normed="0.156501" NOx_normed="3.397952" fuel_normed="3.446486" electricity_normed="0"
            traveltime="5.01" CO_perVeh="511.748140" CO2_perVeh="29393.132383" HC_perVeh="3.028818" PMx_perVeh="0.573734" NOx_perVeh="12.456883" fuel_perVeh="12.634809" electricity_perVeh="0"/>
        <edge id=":123_1" sampledSeconds="0.00" CO_abs="0" CO2_abs="0" HC_abs="0" PMx_abs="0" NOx_abs="0" fuel_abs="0" electricity_abs="0"
            CO_normed="0" CO2_normed="0" HC_normed="0" PMx_normed="0" NOx_normed="0" fuel_normed="0" electricity_normed="0"/>
        <edge id=":123_2" sampledSeconds="300.48" CO_abs="33020.543280" CO2_abs="1948627.559595" HC_abs="196.746352" PMx_abs="38.359584" NOx_abs="827.708575" fuel_abs="837.627653" electricity_abs="0"
            CO_normed="124.181041" CO2_normed="7328.244035" HC_normed="0.739908" PMx_normed="0.144260" NOx_normed="3.112781" fuel_normed="3.150084" electricity_normed="0"
            traveltime="4.74" CO_perVeh="520.469298" CO2_perVeh="30714.237789" HC_perVeh="3.101113" PMx_perVeh="0.604623" NOx_perVeh="13.046330" fuel_perVeh="13.202674" electricity_perVeh="0"/>
        <edge id=":123_3" sampledSeconds="521.26" CO_abs="27193.442715" CO2_abs="2278058.030282" HC_abs="177.882054" PMx_abs="43.075141" NOx_abs="925.129531" fuel_abs="979.231104" electricity_abs="0"
            CO_normed="104.636804" CO2_normed="8765.668746" HC_normed="0.684467" PMx_normed="0.165747" NOx_normed="3.559777" fuel_normed="3.767953" electricity_normed="0"
            traveltime="3.13" CO_perVeh="163.229106" CO2_perVeh="13674.082367" HC_perVeh="1.067740" PMx_perVeh="0.258559" NOx_perVeh="5.553106" fuel_perVeh="5.877851" electricity_perVeh="0"/>
        <edge id=":123_5" sampledSeconds="0.00" CO_abs="0" CO2_abs="0" HC_abs="0" PMx_abs="0" NOx_abs="0" fuel_abs="0" electricity_abs="0"
            CO_normed="0" CO2_normed="0" HC_normed="0" PMx_normed="0" NOx_normed="0" fuel_normed="0" electricity_normed="0"/>
        <edge id=":123_6" sampledSeconds="219.65" CO_abs="10240.122888" CO2_abs="885276.353829" HC_abs="67.659249" PMx_abs="16.418428" NOx_abs="358.026254" fuel_abs="380.539260" electricity_abs="0"
            CO_normed="38.059830" CO2_normed="3290.338211" HC_normed="0.251472" PMx_normed="0.061023" NOx_normed="1.330689" fuel_normed="1.414364" electricity_normed="0"
            traveltime="3.30" CO_perVeh="153.620895" CO2_perVeh="13280.792351" HC_perVeh="1.015015" PMx_perVeh="0.246307" NOx_perVeh="5.371060" fuel_perVeh="5.708797" electricity_perVeh="0"/>
        <edge id=":124_0" sampledSeconds="136.38" CO_abs="4726.983965" CO2_abs="399840.571445" HC_abs="31.046650" PMx_abs="7.485720" NOx_abs="162.298381" fuel_abs="171.872892" electricity_abs="0"
            CO_normed="108.094817" CO2_normed="9143.397545" HC_normed="0.709963" PMx_normed="0.171181" NOx_normed="3.711376" fuel_normed="3.930322" electricity_normed="0"
            traveltime="0.52" CO_perVeh="17.920162" CO2_perVeh="1515.809646" HC_perVeh="0.117699" PMx_perVeh="0.028379" NOx_perVeh="0.615279" fuel_perVeh="0.651576" electricity_perVeh="0"/>
        <edge id=":125_0" sampledSeconds="156.95" CO_abs="7402.195966" CO2_abs="656487.275861" HC_abs="49.344598" PMx_abs="12.334078" NOx_abs="263.816598" fuel_abs="282.193312" electricity_abs="0"
            CO_normed="454.773457" CO2_normed="40333.029441" HC_normed="3.031616" PMx_normed="0.757777" NOx_normed="16.208269" fuel_normed="17.337291" electricity_normed="0"
            traveltime="0.18" CO_perVeh="8.644732" CO2_perVeh="766.685545" HC_perVeh="0.057628" PMx_perVeh="0.014404" NOx_perVeh="0.308101" fuel_perVeh="0.329562" electricity_perVeh="0"/>
        <edge id=":125_3" sampledSeconds="0.00" CO_abs="0" CO2_abs="0" HC_abs="0" PMx_abs="0" NOx_abs="0" fuel_abs="0" electricity_abs="0"
            CO_normed="0" CO2_normed="0" HC_normed="0" PMx_normed="0" NOx_normed="0" fuel_normed="0" electricity_normed="0"/>
        <edge id=":126_0" sampledSeconds="32.15" CO_abs="532.040402" CO2_abs="27728.445062" HC_abs="3.065446" PMx_abs="0.468067" NOx_abs="11.317169" fuel_abs="11.919384" electricity_abs="0"
            CO_normed="17.113773" CO2_normed="891.921596" HC_normed="0.098604" PMx_normed="0.015056" NOx_normed="0.364031" fuel_normed="0.383403" electricity_normed="0"
            traveltime="0.65" CO_perVeh="10.699290" CO2_perVeh="557.616810" HC_perVeh="0.061646" PMx_perVeh="0.009413" NOx_perVeh="0.227587" fuel_perVeh="0.239698" electricity_perVeh="0"/>
        <edge id=":126_1" sampledSeconds="93.81" CO_abs="2288.584447" CO2_abs="264872.523695" HC_abs="16.558723" PMx_abs="4.408537" NOx_abs="101.260406" fuel_abs="113.856773" electricity_abs="0"
            CO_normed="65.499330" CO2_normed="7580.656662" HC_normed="0.473911" PMx_normed="0.126172" NOx_normed="2.898075" fuel_normed="3.258583" electricity_normed="0"
            traveltime="0.39" CO_perVeh="9.604371" CO2_perVeh="1111.575339" HC_perVeh="0.069491" PMx_perVeh="0.018501" NOx_perVeh="0.424954" fuel_perVeh="0.477816" electricity_perVeh="0"/>
        <edge id=":127_0" sampledSeconds="261.48" CO_abs="9402.438752" CO2_abs="880886.678713" HC_abs="63.735554" PMx_abs="16.327749" NOx_abs="350.636978" fuel_abs="378.652241" electricity_abs="0"
            CO_normed="212.376344" CO2_normed="19896.911525" HC_normed="1.439618" PMx_normed="0.368801" NOx_normed="7.919966" fuel_normed="8.552757" electricity_normed="0"
            traveltime="0.49" CO_perVeh="17.789482" CO2_perVeh="1666.643936" HC_perVeh="0.120588" PMx_perVeh="0.030892" NOx_perVeh="0.663408" fuel_perVeh="0.716413" electricity_perVeh="0"/>
        <edge id=":128_0" sampledSeconds="257.69" CO_abs="1742.848104" CO2_abs="133921.973036" HC_abs="11.061674" PMx_abs="2.307320" NOx_abs="53.583092" fuel_abs="57.567223" electricity_abs="0"
            CO_normed="26.308716" CO2_normed="2021.584785" HC_normed="0.166979" PMx_normed="0.034830" NOx_normed="0.808850" fuel_normed="0.868991" electricity_normed="0"
            traveltime="0.85" CO_perVeh="5.780473" CO2_perVeh="444.176599" HC_perVeh="0.036688" PMx_perVeh="0.007653" NOx_perVeh="0.177718" fuel_perVeh="0.190932" electricity_perVeh="0"/>
        <edge id=":128_1" sampledSeconds="154.44" CO_abs="554.985224" CO2_abs="41513.995913" HC_abs="3.486879" PMx_abs="0.621846" NOx_abs="16.088511" fuel_abs="17.845207" electricity_abs="0"
            CO_normed="8.654057" CO2_normed="647.340601" HC_normed="0.054372" PMx_normed="0.009697" NOx_normed="0.250873" fuel_normed="0.278266" electricity_normed="0"
            traveltime="0.93" CO_perVeh="3.357212" CO2_perVeh="251.126128" HC_perVeh="0.021093" PMx_perVeh="0.003762" NOx_perVeh="0.097322" fuel_perVeh="0.107949" electricity_perVeh="0"/>
        <edge id=":129_0" sampledSeconds="121.60" CO_abs="7374.686920" CO2_abs="610060.675602" HC_abs="48.095898" PMx_abs="11.369682" NOx_abs="248.582106" fuel_abs="262.236839" electricity_abs="0"
            CO_normed="167.808654" CO2_normed="13881.736537" HC_normed="1.094407" PMx_normed="0.258713" NOx_normed="5.656407" fuel_normed="5.967116" electricity_normed="0"
            traveltime="0.56" CO_perVeh="33.838536" CO2_perVeh="2799.245599" HC_perVeh="0.220687" PMx_perVeh="0.052169" NOx_perVeh="1.140612" fuel_perVeh="1.203266" electricity_perVeh="0"/>
        <edge id=":13_0" sampledSeconds="66.30" CO_abs="5096.415311" CO2_abs="341684.701189" HC_abs="31.324130" PMx_abs="6.445845" NOx_abs="142.434724" fuel_abs="146.874867" electricity_abs="0"
            CO_normed="35.194275" CO2_normed="2359.569345" HC_normed="0.216315" PMx_normed="0.044513" NOx_normed="0.983610" fuel_normed="1.014273" electricity_normed="0"
            traveltime="2.36" CO_perVeh="181.132583" CO2_perVeh="12143.875406" HC_perVeh="1.113296" PMx_perVeh="0.229093" NOx_perVeh="5.062297" fuel_perVeh="5.220105" electricity_perVeh="0"/>
        <edge id=":13_1" sampledSeconds="670.90" CO_abs="24337.523435" CO2_abs="1327842.496727" HC_abs="141.550392" PMx_abs="21.904104" NOx_abs="537.920222" fuel_abs="570.787890" electricity_abs="0"
            CO_normed="236.838441" CO2_normed="12921.780942" HC_normed="1.377485" PMx_normed="0.213158" NOx_normed="5.234723" fuel_normed="5.554571" electricity_normed="0"
            traveltime="2.36" CO_perVeh="85.509510" CO2_perVeh="4665.353943" HC_perVeh="0.497335" PMx_perVeh="0.076960" NOx_perVeh="1.889974" fuel_perVeh="2.005454" electricity_perVeh="0"/>
        <edge id=":132_0" sampledSeconds="47.25" CO_abs="1175.697533" CO2_abs="118700.170577" HC_abs="8.139976" PMx_abs="1.941928" NOx_abs="46.213734" fuel_abs="51.023941" electricity_abs="0"
            CO_normed="2166.962482" CO2_normed="218779.753265" HC_normed="15.003028" PMx_normed="3.579224" NOx_normed="85.177884" fuel_normed="94.043717" electricity_normed="0"