<?xml version="1.0" encoding="UTF-8"?>

<!-- generated on Tue Nov 10 17:10:37 2020 by Eclipse SUMO sumo Version 1.7.0
<configuration xmlns:xsi="http://www.w3.org/2001/XMLSchema-instance" xsi:noNamespaceSchemaLocation="http://sumo.dlr.de/xsd/sumoConfiguration.xsd">

    <input>
        <net-file value="../dataSets/Porto/8AM9AM_Routing_SaoBento/Porto.net.xml"/>
        <route-files value="../results/Porto/8AM9AM_Routing_SaoBento/cost_co-cost_nox/solution2/Porto.rou.xml"/>
        <additional-files value="moreOutputInfo.xml"/>
    </input>

    <output>
        <emission-output.precision value="6"/>
        <tripinfo-output value="../results/Porto/8AM9AM_Routing_SaoBento/cost_co-cost_nox/solution2/Porto-tripinfo"/>
    </output>

    <processing>
        <collision.action value="warn"/>
        <time-to-teleport value="-1"/>
    </processing>

    <emissions>
        <device.emissions.probability value="1"/>
    </emissions>

    <gui_only>
        <quit-on-end value="true"/>
        <start value="true"/>
    </gui_only>

</configuration>
-->

<meandata xmlns:xsi="http://www.w3.org/2001/XMLSchema-instance" xsi:noNamespaceSchemaLocation="http://sumo.dlr.de/xsd/meandata_file.xsd">
    <interval begin="0.00" end="5888.00" id="emissions-detector">
        <edge id=":1092997347_0" sampledSeconds="606.63" CO_abs="73313.090479" CO2_abs="3087699.818954" HC_abs="406.819646" PMx_abs="62.382181" NOx_abs="1335.772033" fuel_abs="1327.277841" electricity_abs="0"
            CO_normed="101874.044946" CO2_normed="4290590.781032" HC_normed="565.306450" PMx_normed="86.684726" NOx_normed="1856.155554" fuel_normed="1844.352238" electricity_normed="0"
            traveltime="0.07" CO_perVeh="8.427039" CO2_perVeh="354.918447" HC_perVeh="0.046762" PMx_perVeh="0.007171" NOx_perVeh="0.153542" fuel_perVeh="0.152565" electricity_perVeh="0"/>
        <edge id=":1103427051_0" sampledSeconds="19.22" CO_abs="1645.782377" CO2_abs="91962.198763" HC_abs="9.679294" PMx_abs="1.817178" NOx_abs="39.335375" fuel_abs="39.530468" electricity_abs="0"
            CO_normed="3469.837284" CO2_normed="193885.820105" HC_normed="20.407058" PMx_normed="3.831193" NOx_normed="82.931591" fuel_normed="83.342910" electricity_normed="0"
            traveltime="0.03" CO_perVeh="2.559400" CO2_perVeh="143.012857" HC_perVeh="0.015053" PMx_perVeh="0.002826" NOx_perVeh="0.061171" fuel_perVeh="0.061475" electricity_perVeh="0"/>
        <edge id=":1105984386_0" sampledSeconds="10.42" CO_abs="182.211001" CO2_abs="13584.150973" HC_abs="1.136918" PMx_abs="0.172948" NOx_abs="5.128073" fuel_abs="5.839324" electricity_abs="0"
            CO_normed="11.473345" CO2_normed="855.358094" HC_normed="0.071589" PMx_normed="0.010890" NOx_normed="0.322901" fuel_normed="0.367687" electricity_normed="0"
            traveltime="1.00" CO_perVeh="17.479439" CO2_perVeh="1303.122959" HC_perVeh="0.109064" PMx_perVeh="0.016591" NOx_perVeh="0.491934" fuel_perVeh="0.560164" electricity_perVeh="0"/>
        <edge id=":1105984390_0" sampledSeconds="10.72" CO_abs="37.383507" CO2_abs="2415.732232" HC_abs="0.225975" PMx_abs="0.037797" NOx_abs="0.963486" fuel_abs="1.038427" electricity_abs="0"
            CO_normed="1.819806" CO2_normed="117.596353" HC_normed="0.011000" PMx_normed="0.001840" NOx_normed="0.046902" fuel_normed="0.050550" electricity_normed="0"
            traveltime="1.11" CO_perVeh="3.875026" CO2_perVeh="250.405190" HC_perVeh="0.023424" PMx_perVeh="0.003918" NOx_perVeh="0.099871" fuel_perVeh="0.107639" electricity_perVeh="0"/>
        <edge id=":1105984390_1" sampledSeconds="2247.49" CO_abs="61742.412750" CO2_abs="7155252.324215" HC_abs="452.735670" PMx_abs="130.308659" NOx_abs="2735.049416" fuel_abs="3075.711689" electricity_abs="0"
            CO_normed="2875.104074" CO2_normed="333192.277258" HC_normed="21.082140" PMx_normed="6.067968" NOx_normed="127.360616" fuel_normed="143.223933" electricity_normed="0"
            traveltime="0.65" CO_perVeh="17.815621" CO2_perVeh="2064.630392" HC_perVeh="0.130636" PMx_perVeh="0.037600" NOx_perVeh="0.789192" fuel_perVeh="0.887489" electricity_perVeh="0"/>
        <edge id=":1105984395_0" sampledSeconds="4.17" CO_abs="33.521697" CO2_abs="2625.858096" HC_abs="0.212677" PMx_abs="0.036371" NOx_abs="1.008265" fuel_abs="1.128754" electricity_abs="0"
            CO_normed="22.277829" CO2_normed="1745.091185" HC_normed="0.141341" PMx_normed="0.024172" NOx_normed="0.670072" fuel_normed="0.750146" electricity_normed="0"
            traveltime="0.10" CO_perVeh="0.777021" CO2_perVeh="60.866451" HC_perVeh="0.004930" PMx_perVeh="0.000843" NOx_perVeh="0.023371" fuel_perVeh="0.026164" electricity_perVeh="0"/>
        <edge id=":1105984398_0" sampledSeconds="11.09" CO_abs="686.023447" CO2_abs="46487.754724" HC_abs="4.218774" PMx_abs="0.832181" NOx_abs="19.158976" fuel_abs="19.983047" electricity_abs="0"
            CO_normed="34.693439" CO2_normed="2350.969363" HC_normed="0.213351" PMx_normed="0.042085" NOx_normed="0.968904" fuel_normed="1.010579" electricity_normed="0"
            traveltime="1.15" CO_perVeh="70.977424" CO2_perVeh="4809.720583" HC_perVeh="0.436483" PMx_perVeh="0.086099" NOx_perVeh="1.982228" fuel_perVeh="2.067488" electricity_perVeh="0"/>
        <edge id=":1105984398_1" sampledSeconds="649.66" CO_abs="11756.335114" CO2_abs="1396170.153086" HC_abs="85.662766" PMx_abs="19.787347" NOx_abs="526.570235" fuel_abs="600.154249" electricity_abs="0"
            CO_normed="575.498529" CO2_normed="68345.607887" HC_normed="4.193381" PMx_normed="0.968634" NOx_normed="25.776774" fuel_normed="29.378874" electricity_normed="0"
            traveltime="0.95" CO_perVeh="17.256486" CO2_perVeh="2049.362401" HC_perVeh="0.125740" PMx_perVeh="0.029045" NOx_perVeh="0.772924" fuel_perVeh="0.880934" electricity_perVeh="0"/>
        <edge id=":1106006327_0" sampledSeconds="704.52" CO_abs="95060.649512" CO2_abs="3083239.806648" HC_abs="505.423072" PMx_abs="64.318036" NOx_abs="1349.643775" fuel_abs="1325.375983" electricity_abs="0"
            CO_normed="6559.968514" CO2_normed="212768.965458" HC_normed="34.878359" PMx_normed="4.438475" NOx_normed="93.136547" fuel_normed="91.461870" electricity_normed="0"
            traveltime="2.09" CO_perVeh="282.574039" CO2_perVeh="9165.133308" HC_perVeh="1.502403" PMx_perVeh="0.191190" NOx_perVeh="4.011905" fuel_perVeh="3.939767" electricity_perVeh="0"/>
        <edge id=":1106006327_1" sampledSeconds="680.50" CO_abs="92088.607749" CO2_abs="3084859.829954" HC_abs="492.022783" PMx_abs="64.344694" NOx_abs="1350.062157" fuel_abs="1326.069825" electricity_abs="0"
            CO_normed="5541.749600" CO2_normed="185642.080446" HC_normed="29.609168" PMx_normed="3.872164" NOx_normed="81.244647" fuel_normed="79.800826" electricity_normed="0"
            traveltime="2.28" CO_perVeh="309.119166" CO2_perVeh="10355.127769" HC_perVeh="1.651601" PMx_perVeh="0.215990" NOx_perVeh="4.531832" fuel_perVeh="4.451295" electricity_perVeh="0"/>
        <edge id=":1106006327_2" sampledSeconds="0.00" CO_abs="0" CO2_abs="0" HC_abs="0" PMx_abs="0" NOx_abs="0" fuel_abs="0" electricity_abs="0"
            CO_normed="0" CO2_normed="0" HC_normed="0" PMx_normed="0" NOx_normed="0" fuel_normed="0" electricity_normed="0"/>
        <edge id=":1106006327_3" sampledSeconds="0.00" CO_abs="0" CO2_abs="0" HC_abs="0" PMx_abs="0" NOx_abs="0" fuel_abs="0" electricity_abs="0"
            CO_normed="0" CO2_normed="0" HC_normed="0" PMx_normed="0" NOx_normed="0" fuel_normed="0" electricity_normed="0"/>
        <edge id=":1107381198_0" sampledSeconds="0.00" CO_abs="0" CO2_abs="0" HC_abs="0" PMx_abs="0" NOx_abs="0" fuel_abs="0" electricity_abs="0"
            CO_normed="0" CO2_normed="0" HC_normed="0" PMx_normed="0" NOx_normed="0" fuel_normed="0" electricity_normed="0"/>
        <edge id=":1107381198_1" sampledSeconds="103.64" CO_abs="4510.501713" CO2_abs="176201.654379" HC_abs="24.588451" PMx_abs="3.025234" NOx_abs="72.911320" fuel_abs="75.743079" electricity_abs="0"
            CO_normed="300.739322" CO2_normed="11748.308590" HC_normed="1.639444" PMx_normed="0.201709" NOx_normed="4.861388" fuel_normed="5.050197" electricity_normed="0"
            traveltime="1.55" CO_perVeh="67.530859" CO2_perVeh="2638.076624" HC_perVeh="0.368136" PMx_perVeh="0.045294" NOx_perVeh="1.091622" fuel_perVeh="1.134019" electricity_perVeh="0"/>
        <edge id=":1110338277_0" sampledSeconds="160.08" CO_abs="2439.138797" CO2_abs="306932.422282" HC_abs="18.148531" PMx_abs="4.149515" NOx_abs="114.325627" fuel_abs="131.937411" electricity_abs="0"
            CO_normed="5326.147413" CO2_normed="670223.165891" HC_normed="39.629459" PMx_normed="9.060955" NOx_normed="249.643499" fuel_normed="288.100906" electricity_normed="0"
            traveltime="0.02" CO_perVeh="0.330951" CO2_perVeh="41.645633" HC_perVeh="0.002462" PMx_perVeh="0.000563" NOx_perVeh="0.015512" fuel_perVeh="0.017902" electricity_perVeh="0"/>
        <edge id=":1110338293_0" sampledSeconds="5335.63" CO_abs="522042.816163" CO2_abs="9063787.297516" HC_abs="2589.162314" PMx_abs="217.187812" NOx_abs="4101.457455" fuel_abs="3896.371898" electricity_abs="0"
            CO_normed="1063945.956854" CO2_normed="18472392.590047" HC_normed="5276.825369" PMx_normed="442.638204" NOx_normed="8358.948618" fuel_normed="7940.975335" electricity_normed="0"
            traveltime="0.46" CO_perVeh="44.602125" CO2_perVeh="774.388926" HC_perVeh="0.221212" PMx_perVeh="0.018556" NOx_perVeh="0.350419" fuel_perVeh="0.332897" electricity_perVeh="0"/>
        <edge id=":1110338295_0" sampledSeconds="0.00" CO_abs="0" CO2_abs="0" HC_abs="0" PMx_abs="0" NOx_abs="0" fuel_abs="0" electricity_abs="0"
            CO_normed="0" CO2_normed="0" HC_normed="0" PMx_normed="0" NOx_normed="0" fuel_normed="0" electricity_normed="0"/>
        <edge id=":1110673403_0" sampledSeconds="200.44" CO_abs="2978.358662" CO2_abs="357510.082050" HC_abs="21.758160" PMx_abs="5.002641" NOx_abs="134.361721" fuel_abs="153.678473" electricity_abs="0"
            CO_normed="6070.024447" CO2_normed="728621.091135" HC_normed="44.344076" PMx_normed="10.195600" NOx_normed="273.835030" fuel_normed="313.203409" electricity_normed="0"
            traveltime="0.02" CO_perVeh="0.344226" CO2_perVeh="41.319499" HC_perVeh="0.002515" PMx_perVeh="0.000578" NOx_perVeh="0.015529" fuel_perVeh="0.017762" electricity_perVeh="0"/>
        <edge id=":1110673412_0" sampledSeconds="719.64" CO_abs="127278.178041" CO2_abs="8695174.840568" HC_abs="792.355167" PMx_abs="191.008398" NOx_abs="3735.831316" fuel_abs="3737.627426" electricity_abs="0"
            CO_normed="268343.235187" CO2_normed="18332218.320164" HC_normed="1670.538912" PMx_normed="402.706985" NOx_normed="7876.331017" fuel_normed="7880.117792" electricity_normed="0"
            traveltime="0.02" CO_perVeh="2.745951" CO2_perVeh="187.593209" HC_perVeh="0.017095" PMx_perVeh="0.004121" NOx_perVeh="0.080598" fuel_perVeh="0.080637" electricity_perVeh="0"/>
        <edge id=":1110673414_0" sampledSeconds="0.00" CO_abs="0" CO2_abs="0" HC_abs="0" PMx_abs="0" NOx_abs="0" fuel_abs="0" electricity_abs="0"
            CO_normed="0" CO2_normed="0" HC_normed="0" PMx_normed="0" NOx_normed="0" fuel_normed="0" electricity_normed="0"/>
        <edge id=":1110673414_1" sampledSeconds="240.76" CO_abs="16509.309002" CO2_abs="639010.715873" HC_abs="90.032041" PMx_abs="11.871798" NOx_abs="270.201750" fuel_abs="274.687662" electricity_abs="0"
            CO_normed="1117.830217" CO2_normed="43266.831296" HC_normed="6.095987" PMx_normed="0.803829" NOx_normed="18.295113" fuel_normed="18.598850" electricity_normed="0"
            traveltime="1.56" CO_perVeh="107.113955" CO2_perVeh="4145.961836" HC_perVeh="0.584136" PMx_perVeh="0.077025" NOx_perVeh="1.753094" fuel_perVeh="1.782199" electricity_perVeh="0"/>
        <edge id=":1110673417_0" sampledSeconds="28.88" CO_abs="517.812463" CO2_abs="58979.612296" HC_abs="3.716421" PMx_abs="0.801255" NOx_abs="22.101207" fuel_abs="25.352895" electricity_abs="0"
            CO_normed="1130.704622" CO2_normed="128788.943776" HC_normed="8.115245" PMx_normed="1.749635" NOx_normed="48.260593" fuel_normed="55.361038" electricity_normed="0"
            traveltime="0.02" CO_perVeh="0.394857" CO2_perVeh="44.974818" HC_perVeh="0.002834" PMx_perVeh="0.000611" NOx_perVeh="0.016853" fuel_perVeh="0.019333" electricity_perVeh="0"/>
        <edge id=":1110673446_0" sampledSeconds="998.75" CO_abs="10373.122374" CO2_abs="846860.768719" HC_abs="67.348275" PMx_abs="15.575877" NOx_abs="346.433362" fuel_abs="364.026397" electricity_abs="0"
            CO_normed="21140.874403" CO2_normed="1725939.066682" HC_normed="137.258713" PMx_normed="31.744315" NOx_normed="706.046254" fuel_normed="741.901624" electricity_normed="0"
            traveltime="0.02" CO_perVeh="0.236394" CO2_perVeh="19.299202" HC_perVeh="0.001535" PMx_perVeh="0.000355" NOx_perVeh="0.007895" fuel_perVeh="0.008296" electricity_perVeh="0"/>
        <edge id=":1110673451_0" sampledSeconds="36.49" CO_abs="324.833191" CO2_abs="21314.743051" HC_abs="1.969202" PMx_abs="0.322505" NOx_abs="8.420267" fuel_abs="9.162371" electricity_abs="0"
            CO_normed="735.582407" CO2_normed="48267.081185" HC_normed="4.459243" PMx_normed="0.730311" NOx_normed="19.067634" fuel_normed="20.748122" electricity_normed="0"
            traveltime="0.03" CO_perVeh="0.239330" CO2_perVeh="15.704253" HC_perVeh="0.001451" PMx_perVeh="0.000238" NOx_perVeh="0.006204" fuel_perVeh="0.006751" electricity_perVeh="0"/>
        <edge id=":1110673464_0" sampledSeconds="1019.60" CO_abs="3560.039228" CO2_abs="264123.693129" HC_abs="22.254766" PMx_abs="3.720680" NOx_abs="101.878196" fuel_abs="113.536493" electricity_abs="0"
            CO_normed="154.153996" CO2_normed="11436.874722" HC_normed="0.963658" PMx_normed="0.161110" NOx_normed="4.411449" fuel_normed="4.916267" electricity_normed="0"
            traveltime="1.23" CO_perVeh="4.296612" CO2_perVeh="318.770929" HC_perVeh="0.026859" PMx_perVeh="0.004490" NOx_perVeh="0.122957" fuel_perVeh="0.137027" electricity_perVeh="0"/>
        <edge id=":1110673464_1" sampledSeconds="2445.46" CO_abs="58226.334390" CO2_abs="7063589.467355" HC_abs="433.517631" PMx_abs="126.240982" NOx_abs="2681.231587" fuel_abs="3036.311617" electricity_abs="0"
            CO_normed="2470.530210" CO2_normed="299706.504796" HC_normed="18.394055" PMx_normed="5.356376" NOx_normed="113.764050" fuel_normed="128.830016" electricity_normed="0"
            traveltime="0.72" CO_perVeh="17.124770" CO2_perVeh="2077.450775" HC_perVeh="0.127501" PMx_perVeh="0.037128" NOx_perVeh="0.788569" fuel_perVeh="0.893000" electricity_perVeh="0"/>
        <edge id=":1110673479_0" sampledSeconds="103.63" CO_abs="5088.607123" CO2_abs="349268.839161" HC_abs="31.371060" PMx_abs="6.092846" NOx_abs="142.767159" fuel_abs="150.135562" electricity_abs="0"
            CO_normed="10370.802561" CO2_normed="711825.079813" HC_normed="63.935585" PMx_normed="12.417485" NOx_normed="290.965677" fuel_normed="305.982803" electricity_normed="0"
            traveltime="0.03" CO_perVeh="1.406016" CO2_perVeh="96.505321" HC_perVeh="0.008668" PMx_perVeh="0.001683" NOx_perVeh="0.039448" fuel_perVeh="0.041483" electricity_perVeh="0"/>
        <edge id=":1110673511_0" sampledSeconds="63.49" CO_abs="958.538611" CO2_abs="114170.810466" HC_abs="6.962071" PMx_abs="1.494123" NOx_abs="42.357032" fuel_abs="49.077358" electricity_abs="0"
            CO_normed="1953.543366" CO2_normed="232685.075678" HC_normed="14.189003" PMx_normed="3.045088" NOx_normed="86.325473" fuel_normed="100.021790" electricity_normed="0"
            traveltime="0.02" CO_perVeh="0.367375" CO2_perVeh="43.757813" HC_perVeh="0.002668" PMx_perVeh="0.000573" NOx_perVeh="0.016234" fuel_perVeh="0.018810" electricity_perVeh="0"/>
        <edge id=":1110673517_0" sampledSeconds="137.13" CO_abs="6053.033820" CO2_abs="429952.283071" HC_abs="37.664480" PMx_abs="7.484230" NOx_abs="175.360209" fuel_abs="184.817757" electricity_abs="0"
            CO_normed="12336.346100" CO2_normed="876261.446476" HC_normed="76.761847" PMx_normed="15.253186" NOx_normed="357.391731" fuel_normed="376.666625" electricity_normed="0"
            traveltime="0.03" CO_perVeh="1.235691" CO2_perVeh="87.772233" HC_perVeh="0.007689" PMx_perVeh="0.001528" NOx_perVeh="0.035799" fuel_perVeh="0.037729" electricity_perVeh="0"/>
        <edge id=":1110673534_0" sampledSeconds="660.24" CO_abs="4945.076418" CO2_abs="399838.109588" HC_abs="31.683231" PMx_abs="5.621316" NOx_abs="153.638226" fuel_abs="171.874528" electricity_abs="0"
            CO_normed="195.315518" CO2_normed="15792.392473" HC_normed="1.251392" PMx_normed="0.222025" NOx_normed="6.068244" fuel_normed="6.788522" electricity_normed="0"
            traveltime="1.45" CO_perVeh="10.873487" CO2_perVeh="879.184484" HC_perVeh="0.069667" PMx_perVeh="0.012360" NOx_perVeh="0.337828" fuel_perVeh="0.377927" electricity_perVeh="0"/>
        <edge id=":1110673534_1" sampledSeconds="263.54" CO_abs="4150.862996" CO2_abs="540020.901344" HC_abs="31.149767" PMx_abs="7.250837" NOx_abs="200.406102" fuel_abs="232.132371" electricity_abs="0"
            CO_normed="159.415313" CO2_normed="20739.687364" HC_normed="1.196317" PMx_normed="0.278471" NOx_normed="7.696665" fuel_normed="8.915123" electricity_normed="0"
            traveltime="1.22" CO_perVeh="19.258963" CO2_perVeh="2505.561506" HC_perVeh="0.144527" PMx_perVeh="0.033642" NOx_perVeh="0.929834" fuel_perVeh="1.077036" electricity_perVeh="0"/>
        <edge id=":1110673549_0" sampledSeconds="494.61" CO_abs="1039.226964" CO2_abs="104731.611480" HC_abs="7.080611" PMx_abs="1.486078" NOx_abs="39.615044" fuel_abs="45.019782" electricity_abs="0"
            CO_normed="39.762010" CO2_normed="4007.151021" HC_normed="0.270912" PMx_normed="0.056859" NOx_normed="1.515717" fuel_normed="1.722508" electricity_normed="0"
            traveltime="1.31" CO_perVeh="2.748487" CO2_perVeh="276.988089" HC_perVeh="0.018726" PMx_perVeh="0.003930" NOx_perVeh="0.104772" fuel_perVeh="0.119066" electricity_perVeh="0"/>
        <edge id=":1110673549_1" sampledSeconds="2359.43" CO_abs="50996.732853" CO2_abs="6746772.538762" HC_abs="393.162224" PMx_abs="118.390943" NOx_abs="2519.572552" fuel_abs="2900.128848" electricity_abs="0"
            CO_normed="1887.413295" CO2_normed="249701.254938" HC_normed="14.551121" PMx_normed="4.381705" NOx_normed="93.250576" fuel_normed="107.335146" electricity_normed="0"
            traveltime="0.81" CO_perVeh="17.407513" CO2_perVeh="2302.981456" HC_perVeh="0.134204" PMx_perVeh="0.040412" NOx_perVeh="0.860045" fuel_perVeh="0.989946" electricity_perVeh="0"/>
        <edge id=":1110673556_0" sampledSeconds="382.80" CO_abs="46642.412598" CO2_abs="2271992.426192" HC_abs="266.346235" PMx_abs="45.806707" NOx_abs="979.057177" fuel_abs="976.632305" electricity_abs="0"
            CO_normed="1323.330833" CO2_normed="64460.594156" HC_normed="7.556731" PMx_normed="1.299620" NOx_normed="27.777649" fuel_normed="27.708851" electricity_normed="0"
            traveltime="2.70" CO_perVeh="329.468989" CO2_perVeh="16048.720593" HC_perVeh="1.881395" PMx_perVeh="0.323566" NOx_perVeh="6.915787" fuel_perVeh="6.898658" electricity_perVeh="0"/>
        <edge id=":1110673556_2" sampledSeconds="175.80" CO_abs="17967.160084" CO2_abs="773331.889721" HC_abs="99.985920" PMx_abs="14.986572" NOx_abs="330.235565" fuel_abs="332.424902" electricity_abs="0"
            CO_normed="533.010967" CO2_normed="22941.543150" HC_normed="2.966167" PMx_normed="0.444589" NOx_normed="9.796717" fuel_normed="9.861665" electricity_normed="0"
            traveltime="3.04" CO_perVeh="310.677872" CO2_perVeh="13372.013430" HC_perVeh="1.728899" PMx_perVeh="0.259139" NOx_perVeh="5.710245" fuel_perVeh="5.748102" electricity_perVeh="0"/>
        <edge id=":1110673556_3" sampledSeconds="273.41" CO_abs="27121.029517" CO2_abs="933779.435407" HC_abs="145.301107" PMx_abs="18.344639" NOx_abs="401.634594" fuel_abs="401.399109" electricity_abs="0"
            CO_normed="1830.259514" CO2_normed="63015.996307" HC_normed="9.805628" PMx_normed="1.237986" NOx_normed="27.104264" fuel_normed="27.088372" electricity_normed="0"
            traveltime="1.85" CO_perVeh="183.429405" CO2_perVeh="6315.490557" HC_perVeh="0.982724" PMx_perVeh="0.124071" NOx_perVeh="2.716401" fuel_perVeh="2.714808" electricity_perVeh="0"/>
        <edge id=":1110673556_4" sampledSeconds="62.75" CO_abs="7099.495947" CO2_abs="277888.143721" HC_abs="38.868006" PMx_abs="5.556109" NOx_abs="119.962557" fuel_abs="119.453431" electricity_abs="0"
            CO_normed="292.698882" CO2_normed="11456.806183" HC_normed="1.602455" PMx_normed="0.229068" NOx_normed="4.945831" fuel_normed="4.924841" electricity_normed="0"
            traveltime="2.50" CO_perVeh="283.010389" CO2_perVeh="11077.579623" HC_perVeh="1.549413" PMx_perVeh="0.221486" NOx_perVeh="4.782121" fuel_perVeh="4.761826" electricity_perVeh="0"/>
        <edge id=":1110673556_5" sampledSeconds="22.24" CO_abs="1283.688560" CO2_abs="59975.603856" HC_abs="7.240152" PMx_abs="1.069341" NOx_abs="25.004931" fuel_abs="25.781197" electricity_abs="0"
            CO_normed="73.765407" CO2_normed="3446.416023" HC_normed="0.416045" PMx_normed="0.061448" NOx_normed="1.436874" fuel_normed="1.481481" electricity_normed="0"
            traveltime="1.54" CO_perVeh="88.748839" CO2_perVeh="4146.461501" HC_perVeh="0.500554" PMx_perVeh="0.073930" NOx_perVeh="1.728736" fuel_perVeh="1.782404" electricity_perVeh="0"/>
        <edge id=":1110673556_6" sampledSeconds="209.38" CO_abs="25182.061356" CO2_abs="1275150.593869" HC_abs="144.984103" PMx_abs="25.651513" NOx_abs="548.245092" fuel_abs="548.131992" electricity_abs="0"
            CO_normed="732.475774" CO2_normed="37090.566389" HC_normed="4.217182" PMx_normed="0.746131" NOx_normed="15.946917" fuel_normed="15.943627" electricity_normed="0"
            traveltime="2.48" CO_perVeh="297.687419" CO2_perVeh="15074.075283" HC_perVeh="1.713916" PMx_perVeh="0.303237" NOx_perVeh="6.481029" fuel_perVeh="6.479692" electricity_perVeh="0"/>
        <edge id=":1110673561_0" sampledSeconds="101.97" CO_abs="10066.156032" CO2_abs="716558.181087" HC_abs="63.097682" PMx_abs="14.522846" NOx_abs="303.556001" fuel_abs="308.014200" electricity_abs="0"
            CO_normed="367.876814" CO2_normed="26187.269476" HC_normed="2.305962" PMx_normed="0.530751" NOx_normed="11.093730" fuel_normed="11.256659" electricity_normed="0"
            traveltime="1.20" CO_perVeh="118.790411" CO2_perVeh="8456.082028" HC_perVeh="0.744614" PMx_perVeh="0.171384" NOx_perVeh="3.582255" fuel_perVeh="3.634867" electricity_perVeh="0"/>
        <edge id=":1110673561_1" sampledSeconds="3943.32" CO_abs="368126.959452" CO2_abs="25523989.204933" HC_abs="2293.890437" PMx_abs="533.676495" NOx_abs="10912.903785" fuel_abs="10971.529820" electricity_abs="0"
            CO_normed="13116.411694" CO2_normed="909423.072348" HC_normed="81.731616" PMx_normed="19.014963" NOx_normed="388.828189" fuel_normed="390.917042" electricity_normed="0"
            traveltime="1.19" CO_perVeh="111.188660" CO2_perVeh="7709.237481" HC_perVeh="0.692844" PMx_perVeh="0.161191" NOx_perVeh="3.296121" fuel_perVeh="3.313829" electricity_perVeh="0"/>
        <edge id=":1110673562_0" sampledSeconds="300.05" CO_abs="7393.369943" CO2_abs="562453.167454" HC_abs="46.533566" PMx_abs="7.879271" NOx_abs="216.694165" fuel_abs="241.776624" electricity_abs="0"
            CO_normed="16742.232661" CO2_normed="1273671.121953" HC_normed="105.374923" PMx_normed="17.842553" NOx_normed="490.702366" fuel_normed="547.501413" electricity_normed="0"
            traveltime="0.03" CO_perVeh="0.662752" CO2_perVeh="50.419109" HC_perVeh="0.004171" PMx_perVeh="0.000706" NOx_perVeh="0.019425" fuel_perVeh="0.021673" electricity_perVeh="0"/>
        <edge id=":1110673564_0" sampledSeconds="27.64" CO_abs="486.732270" CO2_abs="58451.115060" HC_abs="3.515588" PMx_abs="0.800483" NOx_abs="21.828653" fuel_abs="25.125686" electricity_abs="0"
            CO_normed="2975.944585" CO2_normed="357377.741535" HC_normed="21.494763" PMx_normed="4.894258" NOx_normed="133.463230" fuel_normed="153.621720" electricity_normed="0"
            traveltime="7.805831e-03" CO_perVeh="0.137476" CO2_perVeh="16.509283" HC_perVeh="0.000993" PMx_perVeh="0.000226" NOx_perVeh="0.006165" fuel_perVeh="0.007097" electricity_perVeh="0"/>
        <edge id=":1110673588_0" sampledSeconds="62.85" CO_abs="1189.826714" CO2_abs="129646.596851" HC_abs="8.407149" PMx_abs="1.811116" NOx_abs="48.995975" fuel_abs="55.729665" electricity_abs="0"
            CO_normed="2909.902289" CO2_normed="317070.481429" HC_normed="20.560962" PMx_normed="4.429360" NOx_normed="119.827112" fuel_normed="136.295376" electricity_normed="0"
            traveltime="0.02" CO_perVeh="0.383815" CO2_perVeh="41.821483" HC_perVeh="0.002712" PMx_perVeh="0.000584" NOx_perVeh="0.015805" fuel_perVeh="0.017977" electricity_perVeh="0"/>
        <edge id=":1110673601_0" sampledSeconds="28.87" CO_abs="432.602870" CO2_abs="50722.521610" HC_abs="3.141633" PMx_abs="0.706109" NOx_abs="19.056675" fuel_abs="21.803482" electricity_abs="0"
            CO_normed="944.639420" CO2_normed="110758.611822" HC_normed="6.860126" PMx_normed="1.541872" NOx_normed="41.612499" fuel_normed="47.610477" electricity_normed="0"
            traveltime="0.02" CO_perVeh="0.329880" CO2_perVeh="38.678357" HC_perVeh="0.002396" PMx_perVeh="0.000538" NOx_perVeh="0.014532" fuel_perVeh="0.016626" electricity_perVeh="0"/>
        <edge id=":1110673617_0" sampledSeconds="808.97" CO_abs="31080.486632" CO2_abs="3108690.560502" HC_abs="216.201034" PMx_abs="58.929499" NOx_abs="1222.041554" fuel_abs="1336.280303" electricity_abs="0"
            CO_normed="63343.383083" CO2_normed="6335646.522762" HC_normed="440.627106" PMx_normed="120.100882" NOx_normed="2490.573820" fuel_normed="2723.397356" electricity_normed="0"
            traveltime="0.02" CO_perVeh="0.581600" CO2_perVeh="58.171984" HC_perVeh="0.004046" PMx_perVeh="0.001103" NOx_perVeh="0.022868" fuel_perVeh="0.025005" electricity_perVeh="0"/>
        <edge id=":1110673621_0" sampledSeconds="26.32" CO_abs="552.792364" CO2_abs="53207.713308" HC_abs="3.755271" PMx_abs="0.807847" NOx_abs="20.618131" fuel_abs="22.871724" electricity_abs="0"
            CO_normed="1351.937847" CO2_normed="130127.559720" HC_normed="9.184086" PMx_normed="1.975712" NOx_normed="50.424777" fuel_normed="55.936282" electricity_normed="0"
            traveltime="0.02" CO_perVeh="0.418782" CO2_perVeh="40.308874" HC_perVeh="0.002845" PMx_perVeh="0.000612" NOx_perVeh="0.015620" fuel_perVeh="0.017327" electricity_perVeh="0"/>
        <edge id=":1110673630_0" sampledSeconds="218.66" CO_abs="1075.998385" CO2_abs="96117.730976" HC_abs="7.090991" PMx_abs="1.258571" NOx_abs="36.219879" fuel_abs="41.317253" electricity_abs="0"
            CO_normed="46.924354" CO2_normed="4191.700031" HC_normed="0.309239" PMx_normed="0.054886" NOx_normed="1.579551" fuel_normed="1.801848" electricity_normed="0"
            traveltime="1.29" CO_perVeh="6.328367" CO2_perVeh="565.305915" HC_perVeh="0.041705" PMx_perVeh="0.007402" NOx_perVeh="0.213023" fuel_perVeh="0.243003" electricity_perVeh="0"/>
        <edge id=":1110673630_1" sampledSeconds="248.06" CO_abs="1111.315748" CO2_abs="88893.127592" HC_abs="7.083084" PMx_abs="1.174422" NOx_abs="33.728441" fuel_abs="38.211745" electricity_abs="0"
            CO_normed="59.084604" CO2_normed="4726.123277" HC_normed="0.376582" PMx_normed="0.062440" NOx_normed="1.793218" fuel_normed="2.031579" electricity_normed="0"
            traveltime="1.07" CO_perVeh="4.795546" CO2_perVeh="383.591357" HC_perVeh="0.030565" PMx_perVeh="0.005068" NOx_perVeh="0.145545" fuel_perVeh="0.164891" electricity_perVeh="0"/>
        <edge id=":1110673650_0" sampledSeconds="199.79" CO_abs="2979.233120" CO2_abs="363863.520073" HC_abs="21.898081" PMx_abs="5.010823" NOx_abs="136.206835" fuel_abs="156.409629" electricity_abs="0"
            CO_normed="6071.806631" CO2_normed="741569.674062" HC_normed="44.629241" PMx_normed="10.212274" NOx_normed="277.595451" fuel_normed="318.769624" electricity_normed="0"
            traveltime="0.02" CO_perVeh="0.344327" CO2_perVeh="42.053803" HC_perVeh="0.002531" PMx_perVeh="0.000579" NOx_perVeh="0.015742" fuel_perVeh="0.018077" electricity_perVeh="0"/>
        <edge id=":1110673655_0" sampledSeconds="20.63" CO_abs="333.579468" CO2_abs="39517.092389" HC_abs="2.421639" PMx_abs="0.548777" NOx_abs="14.822252" fuel_abs="16.986738" electricity_abs="0"
            CO_normed="679.849460" CO2_normed="80537.552424" HC_normed="4.935405" PMx_normed="1.118431" NOx_normed="30.208393" fuel_normed="34.619710" electricity_normed="0"
            traveltime="0.02" CO_perVeh="0.381089" CO2_perVeh="45.145193" HC_perVeh="0.002767" PMx_perVeh="0.000627" NOx_perVeh="0.016933" fuel_perVeh="0.019406" electricity_perVeh="0"/>
        <edge id=":1110673663_0" sampledSeconds="111.06" CO_abs="1598.751746" CO2_abs="199617.431738" HC_abs="11.807651" PMx_abs="2.618438" NOx_abs="73.895470" fuel_abs="85.807305" electricity_abs="0"
            CO_normed="59.676292" CO2_normed="7451.080676" HC_normed="0.440742" PMx_normed="0.097738" NOx_normed="2.758282" fuel_normed="3.202912" electricity_normed="0"
            traveltime="1.30" CO_perVeh="18.778093" CO2_perVeh="2344.600906" HC_perVeh="0.138686" PMx_perVeh="0.030755" NOx_perVeh="0.867937" fuel_perVeh="1.007847" electricity_perVeh="0"/>
        <edge id=":1110673663_1" sampledSeconds="171.19" CO_abs="2971.141177" CO2_abs="340292.159443" HC_abs="21.358083" PMx_abs="4.754048" NOx_abs="128.230840" fuel_abs="146.277311" electricity_abs="0"
            CO_normed="111.038782" CO2_normed="12717.546753" HC_normed="0.798204" PMx_normed="0.177670" NOx_normed="4.792299" fuel_normed="5.466739" electricity_normed="0"
            traveltime="1.28" CO_perVeh="22.151878" CO2_perVeh="2537.109424" HC_perVeh="0.159239" PMx_perVeh="0.035445" NOx_perVeh="0.956048" fuel_perVeh="1.090597" electricity_perVeh="0"/>