<?xml version="1.0" encoding="UTF-8"?>

<!-- generated on qua 21 out 2020 00:57:08 WEST by Eclipse SUMO GUI Version 1.7.0
<configuration xmlns:xsi="http://www.w3.org/2001/XMLSchema-instance" xsi:noNamespaceSchemaLocation="http://sumo.dlr.de/xsd/sumoConfiguration.xsd">

    <input>
        <net-file value="../dataSets/Angeja_Estarreja/angeja_estarreja.net.xml"/>
        <route-files value="../results/angeja_estarreja/length-ttime/solution6/angeja_estarreja.rou.xml"/>
        <additional-files value="moreOutputInfo.xml"/>
    </input>

    <output>
        <emission-output.precision value="6"/>
        <tripinfo-output value="../results/angeja_estarreja/length-ttime/solution6/angeja_estarreja-tripinfo"/>
    </output>

    <processing>
        <collision.action value="warn"/>
        <time-to-teleport value="-1"/>
    </processing>

    <emissions>
        <device.emissions.probability value="1"/>
    </emissions>

    <gui_only>
        <gui-settings-file value="gui-settings.xml"/>
        <quit-on-end value="true"/>
        <game value="true"/>
        <start value="true"/>-->

<meandata xmlns:xsi="http://ww-->

<meandata xmlns:xsi="http://www.w3.org/2001/XMLSchema-instance" xsi:noNamespaceSchemaLocation="http://sumo.dlr.de/xsd/meandata_file.xsd">
    <interval begin="0.00" end="13543.00" id="emissions-detector">
        <edge id=":10_0" sampledSeconds="294.57" CO_abs="30171.459572" CO2_abs="1653601.513028" HC_abs="176.603539" PMx_abs="32.375137" NOx_abs="705.351148" fuel_abs="710.810864" electricity_abs="0"
            CO_normed="458.557850" CO2_normed="25132.093908" HC_normed="2.684091" PMx_normed="0.492050" NOx_normed="10.720207" fuel_normed="10.803186" electricity_normed="0"
            traveltime="1.92" CO_perVeh="196.892767" CO2_perVeh="10791.064893" HC_perVeh="1.152479" PMx_perVeh="0.211274" NOx_perVeh="4.602977" fuel_perVeh="4.638606" electricity_perVeh="0"/>
        <edge id=":10_1" sampledSeconds="0.00" CO_abs="0" CO2_abs="0" HC_abs="0" PMx_abs="0" NOx_abs="0" fuel_abs="0" electricity_abs="0"
            CO_normed="0" CO2_normed="0" HC_normed="0" PMx_normed="0" NOx_normed="0" fuel_normed="0" electricity_normed="0"/>
        <edge id=":100_0" sampledSeconds="0.00" CO_abs="0" CO2_abs="0" HC_abs="0" PMx_abs="0" NOx_abs="0" fuel_abs="0" electricity_abs="0"
            CO_normed="0" CO2_normed="0" HC_normed="0" PMx_normed="0" NOx_normed="0" fuel_normed="0" electricity_normed="0"/>
        <edge id=":100_1" sampledSeconds="657.36" CO_abs="15952.369765" CO2_abs="2019224.459833" HC_abs="121.658164" PMx_abs="36.478387" NOx_abs="753.613458" fuel_abs="867.972066" electricity_abs="0"
            CO_normed="143.452592" CO2_normed="18157.990770" HC_normed="1.094018" PMx_normed="0.328034" NOx_normed="6.776912" fuel_normed="7.805288" electricity_normed="0"
            traveltime="1.37" CO_perVeh="33.278126" CO2_perVeh="4212.289955" HC_perVeh="0.253790" PMx_perVeh="0.076097" NOx_perVeh="1.572108" fuel_perVeh="1.810670" electricity_perVeh="0"/>
        <edge id=":101_0" sampledSeconds="329.78" CO_abs="8610.762617" CO2_abs="1078590.089197" HC_abs="65.434898" PMx_abs="19.547578" NOx_abs="403.309297" fuel_abs="463.636406" electricity_abs="0"
            CO_normed="280.160680" CO2_normed="35093.120784" HC_normed="2.128997" PMx_normed="0.636002" NOx_normed="13.122114" fuel_normed="15.084923" electricity_normed="0"
            traveltime="0.38" CO_perVeh="9.882107" CO2_perVeh="1237.839592" HC_perVeh="0.075096" PMx_perVeh="0.022434" NOx_perVeh="0.462856" fuel_perVeh="0.532090" electricity_perVeh="0"/>
        <edge id=":102_0" sampledSeconds="246.45" CO_abs="5417.197565" CO2_abs="678032.466278" HC_abs="41.155732" PMx_abs="12.293176" NOx_abs="253.519565" fuel_abs="291.455057" electricity_abs="0"
            CO_normed="177.777698" CO2_normed="22251.182367" HC_normed="1.350619" PMx_normed="0.403429" NOx_normed="8.319823" fuel_normed="9.564763" electricity_normed="0"
            traveltime="0.38" CO_perVeh="8.268115" CO2_perVeh="1034.861736" HC_perVeh="0.062815" PMx_perVeh="0.018763" NOx_perVeh="0.386940" fuel_perVeh="0.444840" electricity_perVeh="0"/>
        <edge id=":103_0" sampledSeconds="326.83" CO_abs="7525.056252" CO2_abs="954530.662548" HC_abs="57.442976" PMx_abs="17.238582" NOx_abs="356.028559" fuel_abs="410.309006" electricity_abs="0"
            CO_normed="248.485753" CO2_normed="31519.667378" HC_normed="1.896831" PMx_normed="0.569237" NOx_normed="11.756460" fuel_normed="13.548861" electricity_normed="0"
            traveltime="0.37" CO_perVeh="8.589029" CO2_perVeh="1089.492377" HC_perVeh="0.065565" PMx_perVeh="0.019676" NOx_perVeh="0.406368" fuel_perVeh="0.468323" electricity_perVeh="0"/>
        <edge id=":104_0" sampledSeconds="245.81" CO_abs="6090.381322" CO2_abs="768064.784797" HC_abs="46.373846" PMx_abs="13.891145" NOx_abs="286.760534" fuel_abs="330.155849" electricity_abs="0"
            CO_normed="200.116817" CO2_normed="25236.955049" HC_normed="1.523745" PMx_normed="0.456433" NOx_normed="9.422334" fuel_normed="10.848210" electricity_normed="0"
            traveltime="0.37" CO_perVeh="9.291331" CO2_perVeh="1171.740118" HC_perVeh="0.070747" PMx_perVeh="0.021192" NOx_perVeh="0.437475" fuel_perVeh="0.503677" electricity_perVeh="0"/>
        <edge id=":105_0" sampledSeconds="126.62" CO_abs="2935.540058" CO2_abs="376388.319474" HC_abs="22.495700" PMx_abs="6.776645" NOx_abs="140.114525" fuel_abs="161.792114" electricity_abs="0"
            CO_normed="3546.932736" CO2_normed="454779.708439" HC_normed="27.180939" PMx_normed="8.188034" NOx_normed="169.296547" fuel_normed="195.488985" electricity_normed="0"
            traveltime="0.01" CO_perVeh="0.236261" CO2_perVeh="30.292822" HC_perVeh="0.001811" PMx_perVeh="0.000545" NOx_perVeh="0.011277" fuel_perVeh="0.013021" electricity_perVeh="0"/>
        <edge id=":106_0" sampledSeconds="96.95" CO_abs="2190.968647" CO2_abs="273217.941712" HC_abs="16.627053" PMx_abs="4.958970" NOx_abs="102.244369" fuel_abs="117.443856" electricity_abs="0"
            CO_normed="1878.720141" CO2_normed="234279.961357" HC_normed="14.257429" PMx_normed="4.252237" NOx_normed="87.672891" fuel_normed="100.706205" electricity_normed="0"
            traveltime="0.01" CO_perVeh="0.325010" CO2_perVeh="40.529416" HC_perVeh="0.002466" PMx_perVeh="0.000736" NOx_perVeh="0.015167" fuel_perVeh="0.017422" electricity_perVeh="0"/>
        <edge id=":107_0" sampledSeconds="318.84" CO_abs="8043.683296" CO2_abs="973470.145613" HC_abs="60.300071" PMx_abs="17.812428" NOx_abs="366.125380" fuel_abs="418.450029" electricity_abs="0"
            CO_normed="261.710127" CO2_normed="31672.927224" HC_normed="1.961929" PMx_normed="0.579547" NOx_normed="11.912294" fuel_normed="13.614734" electricity_normed="0"
            traveltime="0.38" CO_perVeh="9.560990" CO2_perVeh="1157.099078" HC_perVeh="0.071675" PMx_perVeh="0.021172" NOx_perVeh="0.435189" fuel_perVeh="0.497384" electricity_perVeh="0"/>
        <edge id=":108_0" sampledSeconds="65.27" CO_abs="5087.971331" CO2_abs="378873.930797" HC_abs="32.260521" PMx_abs="7.524229" NOx_abs="158.983377" fuel_abs="162.859926" electricity_abs="0"
            CO_normed="112.425972" CO2_normed="8371.759020" HC_normed="0.712842" PMx_normed="0.166259" NOx_normed="3.512964" fuel_normed="3.598622" electricity_normed="0"
            traveltime="0.85" CO_perVeh="66.250483" CO2_perVeh="4933.318086" HC_perVeh="0.420064" PMx_perVeh="0.097973" NOx_perVeh="2.070123" fuel_perVeh="2.120599" electricity_perVeh="0"/>
        <edge id=":108_1" sampledSeconds="298.63" CO_abs="7100.688933" CO2_abs="899755.308836" HC_abs="54.198286" PMx_abs="16.247096" NOx_abs="335.937434" fuel_abs="386.763568" electricity_abs="0"
            CO_normed="146.318217" CO2_normed="18540.537901" HC_normed="1.116821" PMx_normed="0.334791" NOx_normed="6.922394" fuel_normed="7.969727" electricity_normed="0"
            traveltime="0.60" CO_perVeh="14.257524" CO2_perVeh="1806.625079" HC_perVeh="0.108825" PMx_perVeh="0.032623" NOx_perVeh="0.674531" fuel_perVeh="0.776585" electricity_perVeh="0"/>
        <edge id=":109_0" sampledSeconds="221.84" CO_abs="111.318850" CO2_abs="18501.449856" HC_abs="0.926651" PMx_abs="0.238977" NOx_abs="6.705127" fuel_abs="7.952997" electricity_abs="0"
            CO_normed="2.357831" CO2_normed="391.876896" HC_normed="0.019627" PMx_normed="0.005062" NOx_normed="0.142020" fuel_normed="0.168451" electricity_normed="0"
            traveltime="0.86" CO_perVeh="0.431842" CO2_perVeh="71.773112" HC_perVeh="0.003595" PMx_perVeh="0.000927" NOx_perVeh="0.026011" fuel_perVeh="0.030852" electricity_perVeh="0"/>
        <edge id=":109_1" sampledSeconds="382.94" CO_abs="8661.886090" CO2_abs="1097808.502143" HC_abs="66.100523" PMx_abs="19.829623" NOx_abs="409.565891" fuel_abs="471.897580" electricity_abs="0"
            CO_normed="119.672682" CO2_normed="15167.330300" HC_normed="0.913245" PMx_normed="0.273966" NOx_normed="5.658565" fuel_normed="6.519740" electricity_normed="0"
            traveltime="0.89" CO_perVeh="20.194302" CO2_perVeh="2559.428296" HC_perVeh="0.154107" PMx_perVeh="0.046231" NOx_perVeh="0.954861" fuel_perVeh="1.100181" electricity_perVeh="0"/>
        <edge id=":11_0" sampledSeconds="207.49" CO_abs="13318.205593" CO2_abs="930807.006908" HC_abs="82.735520" PMx_abs="17.373056" NOx_abs="387.073495" fuel_abs="400.111793" electricity_abs="0"
            CO_normed="193.986036" CO2_normed="13557.649354" HC_normed="1.205082" PMx_normed="0.253047" NOx_normed="5.637911" fuel_normed="5.827820" electricity_normed="0"
            traveltime="1.58" CO_perVeh="101.612564" CO2_perVeh="7101.683895" HC_perVeh="0.631239" PMx_perVeh="0.132549" NOx_perVeh="2.953215" fuel_perVeh="3.052692" electricity_perVeh="0"/>
        <edge id=":11_1" sampledSeconds="35.88" CO_abs="748.049193" CO2_abs="63219.196343" HC_abs="4.855555" PMx_abs="0.879326" NOx_abs="24.206003" fuel_abs="27.175411" electricity_abs="0"
            CO_normed="11.171147" CO2_normed="944.096941" HC_normed="0.072511" PMx_normed="0.013132" NOx_normed="0.361485" fuel_normed="0.405830" electricity_normed="0"
            traveltime="1.67" CO_perVeh="34.733992" CO2_perVeh="2935.442011" HC_perVeh="0.225457" PMx_perVeh="0.040830" NOx_perVeh="1.123952" fuel_perVeh="1.261829" electricity_perVeh="0"/>
        <edge id=":110_0" sampledSeconds="68.89" CO_abs="3.163199" CO2_abs="467.749195" HC_abs="0.024861" PMx_abs="0.004523" NOx_abs="0.163384" fuel_abs="0.201068" electricity_abs="0"
            CO_normed="0.057790" CO2_normed="8.545504" HC_normed="0.000454" PMx_normed="0.000083" NOx_normed="0.002985" fuel_normed="0.003673" electricity_normed="0"
            traveltime="0.93" CO_perVeh="0.042584" CO2_perVeh="6.296957" HC_perVeh="0.000335" PMx_perVeh="0.000061" NOx_perVeh="0.002200" fuel_perVeh="0.002707" electricity_perVeh="0"/>
        <edge id=":110_1" sampledSeconds="328.30" CO_abs="8391.764113" CO2_abs="1007545.605904" HC_abs="62.698142" PMx_abs="18.483482" NOx_abs="379.214598" fuel_abs="433.097485" electricity_abs="0"
            CO_normed="151.748202" CO2_normed="18219.439022" HC_normed="1.133770" PMx_normed="0.334237" NOx_normed="6.857334" fuel_normed="7.831698" electricity_normed="0"
            traveltime="0.68" CO_perVeh="17.424131" CO2_perVeh="2092.004281" HC_perVeh="0.130182" PMx_perVeh="0.038378" NOx_perVeh="0.787377" fuel_perVeh="0.899256" electricity_perVeh="0"/>
        <edge id=":111_0" sampledSeconds="251.58" CO_abs="5959.546273" CO2_abs="748495.018073" HC_abs="45.311749" PMx_abs="13.554360" NOx_abs="279.629982" fuel_abs="321.743692" electricity_abs="0"
            CO_normed="193.900425" CO2_normed="24353.112770" HC_normed="1.474268" PMx_normed="0.441006" NOx_normed="9.098071" fuel_normed="10.468287" electricity_normed="0"
            traveltime="0.38" CO_perVeh="8.972740" CO2_perVeh="1126.940019" HC_perVeh="0.068222" PMx_perVeh="0.020408" NOx_perVeh="0.421013" fuel_perVeh="0.484420" electricity_perVeh="0"/>
        <edge id=":114_0" sampledSeconds="78.25" CO_abs="7769.328584" CO2_abs="552326.441089" HC_abs="48.706012" PMx_abs="11.304164" NOx_abs="234.540988" fuel_abs="237.418661" electricity_abs="0"
            CO_normed="145.439632" CO2_normed="10339.394646" HC_normed="0.911763" PMx_normed="0.211611" NOx_normed="4.390541" fuel_normed="4.444410" electricity_normed="0"
            traveltime="0.99" CO_perVeh="98.675789" CO2_perVeh="7014.923718" HC_perVeh="0.618600" PMx_perVeh="0.143571" NOx_perVeh="2.978831" fuel_perVeh="3.015379" electricity_perVeh="0"/>
        <edge id=":114_1" sampledSeconds="303.85" CO_abs="7345.629208" CO2_abs="905314.690447" HC_abs="55.446580" PMx_abs="16.475128" NOx_abs="339.471212" fuel_abs="389.153200" electricity_abs="0"
            CO_normed="136.642058" CO2_normed="16840.499205" HC_normed="1.031407" PMx_normed="0.306467" NOx_normed="6.314782" fuel_normed="7.238957" electricity_normed="0"
            traveltime="0.66" CO_perVeh="16.026395" CO2_perVeh="1975.178774" HC_perVeh="0.120971" PMx_perVeh="0.035945" NOx_perVeh="0.740644" fuel_perVeh="0.849039" electricity_perVeh="0"/>
        <edge id=":115_0" sampledSeconds="59.38" CO_abs="50.884775" CO2_abs="7354.891589" HC_abs="0.400224" PMx_abs="0.090897" NOx_abs="2.676094" fuel_abs="3.161568" electricity_abs="0"
            CO_normed="1.619903" CO2_normed="234.140975" HC_normed="0.012741" PMx_normed="0.002894" NOx_normed="0.085193" fuel_normed="0.100648" electricity_normed="0"
            traveltime="0.64" CO_perVeh="0.549732" CO2_perVeh="79.458332" HC_perVeh="0.004324" PMx_perVeh="0.000982" NOx_perVeh="0.028911" fuel_perVeh="0.034156" electricity_perVeh="0"/>
        <edge id=":115_1" sampledSeconds="51.91" CO_abs="730.773681" CO2_abs="119635.642177" HC_abs="6.000219" PMx_abs="1.751573" NOx_abs="44.099190" fuel_abs="51.426080" electricity_abs="0"
            CO_normed="20.775855" CO2_normed="3401.234664" HC_normed="0.170586" PMx_normed="0.049797" NOx_normed="1.253738" fuel_normed="1.462041" electricity_normed="0"
            traveltime="0.58" CO_perVeh="8.213408" CO2_perVeh="1344.624660" HC_perVeh="0.067438" PMx_perVeh="0.019687" NOx_perVeh="0.495645" fuel_perVeh="0.577995" electricity_perVeh="0"/>
        <edge id=":116_0" sampledSeconds="52.68" CO_abs="56.328002" CO2_abs="10404.281554" HC_abs="0.490784" PMx_abs="0.126086" NOx_abs="3.728909" fuel_abs="4.472370" electricity_abs="0"
            CO_normed="2.001752" CO2_normed="369.741434" HC_normed="0.017441" PMx_normed="0.004481" NOx_normed="0.132516" fuel_normed="0.158937" electricity_normed="0"
            traveltime="0.56" CO_perVeh="0.593980" CO2_perVeh="109.713291" HC_perVeh="0.005175" PMx_perVeh="0.001330" NOx_perVeh="0.039321" fuel_perVeh="0.047161" electricity_perVeh="0"/>
        <edge id=":117_0" sampledSeconds="171.99" CO_abs="9782.160278" CO2_abs="819387.775581" HC_abs="64.055954" PMx_abs="14.975510" NOx_abs="334.013561" fuel_abs="352.217020" electricity_abs="0"
            CO_normed="311.412414" CO2_normed="26084.987159" HC_normed="2.039204" PMx_normed="0.476741" NOx_normed="10.633231" fuel_normed="11.212733" electricity_normed="0"
            traveltime="0.60" CO_perVeh="34.347052" CO2_perVeh="2877.028557" HC_perVeh="0.224913" PMx_perVeh="0.052582" NOx_perVeh="1.172786" fuel_perVeh="1.236702" electricity_perVeh="0"/>
        <edge id=":117_1" sampledSeconds="54.60" CO_abs="3495.795794" CO2_abs="289878.400430" HC_abs="22.810297" PMx_abs="5.333855" NOx_abs="118.457620" fuel_abs="124.605323" electricity_abs="0"
            CO_normed="104.881757" CO2_normed="8697.005738" HC_normed="0.684360" PMx_normed="0.160028" NOx_normed="3.553996" fuel_normed="3.738441" electricity_normed="0"
            traveltime="0.63" CO_perVeh="40.638122" CO2_perVeh="3369.794568" HC_perVeh="0.265166" PMx_perVeh="0.062005" NOx_perVeh="1.377053" fuel_perVeh="1.448519" electricity_perVeh="0"/>
        <edge id=":118_0" sampledSeconds="630.99" CO_abs="9010.038315" CO2_abs="1434247.733514" HC_abs="72.956324" PMx_abs="21.087174" NOx_abs="529.974727" fuel_abs="616.519757" electricity_abs="0"
            CO_normed="38.511790" CO2_normed="6130.434234" HC_normed="0.311839" PMx_normed="0.090133" NOx_normed="2.265282" fuel_normed="2.635203" electricity_normed="0"
            traveltime="3.91" CO_perVeh="55.828342" CO2_perVeh="8886.940371" HC_perVeh="0.452055" PMx_perVeh="0.130661" NOx_perVeh="3.283850" fuel_perVeh="3.820103" electricity_perVeh="0"/>
        <edge id=":118_4" sampledSeconds="219.48" CO_abs="3072.649665" CO2_abs="475078.255977" HC_abs="24.822908" PMx_abs="7.030874" NOx_abs="176.066757" fuel_abs="204.215190" electricity_abs="0"
            CO_normed="13.158880" CO2_normed="2034.562476" HC_normed="0.106306" PMx_normed="0.030110" NOx_normed="0.754021" fuel_normed="0.874569" electricity_normed="0"
            traveltime="3.92" CO_perVeh="54.888957" CO2_perVeh="8486.665481" HC_perVeh="0.443429" PMx_perVeh="0.125598" NOx_perVeh="3.145207" fuel_perVeh="3.648043" electricity_perVeh="0"/>
        <edge id=":118_5" sampledSeconds="169.50" CO_abs="2299.519781" CO2_abs="379845.404189" HC_abs="18.902353" PMx_abs="5.532477" NOx_abs="139.936153" fuel_abs="163.278774" electricity_abs="0"
            CO_normed="9.945628" CO2_normed="1642.865246" HC_normed="0.081754" PMx_normed="0.023928" NOx_normed="0.605236" fuel_normed="0.706195" electricity_normed="0"
            traveltime="3.84" CO_perVeh="52.062169" CO2_perVeh="8599.872004" HC_perVeh="0.427958" PMx_perVeh="0.125258" NOx_perVeh="3.168218" fuel_perVeh="3.696705" electricity_perVeh="0"/>
        <edge id=":119_0" sampledSeconds="101.47" CO_abs="1261.643304" CO2_abs="215282.013264" HC_abs="10.484987" PMx_abs="3.081007" NOx_abs="78.915029" fuel_abs="92.540282" electricity_abs="0"
            CO_normed="38.110227" CO2_normed="6502.984163" HC_normed="0.316718" PMx_normed="0.093067" NOx_normed="2.383772" fuel_normed="2.795347" electricity_normed="0"
            traveltime="0.56" CO_perVeh="6.943812" CO2_perVeh="1184.865668" HC_perVeh="0.057707" PMx_perVeh="0.016957" NOx_perVeh="0.434331" fuel_perVeh="0.509322" electricity_perVeh="0"/>
        <edge id=":12_0" sampledSeconds="433.71" CO_abs="38728.682180" CO2_abs="2198232.008565" HC_abs="228.514039" PMx_abs="42.869742" NOx_abs="935.340018" fuel_abs="944.922865" electricity_abs="0"
            CO_normed="511.164725" CO2_normed="29013.604286" HC_normed="3.016067" PMx_normed="0.565821" NOx_normed="12.345187" fuel_normed="12.471667" electricity_normed="0"
            traveltime="2.13" CO_perVeh="190.086558" CO2_perVeh="10789.273782" HC_perVeh="1.121583" PMx_perVeh="0.210412" NOx_perVeh="4.590798" fuel_perVeh="4.637832" electricity_perVeh="0"/>
        <edge id=":12_1" sampledSeconds="39.42" CO_abs="699.044922" CO2_abs="63556.796554" HC_abs="4.633083" PMx_abs="0.833922" NOx_abs="23.947053" fuel_abs="27.320569" electricity_abs="0"
            CO_normed="9.217267" CO2_normed="838.029089" HC_normed="0.061090" PMx_normed="0.010996" NOx_normed="0.315754" fuel_normed="0.360236" electricity_normed="0"
            traveltime="1.88" CO_perVeh="33.279207" CO2_perVeh="3025.727958" HC_perVeh="0.220566" PMx_perVeh="0.039700" NOx_perVeh="1.140040" fuel_perVeh="1.300642" electricity_perVeh="0"/>
        <edge id=":120_0" sampledSeconds="29.00" CO_abs="489.174968" CO2_abs="73526.550644" HC_abs="3.870283" PMx_abs="1.102047" NOx_abs="27.358949" fuel_abs="31.605803" electricity_abs="0"
            CO_normed="541.802002" CO2_normed="81436.776169" HC_normed="4.286661" PMx_normed="1.220609" NOx_normed="30.302314" fuel_normed="35.006058" electricity_normed="0"
            traveltime="0.01" CO_perVeh="0.252993" CO2_perVeh="38.026638" HC_perVeh="0.002002" PMx_perVeh="0.000570" NOx_perVeh="0.014150" fuel_perVeh="0.016346" electricity_perVeh="0"/>
        <edge id=":121_0" sampledSeconds="262.31" CO_abs="37507.947098" CO2_abs="1014041.697174" HC_abs="194.616333" PMx_abs="21.915408" NOx_abs="448.652133" fuel_abs="435.904934" electricity_abs="0"
            CO_normed="30213.217508" CO2_normed="816825.892349" HC_normed="156.766394" PMx_normed="17.653192" NOx_normed="361.396065" fuel_normed="351.128003" electricity_normed="0"
            traveltime="0.11" CO_perVeh="16.243599" CO2_perVeh="439.151916" HC_perVeh="0.084283" PMx_perVeh="0.009491" NOx_perVeh="0.194298" fuel_perVeh="0.188778" electricity_perVeh="0"/>
        <edge id=":122_0" sampledSeconds="98.08" CO_abs="584.913076" CO2_abs="68201.485191" HC_abs="4.238970" PMx_abs="1.141512" NOx_abs="26.405353" fuel_abs="29.316704" electricity_abs="0"
            CO_normed="18.142542" CO2_normed="2115.439613" HC_normed="0.131482" PMx_normed="0.035407" NOx_normed="0.819028" fuel_normed="0.909331" electricity_normed="0"
            traveltime="0.54" CO_perVeh="3.206658" CO2_perVeh="373.899743" HC_perVeh="0.023239" PMx_perVeh="0.006258" NOx_perVeh="0.144762" fuel_perVeh="0.160722" electricity_perVeh="0"/>
        <edge id=":123_0" sampledSeconds="238.25" CO_abs="31212.579723" CO2_abs="1927404.199380" HC_abs="188.451133" PMx_abs="39.700819" NOx_abs="827.355538" fuel_abs="828.501040" electricity_abs="0"
            CO_normed="167.682444" CO2_normed="10354.538142" HC_normed="1.012411" PMx_normed="0.213284" NOx_normed="4.444778" fuel_normed="4.450932" electricity_normed="0"
            traveltime="4.18" CO_perVeh="547.666791" CO2_perVeh="33818.905157" HC_perVeh="3.306629" PMx_perVeh="0.696604" NOx_perVeh="14.517068" fuel_perVeh="14.537168" electricity_perVeh="0"/>
        <edge id=":123_1" sampledSeconds="0.00" CO_abs="0" CO2_abs="0" HC_abs="0" PMx_abs="0" NOx_abs="0" fuel_abs="0" electricity_abs="0"
            CO_normed="0" CO2_normed="0" HC_normed="0" PMx_normed="0" NOx_normed="0" fuel_normed="0" electricity_normed="0"/>
        <edge id=":123_2" sampledSeconds="189.10" CO_abs="25175.427461" CO2_abs="1537776.820085" HC_abs="151.593644" PMx_abs="31.744576" NOx_abs="661.066367" fuel_abs="661.018502" electricity_abs="0"
            CO_normed="136.546249" CO2_normed="8340.579571" HC_normed="0.822212" PMx_normed="0.172176" NOx_normed="3.585486" fuel_normed="3.585226" electricity_normed="0"
            traveltime="4.20" CO_perVeh="559.781368" CO2_perVeh="34192.818104" HC_perVeh="3.370719" PMx_perVeh="0.705848" NOx_perVeh="14.698961" fuel_perVeh="14.697897" electricity_perVeh="0"/>
        <edge id=":123_3" sampledSeconds="327.16" CO_abs="15978.070821" CO2_abs="1500259.007819" HC_abs="108.133738" PMx_abs="28.026986" NOx_abs="602.214830" fuel_abs="644.890830" electricity_abs="0"
            CO_normed="88.669947" CO2_normed="8325.653876" HC_normed="0.600086" PMx_normed="0.155535" NOx_normed="3.341978" fuel_normed="3.578807" electricity_normed="0"
            traveltime="2.81" CO_perVeh="137.137306" CO2_perVeh="12876.490615" HC_perVeh="0.928095" PMx_perVeh="0.240551" NOx_perVeh="5.168717" fuel_perVeh="5.534998" electricity_perVeh="0"/>
        <edge id=":123_5" sampledSeconds="0.00" CO_abs="0" CO2_abs="0" HC_abs="0" PMx_abs="0" NOx_abs="0" fuel_abs="0" electricity_abs="0"
            CO_normed="0" CO2_normed="0" HC_normed="0" PMx_normed="0" NOx_normed="0" fuel_normed="0" electricity_normed="0"/>
        <edge id=":123_6" sampledSeconds="140.01" CO_abs="6967.505380" CO2_abs="643926.857612" HC_abs="46.984833" PMx_abs="12.131857" NOx_abs="259.302729" fuel_abs="276.793821" electricity_abs="0"
            CO_normed="37.348299" CO2_normed="3451.676244" HC_normed="0.251855" PMx_normed="0.065031" NOx_normed="1.389955" fuel_normed="1.483713" electricity_normed="0"
            traveltime="2.90" CO_perVeh="144.510402" CO2_perVeh="13355.444202" HC_perVeh="0.974495" PMx_perVeh="0.251622" NOx_perVeh="5.378100" fuel_perVeh="5.740876" electricity_perVeh="0"/>
        <edge id=":124_0" sampledSeconds="86.84" CO_abs="3620.695703" CO2_abs="300710.352525" HC_abs="23.602407" PMx_abs="5.918791" NOx_abs="123.525873" fuel_abs="129.261051" electricity_abs="0"
            CO_normed="119.411075" CO2_normed="9917.471481" HC_normed="0.778411" PMx_normed="0.195203" NOx_normed="4.073901" fuel_normed="4.263048" electricity_normed="0"
            traveltime="0.46" CO_perVeh="19.312342" CO2_perVeh="1603.951732" HC_perVeh="0.125892" PMx_perVeh="0.031570" NOx_perVeh="0.658872" fuel_perVeh="0.689462" electricity_perVeh="0"/>
        <edge id=":125_0" sampledSeconds="101.26" CO_abs="4135.578322" CO2_abs="409228.295049" HC_abs="28.546039" PMx_abs="7.693842" NOx_abs="162.130030" fuel_abs="175.908001" electricity_abs="0"
            CO_normed="366.439783" CO2_normed="36260.352511" HC_normed="2.529369" PMx_normed="0.681726" NOx_normed="14.365800" fuel_normed="15.586621" electricity_normed="0"
            traveltime="0.16" CO_perVeh="6.587938" CO2_perVeh="651.896926" HC_perVeh="0.045474" PMx_perVeh="0.012256" NOx_perVeh="0.258272" fuel_perVeh="0.280220" electricity_perVeh="0"/>
        <edge id=":125_3" sampledSeconds="0.00" CO_abs="0" CO2_abs="0" HC_abs="0" PMx_abs="0" NOx_abs="0" fuel_abs="0" electricity_abs="0"
            CO_normed="0" CO2_normed="0" HC_normed="0" PMx_normed="0" NOx_normed="0" fuel_normed="0" electricity_normed="0"/>
        <edge id=":126_0" sampledSeconds="23.39" CO_abs="89.241252" CO2_abs="6310.399606" HC_abs="0.551826" PMx_abs="0.095755" NOx_abs="2.487316" fuel_abs="2.712587" electricity_abs="0"
            CO_normed="4.139984" CO2_normed="292.745253" HC_normed="0.025600" PMx_normed="0.004442" NOx_normed="0.115389" fuel_normed="0.125839" electricity_normed="0"
            traveltime="0.57" CO_perVeh="2.173045" CO2_perVeh="153.659711" HC_perVeh="0.013437" PMx_perVeh="0.002332" NOx_perVeh="0.060567" fuel_perVeh="0.066052" electricity_perVeh="0"/>
        <edge id=":126_1" sampledSeconds="56.47" CO_abs="923.196475" CO2_abs="141358.253971" HC_abs="7.479453" PMx_abs="2.278155" NOx_abs="52.470926" fuel_abs="60.763519" electricity_abs="0"
            CO_normed="38.106222" CO2_normed="5834.759062" HC_normed="0.308725" PMx_normed="0.094034" NOx_normed="2.165811" fuel_normed="2.508099" electricity_normed="0"
            traveltime="0.35" CO_perVeh="5.713036" CO2_perVeh="874.770250" HC_perVeh="0.046285" PMx_perVeh="0.014098" NOx_perVeh="0.324707" fuel_perVeh="0.376024" electricity_perVeh="0"/>
        <edge id=":127_0" sampledSeconds="168.38" CO_abs="3425.675850" CO2_abs="437374.314500" HC_abs="25.845914" PMx_abs="7.533318" NOx_abs="165.900334" fuel_abs="188.007145" electricity_abs="0"
            CO_normed="111.594741" CO2_normed="14247.896064" HC_normed="0.841956" PMx_normed="0.245405" NOx_normed="5.404366" fuel_normed="6.124517" electricity_normed="0"
            traveltime="0.44" CO_perVeh="8.910538" CO2_perVeh="1137.655885" HC_perVeh="0.067228" PMx_perVeh="0.019595" NOx_perVeh="0.431524" fuel_perVeh="0.489026" electricity_perVeh="0"/>
        <edge id=":128_0" sampledSeconds="165.70" CO_abs="118.844126" CO2_abs="23186.024310" HC_abs="1.060376" PMx_abs="0.327638" NOx_abs="8.350881" fuel_abs="9.966659" electricity_abs="0"
            CO_normed="2.587317" CO2_normed="504.775474" HC_normed="0.023085" PMx_normed="0.007133" NOx_normed="0.181804" fuel_normed="0.216981" electricity_normed="0"
            traveltime="0.76" CO_perVeh="0.541519" CO2_perVeh="105.648155" HC_perVeh="0.004832" PMx_perVeh="0.001493" NOx_perVeh="0.038051" fuel_perVeh="0.045414" electricity_perVeh="0"/>
        <edge id=":128_1" sampledSeconds="101.77" CO_abs="72.798010" CO2_abs="12299.199146" HC_abs="0.611089" PMx_abs="0.144551" NOx_abs="4.412216" fuel_abs="5.286926" electricity_abs="0"
            CO_normed="1.637154" CO2_normed="276.596690" HC_normed="0.013743" PMx_normed="0.003251" NOx_normed="0.099226" fuel_normed="0.118898" electricity_normed="0"
            traveltime="0.85" CO_perVeh="0.610936" CO2_perVeh="103.217391" HC_perVeh="0.005128" PMx_perVeh="0.001213" NOx_perVeh="0.037028" fuel_perVeh="0.044369" electricity_perVeh="0"/>
        <edge id=":129_0" sampledSeconds="73.12" CO_abs="4332.653977" CO2_abs="378027.077932" HC_abs="28.669941" PMx_abs="7.199524" NOx_abs="153.910672" fuel_abs="162.495997" electricity_abs="0"
            CO_normed="142.185926" CO2_normed="12405.821062" HC_normed="0.940870" PMx_normed="0.236269" NOx_normed="5.050930" fuel_normed="5.332677" electricity_normed="0"
            traveltime="0.50" CO_perVeh="29.366551" CO2_perVeh="2562.252066" HC_perVeh="0.194324" PMx_perVeh="0.048798" NOx_perVeh="1.043200" fuel_perVeh="1.101391" electricity_perVeh="0"/>
        <edge id=":13_0" sampledSeconds="42.07" CO_abs="3572.487696" CO2_abs="255862.418074" HC_abs="22.384263" PMx_abs="4.963747" NOx_abs="107.253146" fuel_abs="109.983345" electricity_abs="0"
            CO_normed="35.580315" CO2_normed="2548.270628" HC_normed="0.222937" PMx_normed="0.049437" NOx_normed="1.068191" fuel_normed="1.095383" electricity_normed="0"
            traveltime="2.10" CO_perVeh="178.397127" CO2_perVeh="12776.844668" HC_perVeh="1.117789" PMx_perVeh="0.247872" NOx_perVeh="5.355835" fuel_perVeh="5.492171" electricity_perVeh="0"/>
        <edge id=":13_1" sampledSeconds="395.38" CO_abs="11249.320067" CO2_abs="837225.237458" HC_abs="70.473778" PMx_abs="12.281691" NOx_abs="326.353022" fuel_abs="359.889733" electricity_abs="0"
            CO_normed="157.882473" CO2_normed="11750.327167" HC_normed="0.989089" PMx_normed="0.172372" NOx_normed="4.580314" fuel_normed="5.050997" electricity_normed="0"
            traveltime="1.88" CO_perVeh="53.534273" CO2_perVeh="3984.262497" HC_perVeh="0.335377" PMx_perVeh="0.058447" NOx_perVeh="1.553078" fuel_perVeh="1.712676" electricity_perVeh="0"/>
        <edge id=":132_0" sampledSeconds="28.56" CO_abs="381.597318" CO2_abs="67265.820827" HC_abs="3.207349" PMx_abs="0.943415" NOx_abs="24.500495" fuel_abs="28.914642" electricity_abs="0"
            CO_normed="1014.361918" CO2_normed="178805.992008" HC_normed="8.525776" PMx_normed="2.507787" NOx_normed="65.127211" fuel_normed="76.860897" electricity_normed="0"
            traveltime="6.331140e-03" CO_perVeh="0.084602" CO2_perVeh="14.913163" HC_perVeh="0.000711" PMx_perVeh="0.000209" NOx_perVeh="0.005432" fuel_perVeh="0.006411" electricity_perVeh="0"/>