<?xml version="1.0" encoding="UTF-8"?>

<!-- generated on qua 07 out 2020 12:10:06 WEST by Eclipse SUMO GUI Version 1.1.0
<configuration xmlns:xsi="http://www.w3.org/2001/XMLSchema-instance" xsi:noNamespaceSchemaLocation="http://sumo.dlr.de/xsd/sumoConfiguration.xsd">

    <input>
        <net-file value="../dataSets/Angeja_Estarreja/angeja_estarreja.net.xml"/>
        <route-files value="../results/angeja_estarreja/length-ttime/solution10/angeja_estarreja.rou.xml"/>
        <additional-files value="moreOutputInfo.xml"/>
    </input>

    <output>
        <emission-output.precision value="6"/>
        <tripinfo-output value="../results/angeja_estarreja/length-ttime/solution10/angeja_estarreja-tripinfo"/>
    </output>

    <processing>
        <collision.action value="warn"/>
        <time-to-teleport value="-1"/>
    </processing>

    <emissions>
        <device.emissions.probability value="1"/>
    </emissions>

    <gui_only>
        <gui-settings-file value="gui-settings.xml"/>
        <quit-on-end value="true"/>
        <game value="true"/>
        <start value="true"-->

<meandata xmlns:xsi="http://www.-->

<meandata xmlns:xsi="http://www.w3.org/2001/XMLSchema-instance" xsi:noNamespaceSchemaLocation="http://sumo.dlr.de/xsd/meandata_file.xsd">
    <interval begin="0.00" end="19079.00" id="emissions-detector">
        <edge id=":10_0" sampledSeconds="402.32" CO_abs="39537.621786" CO2_abs="2196304.527142" HC_abs="232.145838" PMx_abs="42.989443" NOx_abs="936.233158" fuel_abs="944.094734" electricity_abs="0"
            CO_normed="426.547721" CO2_normed="23694.614103" HC_normed="2.504482" PMx_normed="0.463787" NOx_normed="10.100459" fuel_normed="10.185273" electricity_normed="0"
            traveltime="1.88" CO_perVeh="185.078635" CO2_perVeh="10281.069657" HC_perVeh="1.086692" PMx_perVeh="0.201237" NOx_perVeh="4.382579" fuel_perVeh="4.419380" electricity_perVeh="0"/>
        <edge id=":10_1" sampledSeconds="0.00" CO_abs="0" CO2_abs="0" HC_abs="0" PMx_abs="0" NOx_abs="0" fuel_abs="0" electricity_abs="0"
            CO_normed="0" CO2_normed="0" HC_normed="0" PMx_normed="0" NOx_normed="0" fuel_normed="0" electricity_normed="0"/>
        <edge id=":100_0" sampledSeconds="0.00" CO_abs="0" CO2_abs="0" HC_abs="0" PMx_abs="0" NOx_abs="0" fuel_abs="0" electricity_abs="0"
            CO_normed="0" CO2_normed="0" HC_normed="0" PMx_normed="0" NOx_normed="0" fuel_normed="0" electricity_normed="0"/>
        <edge id=":100_1" sampledSeconds="911.53" CO_abs="21655.712149" CO2_abs="2785271.818921" HC_abs="166.201973" PMx_abs="50.094285" NOx_abs="1036.851120" fuel_abs="1197.260891" electricity_abs="0"
            CO_normed="138.234018" CO2_normed="17779.111275" HC_normed="1.060910" PMx_normed="0.319765" NOx_normed="6.618489" fuel_normed="7.642426" electricity_normed="0"
            traveltime="1.37" CO_perVeh="32.565262" CO2_perVeh="4188.414877" HC_perVeh="0.249930" PMx_perVeh="0.075330" NOx_perVeh="1.559188" fuel_perVeh="1.800408" electricity_perVeh="0"/>
        <edge id=":101_0" sampledSeconds="438.64" CO_abs="10363.441235" CO2_abs="1301909.764599" HC_abs="78.817916" PMx_abs="23.569483" NOx_abs="486.605691" fuel_abs="559.631303" electricity_abs="0"
            CO_normed="239.347461" CO2_normed="30068.081625" HC_normed="1.820329" PMx_normed="0.544346" NOx_normed="11.238336" fuel_normed="12.924889" electricity_normed="0"
            traveltime="0.38" CO_perVeh="8.952681" CO2_perVeh="1124.682616" HC_perVeh="0.068089" PMx_perVeh="0.020361" NOx_perVeh="0.420365" fuel_perVeh="0.483449" electricity_perVeh="0"/>
        <edge id=":102_0" sampledSeconds="341.57" CO_abs="7968.720368" CO2_abs="1003889.837784" HC_abs="60.714616" PMx_abs="18.170363" NOx_abs="374.978701" fuel_abs="431.526220" electricity_abs="0"
            CO_normed="185.630982" CO2_normed="23385.568491" HC_normed="1.414344" PMx_normed="0.423278" NOx_normed="8.735112" fuel_normed="10.052384" electricity_normed="0"
            traveltime="0.38" CO_perVeh="8.766290" CO2_perVeh="1104.366762" HC_perVeh="0.066791" PMx_perVeh="0.019989" NOx_perVeh="0.412509" fuel_perVeh="0.474717" electricity_perVeh="0"/>
        <edge id=":103_0" sampledSeconds="434.03" CO_abs="10707.886108" CO2_abs="1345374.528663" HC_abs="81.500362" PMx_abs="24.369644" NOx_abs="502.775811" fuel_abs="578.314817" electricity_abs="0"
            CO_normed="250.989039" CO2_normed="31535.100074" HC_normed="1.910339" PMx_normed="0.571216" NOx_normed="11.784886" fuel_normed="13.555493" electricity_normed="0"
            traveltime="0.37" CO_perVeh="9.199804" CO2_perVeh="1155.894057" HC_perVeh="0.070022" PMx_perVeh="0.020937" NOx_perVeh="0.431966" fuel_perVeh="0.496866" electricity_perVeh="0"/>
        <edge id=":104_0" sampledSeconds="341.04" CO_abs="8407.242811" CO2_abs="1024003.799044" HC_abs="63.188699" PMx_abs="18.708230" NOx_abs="384.611628" fuel_abs="440.172155" electricity_abs="0"
            CO_normed="196.088427" CO2_normed="23883.608247" HC_normed="1.473797" PMx_normed="0.436346" NOx_normed="8.970585" fuel_normed="10.266465" electricity_normed="0"
            traveltime="0.38" CO_perVeh="9.244480" CO2_perVeh="1125.979397" HC_perVeh="0.069481" PMx_perVeh="0.020571" NOx_perVeh="0.422913" fuel_perVeh="0.484007" electricity_perVeh="0"/>
        <edge id=":105_0" sampledSeconds="168.57" CO_abs="3883.238294" CO2_abs="490773.943421" HC_abs="29.635158" PMx_abs="8.877062" NOx_abs="183.226342" fuel_abs="210.961225" electricity_abs="0"
            CO_normed="3330.567606" CO2_normed="420925.957697" HC_normed="25.417419" PMx_normed="7.613660" NOx_normed="157.149182" fuel_normed="180.936778" electricity_normed="0"
            traveltime="0.01" CO_perVeh="0.234828" CO2_perVeh="29.678142" HC_perVeh="0.001792" PMx_perVeh="0.000537" NOx_perVeh="0.011080" fuel_perVeh="0.012757" electricity_perVeh="0"/>
        <edge id=":106_0" sampledSeconds="134.45" CO_abs="3178.069083" CO2_abs="394966.793002" HC_abs="24.077498" PMx_abs="7.176121" NOx_abs="147.826396" fuel_abs="169.778099" electricity_abs="0"
            CO_normed="1934.410017" CO2_normed="240406.265765" HC_normed="14.655362" PMx_normed="4.367923" NOx_normed="89.978177" fuel_normed="103.339621" electricity_normed="0"
            traveltime="0.01" CO_perVeh="0.339801" CO2_perVeh="42.230128" HC_perVeh="0.002574" PMx_perVeh="0.000767" NOx_perVeh="0.015806" fuel_perVeh="0.018153" electricity_perVeh="0"/>
        <edge id=":107_0" sampledSeconds="438.18" CO_abs="11554.242750" CO2_abs="1396371.494153" HC_abs="86.538135" PMx_abs="25.557496" NOx_abs="525.216950" fuel_abs="600.235860" electricity_abs="0"
            CO_normed="266.849457" CO2_normed="32249.709778" HC_normed="1.998630" PMx_normed="0.590260" NOx_normed="12.130077" fuel_normed="13.862666" electricity_normed="0"
            traveltime="0.38" CO_perVeh="9.981370" CO2_perVeh="1206.284199" HC_perVeh="0.074758" PMx_perVeh="0.022078" NOx_perVeh="0.453719" fuel_perVeh="0.518526" electricity_perVeh="0"/>
        <edge id=":108_0" sampledSeconds="93.99" CO_abs="7972.914970" CO2_abs="577121.524584" HC_abs="50.166623" PMx_abs="11.625695" NOx_abs="243.719884" fuel_abs="248.077048" electricity_abs="0"
            CO_normed="125.054233" CO2_normed="9052.083214" HC_normed="0.786858" PMx_normed="0.182348" NOx_normed="3.822718" fuel_normed="3.891059" electricity_normed="0"
            traveltime="0.86" CO_perVeh="72.619331" CO2_perVeh="5256.569197" HC_perVeh="0.456930" PMx_perVeh="0.105890" NOx_perVeh="2.219863" fuel_perVeh="2.259549" electricity_perVeh="0"/>
        <edge id=":108_1" sampledSeconds="402.82" CO_abs="10056.315466" CO2_abs="1195410.823231" HC_abs="74.880731" PMx_abs="21.987309" NOx_abs="451.029865" fuel_abs="513.852024" electricity_abs="0"
            CO_normed="147.094377" CO2_normed="17485.351456" HC_normed="1.095285" PMx_normed="0.321610" NOx_normed="6.597243" fuel_normed="7.516147" electricity_normed="0"
            traveltime="0.60" CO_perVeh="14.945577" CO2_perVeh="1776.605447" HC_perVeh="0.111287" PMx_perVeh="0.032677" NOx_perVeh="0.670315" fuel_perVeh="0.763681" electricity_perVeh="0"/>
        <edge id=":109_0" sampledSeconds="306.61" CO_abs="91.002984" CO2_abs="18570.558904" HC_abs="0.829074" PMx_abs="0.214392" NOx_abs="6.516378" fuel_abs="7.982730" electricity_abs="0"
            CO_normed="1.368229" CO2_normed="279.208182" HC_normed="0.012465" PMx_normed="0.003223" NOx_normed="0.097974" fuel_normed="0.120020" electricity_normed="0"
            traveltime="0.85" CO_perVeh="0.252937" CO2_perVeh="51.615732" HC_perVeh="0.002304" PMx_perVeh="0.000596" NOx_perVeh="0.018112" fuel_perVeh="0.022188" electricity_perVeh="0"/>
        <edge id=":109_1" sampledSeconds="524.48" CO_abs="12386.452917" CO2_abs="1554626.343383" HC_abs="94.150888" PMx_abs="28.154325" NOx_abs="580.966963" fuel_abs="668.262578" electricity_abs="0"
            CO_normed="121.475524" CO2_normed="15246.418890" HC_normed="0.923350" PMx_normed="0.276113" NOx_normed="5.697617" fuel_normed="6.553736" electricity_normed="0"
            traveltime="0.89" CO_perVeh="21.091180" CO2_perVeh="2647.158436" HC_perVeh="0.160317" PMx_perVeh="0.047940" NOx_perVeh="0.989248" fuel_perVeh="1.137892" electricity_perVeh="0"/>
        <edge id=":11_0" sampledSeconds="288.93" CO_abs="17815.672653" CO2_abs="1270657.820383" HC_abs="111.174196" PMx_abs="23.076676" NOx_abs="523.875795" fuel_abs="546.198978" electricity_abs="0"
            CO_normed="184.198567" CO2_normed="13137.497236" HC_normed="1.149445" PMx_normed="0.238593" NOx_normed="5.416420" fuel_normed="5.647223" electricity_normed="0"
            traveltime="1.59" CO_perVeh="98.169090" CO2_perVeh="7001.662205" HC_perVeh="0.612599" PMx_perVeh="0.127159" NOx_perVeh="2.886695" fuel_perVeh="3.009701" electricity_perVeh="0"/>
        <edge id=":11_1" sampledSeconds="50.59" CO_abs="1200.321419" CO2_abs="106106.038979" HC_abs="7.885954" PMx_abs="1.399470" NOx_abs="40.078149" fuel_abs="45.610829" electricity_abs="0"
            CO_normed="12.724023" CO2_normed="1124.778465" HC_normed="0.083595" PMx_normed="0.014835" NOx_normed="0.424849" fuel_normed="0.483498" electricity_normed="0"
            traveltime="1.66" CO_perVeh="39.478421" CO2_perVeh="3489.814290" HC_perVeh="0.259368" PMx_perVeh="0.046028" NOx_perVeh="1.318165" fuel_perVeh="1.500134" electricity_perVeh="0"/>
        <edge id=":110_0" sampledSeconds="94.77" CO_abs="0" CO2_abs="0" HC_abs="0" PMx_abs="0" NOx_abs="0" fuel_abs="0" electricity_abs="0"
            CO_normed="0" CO2_normed="0" HC_normed="0" PMx_normed="0" NOx_normed="0" fuel_normed="0" electricity_normed="0"
            traveltime="0.93" CO_perVeh="0" CO2_perVeh="0" HC_perVeh="0" PMx_perVeh="0" NOx_perVeh="0" fuel_perVeh="0" electricity_perVeh="0"/>
        <edge id=":110_1" sampledSeconds="443.75" CO_abs="11346.738911" CO2_abs="1373240.677391" HC_abs="85.005658" PMx_abs="25.124290" NOx_abs="516.261433" fuel_abs="590.293002" electricity_abs="0"
            CO_normed="145.646690" CO2_normed="17626.911230" HC_normed="1.091132" PMx_normed="0.322495" NOx_normed="6.626729" fuel_normed="7.576998" electricity_normed="0"
            traveltime="0.68" CO_perVeh="17.430253" CO2_perVeh="2109.498815" HC_perVeh="0.130581" PMx_perVeh="0.038595" NOx_perVeh="0.793053" fuel_perVeh="0.906777" electricity_perVeh="0"/>
        <edge id=":111_0" sampledSeconds="340.94" CO_abs="8045.367419" CO2_abs="1003529.608969" HC_abs="61.033334" PMx_abs="18.210503" NOx_abs="375.434640" fuel_abs="431.371336" electricity_abs="0"
            CO_normed="185.810700" CO2_normed="23176.882927" HC_normed="1.409587" PMx_normed="0.420578" NOx_normed="8.670800" fuel_normed="9.962679" electricity_normed="0"
            traveltime="0.38" CO_perVeh="8.941155" CO2_perVeh="1115.264653" HC_perVeh="0.067829" PMx_perVeh="0.020238" NOx_perVeh="0.417236" fuel_perVeh="0.479401" electricity_perVeh="0"/>
        <edge id=":114_0" sampledSeconds="106.35" CO_abs="11212.637935" CO2_abs="791082.173139" HC_abs="70.140371" PMx_abs="16.279578" NOx_abs="336.557441" fuel_abs="340.048233" electricity_abs="0"
            CO_normed="148.993165" CO2_normed="10511.873992" HC_normed="0.932023" PMx_normed="0.216323" NOx_normed="4.472164" fuel_normed="4.518550" electricity_normed="0"
            traveltime="0.98" CO_perVeh="103.729411" CO2_perVeh="7318.392689" HC_perVeh="0.648877" PMx_perVeh="0.150604" NOx_perVeh="3.113532" fuel_perVeh="3.145826" electricity_perVeh="0"/>
        <edge id=":114_1" sampledSeconds="416.19" CO_abs="10565.555644" CO2_abs="1278786.534957" HC_abs="79.154322" PMx_abs="23.387043" NOx_abs="480.936368" fuel_abs="549.691500" electricity_abs="0"
            CO_normed="139.510535" CO2_normed="16885.453092" HC_normed="1.045176" PMx_normed="0.308809" NOx_normed="6.350418" fuel_normed="7.258279" electricity_normed="0"
            traveltime="0.66" CO_perVeh="16.835925" CO2_perVeh="2037.711537" HC_perVeh="0.126130" PMx_perVeh="0.037267" NOx_perVeh="0.766359" fuel_perVeh="0.875918" electricity_perVeh="0"/>
        <edge id=":115_0" sampledSeconds="79.78" CO_abs="115.951829" CO2_abs="14214.088245" HC_abs="0.855978" PMx_abs="0.193445" NOx_abs="5.314900" fuel_abs="6.110042" electricity_abs="0"
            CO_normed="2.620222" CO2_normed="321.202876" HC_normed="0.019343" PMx_normed="0.004371" NOx_normed="0.120103" fuel_normed="0.138072" electricity_normed="0"
            traveltime="0.63" CO_perVeh="0.912447" CO2_perVeh="111.853394" HC_perVeh="0.006736" PMx_perVeh="0.001522" NOx_perVeh="0.041824" fuel_perVeh="0.048081" electricity_perVeh="0"/>
        <edge id=":115_1" sampledSeconds="72.40" CO_abs="1025.041961" CO2_abs="172555.562717" HC_abs="8.474232" PMx_abs="2.449861" NOx_abs="63.198366" fuel_abs="74.174095" electricity_abs="0"
            CO_normed="20.686019" CO2_normed="3482.284471" HC_normed="0.171016" PMx_normed="0.049440" NOx_normed="1.275384" fuel_normed="1.496882" electricity_normed="0"
            traveltime="0.59" CO_perVeh="8.391747" CO2_perVeh="1412.666709" HC_perVeh="0.069376" PMx_perVeh="0.020056" NOx_perVeh="0.517388" fuel_perVeh="0.607244" electricity_perVeh="0"/>
        <edge id=":116_0" sampledSeconds="75.05" CO_abs="167.540791" CO2_abs="18953.403939" HC_abs="1.200419" PMx_abs="0.262492" NOx_abs="7.143584" fuel_abs="8.147277" electricity_abs="0"
            CO_normed="4.226354" CO2_normed="478.115159" HC_normed="0.030282" PMx_normed="0.006622" NOx_normed="0.180203" fuel_normed="0.205522" electricity_normed="0"
            traveltime="0.57" CO_perVeh="1.265059" CO2_perVeh="143.112425" HC_perVeh="0.009064" PMx_perVeh="0.001982" NOx_perVeh="0.053939" fuel_perVeh="0.061518" electricity_perVeh="0"/>
        <edge id=":117_0" sampledSeconds="240.58" CO_abs="13051.898391" CO2_abs="1085456.154834" HC_abs="85.217720" PMx_abs="19.882662" NOx_abs="442.946656" fuel_abs="466.587527" electricity_abs="0"
            CO_normed="294.940289" CO2_normed="24528.596713" HC_normed="1.925708" PMx_normed="0.449298" NOx_normed="10.009488" fuel_normed="10.543712" electricity_normed="0"
            traveltime="0.60" CO_perVeh="32.822089" CO2_perVeh="2729.636508" HC_perVeh="0.214300" PMx_perVeh="0.050000" NOx_perVeh="1.113894" fuel_perVeh="1.173345" electricity_perVeh="0"/>
        <edge id=":117_1" sampledSeconds="75.97" CO_abs="4891.467611" CO2_abs="396235.644609" HC_abs="31.727203" PMx_abs="7.372456" NOx_abs="162.592808" fuel_abs="170.323347" electricity_abs="0"
            CO_normed="104.172324" CO2_normed="8438.528318" HC_normed="0.675686" PMx_normed="0.157009" NOx_normed="3.462697" fuel_normed="3.627332" electricity_normed="0"
            traveltime="0.64" CO_perVeh="41.354622" CO2_perVeh="3349.950677" HC_perVeh="0.268236" PMx_perVeh="0.062330" NOx_perVeh="1.374631" fuel_perVeh="1.439989" electricity_perVeh="0"/>
        <edge id=":118_0" sampledSeconds="898.28" CO_abs="13409.607022" CO2_abs="2046676.607479" HC_abs="107.051971" PMx_abs="30.481722" NOx_abs="760.071556" fuel_abs="879.775699" electricity_abs="0"
            CO_normed="40.685756" CO2_normed="6209.770670" HC_normed="0.324804" PMx_normed="0.092484" NOx_normed="2.306114" fuel_normed="2.669306" electricity_normed="0"
            traveltime="3.92" CO_perVeh="58.494177" CO2_perVeh="8927.827930" HC_perVeh="0.466972" PMx_perVeh="0.132965" NOx_perVeh="3.315516" fuel_perVeh="3.837678" electricity_perVeh="0"/>
        <edge id=":118_4" sampledSeconds="283.23" CO_abs="3425.224034" CO2_abs="561859.866999" HC_abs="28.167508" PMx_abs="8.114589" NOx_abs="206.432043" fuel_abs="241.518917" electricity_abs="0"
            CO_normed="10.412479" CO2_normed="1708.020817" HC_normed="0.085628" PMx_normed="0.024668" NOx_normed="0.627541" fuel_normed="0.734203" electricity_normed="0"
            traveltime="3.93" CO_perVeh="47.488610" CO2_perVeh="7789.839029" HC_perVeh="0.390525" PMx_perVeh="0.112504" NOx_perVeh="2.862052" fuel_perVeh="3.348510" electricity_perVeh="0"/>
        <edge id=":118_5" sampledSeconds="238.25" CO_abs="3695.912038" CO2_abs="563664.629078" HC_abs="29.334986" PMx_abs="8.474113" NOx_abs="209.514273" fuel_abs="242.294360" electricity_abs="0"
            CO_normed="11.346867" CO2_normed="1730.514011" HC_normed="0.090062" PMx_normed="0.026016" NOx_normed="0.643232" fuel_normed="0.743871" electricity_normed="0"
            traveltime="3.81" CO_perVeh="59.151069" CO2_perVeh="9021.146952" HC_perVeh="0.469491" PMx_perVeh="0.135624" NOx_perVeh="3.353162" fuel_perVeh="3.877790" electricity_perVeh="0"/>
        <edge id=":119_0" sampledSeconds="138.88" CO_abs="2314.899264" CO2_abs="355356.347938" HC_abs="18.571125" PMx_abs="5.271255" NOx_abs="131.982449" fuel_abs="152.751983" electricity_abs="0"
            CO_normed="49.635948" CO2_normed="7619.532021" HC_normed="0.398201" PMx_normed="0.113026" NOx_normed="2.829961" fuel_normed="3.275300" electricity_normed="0"
            traveltime="0.56" CO_perVeh="9.280267" CO2_perVeh="1424.598361" HC_perVeh="0.074450" PMx_perVeh="0.021132" NOx_perVeh="0.529108" fuel_perVeh="0.612372" electricity_perVeh="0"/>
        <edge id=":12_0" sampledSeconds="599.17" CO_abs="53133.602438" CO2_abs="3019288.481126" HC_abs="313.592593" PMx_abs="58.884531" NOx_abs="1284.705637" fuel_abs="1297.858729" electricity_abs="0"
            CO_normed="497.802059" CO2_normed="28287.335192" HC_normed="2.938010" PMx_normed="0.551682" NOx_normed="12.036246" fuel_normed="12.159476" electricity_normed="0"
            traveltime="2.12" CO_perVeh="187.831724" CO2_perVeh="10673.437055" HC_perVeh="1.108576" PMx_perVeh="0.208162" NOx_perVeh="4.541542" fuel_perVeh="4.588039" electricity_perVeh="0"/>
        <edge id=":12_1" sampledSeconds="55.38" CO_abs="1036.006936" CO2_abs="97613.007088" HC_abs="6.934161" PMx_abs="1.219200" NOx_abs="36.348359" fuel_abs="41.960061" electricity_abs="0"
            CO_normed="9.696590" CO2_normed="913.616758" HC_normed="0.064901" PMx_normed="0.011411" NOx_normed="0.340205" fuel_normed="0.392729" electricity_normed="0"
            traveltime="1.87" CO_perVeh="34.935601" CO2_perVeh="3291.646967" HC_perVeh="0.233830" PMx_perVeh="0.041113" NOx_perVeh="1.225717" fuel_perVeh="1.414952" electricity_perVeh="0"/>
        <edge id=":120_0" sampledSeconds="39.02" CO_abs="606.433860" CO2_abs="94349.073437" HC_abs="4.899376" PMx_abs="1.400735" NOx_abs="34.967185" fuel_abs="40.556496" electricity_abs="0"
            CO_normed="476.781167" CO2_normed="74177.687591" HC_normed="3.851912" PMx_normed="1.101264" NOx_normed="27.491366" fuel_normed="31.885709" electricity_normed="0"
            traveltime="0.02" CO_perVeh="0.233337" CO2_perVeh="36.302649" HC_perVeh="0.001885" PMx_perVeh="0.000539" NOx_perVeh="0.013454" fuel_perVeh="0.015605" electricity_perVeh="0"/>
        <edge id=":121_0" sampledSeconds="376.58" CO_abs="53536.027573" CO2_abs="1426906.528296" HC_abs="277.269021" PMx_abs="30.794207" NOx_abs="630.994324" fuel_abs="613.383381" electricity_abs="0"
            CO_normed="30611.111259" CO2_normed="815884.115308" HC_normed="158.538338" PMx_normed="17.607674" NOx_normed="360.793251" fuel_normed="350.723574" electricity_normed="0"
            traveltime="0.12" CO_perVeh="16.441713" CO2_perVeh="438.224295" HC_perVeh="0.085153" PMx_perVeh="0.009457" NOx_perVeh="0.193788" fuel_perVeh="0.188379" electricity_perVeh="0"/>
        <edge id=":122_0" sampledSeconds="134.87" CO_abs="1104.720462" CO2_abs="113607.062053" HC_abs="7.694889" PMx_abs="1.998647" NOx_abs="44.892963" fuel_abs="48.834427" electricity_abs="0"
            CO_normed="24.323074" CO2_normed="2501.332349" HC_normed="0.169421" PMx_normed="0.044005" NOx_normed="0.988426" fuel_normed="1.075207" electricity_normed="0"
            traveltime="0.54" CO_perVeh="4.404306" CO2_perVeh="452.929326" HC_perVeh="0.030678" PMx_perVeh="0.007968" NOx_perVeh="0.178980" fuel_perVeh="0.194693" electricity_perVeh="0"/>
        <edge id=":123_0" sampledSeconds="311.25" CO_abs="40405.347424" CO2_abs="2478542.708246" HC_abs="243.528251" PMx_abs="50.992585" NOx_abs="1064.123137" fuel_abs="1065.410004" electricity_abs="0"
            CO_normed="154.083469" CO2_normed="9451.780089" HC_normed="0.928681" PMx_normed="0.194457" NOx_normed="4.057972" fuel_normed="4.062880" electricity_normed="0"
            traveltime="4.24" CO_perVeh="550.242497" CO2_perVeh="33752.946462" HC_perVeh="3.316383" PMx_perVeh="0.694420" NOx_perVeh="14.491294" fuel_perVeh="14.508819" electricity_perVeh="0"/>
        <edge id=":123_1" sampledSeconds="0.00" CO_abs="0" CO2_abs="0" HC_abs="0" PMx_abs="0" NOx_abs="0" fuel_abs="0" electricity_abs="0"
            CO_normed="0" CO2_normed="0" HC_normed="0" PMx_normed="0" NOx_normed="0" fuel_normed="0" electricity_normed="0"/>
        <edge id=":123_2" sampledSeconds="255.47" CO_abs="33902.655192" CO2_abs="2131678.699540" HC_abs="205.655262" PMx_abs="43.998003" NOx_abs="915.024339" fuel_abs="916.308503" electricity_abs="0"
            CO_normed="130.525662" CO2_normed="8206.990597" HC_normed="0.791775" PMx_normed="0.169393" NOx_normed="3.522856" fuel_normed="3.527800" electricity_normed="0"
            traveltime="4.02" CO_perVeh="532.882136" CO2_perVeh="33505.738488" HC_perVeh="3.232491" PMx_perVeh="0.691561" NOx_perVeh="14.382358" fuel_perVeh="14.402543" electricity_perVeh="0"/>
        <edge id=":123_3" sampledSeconds="469.76" CO_abs="21766.556076" CO2_abs="2112028.602464" HC_abs="149.036181" PMx_abs="38.913929" NOx_abs="842.690045" fuel_abs="907.862228" electricity_abs="0"
            CO_normed="85.743479" CO2_normed="8319.767210" HC_normed="0.587088" PMx_normed="0.153291" NOx_normed="3.319550" fuel_normed="3.576278" electricity_normed="0"
            traveltime="2.81" CO_perVeh="130.281656" CO2_perVeh="12641.346786" HC_perVeh="0.892042" PMx_perVeh="0.232916" NOx_perVeh="5.043841" fuel_perVeh="5.433923" electricity_perVeh="0"/>
        <edge id=":123_5" sampledSeconds="0.00" CO_abs="0" CO2_abs="0" HC_abs="0" PMx_abs="0" NOx_abs="0" fuel_abs="0" electricity_abs="0"
            CO_normed="0" CO2_normed="0" HC_normed="0" PMx_normed="0" NOx_normed="0" fuel_normed="0" electricity_normed="0"/>
        <edge id=":123_6" sampledSeconds="194.76" CO_abs="9204.860349" CO2_abs="884571.494996" HC_abs="62.718990" PMx_abs="16.350585" NOx_abs="353.544672" fuel_abs="380.235825" electricity_abs="0"
            CO_normed="35.024342" CO2_normed="3365.779995" HC_normed="0.238645" PMx_normed="0.062214" NOx_normed="1.345232" fuel_normed="1.446791" electricity_normed="0"
            traveltime="2.91" CO_perVeh="137.709342" CO2_perVeh="13233.634590" HC_perVeh="0.938308" PMx_perVeh="0.244613" NOx_perVeh="5.289206" fuel_perVeh="5.688519" electricity_perVeh="0"/>
        <edge id=":124_0" sampledSeconds="118.62" CO_abs="4206.722473" CO2_abs="400504.459882" HC_abs="28.583999" PMx_abs="7.442004" NOx_abs="160.202247" fuel_abs="172.158082" electricity_abs="0"
            CO_normed="98.481740" CO2_normed="9376.034734" HC_normed="0.669167" PMx_normed="0.174222" NOx_normed="3.750425" fuel_normed="4.030318" electricity_normed="0"
            traveltime="0.46" CO_perVeh="16.351331" CO2_perVeh="1556.741865" HC_perVeh="0.111105" PMx_perVeh="0.028927" NOx_perVeh="0.622699" fuel_perVeh="0.669170" electricity_perVeh="0"/>
        <edge id=":125_0" sampledSeconds="141.32" CO_abs="5654.153473" CO2_abs="566618.731070" HC_abs="39.087496" PMx_abs="10.576965" NOx_abs="223.801906" fuel_abs="243.562805" electricity_abs="0"
            CO_normed="355.625775" CO2_normed="35638.266014" HC_normed="2.458462" PMx_normed="0.665253" NOx_normed="14.076329" fuel_normed="15.319218" electricity_normed="0"
            traveltime="0.16" CO_perVeh="6.475497" CO2_perVeh="648.927906" HC_perVeh="0.044765" PMx_perVeh="0.012113" NOx_perVeh="0.256312" fuel_perVeh="0.278944" electricity_perVeh="0"/>
        <edge id=":125_3" sampledSeconds="0.00" CO_abs="0" CO2_abs="0" HC_abs="0" PMx_abs="0" NOx_abs="0" fuel_abs="0" electricity_abs="0"
            CO_normed="0" CO2_normed="0" HC_normed="0" PMx_normed="0" NOx_normed="0" fuel_normed="0" electricity_normed="0"/>
        <edge id=":126_0" sampledSeconds="26.76" CO_abs="175.526685" CO2_abs="12868.239300" HC_abs="1.093412" PMx_abs="0.180799" NOx_abs="4.971503" fuel_abs="5.531556" electricity_abs="0"
            CO_normed="5.780101" CO2_normed="423.751647" HC_normed="0.036006" PMx_normed="0.005954" NOx_normed="0.163712" fuel_normed="0.182154" electricity_normed="0"
            traveltime="0.56" CO_perVeh="3.694763" CO2_perVeh="270.871010" HC_perVeh="0.023016" PMx_perVeh="0.003806" NOx_perVeh="0.104648" fuel_perVeh="0.116437" electricity_perVeh="0"/>
        <edge id=":126_1" sampledSeconds="80.72" CO_abs="1471.795412" CO2_abs="219132.585332" HC_abs="11.725871" PMx_abs="3.572351" NOx_abs="81.393095" fuel_abs="94.195169" electricity_abs="0"
            CO_normed="43.122951" CO2_normed="6420.487252" HC_normed="0.343563" PMx_normed="0.104668" NOx_normed="2.384781" fuel_normed="2.759877" electricity_normed="0"
            traveltime="0.35" CO_perVeh="6.368712" CO2_perVeh="948.224347" HC_perVeh="0.050740" PMx_perVeh="0.015458" NOx_perVeh="0.352202" fuel_perVeh="0.407599" electricity_perVeh="0"/>
        <edge id=":127_0" sampledSeconds="234.33" CO_abs="4850.065003" CO2_abs="649760.485087" HC_abs="37.134717" PMx_abs="10.934856" NOx_abs="244.637993" fuel_abs="279.302391" electricity_abs="0"
            CO_normed="112.151295" CO2_normed="15024.846037" HC_normed="0.858691" PMx_normed="0.252854" NOx_normed="5.656928" fuel_normed="6.458496" electricity_normed="0"
            traveltime="0.44" CO_perVeh="9.069739" CO2_perVeh="1215.067802" HC_perVeh="0.069443" PMx_perVeh="0.020448" NOx_perVeh="0.457479" fuel_perVeh="0.522302" electricity_perVeh="0"/>
        <edge id=":128_0" sampledSeconds="229.21" CO_abs="451.869704" CO2_abs="53293.713110" HC_abs="3.286908" PMx_abs="0.878279" NOx_abs="20.438516" fuel_abs="22.908561" electricity_abs="0"
            CO_normed="6.983039" CO2_normed="823.582687" HC_normed="0.050795" PMx_normed="0.013573" NOx_normed="0.315850" fuel_normed="0.354021" electricity_normed="0"
            traveltime="0.75" CO_perVeh="1.485453" CO2_perVeh="175.194989" HC_perVeh="0.010805" PMx_perVeh="0.002887" NOx_perVeh="0.067189" fuel_perVeh="0.075308" electricity_perVeh="0"/>
        <edge id=":128_1" sampledSeconds="142.19" CO_abs="185.577135" CO2_abs="23375.471802" HC_abs="1.371956" PMx_abs="0.326683" NOx_abs="8.764764" fuel_abs="10.048120" electricity_abs="0"
            CO_normed="2.962469" CO2_normed="373.155461" HC_normed="0.021901" PMx_normed="0.005215" NOx_normed="0.139917" fuel_normed="0.160404" electricity_normed="0"
            traveltime="0.85" CO_perVeh="1.112429" CO2_perVeh="140.122666" HC_perVeh="0.008224" PMx_perVeh="0.001958" NOx_perVeh="0.052540" fuel_perVeh="0.060233" electricity_perVeh="0"/>
        <edge id=":129_0" sampledSeconds="105.03" CO_abs="5688.164262" CO2_abs="518429.170624" HC_abs="38.244050" PMx_abs="9.691507" NOx_abs="209.496404" fuel_abs="222.848351" electricity_abs="0"
            CO_normed="132.505530" CO2_normed="12076.784146" HC_normed="0.890893" PMx_normed="0.225763" NOx_normed="4.880209" fuel_normed="5.191242" electricity_normed="0"
            traveltime="0.50" CO_perVeh="26.958913" CO2_perVeh="2457.082170" HC_perVeh="0.181257" PMx_perVeh="0.045933" NOx_perVeh="0.992903" fuel_perVeh="1.056184" electricity_perVeh="0"/>
        <edge id=":13_0" sampledSeconds="59.20" CO_abs="5059.968473" CO2_abs="362988.643356" HC_abs="31.718145" PMx_abs="7.036445" NOx_abs="152.097877" fuel_abs="156.031927" electricity_abs="0"
            CO_normed="35.772240" CO2_normed="2566.205058" HC_normed="0.224236" PMx_normed="0.049745" NOx_normed="1.075280" fuel_normed="1.103092" electricity_normed="0"
            traveltime="2.09" CO_perVeh="178.979218" CO2_perVeh="12839.491745" HC_perVeh="1.121922" PMx_perVeh="0.248890" NOx_perVeh="5.379946" fuel_perVeh="5.519100" electricity_perVeh="0"/>
        <edge id=":13_1" sampledSeconds="542.17" CO_abs="13165.237238" CO2_abs="994371.852124" HC_abs="82.747408" PMx_abs="14.214535" NOx_abs="385.059895" fuel_abs="427.441211" electricity_abs="0"
            CO_normed="131.158248" CO2_normed="9906.397270" HC_normed="0.824368" PMx_normed="0.141612" NOx_normed="3.836147" fuel_normed="4.258369" electricity_normed="0"
            traveltime="1.89" CO_perVeh="45.962974" CO2_perVeh="3471.588602" HC_perVeh="0.288891" PMx_perVeh="0.049626" NOx_perVeh="1.344336" fuel_perVeh="1.492299" electricity_perVeh="0"/>
        <edge id=":132_0" sampledSeconds="40.99" CO_abs="627.619035" CO2_abs="95942.623543" HC_abs="5.017266" PMx_abs="1.420431" NOx_abs="35.659685" fuel_abs="41.241492" electricity_abs="0"
            CO_normed="1184.248925" CO2_normed="181033.306125" HC_normed="9.467035" PMx_normed="2.680198" NOx_normed="67.285951" fuel_normed="77.818215" electricity_normed="0"
            traveltime="6.354183e-03" CO_perVeh="0.097298" CO2_perVeh="14.873672" HC_perVeh="0.000778" PMx_perVeh="0.000220" NOx_perVeh="0.005528" fuel_perVeh="0.006394" electricity_perVeh="0"/>