<?xml version="1.0" encoding="UTF-8"?>

<!-- generated on Tue Nov 10 13:53:49 2020 by Eclipse SUMO sumo Version 1.7.0
<configuration xmlns:xsi="http://www.w3.org/2001/XMLSchema-instance" xsi:noNamespaceSchemaLocation="http://sumo.dlr.de/xsd/sumoConfiguration.xsd">

    <input>
        <net-file value="../dataSets/Porto/8AM9AM_Routing_SaoBento/Porto.net.xml"/>
        <route-files value="../results/Porto/8AM9AM_Routing_SaoBento/inputdata/cost_hc-length/solution23/Porto.rou.xml"/>
        <additional-files value="moreOutputInfo.xml"/>
    </input>

    <output>
        <emission-output.precision value="6"/>
        <tripinfo-output value="../results/Porto/8AM9AM_Routing_SaoBento/inputdata/cost_hc-length/solution23/Porto-tripinfo"/>
    </output>

    <processing>
        <collision.action value="warn"/>
        <time-to-teleport value="-1"/>
    </processing>

    <emissions>
        <device.emissions.probability value="1"/>
    </emissions>

    <gui_only>
        <quit-on-end value="true"/>
        <start value="true"/>
    </gui_only>

</configuration>
-->

<meandata xmlns:xsi="http://www.w3.org/2001/XMLSchema-instance" xsi:noNamespaceSchemaLocation="http://sumo.dlr.de/xsd/meandata_file.xsd">
    <interval begin="0.00" end="8472.00" id="emissions-detector">
        <edge id=":1092997347_0" sampledSeconds="601.99" CO_abs="72285.256498" CO2_abs="3064750.970698" HC_abs="401.604260" PMx_abs="61.870969" NOx_abs="1325.422025" fuel_abs="1317.412727" electricity_abs="0"
            CO_normed="69809.351498" CO2_normed="2959777.527716" HC_normed="387.848564" PMx_normed="59.751773" NOx_normed="1280.023845" fuel_normed="1272.288881" electricity_normed="0"
            traveltime="0.07" CO_perVeh="8.283960" CO2_perVeh="351.223427" HC_perVeh="0.046024" PMx_perVeh="0.007090" NOx_perVeh="0.151895" fuel_perVeh="0.150977" electricity_perVeh="0"/>
        <edge id=":1103427051_0" sampledSeconds="19.73" CO_abs="1497.802841" CO2_abs="83786.907608" HC_abs="8.802520" PMx_abs="1.609762" NOx_abs="35.534698" fuel_abs="36.016343" electricity_abs="0"
            CO_normed="2194.690106" CO2_normed="122770.695919" HC_normed="12.898095" PMx_normed="2.358741" NOx_normed="52.068034" fuel_normed="52.773776" electricity_normed="0"
            traveltime="0.03" CO_perVeh="2.329273" CO2_perVeh="130.299245" HC_perVeh="0.013689" PMx_perVeh="0.002503" NOx_perVeh="0.055261" fuel_perVeh="0.056010" electricity_perVeh="0"/>
        <edge id=":1105984386_0" sampledSeconds="10.58" CO_abs="133.902405" CO2_abs="8966.048264" HC_abs="0.811763" PMx_abs="0.113517" NOx_abs="3.393736" fuel_abs="3.854184" electricity_abs="0"
            CO_normed="5.859839" CO2_normed="392.372350" HC_normed="0.035524" PMx_normed="0.004968" NOx_normed="0.148517" fuel_normed="0.168667" electricity_normed="0"
            traveltime="1.01" CO_perVeh="12.845212" CO2_perVeh="860.109945" HC_perVeh="0.077872" PMx_perVeh="0.010890" NOx_perVeh="0.325560" fuel_perVeh="0.369731" electricity_perVeh="0"/>
        <edge id=":1105984390_0" sampledSeconds="11.17" CO_abs="29.772608" CO2_abs="2105.960576" HC_abs="0.183305" PMx_abs="0.027790" NOx_abs="0.803623" fuel_abs="0.905274" electricity_abs="0"
            CO_normed="1.007265" CO2_normed="71.248734" HC_normed="0.006202" PMx_normed="0.000940" NOx_normed="0.027188" fuel_normed="0.030627" electricity_normed="0"
            traveltime="1.16" CO_perVeh="3.086110" CO2_perVeh="218.295493" HC_perVeh="0.019001" PMx_perVeh="0.002881" NOx_perVeh="0.083300" fuel_perVeh="0.093837" electricity_perVeh="0"/>
        <edge id=":1105984390_1" sampledSeconds="2399.30" CO_abs="64372.484005" CO2_abs="7579227.434788" HC_abs="473.935366" PMx_abs="137.160468" NOx_abs="2888.417801" fuel_abs="3257.959566" electricity_abs="0"
            CO_normed="2083.301351" CO2_normed="245288.262552" HC_normed="15.338078" PMx_normed="4.438955" NOx_normed="93.478523" fuel_normed="105.438087" electricity_normed="0"
            traveltime="0.65" CO_perVeh="17.383382" CO2_perVeh="2046.722451" HC_perVeh="0.127983" PMx_perVeh="0.037039" NOx_perVeh="0.779999" fuel_perVeh="0.879791" electricity_perVeh="0"/>
        <edge id=":1105984395_0" sampledSeconds="4.21" CO_abs="67.229744" CO2_abs="4826.440005" HC_abs="0.415598" PMx_abs="0.063684" NOx_abs="1.839320" fuel_abs="2.074707" electricity_abs="0"
            CO_normed="31.052043" CO2_normed="2229.233898" HC_normed="0.191956" PMx_normed="0.029414" NOx_normed="0.849544" fuel_normed="0.958265" electricity_normed="0"
            traveltime="0.10" CO_perVeh="1.558361" CO2_perVeh="111.875153" HC_perVeh="0.009633" PMx_perVeh="0.001476" NOx_perVeh="0.042635" fuel_perVeh="0.048091" electricity_perVeh="0"/>
        <edge id=":1105984398_0" sampledSeconds="10.91" CO_abs="594.952062" CO2_abs="39479.605521" HC_abs="3.638836" PMx_abs="0.708849" NOx_abs="16.298121" fuel_abs="16.970557" electricity_abs="0"
            CO_normed="20.910876" CO2_normed="1387.596058" HC_normed="0.127895" PMx_normed="0.024914" NOx_normed="0.572833" fuel_normed="0.596467" electricity_normed="0"
            traveltime="1.19" CO_perVeh="64.761745" CO2_perVeh="4297.435561" HC_perVeh="0.396095" PMx_perVeh="0.077160" NOx_perVeh="1.774084" fuel_perVeh="1.847280" electricity_perVeh="0"/>
        <edge id=":1105984398_1" sampledSeconds="646.19" CO_abs="12078.904155" CO2_abs="1383204.313392" HC_abs="86.604796" PMx_abs="20.036357" NOx_abs="524.812876" fuel_abs="594.580403" electricity_abs="0"
            CO_normed="410.943060" CO2_normed="47058.756809" HC_normed="2.946430" PMx_normed="0.681668" NOx_normed="17.854948" fuel_normed="20.228548" electricity_normed="0"
            traveltime="0.95" CO_perVeh="17.792415" CO2_perVeh="2037.481579" HC_perVeh="0.127570" PMx_perVeh="0.029514" NOx_perVeh="0.773058" fuel_perVeh="0.875826" electricity_perVeh="0"/>
        <edge id=":1106006327_0" sampledSeconds="635.55" CO_abs="86429.392000" CO2_abs="2825561.793586" HC_abs="460.110051" PMx_abs="59.107424" NOx_abs="1237.839733" fuel_abs="1214.608468" electricity_abs="0"
            CO_normed="4145.188548" CO2_normed="135515.084838" HC_normed="22.067064" PMx_normed="2.834816" NOx_normed="59.367294" fuel_normed="58.253113" electricity_normed="0"
            traveltime="2.08" CO_perVeh="282.737868" CO2_perVeh="9243.305983" HC_perVeh="1.505165" PMx_perVeh="0.193359" NOx_perVeh="4.049365" fuel_perVeh="3.973368" electricity_perVeh="0"/>
        <edge id=":1106006327_1" sampledSeconds="687.72" CO_abs="93109.160627" CO2_abs="3096313.664219" HC_abs="496.927329" PMx_abs="64.619579" NOx_abs="1355.217221" fuel_abs="1330.993950" electricity_abs="0"
            CO_normed="3894.173143" CO2_normed="129499.411577" HC_normed="20.783358" PMx_normed="2.702632" NOx_normed="56.680250" fuel_normed="55.667142" electricity_normed="0"
            traveltime="2.31" CO_perVeh="312.544915" CO2_perVeh="10393.575518" HC_perVeh="1.668065" PMx_perVeh="0.216912" NOx_perVeh="4.549136" fuel_perVeh="4.467825" electricity_perVeh="0"/>
        <edge id=":1106006327_2" sampledSeconds="0.00" CO_abs="0" CO2_abs="0" HC_abs="0" PMx_abs="0" NOx_abs="0" fuel_abs="0" electricity_abs="0"
            CO_normed="0" CO2_normed="0" HC_normed="0" PMx_normed="0" NOx_normed="0" fuel_normed="0" electricity_normed="0"/>
        <edge id=":1106006327_3" sampledSeconds="0.00" CO_abs="0" CO2_abs="0" HC_abs="0" PMx_abs="0" NOx_abs="0" fuel_abs="0" electricity_abs="0"
            CO_normed="0" CO2_normed="0" HC_normed="0" PMx_normed="0" NOx_normed="0" fuel_normed="0" electricity_normed="0"/>
        <edge id=":1107381198_0" sampledSeconds="0.00" CO_abs="0" CO2_abs="0" HC_abs="0" PMx_abs="0" NOx_abs="0" fuel_abs="0" electricity_abs="0"
            CO_normed="0" CO2_normed="0" HC_normed="0" PMx_normed="0" NOx_normed="0" fuel_normed="0" electricity_normed="0"/>
        <edge id=":1107381198_1" sampledSeconds="102.06" CO_abs="5062.327669" CO2_abs="201495.630953" HC_abs="27.696427" PMx_abs="3.514270" NOx_abs="83.706535" fuel_abs="86.615934" electricity_abs="0"
            CO_normed="234.583505" CO2_normed="9337.118094" HC_normed="1.283426" PMx_normed="0.162848" NOx_normed="3.878882" fuel_normed="4.013701" electricity_normed="0"
            traveltime="1.53" CO_perVeh="75.792752" CO2_perVeh="3016.775953" HC_perVeh="0.414669" PMx_perVeh="0.052615" NOx_perVeh="1.253247" fuel_perVeh="1.296807" electricity_perVeh="0"/>
        <edge id=":1110338277_0" sampledSeconds="160.18" CO_abs="2457.853136" CO2_abs="315025.721870" HC_abs="18.372802" PMx_abs="4.218619" NOx_abs="117.017029" fuel_abs="135.416403" electricity_abs="0"
            CO_normed="3730.048264" CO2_normed="478084.361397" HC_normed="27.882641" PMx_normed="6.402194" NOx_normed="177.585536" fuel_normed="205.508503" electricity_normed="0"
            traveltime="0.02" CO_perVeh="0.332893" CO2_perVeh="42.667209" HC_perVeh="0.002488" PMx_perVeh="0.000571" NOx_perVeh="0.015849" fuel_perVeh="0.018341" electricity_perVeh="0"/>
        <edge id=":1110338293_0" sampledSeconds="6588.20" CO_abs="610023.740930" CO2_abs="10668015.511753" HC_abs="3027.165921" PMx_abs="254.317143" NOx_abs="4820.855462" fuel_abs="4586.001034" electricity_abs="0"
            CO_normed="864056.290269" CO2_normed="15110503.557724" HC_normed="4287.770427" PMx_normed="360.222582" NOx_normed="6828.407170" fuel_normed="6495.752172" electricity_normed="0"
            traveltime="0.44" CO_perVeh="40.780856" CO2_perVeh="713.170276" HC_perVeh="0.202370" PMx_perVeh="0.017001" NOx_perVeh="0.322280" fuel_perVeh="0.306580" electricity_perVeh="0"/>
        <edge id=":1110338295_0" sampledSeconds="0.00" CO_abs="0" CO2_abs="0" HC_abs="0" PMx_abs="0" NOx_abs="0" fuel_abs="0" electricity_abs="0"
            CO_normed="0" CO2_normed="0" HC_normed="0" PMx_normed="0" NOx_normed="0" fuel_normed="0" electricity_normed="0"/>
        <edge id=":1110673403_0" sampledSeconds="200.68" CO_abs="3057.088486" CO2_abs="388221.600834" HC_abs="22.731190" PMx_abs="5.221554" NOx_abs="144.320850" fuel_abs="166.880239" electricity_abs="0"
            CO_normed="4330.153663" CO2_normed="549888.953023" HC_normed="32.197154" PMx_normed="7.395968" NOx_normed="204.420467" fuel_normed="236.374277" electricity_normed="0"
            traveltime="0.02" CO_perVeh="0.353326" CO2_perVeh="44.869092" HC_perVeh="0.002627" PMx_perVeh="0.000603" NOx_perVeh="0.016680" fuel_perVeh="0.019287" electricity_perVeh="0"/>
        <edge id=":1110673412_0" sampledSeconds="939.96" CO_abs="167384.381836" CO2_abs="11411958.305133" HC_abs="1041.482047" PMx_abs="250.924433" NOx_abs="4905.397538" fuel_abs="4905.438680" electricity_abs="0"
            CO_normed="245263.820215" CO2_normed="16721634.714955" HC_normed="1526.055554" PMx_normed="367.672804" NOx_normed="7187.746709" fuel_normed="7187.806995" electricity_normed="0"
            traveltime="0.02" CO_perVeh="2.763374" CO2_perVeh="188.401729" HC_perVeh="0.017194" PMx_perVeh="0.004143" NOx_perVeh="0.080984" fuel_perVeh="0.080985" electricity_perVeh="0"/>
        <edge id=":1110673414_0" sampledSeconds="0.00" CO_abs="0" CO2_abs="0" HC_abs="0" PMx_abs="0" NOx_abs="0" fuel_abs="0" electricity_abs="0"
            CO_normed="0" CO2_normed="0" HC_normed="0" PMx_normed="0" NOx_normed="0" fuel_normed="0" electricity_normed="0"/>
        <edge id=":1110673414_1" sampledSeconds="240.67" CO_abs="16755.834136" CO2_abs="639722.652527" HC_abs="91.138253" PMx_abs="11.753870" NOx_abs="269.695572" fuel_abs="274.994089" electricity_abs="0"
            CO_normed="788.487579" CO2_normed="30103.745425" HC_normed="4.288738" PMx_normed="0.553108" NOx_normed="12.691198" fuel_normed="12.940533" electricity_normed="0"
            traveltime="1.56" CO_perVeh="108.713433" CO2_perVeh="4150.580948" HC_perVeh="0.591314" PMx_perVeh="0.076260" NOx_perVeh="1.749810" fuel_perVeh="1.784188" electricity_perVeh="0"/>
        <edge id=":1110673417_0" sampledSeconds="29.30" CO_abs="390.306274" CO2_abs="48335.019572" HC_abs="2.885069" PMx_abs="0.647891" NOx_abs="17.983127" fuel_abs="20.777216" electricity_abs="0"
            CO_normed="592.330443" CO2_normed="73353.429135" HC_normed="4.378393" PMx_normed="0.983242" NOx_normed="27.291270" fuel_normed="31.531590" electricity_normed="0"
            traveltime="0.02" CO_perVeh="0.297627" CO2_perVeh="36.857772" HC_perVeh="0.002200" PMx_perVeh="0.000494" NOx_perVeh="0.013713" fuel_perVeh="0.015844" electricity_perVeh="0"/>
        <edge id=":1110673446_0" sampledSeconds="1312.82" CO_abs="14339.834611" CO2_abs="1151022.506242" HC_abs="92.594646" PMx_abs="21.307979" NOx_abs="472.209830" fuel_abs="494.771441" electricity_abs="0"
            CO_normed="20311.380469" CO2_normed="1630343.493261" HC_normed="131.153890" PMx_normed="30.181273" NOx_normed="668.852450" fuel_normed="700.809406" electricity_normed="0"
            traveltime="0.02" CO_perVeh="0.248788" CO2_perVeh="19.969559" HC_perVeh="0.001606" PMx_perVeh="0.000370" NOx_perVeh="0.008193" fuel_perVeh="0.008584" electricity_perVeh="0"/>
        <edge id=":1110673451_0" sampledSeconds="36.72" CO_abs="484.703867" CO2_abs="32642.175270" HC_abs="2.953998" PMx_abs="0.471357" NOx_abs="12.726955" fuel_abs="14.031615" electricity_abs="0"
            CO_normed="762.832652" CO2_normed="51372.639707" HC_normed="4.649036" PMx_normed="0.741828" NOx_normed="20.029831" fuel_normed="22.083120" electricity_normed="0"
            traveltime="0.03" CO_perVeh="0.357120" CO2_perVeh="24.050066" HC_perVeh="0.002176" PMx_perVeh="0.000347" NOx_perVeh="0.009377" fuel_perVeh="0.010338" electricity_perVeh="0"/>
        <edge id=":1110673464_0" sampledSeconds="1028.79" CO_abs="3150.759163" CO2_abs="239279.278212" HC_abs="19.820828" PMx_abs="3.346858" NOx_abs="92.103108" fuel_abs="102.856823" electricity_abs="0"
            CO_normed="94.819370" CO2_normed="7200.902770" HC_normed="0.596491" PMx_normed="0.100721" NOx_normed="2.771763" fuel_normed="3.095387" electricity_normed="0"
            traveltime="1.22" CO_perVeh="3.736362" CO2_perVeh="283.751937" HC_perVeh="0.023505" PMx_perVeh="0.003969" NOx_perVeh="0.109221" fuel_perVeh="0.121974" electricity_perVeh="0"/>
        <edge id=":1110673464_1" sampledSeconds="2605.94" CO_abs="68693.111258" CO2_abs="8144759.923728" HC_abs="507.320042" PMx_abs="146.692554" NOx_abs="3103.678195" fuel_abs="3501.056136" electricity_abs="0"
            CO_normed="2025.656303" CO2_normed="240176.692799" HC_normed="14.960103" PMx_normed="4.325742" NOx_normed="91.522792" fuel_normed="103.240868" electricity_normed="0"
            traveltime="0.72" CO_perVeh="18.942735" CO2_perVeh="2245.989865" HC_perVeh="0.139898" PMx_perVeh="0.040452" NOx_perVeh="0.855867" fuel_perVeh="0.965447" electricity_perVeh="0"/>
        <edge id=":1110673479_0" sampledSeconds="134.29" CO_abs="6632.704685" CO2_abs="455500.290476" HC_abs="40.889499" PMx_abs="7.938795" NOx_abs="186.115640" fuel_abs="195.799876" electricity_abs="0"
            CO_normed="9394.765843" CO2_normed="645184.547416" HC_normed="57.917138" PMx_normed="11.244752" NOx_normed="263.619887" fuel_normed="277.336935" electricity_normed="0"
            traveltime="0.03" CO_perVeh="1.402214" CO2_perVeh="96.296880" HC_perVeh="0.008644" PMx_perVeh="0.001678" NOx_perVeh="0.039347" fuel_perVeh="0.041394" electricity_perVeh="0"/>
        <edge id=":1110673511_0" sampledSeconds="63.42" CO_abs="1110.067072" CO2_abs="121233.130570" HC_abs="7.842780" PMx_abs="1.673393" NOx_abs="45.681930" fuel_abs="52.113095" electricity_abs="0"
            CO_normed="1572.332963" CO2_normed="171718.315256" HC_normed="11.108754" PMx_normed="2.370244" NOx_normed="64.705283" fuel_normed="73.814582" electricity_normed="0"
            traveltime="0.02" CO_perVeh="0.425449" CO2_perVeh="46.464311" HC_perVeh="0.003006" PMx_perVeh="0.000641" NOx_perVeh="0.017508" fuel_perVeh="0.019973" electricity_perVeh="0"/>
        <edge id=":1110673517_0" sampledSeconds="183.25" CO_abs="8026.237307" CO2_abs="573780.182727" HC_abs="49.987863" PMx_abs="9.762046" NOx_abs="232.492290" fuel_abs="246.643414" electricity_abs="0"
            CO_normed="11368.608083" CO2_normed="812719.805563" HC_normed="70.804338" PMx_normed="13.827261" NOx_normed="329.309193" fuel_normed="349.353278" electricity_normed="0"
            traveltime="0.03" CO_perVeh="1.228882" CO2_perVeh="87.850390" HC_perVeh="0.007654" PMx_perVeh="0.001495" NOx_perVeh="0.035596" fuel_perVeh="0.037763" electricity_perVeh="0"/>
        <edge id=":1110673534_0" sampledSeconds="658.05" CO_abs="4681.375058" CO2_abs="405465.615334" HC_abs="30.592133" PMx_abs="5.604637" NOx_abs="154.759309" fuel_abs="174.293471" electricity_abs="0"
            CO_normed="128.504707" CO2_normed="11130.114394" HC_normed="0.839760" PMx_normed="0.153848" NOx_normed="4.248175" fuel_normed="4.784392" electricity_normed="0"
            traveltime="1.45" CO_perVeh="10.293647" CO2_perVeh="891.558532" HC_perVeh="0.067268" PMx_perVeh="0.012324" NOx_perVeh="0.340293" fuel_perVeh="0.383245" electricity_perVeh="0"/>
        <edge id=":1110673534_1" sampledSeconds="264.94" CO_abs="3691.803386" CO2_abs="466117.886280" HC_abs="27.388992" PMx_abs="6.218161" NOx_abs="173.007057" fuel_abs="200.364689" electricity_abs="0"
            CO_normed="98.539886" CO2_normed="12441.400156" HC_normed="0.731054" PMx_normed="0.165972" NOx_normed="4.617823" fuel_normed="5.348040" electricity_normed="0"
            traveltime="1.23" CO_perVeh="17.129042" CO2_perVeh="2162.670056" HC_perVeh="0.127078" PMx_perVeh="0.028851" NOx_perVeh="0.802709" fuel_perVeh="0.929642" electricity_perVeh="0"/>
        <edge id=":1110673549_0" sampledSeconds="653.08" CO_abs="1481.651242" CO2_abs="137494.690810" HC_abs="9.877506" PMx_abs="1.988690" NOx_abs="52.474871" fuel_abs="59.103301" electricity_abs="0"
            CO_normed="39.399052" CO2_normed="3656.164331" HC_normed="0.262656" PMx_normed="0.052882" NOx_normed="1.395376" fuel_normed="1.571634" electricity_normed="0"
            traveltime="1.30" CO_perVeh="2.943688" CO2_perVeh="273.169166" HC_perVeh="0.019624" PMx_perVeh="0.003951" NOx_perVeh="0.104255" fuel_perVeh="0.117424" electricity_perVeh="0"/>
        <edge id=":1110673549_1" sampledSeconds="3198.28" CO_abs="72093.325480" CO2_abs="9508187.191748" HC_abs="555.050954" PMx_abs="166.970580" NOx_abs="3552.148554" fuel_abs="4087.134609" electricity_abs="0"
            CO_normed="1854.392105" CO2_normed="244570.591533" HC_normed="14.277079" PMx_normed="4.294835" NOx_normed="91.368739" fuel_normed="105.129707" electricity_normed="0"
            traveltime="0.81" CO_perVeh="18.183041" CO2_perVeh="2398.110519" HC_perVeh="0.139992" PMx_perVeh="0.042113" NOx_perVeh="0.895906" fuel_perVeh="1.030838" electricity_perVeh="0"/>
        <edge id=":1110673556_0" sampledSeconds="460.08" CO_abs="56449.897544" CO2_abs="2734411.405577" HC_abs="322.012185" PMx_abs="55.297878" NOx_abs="1179.261779" fuel_abs="1175.406461" electricity_abs="0"
            CO_normed="1113.095526" CO2_normed="53917.920750" HC_normed="6.349530" PMx_normed="1.090380" NOx_normed="23.253027" fuel_normed="23.177007" electricity_normed="0"
            traveltime="2.71" CO_perVeh="332.766718" CO2_perVeh="16119.092319" HC_perVeh="1.898231" PMx_perVeh="0.325976" NOx_perVeh="6.951635" fuel_perVeh="6.928908" electricity_perVeh="0"/>
        <edge id=":1110673556_2" sampledSeconds="173.42" CO_abs="16806.098500" CO2_abs="724467.052311" HC_abs="93.526468" PMx_abs="13.910838" NOx_abs="308.552048" fuel_abs="311.420007" electricity_abs="0"
            CO_normed="346.501777" CO2_normed="14936.787451" HC_normed="1.928293" PMx_normed="0.286808" NOx_normed="6.361609" fuel_normed="6.420740" electricity_normed="0"
            traveltime="3.00" CO_perVeh="290.601458" CO2_perVeh="12527.070565" HC_perVeh="1.617206" PMx_perVeh="0.240538" NOx_perVeh="5.335306" fuel_perVeh="5.384897" electricity_perVeh="0"/>
        <edge id=":1110673556_3" sampledSeconds="342.16" CO_abs="34680.941260" CO2_abs="1205066.727990" HC_abs="186.098373" PMx_abs="23.818162" NOx_abs="519.210249" fuel_abs="518.015535" electricity_abs="0"
            CO_normed="1626.594247" CO2_normed="56519.648425" HC_normed="8.728325" PMx_normed="1.117112" NOx_normed="24.351831" fuel_normed="24.295796" electricity_normed="0"
            traveltime="1.82" CO_perVeh="184.978758" CO2_perVeh="6427.499921" HC_perVeh="0.992598" PMx_perVeh="0.127040" NOx_perVeh="2.769327" fuel_perVeh="2.762955" electricity_perVeh="0"/>
        <edge id=":1110673556_4" sampledSeconds="88.79" CO_abs="10196.126999" CO2_abs="390464.139572" HC_abs="55.606353" PMx_abs="7.783671" NOx_abs="168.446283" fuel_abs="167.845744" electricity_abs="0"
            CO_normed="292.153194" CO2_normed="11188.105600" HC_normed="1.593308" PMx_normed="0.223028" NOx_normed="4.826550" fuel_normed="4.809343" electricity_normed="0"
            traveltime="2.59" CO_perVeh="297.023186" CO2_perVeh="11374.603579" HC_perVeh="1.619868" PMx_perVeh="0.226746" NOx_perVeh="4.907006" fuel_perVeh="4.889511" electricity_perVeh="0"/>
        <edge id=":1110673556_5" sampledSeconds="22.23" CO_abs="962.423311" CO2_abs="44437.090836" HC_abs="5.409211" PMx_abs="0.759130" NOx_abs="18.307679" fuel_abs="19.101851" electricity_abs="0"
            CO_normed="38.436254" CO2_normed="1774.682002" HC_normed="0.216027" PMx_normed="0.030317" NOx_normed="0.731153" fuel_normed="0.762870" electricity_normed="0"
            traveltime="1.54" CO_perVeh="66.537908" CO2_perVeh="3072.193934" HC_perVeh="0.373970" PMx_perVeh="0.052483" NOx_perVeh="1.265716" fuel_perVeh="1.320622" electricity_perVeh="0"/>
        <edge id=":1110673556_6" sampledSeconds="211.21" CO_abs="26125.990095" CO2_abs="1324622.918848" HC_abs="150.510644" PMx_abs="26.919130" NOx_abs="571.371413" fuel_abs="569.397547" electricity_abs="0"
            CO_normed="528.149168" CO2_normed="26777.874819" HC_normed="3.042643" PMx_normed="0.544183" NOx_normed="11.550542" fuel_normed="11.510639" electricity_normed="0"
            traveltime="2.46" CO_perVeh="304.433900" CO2_perVeh="15435.209133" HC_perVeh="1.753830" PMx_perVeh="0.313676" NOx_perVeh="6.657923" fuel_perVeh="6.634922" electricity_perVeh="0"/>
        <edge id=":1110673561_0" sampledSeconds="104.31" CO_abs="9733.262511" CO2_abs="692760.222916" HC_abs="60.983665" PMx_abs="13.958237" NOx_abs="292.984249" fuel_abs="297.784713" electricity_abs="0"
            CO_normed="247.217408" CO2_normed="17595.578745" HC_normed="1.548938" PMx_normed="0.354529" NOx_normed="7.441575" fuel_normed="7.563504" electricity_normed="0"
            traveltime="1.23" CO_perVeh="114.861945" CO2_perVeh="8175.243023" HC_perVeh="0.719666" PMx_perVeh="0.164721" NOx_perVeh="3.457499" fuel_perVeh="3.514149" electricity_perVeh="0"/>
        <edge id=":1110673561_1" sampledSeconds="5187.34" CO_abs="486424.525730" CO2_abs="33666846.358246" HC_abs="3029.514370" PMx_abs="704.379954" NOx_abs="14398.289100" fuel_abs="14471.750627" electricity_abs="0"
            CO_normed="12045.219936" CO2_normed="833684.461812" HC_normed="75.019176" PMx_normed="17.442401" NOx_normed="356.541559" fuel_normed="358.360670" electricity_normed="0"
            traveltime="1.19" CO_perVeh="111.710184" CO2_perVeh="7731.784451" HC_perVeh="0.695745" PMx_perVeh="0.161765" NOx_perVeh="3.306650" fuel_perVeh="3.323521" electricity_perVeh="0"/>
        <edge id=":1110673562_0" sampledSeconds="300.69" CO_abs="7157.350960" CO2_abs="535933.101508" HC_abs="44.844184" PMx_abs="7.495069" NOx_abs="206.530485" fuel_abs="230.376786" electricity_abs="0"
            CO_normed="11264.323197" CO2_normed="843457.824218" HC_normed="70.576305" PMx_normed="11.795828" NOx_normed="325.040109" fuel_normed="362.569698" electricity_normed="0"
            traveltime="0.03" CO_perVeh="0.641598" CO2_perVeh="48.042032" HC_perVeh="0.004020" PMx_perVeh="0.000672" NOx_perVeh="0.018514" fuel_perVeh="0.020651" electricity_perVeh="0"/>
        <edge id=":1110673564_0" sampledSeconds="27.70" CO_abs="430.451317" CO2_abs="53045.895153" HC_abs="3.168807" PMx_abs="0.730019" NOx_abs="19.839337" fuel_abs="22.802198" electricity_abs="0"
            CO_normed="1829.113244" CO2_normed="225407.486484" HC_normed="13.465186" PMx_normed="3.102065" NOx_normed="84.303132" fuel_normed="96.893192" electricity_normed="0"
            traveltime="7.824687e-03" CO_perVeh="0.121579" CO2_perVeh="14.982600" HC_perVeh="0.000895" PMx_perVeh="0.000206" NOx_perVeh="0.005604" fuel_perVeh="0.006440" electricity_perVeh="0"/>
        <edge id=":1110673588_0" sampledSeconds="63.23" CO_abs="1010.494424" CO2_abs="111218.824260" HC_abs="7.156893" PMx_abs="1.557740" NOx_abs="42.013578" fuel_abs="47.808322" electricity_abs="0"
            CO_normed="1717.554262" CO2_normed="189040.494493" HC_normed="12.164691" PMx_normed="2.647716" NOx_normed="71.411180" fuel_normed="81.260604" electricity_normed="0"
            traveltime="0.02" CO_perVeh="0.325966" CO2_perVeh="35.877040" HC_perVeh="0.002309" PMx_perVeh="0.000502" NOx_perVeh="0.013553" fuel_perVeh="0.015422" electricity_perVeh="0"/>
        <edge id=":1110673601_0" sampledSeconds="29.13" CO_abs="600.715348" CO2_abs="63803.660508" HC_abs="4.208008" PMx_abs="0.919054" NOx_abs="24.292654" fuel_abs="27.426503" electricity_abs="0"
            CO_normed="911.648140" CO2_normed="96828.703726" HC_normed="6.386090" PMx_normed="1.394761" NOx_normed="36.866634" fuel_normed="41.622576" electricity_normed="0"
            traveltime="0.02" CO_perVeh="0.458074" CO2_perVeh="48.653354" HC_perVeh="0.003209" PMx_perVeh="0.000701" NOx_perVeh="0.018524" fuel_perVeh="0.020914" electricity_perVeh="0"/>
        <edge id=":1110673617_0" sampledSeconds="854.91" CO_abs="33042.404485" CO2_abs="3336576.960401" HC_abs="230.443378" PMx_abs="62.928763" NOx_abs="1309.421299" fuel_abs="1434.238191" electricity_abs="0"
            CO_normed="46802.272642" CO2_normed="4726029.688953" HC_normed="326.407051" PMx_normed="89.134226" NOx_normed="1854.704389" fuel_normed="2031.498855" electricity_normed="0"
            traveltime="0.02" CO_perVeh="0.586196" CO2_perVeh="59.193317" HC_perVeh="0.004088" PMx_perVeh="0.001116" NOx_perVeh="0.023230" fuel_perVeh="0.025444" electricity_perVeh="0"/>
        <edge id=":1110673621_0" sampledSeconds="26.56" CO_abs="574.630321" CO2_abs="58303.029625" HC_abs="3.968856" PMx_abs="0.876777" NOx_abs="22.466528" fuel_abs="25.061976" electricity_abs="0"
            CO_normed="976.708761" CO2_normed="99098.633924" HC_normed="6.745931" PMx_normed="1.490273" NOx_normed="38.186733" fuel_normed="42.598259" electricity_normed="0"
            traveltime="0.02" CO_perVeh="0.435326" CO2_perVeh="44.168962" HC_perVeh="0.003007" PMx_perVeh="0.000664" NOx_perVeh="0.017020" fuel_perVeh="0.018986" electricity_perVeh="0"/>
        <edge id=":1110673630_0" sampledSeconds="288.02" CO_abs="1254.707572" CO2_abs="104668.342159" HC_abs="8.098835" PMx_abs="1.387755" NOx_abs="39.661948" fuel_abs="44.992860" electricity_abs="0"
            CO_normed="38.028663" CO2_normed="3172.370374" HC_normed="0.245466" PMx_normed="0.042061" NOx_normed="1.202105" fuel_normed="1.363679" electricity_normed="0"
            traveltime="1.30" CO_perVeh="5.645705" CO2_perVeh="470.967565" HC_perVeh="0.036442" PMx_perVeh="0.006244" NOx_perVeh="0.178464" fuel_perVeh="0.202451" electricity_perVeh="0"/>
        <edge id=":1110673630_1" sampledSeconds="337.29" CO_abs="1234.858612" CO2_abs="108684.670749" HC_abs="8.088985" PMx_abs="1.368050" NOx_abs="40.646867" fuel_abs="46.719384" electricity_abs="0"
            CO_normed="45.628474" CO2_normed="4015.938074" HC_normed="0.298891" PMx_normed="0.050550" NOx_normed="1.501917" fuel_normed="1.726298" electricity_normed="0"
            traveltime="1.08" CO_perVeh="3.936486" CO2_perVeh="346.465340" HC_perVeh="0.025786" PMx_perVeh="0.004361" NOx_perVeh="0.129574" fuel_perVeh="0.148932" electricity_perVeh="0"/>
        <edge id=":1110673650_0" sampledSeconds="199.36" CO_abs="3086.924248" CO2_abs="385512.759290" HC_abs="22.895724" PMx_abs="5.215599" NOx_abs="143.654805" fuel_abs="165.715820" electricity_abs="0"
            CO_normed="4372.413949" CO2_normed="546052.066983" HC_normed="32.430204" PMx_normed="7.387534" NOx_normed="203.477060" fuel_normed="234.724958" electricity_normed="0"
            traveltime="0.02" CO_perVeh="0.356775" CO2_perVeh="44.556143" HC_perVeh="0.002646" PMx_perVeh="0.000603" NOx_perVeh="0.016603" fuel_perVeh="0.019153" electricity_perVeh="0"/>
        <edge id=":1110673655_0" sampledSeconds="20.82" CO_abs="246.875619" CO2_abs="32076.756016" HC_abs="1.836333" PMx_abs="0.412660" NOx_abs="11.793494" fuel_abs="13.788479" electricity_abs="0"
            CO_normed="349.682180" CO2_normed="45434.498606" HC_normed="2.601039" PMx_normed="0.584504" NOx_normed="16.704666" fuel_normed="19.530424" electricity_normed="0"
            traveltime="0.02" CO_perVeh="0.282037" CO2_perVeh="36.645286" HC_perVeh="0.002098" PMx_perVeh="0.000471" NOx_perVeh="0.013473" fuel_perVeh="0.015752" electricity_perVeh="0"/>
        <edge id=":1110673663_0" sampledSeconds="111.75" CO_abs="2257.459121" CO2_abs="229469.503182" HC_abs="15.601500" PMx_abs="3.440874" NOx_abs="88.372197" fuel_abs="98.639124" electricity_abs="0"
            CO_normed="58.562897" CO2_normed="5952.886903" HC_normed="0.404733" PMx_normed="0.089263" NOx_normed="2.292547" fuel_normed="2.558891" electricity_normed="0"
            traveltime="1.31" CO_perVeh="26.514922" CO2_perVeh="2695.227568" HC_perVeh="0.183247" PMx_perVeh="0.040415" NOx_perVeh="1.037973" fuel_perVeh="1.158563" electricity_perVeh="0"/>
        <edge id=":1110673663_1" sampledSeconds="170.65" CO_abs="2817.822417" CO2_abs="322609.449223" HC_abs="20.291825" PMx_abs="4.603514" NOx_abs="122.141900" fuel_abs="138.676118" electricity_abs="0"
            CO_normed="73.189179" CO2_normed="8379.350136" HC_normed="0.527053" PMx_normed="0.119570" NOx_normed="3.172473" fuel_normed="3.601927" electricity_normed="0"
            traveltime="1.28" CO_perVeh="21.108004" CO2_perVeh="2416.632579" HC_perVeh="0.152004" PMx_perVeh="0.034484" NOx_perVeh="0.914952" fuel_perVeh="1.038808" electricity_perVeh="0"/>