<?xml version="1.0" encoding="UTF-8"?>

<!-- generated on Tue Nov 10 02:04:49 2020 by Eclipse SUMO sumo Version 1.7.0
<configuration xmlns:xsi="http://www.w3.org/2001/XMLSchema-instance" xsi:noNamespaceSchemaLocation="http://sumo.dlr.de/xsd/sumoConfiguration.xsd">

    <input>
        <net-file value="../dataSets/Porto/6AM7AM_Routing_SaoBento/Porto.net.xml"/>
        <route-files value="../results/Porto/6AM7AM_Routing_SaoBento/cost_co2-cost_nox/solution3/Porto.rou.xml"/>
        <additional-files value="moreOutputInfo.xml"/>
    </input>

    <output>
        <emission-output.precision value="6"/>
        <tripinfo-output value="../results/Porto/6AM7AM_Routing_SaoBento/cost_co2-cost_nox/solution3/Porto-tripinfo"/>
    </output>

    <processing>
        <collision.action value="warn"/>
        <time-to-teleport value="-1"/>
    </processing>

    <emissions>
        <device.emissions.probability value="1"/>
    </emissions>

    <gui_only>
        <quit-on-end value="true"/>
        <start value="true"/>
    </gui_only>

</configuration>
-->

<meandata xmlns:xsi="http://www.w3.org/2001/XMLSchema-instance" xsi:noNamespaceSchemaLocation="http://sumo.dlr.de/xsd/meandata_file.xsd">
    <interval begin="0.00" end="4788.00" id="emissions-detector">
        <edge id=":1092997347_0" sampledSeconds="271.23" CO_abs="34867.773612" CO2_abs="1370125.638661" HC_abs="191.150735" PMx_abs="28.039897" NOx_abs="595.383588" fuel_abs="588.963267" electricity_abs="0"
            CO_normed="59582.661675" CO2_normed="2341294.666202" HC_normed="326.641721" PMx_normed="47.915066" NOx_normed="1017.401893" fuel_normed="1006.430736" electricity_normed="0"
            traveltime="0.08" CO_perVeh="9.788221" CO2_perVeh="384.627172" HC_perVeh="0.053661" PMx_perVeh="0.007871" NOx_perVeh="0.167138" fuel_perVeh="0.165336" electricity_perVeh="0"/>
        <edge id=":1103427051_0" sampledSeconds="11.41" CO_abs="940.087742" CO2_abs="51887.855003" HC_abs="5.509340" PMx_abs="1.005633" NOx_abs="22.078449" fuel_abs="22.304325" electricity_abs="0"
            CO_normed="2437.354788" CO2_normed="134529.051084" HC_normed="14.284004" PMx_normed="2.607294" NOx_normed="57.242545" fuel_normed="57.828170" electricity_normed="0"
            traveltime="0.03" CO_perVeh="2.575826" CO2_perVeh="142.171938" HC_perVeh="0.015096" PMx_perVeh="0.002755" NOx_perVeh="0.060495" fuel_perVeh="0.061114" electricity_perVeh="0"/>
        <edge id=":1105984386_0" sampledSeconds="23.01" CO_abs="358.483417" CO2_abs="25709.778711" HC_abs="2.227149" PMx_abs="0.399426" NOx_abs="10.181555" fuel_abs="11.051584" electricity_abs="0"
            CO_normed="27.758641" CO2_normed="1990.799247" HC_normed="0.172456" PMx_normed="0.030929" NOx_normed="0.788394" fuel_normed="0.855763" electricity_normed="0"
            traveltime="0.97" CO_perVeh="15.045271" CO2_perVeh="1079.019499" HC_perVeh="0.093472" PMx_perVeh="0.016764" NOx_perVeh="0.427312" fuel_perVeh="0.463826" electricity_perVeh="0"/>
        <edge id=":1105984390_0" sampledSeconds="23.22" CO_abs="10.539618" CO2_abs="1416.123586" HC_abs="0.079418" PMx_abs="0.012723" NOx_abs="0.489472" fuel_abs="0.608741" electricity_abs="0"
            CO_normed="0.630934" CO2_normed="84.773453" HC_normed="0.004754" PMx_normed="0.000762" NOx_normed="0.029301" fuel_normed="0.036441" electricity_normed="0"
            traveltime="1.05" CO_perVeh="0.477967" CO2_perVeh="64.220509" HC_perVeh="0.003602" PMx_perVeh="0.000577" NOx_perVeh="0.022197" fuel_perVeh="0.027606" electricity_perVeh="0"/>
        <edge id=":1105984390_1" sampledSeconds="646.59" CO_abs="14224.382917" CO2_abs="1840549.711275" HC_abs="108.623531" PMx_abs="32.549715" NOx_abs="689.034528" fuel_abs="791.167974" electricity_abs="0"
            CO_normed="814.548724" CO2_normed="105397.712366" HC_normed="6.220246" PMx_normed="1.863935" NOx_normed="39.457051" fuel_normed="45.305646" electricity_normed="0"
            traveltime="0.64" CO_perVeh="14.004004" CO2_perVeh="1812.033987" HC_perVeh="0.106941" PMx_perVeh="0.032045" NOx_perVeh="0.678359" fuel_perVeh="0.778910" electricity_perVeh="0"/>
        <edge id=":1105984395_0" sampledSeconds="8.97" CO_abs="166.745784" CO2_abs="15042.696556" HC_abs="1.100380" PMx_abs="0.187467" NOx_abs="5.612377" fuel_abs="6.466279" electricity_abs="0"
            CO_normed="136.274750" CO2_normed="12293.802351" HC_normed="0.899297" PMx_normed="0.153209" NOx_normed="4.586774" fuel_normed="5.284635" electricity_normed="0"
            traveltime="0.09" CO_perVeh="1.690985" CO2_perVeh="152.549392" HC_perVeh="0.011159" PMx_perVeh="0.001901" NOx_perVeh="0.056916" fuel_perVeh="0.065575" electricity_perVeh="0"/>
        <edge id=":1105984398_0" sampledSeconds="23.75" CO_abs="1352.927254" CO2_abs="97046.872350" HC_abs="8.439164" PMx_abs="1.678709" NOx_abs="39.508341" fuel_abs="41.716228" electricity_abs="0"
            CO_normed="84.138837" CO2_normed="6035.365856" HC_normed="0.524833" PMx_normed="0.104399" NOx_normed="2.457032" fuel_normed="2.594341" electricity_normed="0"
            traveltime="1.11" CO_perVeh="62.967774" CO2_perVeh="4516.743575" HC_perVeh="0.392775" PMx_perVeh="0.078130" NOx_perVeh="1.838792" fuel_perVeh="1.941552" electricity_perVeh="0"/>
        <edge id=":1105984398_1" sampledSeconds="450.11" CO_abs="7797.937103" CO2_abs="922769.057118" HC_abs="56.689323" PMx_abs="13.125188" NOx_abs="348.371194" fuel_abs="396.659161" electricity_abs="0"
            CO_normed="469.424388" CO2_normed="55549.345167" HC_normed="3.412614" PMx_normed="0.790117" NOx_normed="20.971435" fuel_normed="23.878300" electricity_normed="0"
            traveltime="0.95" CO_perVeh="16.519647" CO2_perVeh="1954.852826" HC_perVeh="0.120094" PMx_perVeh="0.027805" NOx_perVeh="0.738012" fuel_perVeh="0.840308" electricity_perVeh="0"/>
        <edge id=":1106006327_0" sampledSeconds="445.75" CO_abs="60121.869737" CO2_abs="1953925.377622" HC_abs="319.752293" PMx_abs="40.749623" NOx_abs="855.248997" fuel_abs="839.923476" electricity_abs="0"
            CO_normed="5102.078255" CO2_normed="165814.540099" HC_normed="27.134905" PMx_normed="3.458105" NOx_normed="72.578370" fuel_normed="71.277812" electricity_normed="0"
            traveltime="2.09" CO_perVeh="281.574470" CO2_perVeh="9151.004523" HC_perVeh="1.497526" PMx_perVeh="0.190847" NOx_perVeh="4.005469" fuel_perVeh="3.933693" electricity_perVeh="0"/>
        <edge id=":1106006327_1" sampledSeconds="162.43" CO_abs="22058.303918" CO2_abs="735087.597538" HC_abs="117.767170" PMx_abs="15.358005" NOx_abs="321.846450" fuel_abs="315.987671" electricity_abs="0"
            CO_normed="1632.400681" CO2_normed="54399.354504" HC_normed="8.715231" PMx_normed="1.136552" NOx_normed="23.817895" fuel_normed="23.384322" electricity_normed="0"
            traveltime="2.31" CO_perVeh="313.146054" CO2_perVeh="10435.515860" HC_perVeh="1.671857" PMx_perVeh="0.218027" NOx_perVeh="4.569025" fuel_perVeh="4.485852" electricity_perVeh="0"/>
        <edge id=":1106006327_2" sampledSeconds="0.00" CO_abs="0" CO2_abs="0" HC_abs="0" PMx_abs="0" NOx_abs="0" fuel_abs="0" electricity_abs="0"
            CO_normed="0" CO2_normed="0" HC_normed="0" PMx_normed="0" NOx_normed="0" fuel_normed="0" electricity_normed="0"/>
        <edge id=":1106006327_3" sampledSeconds="0.00" CO_abs="0" CO2_abs="0" HC_abs="0" PMx_abs="0" NOx_abs="0" fuel_abs="0" electricity_abs="0"
            CO_normed="0" CO2_normed="0" HC_normed="0" PMx_normed="0" NOx_normed="0" fuel_normed="0" electricity_normed="0"/>
        <edge id=":1107381198_0" sampledSeconds="0.00" CO_abs="0" CO2_abs="0" HC_abs="0" PMx_abs="0" NOx_abs="0" fuel_abs="0" electricity_abs="0"
            CO_normed="0" CO2_normed="0" HC_normed="0" PMx_normed="0" NOx_normed="0" fuel_normed="0" electricity_normed="0"/>
        <edge id=":1107381198_1" sampledSeconds="34.79" CO_abs="1478.392931" CO2_abs="62858.309164" HC_abs="8.180106" PMx_abs="1.074233" NOx_abs="25.948323" fuel_abs="27.020541" electricity_abs="0"
            CO_normed="121.218499" CO2_normed="5153.968003" HC_normed="0.670715" PMx_normed="0.088080" NOx_normed="2.127592" fuel_normed="2.215507" electricity_normed="0"
            traveltime="1.43" CO_perVeh="60.870272" CO2_perVeh="2588.082180" HC_perVeh="0.336802" PMx_perVeh="0.044230" NOx_perVeh="1.068377" fuel_perVeh="1.112524" electricity_perVeh="0"/>
        <edge id=":1110338277_0" sampledSeconds="96.40" CO_abs="1380.142110" CO2_abs="184359.255252" HC_abs="10.486255" PMx_abs="2.392386" NOx_abs="67.904783" fuel_abs="79.248423" electricity_abs="0"
            CO_normed="3706.074409" CO2_normed="495057.076401" HC_normed="28.158580" PMx_normed="6.424236" NOx_normed="182.343669" fuel_normed="212.804573" electricity_normed="0"
            traveltime="0.02" CO_perVeh="0.311043" CO2_perVeh="41.549101" HC_perVeh="0.002363" PMx_perVeh="0.000539" NOx_perVeh="0.015304" fuel_perVeh="0.017860" electricity_perVeh="0"/>
        <edge id=":1110338293_0" sampledSeconds="123.47" CO_abs="6494.998760" CO2_abs="444978.685382" HC_abs="40.052179" PMx_abs="7.921731" NOx_abs="182.939281" fuel_abs="191.276849" electricity_abs="0"
            CO_normed="16278.192381" CO2_normed="1115234.800457" HC_normed="100.381400" PMx_normed="19.853962" NOx_normed="458.494439" fuel_normed="479.390598" electricity_normed="0"
            traveltime="0.03" CO_perVeh="1.489753" CO2_perVeh="102.064458" HC_perVeh="0.009187" PMx_perVeh="0.001817" NOx_perVeh="0.041961" fuel_perVeh="0.043873" electricity_perVeh="0"/>
        <edge id=":1110338295_0" sampledSeconds="0.00" CO_abs="0" CO2_abs="0" HC_abs="0" PMx_abs="0" NOx_abs="0" fuel_abs="0" electricity_abs="0"
            CO_normed="0" CO2_normed="0" HC_normed="0" PMx_normed="0" NOx_normed="0" fuel_normed="0" electricity_normed="0"/>
        <edge id=":1110673403_0" sampledSeconds="143.86" CO_abs="2021.643680" CO2_abs="259959.092092" HC_abs="15.128201" PMx_abs="3.508312" NOx_abs="96.643130" fuel_abs="111.745519" electricity_abs="0"
            CO_normed="5066.776141" CO2_normed="651526.546597" HC_normed="37.915291" PMx_normed="8.792762" NOx_normed="242.213358" fuel_normed="280.063958" electricity_normed="0"
            traveltime="0.02" CO_perVeh="0.324589" CO2_perVeh="41.738287" HC_perVeh="0.002429" PMx_perVeh="0.000563" NOx_perVeh="0.015517" fuel_perVeh="0.017942" electricity_perVeh="0"/>
        <edge id=":1110673412_0" sampledSeconds="252.44" CO_abs="44908.535474" CO2_abs="3070332.378665" HC_abs="279.628720" PMx_abs="67.415944" NOx_abs="1318.939757" fuel_abs="1319.784695" electricity_abs="0"
            CO_normed="116433.848779" CO2_normed="7960415.811939" HC_normed="724.990200" PMx_normed="174.788551" NOx_normed="3419.600096" fuel_normed="3421.790756" electricity_normed="0"
            traveltime="0.02" CO_perVeh="2.760999" CO2_perVeh="188.765579" HC_perVeh="0.017192" PMx_perVeh="0.004145" NOx_perVeh="0.081089" fuel_perVeh="0.081141" electricity_perVeh="0"/>
        <edge id=":1110673414_0" sampledSeconds="0.00" CO_abs="0" CO2_abs="0" HC_abs="0" PMx_abs="0" NOx_abs="0" fuel_abs="0" electricity_abs="0"
            CO_normed="0" CO2_normed="0" HC_normed="0" PMx_normed="0" NOx_normed="0" fuel_normed="0" electricity_normed="0"/>
        <edge id=":1110673414_1" sampledSeconds="130.26" CO_abs="9448.993294" CO2_abs="365428.053297" HC_abs="51.526412" PMx_abs="6.814648" NOx_abs="154.712054" fuel_abs="157.084306" electricity_abs="0"
            CO_normed="786.767025" CO2_normed="30427.235306" HC_normed="4.290328" PMx_normed="0.567419" NOx_normed="12.882043" fuel_normed="13.079568" electricity_normed="0"
            traveltime="1.55" CO_perVeh="112.580064" CO2_perVeh="4353.893814" HC_perVeh="0.613912" PMx_perVeh="0.081193" NOx_perVeh="1.843317" fuel_perVeh="1.871582" electricity_perVeh="0"/>
        <edge id=":1110673417_0" sampledSeconds="29.96" CO_abs="602.679719" CO2_abs="63049.991260" HC_abs="4.199087" PMx_abs="0.939554" NOx_abs="24.204553" fuel_abs="27.102491" electricity_abs="0"
            CO_normed="1618.366591" CO2_normed="169307.173094" HC_normed="11.275743" PMx_normed="2.522971" NOx_normed="64.996114" fuel_normed="72.777903" electricity_normed="0"
            traveltime="0.02" CO_perVeh="0.447317" CO2_perVeh="46.796548" HC_perVeh="0.003117" PMx_perVeh="0.000697" NOx_perVeh="0.017965" fuel_perVeh="0.020116" electricity_perVeh="0"/>
        <edge id=":1110673446_0" sampledSeconds="333.33" CO_abs="3303.978506" CO2_abs="277328.063378" HC_abs="21.595846" PMx_abs="4.983198" NOx_abs="112.556823" fuel_abs="119.210658" electricity_abs="0"
            CO_normed="8280.647885" CO2_normed="695057.802953" HC_normed="54.124928" PMx_normed="12.489219" NOx_normed="282.097300" fuel_normed="298.773578" electricity_normed="0"
            traveltime="0.02" CO_perVeh="0.225382" CO2_perVeh="18.918031" HC_perVeh="0.001473" PMx_perVeh="0.000340" NOx_perVeh="0.007678" fuel_perVeh="0.008132" electricity_perVeh="0"/>
        <edge id=":1110673451_0" sampledSeconds="37.63" CO_abs="349.957551" CO2_abs="25811.954866" HC_abs="2.179777" PMx_abs="0.341738" NOx_abs="9.824495" fuel_abs="11.095589" electricity_abs="0"
            CO_normed="974.540661" CO2_normed="71879.573562" HC_normed="6.070112" PMx_normed="0.951652" NOx_normed="27.358660" fuel_normed="30.898326" electricity_normed="0"
            traveltime="0.03" CO_perVeh="0.250966" CO2_perVeh="18.510565" HC_perVeh="0.001563" PMx_perVeh="0.000245" NOx_perVeh="0.007045" fuel_perVeh="0.007957" electricity_perVeh="0"/>
        <edge id=":1110673464_0" sampledSeconds="322.02" CO_abs="654.377641" CO2_abs="46706.448423" HC_abs="4.051993" PMx_abs="0.684371" NOx_abs="18.244026" fuel_abs="20.077259" electricity_abs="0"
            CO_normed="34.845132" CO2_normed="2487.084305" HC_normed="0.215766" PMx_normed="0.036442" NOx_normed="0.971481" fuel_normed="1.069099" electricity_normed="0"
            traveltime="1.16" CO_perVeh="2.365489" CO2_perVeh="168.837649" HC_perVeh="0.014647" PMx_perVeh="0.002474" NOx_perVeh="0.065950" fuel_perVeh="0.072577" electricity_perVeh="0"/>
        <edge id=":1110673464_1" sampledSeconds="708.74" CO_abs="15992.295393" CO2_abs="2032302.365054" HC_abs="121.490796" PMx_abs="36.163504" NOx_abs="763.243272" fuel_abs="873.593498" electricity_abs="0"
            CO_normed="834.440128" CO2_normed="106040.728037" HC_normed="6.339102" PMx_normed="1.886926" NOx_normed="39.824228" fuel_normed="45.582041" electricity_normed="0"
            traveltime="0.70" CO_perVeh="15.781599" CO2_perVeh="2005.527083" HC_perVeh="0.119890" PMx_perVeh="0.035687" NOx_perVeh="0.753188" fuel_perVeh="0.862084" electricity_perVeh="0"/>
        <edge id=":1110673479_0" sampledSeconds="133.53" CO_abs="6619.579148" CO2_abs="463114.405678" HC_abs="41.016366" PMx_abs="8.054719" NOx_abs="189.019846" fuel_abs="199.072786" electricity_abs="0"
            CO_normed="16590.423929" CO2_normed="1160687.733530" HC_normed="102.797909" PMx_normed="20.187266" NOx_normed="473.733949" fuel_normed="498.929289" electricity_normed="0"
            traveltime="0.03" CO_perVeh="1.394483" CO2_perVeh="97.559842" HC_perVeh="0.008641" PMx_perVeh="0.001697" NOx_perVeh="0.039819" fuel_perVeh="0.041937" electricity_perVeh="0"/>
        <edge id=":1110673511_0" sampledSeconds="11.79" CO_abs="208.316904" CO2_abs="23334.494135" HC_abs="1.481450" PMx_abs="0.328435" NOx_abs="8.812656" fuel_abs="10.030518" electricity_abs="0"
            CO_normed="522.097503" CO2_normed="58482.441442" HC_normed="3.712907" PMx_normed="0.823146" NOx_normed="22.086858" fuel_normed="25.139143" electricity_normed="0"
            traveltime="0.02" CO_perVeh="0.412509" CO2_perVeh="46.206919" HC_perVeh="0.002934" PMx_perVeh="0.000650" NOx_perVeh="0.017451" fuel_perVeh="0.019862" electricity_perVeh="0"/>
        <edge id=":1110673517_0" sampledSeconds="17.24" CO_abs="673.579851" CO2_abs="48011.907308" HC_abs="4.193912" PMx_abs="0.827355" NOx_abs="19.511681" fuel_abs="20.638240" electricity_abs="0"
            CO_normed="1688.170052" CO2_normed="120330.594756" HC_normed="10.511057" PMx_normed="2.073570" NOx_normed="48.901457" fuel_normed="51.724912" electricity_normed="0"
            traveltime="0.03" CO_perVeh="1.081477" CO2_perVeh="77.086284" HC_perVeh="0.006734" PMx_perVeh="0.001328" NOx_perVeh="0.031327" fuel_perVeh="0.033136" electricity_perVeh="0"/>
        <edge id=":1110673534_0" sampledSeconds="474.76" CO_abs="2991.118149" CO2_abs="269788.789345" HC_abs="19.757359" PMx_abs="3.453182" NOx_abs="101.104221" fuel_abs="115.971751" electricity_abs="0"
            CO_normed="145.281719" CO2_normed="13103.922080" HC_normed="0.959635" PMx_normed="0.167725" NOx_normed="4.910737" fuel_normed="5.632869" electricity_normed="0"
            traveltime="1.43" CO_perVeh="9.011040" CO2_perVeh="812.765492" HC_perVeh="0.059521" PMx_perVeh="0.010403" NOx_perVeh="0.304586" fuel_perVeh="0.349376" electricity_perVeh="0"/>
        <edge id=":1110673534_1" sampledSeconds="184.66" CO_abs="2737.137997" CO2_abs="331899.665324" HC_abs="20.071704" PMx_abs="4.627451" NOx_abs="124.560305" fuel_abs="142.669646" electricity_abs="0"
            CO_normed="129.271262" CO2_normed="15675.164607" HC_normed="0.947959" PMx_normed="0.218548" NOx_normed="5.882812" fuel_normed="6.738091" electricity_normed="0"
            traveltime="1.23" CO_perVeh="18.173614" CO2_perVeh="2203.694623" HC_perVeh="0.133269" PMx_perVeh="0.030725" NOx_perVeh="0.827036" fuel_perVeh="0.947275" electricity_perVeh="0"/>
        <edge id=":1110673549_0" sampledSeconds="60.17" CO_abs="70.635030" CO2_abs="11637.500839" HC_abs="0.568791" PMx_abs="0.140886" NOx_abs="4.155045" fuel_abs="5.002485" electricity_abs="0"
            CO_normed="3.323470" CO2_normed="547.559489" HC_normed="0.026762" PMx_normed="0.006629" NOx_normed="0.195500" fuel_normed="0.235373" electricity_normed="0"
            traveltime="1.25" CO_perVeh="1.471621" CO2_perVeh="242.457417" HC_perVeh="0.011850" PMx_perVeh="0.002935" NOx_perVeh="0.086567" fuel_perVeh="0.104223" electricity_perVeh="0"/>
        <edge id=":1110673549_1" sampledSeconds="638.26" CO_abs="14285.780596" CO2_abs="1891457.754962" HC_abs="110.148937" PMx_abs="33.238065" NOx_abs="705.526881" fuel_abs="813.051182" electricity_abs="0"
            CO_normed="650.193003" CO2_normed="86086.482321" HC_normed="5.013241" PMx_normed="1.512774" NOx_normed="32.110856" fuel_normed="37.004642" electricity_normed="0"
            traveltime="0.80" CO_perVeh="17.982968" CO2_perVeh="2380.970612" HC_perVeh="0.138656" PMx_perVeh="0.041840" NOx_perVeh="0.888119" fuel_perVeh="1.023470" electricity_perVeh="0"/>
        <edge id=":1110673556_0" sampledSeconds="416.30" CO_abs="49981.443420" CO2_abs="2522344.509570" HC_abs="287.501343" PMx_abs="50.525466" NOx_abs="1083.936940" fuel_abs="1084.247004" electricity_abs="0"
            CO_normed="1743.853023" CO2_normed="88004.623260" HC_normed="10.030925" PMx_normed="1.762834" NOx_normed="37.818570" fuel_normed="37.829388" electricity_normed="0"
            traveltime="2.58" CO_perVeh="310.260429" CO2_perVeh="15657.484785" HC_perVeh="1.784668" PMx_perVeh="0.313637" NOx_perVeh="6.728552" fuel_perVeh="6.730477" electricity_perVeh="0"/>
        <edge id=":1110673556_2" sampledSeconds="249.52" CO_abs="23933.230027" CO2_abs="1030954.194083" HC_abs="133.156625" PMx_abs="19.721768" NOx_abs="438.623800" fuel_abs="443.166950" electricity_abs="0"
            CO_normed="873.115468" CO2_normed="37610.554555" HC_normed="4.857727" PMx_normed="0.719476" NOx_normed="16.001569" fuel_normed="16.167309" electricity_normed="0"
            traveltime="3.03" CO_perVeh="290.305494" CO2_perVeh="12505.276814" HC_perVeh="1.615164" PMx_perVeh="0.239221" NOx_perVeh="5.320423" fuel_perVeh="5.375530" electricity_perVeh="0"/>
        <edge id=":1110673556_3" sampledSeconds="402.25" CO_abs="33548.289559" CO2_abs="1191548.782373" HC_abs="180.482263" PMx_abs="22.698627" NOx_abs="507.930298" fuel_abs="512.205309" electricity_abs="0"
            CO_normed="2784.136630" CO2_normed="98885.357630" HC_normed="14.978030" PMx_normed="1.883735" NOx_normed="42.152592" fuel_normed="42.507370" electricity_normed="0"
            traveltime="1.75" CO_perVeh="145.756839" CO2_perVeh="5176.907281" HC_perVeh="0.784139" PMx_perVeh="0.098618" NOx_perVeh="2.206798" fuel_perVeh="2.225372" electricity_perVeh="0"/>
        <edge id=":1110673556_4" sampledSeconds="215.88" CO_abs="22838.032676" CO2_abs="916652.858763" HC_abs="125.484215" PMx_abs="17.800139" NOx_abs="392.262414" fuel_abs="394.034140" electricity_abs="0"
            CO_normed="1157.886254" CO2_normed="46474.219539" HC_normed="6.362039" PMx_normed="0.902465" NOx_normed="19.887670" fuel_normed="19.977496" electricity_normed="0"
            traveltime="2.40" CO_perVeh="254.377234" CO2_perVeh="10209.969578" HC_perVeh="1.397683" PMx_perVeh="0.198264" NOx_perVeh="4.369143" fuel_perVeh="4.388877" electricity_perVeh="0"/>
        <edge id=":1110673556_5" sampledSeconds="23.18" CO_abs="1590.537298" CO2_abs="67468.401939" HC_abs="8.809180" PMx_abs="1.215161" NOx_abs="28.230889" fuel_abs="29.002166" electricity_abs="0"
            CO_normed="112.395931" CO2_normed="4767.680616" HC_normed="0.622504" PMx_normed="0.085870" NOx_normed="1.994947" fuel_normed="2.049449" electricity_normed="0"
            traveltime="1.60" CO_perVeh="109.963072" CO2_perVeh="4664.482109" HC_perVeh="0.609030" PMx_perVeh="0.084011" NOx_perVeh="1.951765" fuel_perVeh="2.005088" electricity_perVeh="0"/>
        <edge id=":1110673556_6" sampledSeconds="315.59" CO_abs="37748.608926" CO2_abs="1899743.722760" HC_abs="217.055149" PMx_abs="38.279354" NOx_abs="817.589733" fuel_abs="816.617578" electricity_abs="0"
            CO_normed="1350.257504" CO2_normed="67953.317741" HC_normed="7.764004" PMx_normed="1.369242" NOx_normed="29.244963" fuel_normed="29.210189" electricity_normed="0"
            traveltime="2.50" CO_perVeh="298.939045" CO2_perVeh="15044.463610" HC_perVeh="1.718905" PMx_perVeh="0.303142" NOx_perVeh="6.474662" fuel_perVeh="6.466964" electricity_perVeh="0"/>
        <edge id=":1110673561_0" sampledSeconds="100.09" CO_abs="9846.762963" CO2_abs="712141.682412" HC_abs="61.986197" PMx_abs="14.365553" NOx_abs="300.680775" fuel_abs="306.115784" electricity_abs="0"
            CO_normed="442.533244" CO2_normed="32005.073162" HC_normed="2.785784" PMx_normed="0.645617" NOx_normed="13.513196" fuel_normed="13.757456" electricity_normed="0"
            traveltime="1.18" CO_perVeh="116.201360" CO2_perVeh="8403.963057" HC_perVeh="0.731497" PMx_perVeh="0.169527" NOx_perVeh="3.548325" fuel_perVeh="3.612463" electricity_perVeh="0"/>
        <edge id=":1110673561_1" sampledSeconds="1315.25" CO_abs="120253.422179" CO2_abs="8371065.533279" HC_abs="750.009744" PMx_abs="174.479718" NOx_abs="3574.843510" fuel_abs="3598.317134" electricity_abs="0"
            CO_normed="5269.003899" CO2_normed="366785.211862" HC_normed="32.862302" PMx_normed="7.644974" NOx_normed="156.634747" fuel_normed="157.663264" electricity_normed="0"
            traveltime="1.19" CO_perVeh="109.006258" CO2_perVeh="7588.129413" HC_perVeh="0.679862" PMx_perVeh="0.158161" NOx_perVeh="3.240493" fuel_perVeh="3.261771" electricity_perVeh="0"/>
        <edge id=":1110673562_0" sampledSeconds="104.55" CO_abs="1996.606573" CO2_abs="163254.586160" HC_abs="12.811563" PMx_abs="2.171225" NOx_abs="61.952137" fuel_abs="70.176833" electricity_abs="0"
            CO_normed="5560.029442" CO2_normed="454621.515345" HC_normed="35.676867" PMx_normed="6.046297" NOx_normed="172.520571" fuel_normed="195.424207" electricity_normed="0"
            traveltime="0.03" CO_perVeh="0.508944" CO2_perVeh="41.614337" HC_perVeh="0.003266" PMx_perVeh="0.000553" NOx_perVeh="0.015792" fuel_perVeh="0.017888" electricity_perVeh="0"/>
        <edge id=":1110673564_0" sampledSeconds="28.72" CO_abs="382.294284" CO2_abs="47815.602643" HC_abs="2.828669" PMx_abs="0.622211" NOx_abs="17.688622" fuel_abs="20.553962" electricity_abs="0"
            CO_normed="2874.393110" CO2_normed="359515.809348" HC_normed="21.268188" PMx_normed="4.678281" NOx_normed="132.997161" fuel_normed="154.541070" electricity_normed="0"
            traveltime="7.895182e-03" CO_perVeh="0.105098" CO2_perVeh="13.145183" HC_perVeh="0.000778" PMx_perVeh="0.000171" NOx_perVeh="0.004863" fuel_perVeh="0.005651" electricity_perVeh="0"/>
        <edge id=":1110673588_0" sampledSeconds="11.72" CO_abs="198.372128" CO2_abs="23867.987367" HC_abs="1.443858" PMx_abs="0.325113" NOx_abs="8.932567" fuel_abs="10.259849" electricity_abs="0"
            CO_normed="596.607902" CO2_normed="71783.420652" HC_normed="4.342431" PMx_normed="0.977784" NOx_normed="26.864862" fuel_normed="30.856689" electricity_normed="0"
            traveltime="0.02" CO_perVeh="0.330620" CO2_perVeh="39.779979" HC_perVeh="0.002406" PMx_perVeh="0.000542" NOx_perVeh="0.014888" fuel_perVeh="0.017100" electricity_perVeh="0"/>
        <edge id=":1110673601_0" sampledSeconds="29.81" CO_abs="595.935293" CO2_abs="63078.465944" HC_abs="4.173000" PMx_abs="0.922003" NOx_abs="24.109209" fuel_abs="27.114753" electricity_abs="0"
            CO_normed="1600.255890" CO2_normed="169383.635726" HC_normed="11.205693" PMx_normed="2.475840" NOx_normed="64.740089" fuel_normed="72.810829" electricity_normed="0"
            traveltime="0.02" CO_perVeh="0.442311" CO2_perVeh="46.817682" HC_perVeh="0.003097" PMx_perVeh="0.000684" NOx_perVeh="0.017894" fuel_perVeh="0.020125" electricity_perVeh="0"/>
        <edge id=":1110673617_0" sampledSeconds="238.86" CO_abs="5395.912027" CO2_abs="694007.806264" HC_abs="41.024098" PMx_abs="12.270883" NOx_abs="260.029932" fuel_abs="298.322144" electricity_abs="0"
            CO_normed="13523.589039" CO2_normed="1739367.935500" HC_normed="102.817288" PMx_normed="30.754092" NOx_normed="651.704090" fuel_normed="747.674547" electricity_normed="0"
            traveltime="0.01" CO_perVeh="0.330463" CO2_perVeh="42.503285" HC_perVeh="0.002512" PMx_perVeh="0.000752" NOx_perVeh="0.015925" fuel_perVeh="0.018270" electricity_perVeh="0"/>
        <edge id=":1110673621_0" sampledSeconds="25.72" CO_abs="466.617640" CO2_abs="54951.745356" HC_abs="3.387863" PMx_abs="0.758019" NOx_abs="20.620196" fuel_abs="23.621454" electricity_abs="0"
            CO_normed="1403.361322" CO2_normed="165268.407087" HC_normed="10.189063" PMx_normed="2.279757" NOx_normed="62.015626" fuel_normed="71.041967" electricity_normed="0"
            traveltime="0.02" CO_perVeh="0.353498" CO2_perVeh="41.630110" HC_perVeh="0.002567" PMx_perVeh="0.000574" NOx_perVeh="0.015621" fuel_perVeh="0.017895" electricity_perVeh="0"/>
        <edge id=":1110673630_0" sampledSeconds="54.77" CO_abs="287.252523" CO2_abs="23419.307963" HC_abs="1.842976" PMx_abs="0.318699" NOx_abs="8.938175" fuel_abs="10.067044" electricity_abs="0"
            CO_normed="15.405089" CO2_normed="1255.955936" HC_normed="0.098837" PMx_normed="0.017092" NOx_normed="0.479346" fuel_normed="0.539886" electricity_normed="0"
            traveltime="1.28" CO_perVeh="6.704982" CO2_perVeh="546.648071" HC_perVeh="0.043018" PMx_perVeh="0.007439" NOx_perVeh="0.208633" fuel_perVeh="0.234983" electricity_perVeh="0"/>
        <edge id=":1110673630_1" sampledSeconds="7.25" CO_abs="1.580696" CO2_abs="842.476065" HC_abs="0.025669" PMx_abs="0.005125" NOx_abs="0.268549" fuel_abs="0.362151" electricity_abs="0"
            CO_normed="0.103347" CO2_normed="55.081796" HC_normed="0.001678" PMx_normed="0.000335" NOx_normed="0.017558" fuel_normed="0.023678" electricity_normed="0"
            traveltime="1.03" CO_perVeh="0.223729" CO2_perVeh="119.242766" HC_perVeh="0.003633" PMx_perVeh="0.000725" NOx_perVeh="0.038010" fuel_perVeh="0.051258" electricity_perVeh="0"/>
        <edge id=":1110673650_0" sampledSeconds="143.77" CO_abs="2370.065202" CO2_abs="285430.893201" HC_abs="17.311195" PMx_abs="3.971959" NOx_abs="107.134647" fuel_abs="122.694699" electricity_abs="0"
            CO_normed="5940.013039" CO2_normed="715365.647119" HC_normed="43.386454" PMx_normed="9.954783" NOx_normed="268.507887" fuel_normed="307.505511" electricity_normed="0"
            traveltime="0.02" CO_perVeh="0.380532" CO2_perVeh="45.828127" HC_perVeh="0.002779" PMx_perVeh="0.000638" NOx_perVeh="0.017201" fuel_perVeh="0.019700" electricity_perVeh="0"/>
        <edge id=":1110673655_0" sampledSeconds="44.70" CO_abs="952.399805" CO2_abs="102108.203323" HC_abs="6.680294" PMx_abs="1.476461" NOx_abs="38.901782" fuel_abs="43.891992" electricity_abs="0"
            CO_normed="2386.966929" CO2_normed="255910.284018" HC_normed="16.742592" PMx_normed="3.700404" NOx_normed="97.498201" fuel_normed="110.004993" electricity_normed="0"
            traveltime="0.02" CO_perVeh="0.509714" CO2_perVeh="54.647152" HC_perVeh="0.003575" PMx_perVeh="0.000790" NOx_perVeh="0.020820" fuel_perVeh="0.023490" electricity_perVeh="0"/>
        <edge id=":1110673663_0" sampledSeconds="108.57" CO_abs="1643.346146" CO2_abs="210438.471099" HC_abs="12.200322" PMx_abs="2.779394" NOx_abs="77.829054" fuel_abs="90.458767" electricity_abs="0"
            CO_normed="75.433370" CO2_normed="9659.610156" HC_normed="0.560023" PMx_normed="0.127581" NOx_normed="3.572533" fuel_normed="4.152266" electricity_normed="0"
            traveltime="1.28" CO_perVeh="19.301876" CO2_perVeh="2471.699118" HC_perVeh="0.143299" PMx_perVeh="0.032645" NOx_perVeh="0.914139" fuel_perVeh="1.062481" electricity_perVeh="0"/>
        <edge id=":1110673663_1" sampledSeconds="153.52" CO_abs="2781.440995" CO2_abs="352142.196133" HC_abs="20.695684" PMx_abs="4.842234" NOx_abs="131.420979" fuel_abs="151.371077" electricity_abs="0"
            CO_normed="127.830625" CO2_normed="16183.897831" HC_normed="0.951141" PMx_normed="0.222541" NOx_normed="6.039900" fuel_normed="6.956775" electricity_normed="0"
            traveltime="1.24" CO_perVeh="22.455033" CO2_perVeh="2842.902201" HC_perVeh="0.167080" PMx_perVeh="0.039092" NOx_perVeh="1.060983" fuel_perVeh="1.222044" electricity_perVeh="0"/>
        <edge id=":1110673666_0" sampledSeconds="191.65" CO_abs="4190.570124" CO2_abs="336383.579390" HC_abs="26.769364" PMx_abs="4.608348" NOx_abs="128.609291" fuel_abs="144.598142" electricity_abs="0"