<?xml version="1.0" encoding="UTF-8"?>

<!-- generated on Mon Nov  9 22:47:52 2020 by Eclipse SUMO sumo Version 1.7.0
<configuration xmlns:xsi="http://www.w3.org/2001/XMLSchema-instance" xsi:noNamespaceSchemaLocation="http://sumo.dlr.de/xsd/sumoConfiguration.xsd">

    <input>
        <net-file value="../dataSets/Porto/6AM7AM_Routing_SaoBento/Porto.net.xml"/>
        <route-files value="../results/Porto/6AM7AM_Routing_SaoBento/cost_co-length/solution17/Porto.rou.xml"/>
        <additional-files value="moreOutputInfo.xml"/>
    </input>

    <output>
        <emission-output.precision value="6"/>
        <tripinfo-output value="../results/Porto/6AM7AM_Routing_SaoBento/cost_co-length/solution17/Porto-tripinfo"/>
    </output>

    <processing>
        <collision.action value="warn"/>
        <time-to-teleport value="-1"/>
    </processing>

    <emissions>
        <device.emissions.probability value="1"/>
    </emissions>

    <gui_only>
        <quit-on-end value="true"/>
        <start value="true"/>
    </gui_only>

</configuration>
-->

<meandata xmlns:xsi="http://www.w3.org/2001/XMLSchema-instance" xsi:noNamespaceSchemaLocation="http://sumo.dlr.de/xsd/meandata_file.xsd">
    <interval begin="0.00" end="4698.00" id="emissions-detector">
        <edge id=":1092997347_0" sampledSeconds="266.50" CO_abs="34398.357679" CO2_abs="1366436.641228" HC_abs="188.935021" PMx_abs="27.947665" NOx_abs="593.626496" fuel_abs="587.377221" electricity_abs="0"
            CO_normed="59906.579029" CO2_normed="2379722.468179" HC_normed="329.040441" PMx_normed="48.672353" NOx_normed="1033.832281" fuel_normed="1022.948834" electricity_normed="0"
            traveltime="0.07" CO_perVeh="9.661113" CO2_perVeh="383.777026" HC_perVeh="0.053064" PMx_perVeh="0.007849" NOx_perVeh="0.166726" fuel_perVeh="0.164971" electricity_perVeh="0"/>
        <edge id=":1103427051_0" sampledSeconds="10.99" CO_abs="923.731694" CO2_abs="51110.141875" HC_abs="5.423419" PMx_abs="1.026459" NOx_abs="21.981085" fuel_abs="21.969963" electricity_abs="0"
            CO_normed="2440.828893" CO2_normed="135051.240256" HC_normed="14.330609" PMx_normed="2.712270" NOx_normed="58.081873" fuel_normed="58.052485" electricity_normed="0"
            traveltime="0.03" CO_perVeh="2.531185" CO2_perVeh="140.050628" HC_perVeh="0.014861" PMx_perVeh="0.002813" NOx_perVeh="0.060232" fuel_perVeh="0.060201" electricity_perVeh="0"/>
        <edge id=":1105984386_0" sampledSeconds="22.47" CO_abs="673.040056" CO2_abs="54032.788583" HC_abs="4.296331" PMx_abs="0.725123" NOx_abs="20.580061" fuel_abs="23.226603" electricity_abs="0"
            CO_normed="53.114264" CO2_normed="4264.102543" HC_normed="0.339053" PMx_normed="0.057224" NOx_normed="1.624116" fuel_normed="1.832973" electricity_normed="0"
            traveltime="0.94" CO_perVeh="28.246970" CO2_perVeh="2267.714286" HC_perVeh="0.180314" PMx_perVeh="0.030433" NOx_perVeh="0.863729" fuel_perVeh="0.974803" electricity_perVeh="0"/>
        <edge id=":1105984390_0" sampledSeconds="23.01" CO_abs="37.272051" CO2_abs="2276.655305" HC_abs="0.222207" PMx_abs="0.035823" NOx_abs="0.911125" fuel_abs="0.978644" electricity_abs="0"
            CO_normed="2.273962" CO2_normed="138.898364" HC_normed="0.013557" PMx_normed="0.002186" NOx_normed="0.055588" fuel_normed="0.059707" electricity_normed="0"
            traveltime="1.04" CO_perVeh="1.690269" CO2_perVeh="103.245200" HC_perVeh="0.010077" PMx_perVeh="0.001625" NOx_perVeh="0.041319" fuel_perVeh="0.044381" electricity_perVeh="0"/>
        <edge id=":1105984390_1" sampledSeconds="646.25" CO_abs="14564.052469" CO2_abs="1870057.965738" HC_abs="111.086196" PMx_abs="33.185685" NOx_abs="701.011438" fuel_abs="803.852159" electricity_abs="0"
            CO_normed="849.976654" CO2_normed="109138.964948" HC_normed="6.483132" PMx_normed="1.936759" NOx_normed="40.911920" fuel_normed="46.913836" electricity_normed="0"
            traveltime="0.64" CO_perVeh="14.336054" CO2_perVeh="1840.782407" HC_perVeh="0.109347" PMx_perVeh="0.032666" NOx_perVeh="0.690037" fuel_perVeh="0.791268" electricity_perVeh="0"/>
        <edge id=":1105984395_0" sampledSeconds="8.93" CO_abs="255.236333" CO2_abs="19465.978870" HC_abs="1.603902" PMx_abs="0.254053" NOx_abs="7.384682" fuel_abs="8.367691" electricity_abs="0"
            CO_normed="212.590649" CO2_normed="16213.542287" HC_normed="1.335917" PMx_normed="0.211605" NOx_normed="6.150826" fuel_normed="6.969591" electricity_normed="0"
            traveltime="0.09" CO_perVeh="2.588376" CO2_perVeh="197.406311" HC_perVeh="0.016265" PMx_perVeh="0.002576" NOx_perVeh="0.074889" fuel_perVeh="0.084858" electricity_perVeh="0"/>
        <edge id=":1105984398_0" sampledSeconds="23.71" CO_abs="1589.152092" CO2_abs="109346.470665" HC_abs="9.822294" PMx_abs="2.004257" NOx_abs="45.316358" fuel_abs="47.003166" electricity_abs="0"
            CO_normed="100.723000" CO2_normed="6930.554092" HC_normed="0.622553" PMx_normed="0.127033" NOx_normed="2.872223" fuel_normed="2.979136" electricity_normed="0"
            traveltime="1.11" CO_perVeh="74.094622" CO2_perVeh="5098.307132" HC_perVeh="0.457967" PMx_perVeh="0.093449" NOx_perVeh="2.112887" fuel_perVeh="2.191535" electricity_perVeh="0"/>
        <edge id=":1105984398_1" sampledSeconds="453.50" CO_abs="8512.433349" CO2_abs="973212.619294" HC_abs="61.226333" PMx_abs="14.153959" NOx_abs="369.662651" fuel_abs="418.342463" electricity_abs="0"
            CO_normed="522.252797" CO2_normed="59708.310360" HC_normed="3.756344" PMx_normed="0.868370" NOx_normed="22.679455" fuel_normed="25.666048" electricity_normed="0"
            traveltime="0.96" CO_perVeh="17.928035" CO2_perVeh="2049.683022" HC_perVeh="0.128949" PMx_perVeh="0.029810" NOx_perVeh="0.778546" fuel_perVeh="0.881071" electricity_perVeh="0"/>
        <edge id=":1106006327_0" sampledSeconds="200.93" CO_abs="27064.958106" CO2_abs="872609.676431" HC_abs="143.771094" PMx_abs="18.195687" NOx_abs="381.911162" fuel_abs="375.104256" electricity_abs="0"
            CO_normed="2340.793623" CO2_normed="75470.250420" HC_normed="12.434472" PMx_normed="1.573708" NOx_normed="33.030726" fuel_normed="32.442010" electricity_normed="0"
            traveltime="2.11" CO_perVeh="284.178532" CO2_perVeh="9162.287850" HC_perVeh="1.509578" PMx_perVeh="0.191052" NOx_perVeh="4.010017" fuel_perVeh="3.938546" electricity_perVeh="0"/>
        <edge id=":1106006327_1" sampledSeconds="159.65" CO_abs="21581.229534" CO2_abs="726408.767651" HC_abs="115.389827" PMx_abs="15.142032" NOx_abs="317.848043" fuel_abs="312.256819" electricity_abs="0"
            CO_normed="1627.691008" CO2_normed="54786.916437" HC_normed="8.702886" PMx_normed="1.142036" NOx_normed="23.972610" fuel_normed="23.550911" electricity_normed="0"
            traveltime="2.27" CO_perVeh="306.373368" CO2_perVeh="10312.308685" HC_perVeh="1.638107" PMx_perVeh="0.214961" NOx_perVeh="4.512263" fuel_perVeh="4.432888" electricity_perVeh="0"/>
        <edge id=":1106006327_2" sampledSeconds="0.00" CO_abs="0" CO2_abs="0" HC_abs="0" PMx_abs="0" NOx_abs="0" fuel_abs="0" electricity_abs="0"
            CO_normed="0" CO2_normed="0" HC_normed="0" PMx_normed="0" NOx_normed="0" fuel_normed="0" electricity_normed="0"/>
        <edge id=":1106006327_3" sampledSeconds="0.00" CO_abs="0" CO2_abs="0" HC_abs="0" PMx_abs="0" NOx_abs="0" fuel_abs="0" electricity_abs="0"
            CO_normed="0" CO2_normed="0" HC_normed="0" PMx_normed="0" NOx_normed="0" fuel_normed="0" electricity_normed="0"/>
        <edge id=":1107381198_0" sampledSeconds="0.00" CO_abs="0" CO2_abs="0" HC_abs="0" PMx_abs="0" NOx_abs="0" fuel_abs="0" electricity_abs="0"
            CO_normed="0" CO2_normed="0" HC_normed="0" PMx_normed="0" NOx_normed="0" fuel_normed="0" electricity_normed="0"/>
        <edge id=":1107381198_1" sampledSeconds="35.95" CO_abs="1601.329134" CO2_abs="66072.596670" HC_abs="8.815610" PMx_abs="1.146360" NOx_abs="27.400358" fuel_abs="28.402261" electricity_abs="0"
            CO_normed="133.813755" CO2_normed="5521.302320" HC_normed="0.736669" PMx_normed="0.095795" NOx_normed="2.289688" fuel_normed="2.373412" electricity_normed="0"
            traveltime="1.48" CO_perVeh="65.931161" CO2_perVeh="2720.392023" HC_perVeh="0.362963" PMx_perVeh="0.047199" NOx_perVeh="1.128149" fuel_perVeh="1.169400" electricity_perVeh="0"/>
        <edge id=":1110338277_0" sampledSeconds="96.50" CO_abs="1683.983923" CO2_abs="202269.047398" HC_abs="12.299472" PMx_abs="2.781620" NOx_abs="75.767280" fuel_abs="86.946982" electricity_abs="0"
            CO_normed="4608.604057" CO2_normed="553555.137925" HC_normed="33.660295" PMx_normed="7.612535" NOx_normed="207.354351" fuel_normed="237.950141" electricity_normed="0"
            traveltime="0.02" CO_perVeh="0.380698" CO2_perVeh="45.726958" HC_perVeh="0.002781" PMx_perVeh="0.000629" NOx_perVeh="0.017129" fuel_perVeh="0.019656" electricity_perVeh="0"/>
        <edge id=":1110338293_0" sampledSeconds="123.62" CO_abs="6371.476790" CO2_abs="438514.532044" HC_abs="39.309685" PMx_abs="7.656132" NOx_abs="179.288379" fuel_abs="188.498399" electricity_abs="0"
            CO_normed="16274.525644" CO2_normed="1120088.204453" HC_normed="100.407881" PMx_normed="19.555892" NOx_normed="457.952436" fuel_normed="481.477393" electricity_normed="0"
            traveltime="0.03" CO_perVeh="1.461404" CO2_perVeh="100.580572" HC_perVeh="0.009016" PMx_perVeh="0.001756" NOx_perVeh="0.041123" fuel_perVeh="0.043235" electricity_perVeh="0"/>
        <edge id=":1110338295_0" sampledSeconds="0.00" CO_abs="0" CO2_abs="0" HC_abs="0" PMx_abs="0" NOx_abs="0" fuel_abs="0" electricity_abs="0"
            CO_normed="0" CO2_normed="0" HC_normed="0" PMx_normed="0" NOx_normed="0" fuel_normed="0" electricity_normed="0"/>
        <edge id=":1110673403_0" sampledSeconds="143.98" CO_abs="1967.593087" CO2_abs="257706.590186" HC_abs="14.795537" PMx_abs="3.418108" NOx_abs="95.379216" fuel_abs="110.777322" electricity_abs="0"
            CO_normed="5025.780553" CO2_normed="658254.381061" HC_normed="37.791920" PMx_normed="8.730800" NOx_normed="243.625073" fuel_normed="282.956124" electricity_normed="0"
            traveltime="0.02" CO_perVeh="0.315910" CO2_perVeh="41.376493" HC_perVeh="0.002376" PMx_perVeh="0.000549" NOx_perVeh="0.015314" fuel_perVeh="0.017786" electricity_perVeh="0"/>
        <edge id=":1110673412_0" sampledSeconds="252.12" CO_abs="45064.091573" CO2_abs="3071867.900156" HC_abs="280.382077" PMx_abs="67.545086" NOx_abs="1320.493129" fuel_abs="1320.444678" electricity_abs="0"
            CO_normed="119075.417025" CO2_normed="8116971.595074" HC_normed="740.869539" PMx_normed="178.478230" NOx_normed="3489.214240" fuel_normed="3489.086216" electricity_normed="0"
            traveltime="0.02" CO_perVeh="2.775110" CO2_perVeh="189.169929" HC_perVeh="0.017266" PMx_perVeh="0.004160" NOx_perVeh="0.081318" fuel_perVeh="0.081315" electricity_perVeh="0"/>
        <edge id=":1110673414_0" sampledSeconds="0.00" CO_abs="0" CO2_abs="0" HC_abs="0" PMx_abs="0" NOx_abs="0" fuel_abs="0" electricity_abs="0"
            CO_normed="0" CO2_normed="0" HC_normed="0" PMx_normed="0" NOx_normed="0" fuel_normed="0" electricity_normed="0"/>
        <edge id=":1110673414_1" sampledSeconds="132.83" CO_abs="8209.541117" CO2_abs="309058.373691" HC_abs="44.526441" PMx_abs="5.567653" NOx_abs="129.610109" fuel_abs="132.853502" electricity_abs="0"
            CO_normed="696.659591" CO2_normed="26226.615725" HC_normed="3.778503" PMx_normed="0.472470" NOx_normed="10.998681" fuel_normed="11.273915" electricity_normed="0"
            traveltime="1.58" CO_perVeh="97.812583" CO2_perVeh="3682.276177" HC_perVeh="0.530510" PMx_perVeh="0.066336" NOx_perVeh="1.544240" fuel_perVeh="1.582883" electricity_perVeh="0"/>
        <edge id=":1110673417_0" sampledSeconds="29.62" CO_abs="559.320316" CO2_abs="64765.492656" HC_abs="4.041949" PMx_abs="0.901530" NOx_abs="24.384617" fuel_abs="27.839967" electricity_abs="0"
            CO_normed="1530.706940" CO2_normed="177245.464303" HC_normed="11.061711" PMx_normed="2.467243" NOx_normed="66.734037" fuel_normed="76.190385" electricity_normed="0"
            traveltime="0.02" CO_perVeh="0.415135" CO2_perVeh="48.069816" HC_perVeh="0.003000" PMx_perVeh="0.000669" NOx_perVeh="0.018099" fuel_perVeh="0.020663" electricity_perVeh="0"/>
        <edge id=":1110673446_0" sampledSeconds="333.93" CO_abs="3572.399124" CO2_abs="289630.187348" HC_abs="23.115243" PMx_abs="5.262182" NOx_abs="118.155726" fuel_abs="124.498770" electricity_abs="0"
            CO_normed="9124.901976" CO2_normed="739796.136265" HC_normed="59.042766" PMx_normed="13.441078" NOx_normed="301.802622" fuel_normed="318.004522" electricity_normed="0"
            traveltime="0.02" CO_perVeh="0.243806" CO2_perVeh="19.766464" HC_perVeh="0.001578" PMx_perVeh="0.000359" NOx_perVeh="0.008064" fuel_perVeh="0.008497" electricity_perVeh="0"/>
        <edge id=":1110673451_0" sampledSeconds="37.46" CO_abs="395.214375" CO2_abs="27518.937851" HC_abs="2.433510" PMx_abs="0.416553" NOx_abs="10.845447" fuel_abs="11.829292" electricity_abs="0"
            CO_normed="1121.652831" CO2_normed="78101.143327" HC_normed="6.906512" PMx_normed="1.182213" NOx_normed="30.780323" fuel_normed="33.572562" electricity_normed="0"
            traveltime="0.03" CO_perVeh="0.283421" CO2_perVeh="19.734696" HC_perVeh="0.001745" PMx_perVeh="0.000299" NOx_perVeh="0.007778" fuel_perVeh="0.008483" electricity_perVeh="0"/>
        <edge id=":1110673464_0" sampledSeconds="323.58" CO_abs="503.230366" CO2_abs="37041.696951" HC_abs="3.140271" PMx_abs="0.530186" NOx_abs="14.364213" fuel_abs="15.922772" electricity_abs="0"
            CO_normed="27.309996" CO2_normed="2010.229611" HC_normed="0.170421" PMx_normed="0.028773" NOx_normed="0.779537" fuel_normed="0.864119" electricity_normed="0"
            traveltime="1.17" CO_perVeh="1.819111" CO2_perVeh="133.900847" HC_perVeh="0.011352" PMx_perVeh="0.001917" NOx_perVeh="0.051925" fuel_perVeh="0.057559" electricity_perVeh="0"/>
        <edge id=":1110673464_1" sampledSeconds="708.87" CO_abs="16864.085431" CO2_abs="2112093.723888" HC_abs="127.511232" PMx_abs="37.773739" NOx_abs="794.973367" fuel_abs="907.892025" electricity_abs="0"
            CO_normed="896.784929" CO2_normed="112315.241060" HC_normed="6.780691" PMx_normed="2.008702" NOx_normed="42.274462" fuel_normed="48.279160" electricity_normed="0"
            traveltime="0.70" CO_perVeh="16.640779" CO2_perVeh="2084.126292" HC_perVeh="0.125823" PMx_perVeh="0.037274" NOx_perVeh="0.784447" fuel_perVeh="0.895870" electricity_perVeh="0"/>
        <edge id=":1110673479_0" sampledSeconds="133.47" CO_abs="6940.609073" CO2_abs="477279.223606" HC_abs="42.820451" PMx_abs="8.379674" NOx_abs="195.431869" fuel_abs="205.161595" electricity_abs="0"
            CO_normed="17728.247952" CO2_normed="1219104.019428" HC_normed="109.375355" PMx_normed="21.404020" NOx_normed="499.187404" fuel_normed="524.039835" electricity_normed="0"
            traveltime="0.03" CO_perVeh="1.462110" CO2_perVeh="100.543701" HC_perVeh="0.009021" PMx_perVeh="0.001765" NOx_perVeh="0.041170" fuel_perVeh="0.043219" electricity_perVeh="0"/>
        <edge id=":1110673511_0" sampledSeconds="11.69" CO_abs="269.291668" CO2_abs="32260.348014" HC_abs="1.968100" PMx_abs="0.459207" NOx_abs="12.164132" fuel_abs="13.867350" electricity_abs="0"
            CO_normed="687.845895" CO2_normed="82401.910635" HC_normed="5.027076" PMx_normed="1.172943" NOx_normed="31.070580" fuel_normed="35.421072" electricity_normed="0"
            traveltime="0.02" CO_perVeh="0.533251" CO2_perVeh="63.881877" HC_perVeh="0.003897" PMx_perVeh="0.000909" NOx_perVeh="0.024087" fuel_perVeh="0.027460" electricity_perVeh="0"/>
        <edge id=":1110673517_0" sampledSeconds="16.97" CO_abs="841.743152" CO2_abs="60800.993195" HC_abs="5.265817" PMx_abs="1.076732" NOx_abs="24.890110" fuel_abs="26.135661" electricity_abs="0"
            CO_normed="2150.046364" CO2_normed="155302.664611" HC_normed="13.450363" PMx_normed="2.750273" NOx_normed="63.576271" fuel_normed="66.757755" electricity_normed="0"
            traveltime="0.03" CO_perVeh="1.351474" CO2_perVeh="97.620005" HC_perVeh="0.008455" PMx_perVeh="0.001729" NOx_perVeh="0.039963" fuel_perVeh="0.041963" electricity_perVeh="0"/>
        <edge id=":1110673534_0" sampledSeconds="475.64" CO_abs="2558.632166" CO2_abs="220078.347983" HC_abs="16.683621" PMx_abs="2.981066" NOx_abs="83.642678" fuel_abs="94.602997" electricity_abs="0"
            CO_normed="126.656181" CO2_normed="10894.212677" HC_normed="0.825865" PMx_normed="0.147567" NOx_normed="4.140440" fuel_normed="4.682992" electricity_normed="0"
            traveltime="1.43" CO_perVeh="7.708133" CO2_perVeh="663.007856" HC_perVeh="0.050261" PMx_perVeh="0.008981" NOx_perVeh="0.251982" fuel_perVeh="0.285001" electricity_perVeh="0"/>
        <edge id=":1110673534_1" sampledSeconds="184.10" CO_abs="2980.854505" CO2_abs="356318.615330" HC_abs="21.804382" PMx_abs="5.022085" NOx_abs="134.132123" fuel_abs="153.166279" electricity_abs="0"
            CO_normed="143.478624" CO2_normed="17150.821893" HC_normed="1.049519" PMx_normed="0.241730" NOx_normed="6.456233" fuel_normed="7.372412" electricity_normed="0"
            traveltime="1.22" CO_perVeh="19.791804" CO2_perVeh="2365.827685" HC_perVeh="0.144773" PMx_perVeh="0.033345" NOx_perVeh="0.890589" fuel_perVeh="1.016969" electricity_perVeh="0"/>
        <edge id=":1110673549_0" sampledSeconds="59.26" CO_abs="81.369270" CO2_abs="13640.848801" HC_abs="0.662721" PMx_abs="0.175597" NOx_abs="4.942386" fuel_abs="5.863625" electricity_abs="0"
            CO_normed="3.901873" CO2_normed="654.115000" HC_normed="0.031779" PMx_normed="0.008420" NOx_normed="0.237001" fuel_normed="0.281176" electricity_normed="0"
            traveltime="1.23" CO_perVeh="1.695259" CO2_perVeh="284.195465" HC_perVeh="0.013807" PMx_perVeh="0.003658" NOx_perVeh="0.102970" fuel_perVeh="0.122164" electricity_perVeh="0"/>
        <edge id=":1110673549_1" sampledSeconds="639.72" CO_abs="12897.087395" CO2_abs="1717412.817086" HC_abs="99.662690" PMx_abs="30.084249" NOx_abs="640.330828" fuel_abs="738.237272" electricity_abs="0"
            CO_normed="598.233995" CO2_normed="79662.539176" HC_normed="4.622874" PMx_normed="1.395464" NOx_normed="29.701874" fuel_normed="34.243284" electricity_normed="0"
            traveltime="0.81" CO_perVeh="16.234878" CO2_perVeh="2161.882514" HC_perVeh="0.125456" PMx_perVeh="0.037870" NOx_perVeh="0.806050" fuel_perVeh="0.929294" electricity_perVeh="0"/>
        <edge id=":1110673556_0" sampledSeconds="414.99" CO_abs="50505.228014" CO2_abs="2544296.567011" HC_abs="290.455718" PMx_abs="51.218401" NOx_abs="1094.888855" fuel_abs="1093.682948" electricity_abs="0"
            CO_normed="1795.885111" CO2_normed="90471.115627" HC_normed="10.328141" PMx_normed="1.821244" NOx_normed="38.932496" fuel_normed="38.889616" electricity_normed="0"
            traveltime="2.58" CO_perVeh="313.511828" CO2_perVeh="15793.752454" HC_perVeh="1.803007" PMx_perVeh="0.317939" NOx_perVeh="6.796536" fuel_perVeh="6.789050" electricity_perVeh="0"/>
        <edge id=":1110673556_2" sampledSeconds="246.00" CO_abs="24398.300457" CO2_abs="1057570.064818" HC_abs="135.959163" PMx_abs="20.516602" NOx_abs="451.735114" fuel_abs="454.607512" electricity_abs="0"
            CO_normed="907.133221" CO2_normed="39320.646148" HC_normed="5.054986" PMx_normed="0.762811" NOx_normed="16.795593" fuel_normed="16.902389" electricity_normed="0"
            traveltime="2.98" CO_perVeh="295.946709" CO2_perVeh="12828.122226" HC_perVeh="1.649159" PMx_perVeh="0.248862" NOx_perVeh="5.479460" fuel_perVeh="5.514302" electricity_perVeh="0"/>
        <edge id=":1110673556_3" sampledSeconds="419.85" CO_abs="35064.994260" CO2_abs="1253239.087087" HC_abs="188.848898" PMx_abs="23.967211" NOx_abs="534.804407" fuel_abs="538.723493" electricity_abs="0"
            CO_normed="2965.753576" CO2_normed="105997.402340" HC_normed="15.972605" PMx_normed="2.027117" NOx_normed="45.233091" fuel_normed="45.564563" electricity_normed="0"
            traveltime="1.74" CO_perVeh="145.596590" CO2_perVeh="5203.689369" HC_perVeh="0.784137" PMx_perVeh="0.099516" NOx_perVeh="2.220611" fuel_perVeh="2.236883" electricity_perVeh="0"/>
        <edge id=":1110673556_4" sampledSeconds="192.77" CO_abs="19888.617247" CO2_abs="802217.420042" HC_abs="109.395654" PMx_abs="15.690391" NOx_abs="344.026587" fuel_abs="344.842448" electricity_abs="0"
            CO_normed="1027.668222" CO2_normed="41451.516680" HC_normed="5.652602" PMx_normed="0.810741" NOx_normed="17.776258" fuel_normed="17.818414" electricity_normed="0"
            traveltime="2.39" CO_perVeh="246.946695" CO2_perVeh="9960.719653" HC_perVeh="1.358309" PMx_perVeh="0.194819" NOx_perVeh="4.271601" fuel_perVeh="4.281731" electricity_perVeh="0"/>
        <edge id=":1110673556_5" sampledSeconds="24.71" CO_abs="1827.710297" CO2_abs="73604.761404" HC_abs="10.042083" PMx_abs="1.397525" NOx_abs="31.301585" fuel_abs="31.639925" electricity_abs="0"
            CO_normed="131.630102" CO2_normed="5300.950754" HC_normed="0.723222" PMx_normed="0.100649" NOx_normed="2.254313" fuel_normed="2.278680" electricity_normed="0"
            traveltime="1.71" CO_perVeh="126.360218" CO2_perVeh="5088.724245" HC_perVeh="0.694267" PMx_perVeh="0.096619" NOx_perVeh="2.164060" fuel_perVeh="2.187452" electricity_perVeh="0"/>
        <edge id=":1110673556_6" sampledSeconds="315.21" CO_abs="38058.589189" CO2_abs="1921903.785978" HC_abs="219.000100" PMx_abs="38.734685" NOx_abs="827.123552" fuel_abs="826.143111" electricity_abs="0"
            CO_normed="1387.424828" CO2_normed="70062.949936" HC_normed="7.983643" PMx_normed="1.412072" NOx_normed="30.152766" fuel_normed="30.117024" electricity_normed="0"
            traveltime="2.50" CO_perVeh="301.393411" CO2_perVeh="15219.931953" HC_perVeh="1.734305" PMx_perVeh="0.306748" NOx_perVeh="6.550153" fuel_perVeh="6.542389" electricity_perVeh="0"/>
        <edge id=":1110673561_0" sampledSeconds="100.38" CO_abs="10019.060185" CO2_abs="721605.583145" HC_abs="62.951120" PMx_abs="14.568748" NOx_abs="304.821401" fuel_abs="310.183865" electricity_abs="0"
            CO_normed="458.902615" CO2_normed="33051.671838" HC_normed="2.883348" PMx_normed="0.667292" NOx_normed="13.961723" fuel_normed="14.207339" electricity_normed="0"
            traveltime="1.18" CO_perVeh="118.234635" CO2_perVeh="8515.646271" HC_perVeh="0.742884" PMx_perVeh="0.171925" NOx_perVeh="3.597188" fuel_perVeh="3.660471" electricity_perVeh="0"/>
        <edge id=":1110673561_1" sampledSeconds="1312.05" CO_abs="122225.974528" CO2_abs="8475681.436433" HC_abs="761.553462" PMx_abs="176.984046" NOx_abs="3622.294414" fuel_abs="3643.286297" electricity_abs="0"
            CO_normed="5458.027424" CO2_normed="378483.394352" HC_normed="34.007335" PMx_normed="7.903261" NOx_normed="161.754343" fuel_normed="162.691740" electricity_normed="0"
            traveltime="1.19" CO_perVeh="111.150168" CO2_perVeh="7707.636740" HC_perVeh="0.692543" PMx_perVeh="0.160946" NOx_perVeh="3.294051" fuel_perVeh="3.313141" electricity_perVeh="0"/>
        <edge id=":1110673562_0" sampledSeconds="104.29" CO_abs="2242.512003" CO2_abs="174772.256877" HC_abs="14.204623" PMx_abs="2.405681" NOx_abs="66.962753" fuel_abs="75.127788" electricity_abs="0"
            CO_normed="6364.444453" CO2_normed="496018.892798" HC_normed="40.313957" PMx_normed="6.827531" NOx_normed="190.046128" fuel_normed="213.219207" electricity_normed="0"
            traveltime="0.03" CO_perVeh="0.571627" CO2_perVeh="44.550244" HC_perVeh="0.003621" PMx_perVeh="0.000613" NOx_perVeh="0.017069" fuel_perVeh="0.019150" electricity_perVeh="0"/>
        <edge id=":1110673564_0" sampledSeconds="28.91" CO_abs="549.060505" CO2_abs="53452.473631" HC_abs="3.741942" PMx_abs="0.814357" NOx_abs="20.729896" fuel_abs="22.976926" electricity_abs="0"
            CO_normed="4207.360194" CO2_normed="409597.499088" HC_normed="28.673883" PMx_normed="6.240284" NOx_normed="158.849776" fuel_normed="176.068400" electricity_normed="0"
            traveltime="7.949138e-03" CO_perVeh="0.150944" CO2_perVeh="14.694838" HC_perVeh="0.001029" PMx_perVeh="0.000224" NOx_perVeh="0.005699" fuel_perVeh="0.006317" electricity_perVeh="0"/>
        <edge id=":1110673588_0" sampledSeconds="11.59" CO_abs="134.830978" CO2_abs="19306.620988" HC_abs="1.042663" PMx_abs="0.239478" NOx_abs="7.014878" fuel_abs="8.299128" electricity_abs="0"
            CO_normed="413.275029" CO2_normed="59177.382338" HC_normed="3.195903" PMx_normed="0.734031" NOx_normed="21.501541" fuel_normed="25.437939" electricity_normed="0"
            traveltime="0.02" CO_perVeh="0.224718" CO2_perVeh="32.177702" HC_perVeh="0.001738" PMx_perVeh="0.000399" NOx_perVeh="0.011691" fuel_perVeh="0.013832" electricity_perVeh="0"/>
        <edge id=":1110673601_0" sampledSeconds="29.96" CO_abs="542.466515" CO2_abs="58046.167254" HC_abs="3.800545" PMx_abs="0.842476" NOx_abs="22.137469" fuel_abs="24.951584" electricity_abs="0"
            CO_normed="1484.582690" CO2_normed="158856.505896" HC_normed="10.401054" PMx_normed="2.305626" NOx_normed="60.584207" fuel_normed="68.285671" electricity_normed="0"
            traveltime="0.02" CO_perVeh="0.402626" CO2_perVeh="43.082642" HC_perVeh="0.002821" PMx_perVeh="0.000625" NOx_perVeh="0.016431" fuel_perVeh="0.018519" electricity_perVeh="0"/>
        <edge id=":1110673617_0" sampledSeconds="238.26" CO_abs="5722.053095" CO2_abs="716315.934473" HC_abs="43.202242" PMx_abs="12.780414" NOx_abs="269.884427" fuel_abs="307.911292" electricity_abs="0"
            CO_normed="14615.716719" CO2_normed="1829670.330710" HC_normed="110.350555" PMx_normed="32.644736" NOx_normed="689.359967" fuel_normed="786.491168" electricity_normed="0"
            traveltime="0.01" CO_perVeh="0.350438" CO2_perVeh="43.869671" HC_perVeh="0.002646" PMx_perVeh="0.000783" NOx_perVeh="0.016529" fuel_perVeh="0.018858" electricity_perVeh="0"/>
        <edge id=":1110673621_0" sampledSeconds="25.74" CO_abs="494.781413" CO2_abs="55759.215437" HC_abs="3.511059" PMx_abs="0.810739" NOx_abs="21.187787" fuel_abs="23.968501" electricity_abs="0"
            CO_normed="1516.571380" CO2_normed="170909.472605" HC_normed="10.761867" PMx_normed="2.485023" NOx_normed="64.943410" fuel_normed="73.466669" electricity_normed="0"
            traveltime="0.02" CO_perVeh="0.374834" CO2_perVeh="42.241830" HC_perVeh="0.002660" PMx_perVeh="0.000614" NOx_perVeh="0.016051" fuel_perVeh="0.018158" electricity_perVeh="0"/>
        <edge id=":1110673630_0" sampledSeconds="53.99" CO_abs="323.099721" CO2_abs="33543.418900" HC_abs="2.237474" PMx_abs="0.431651" NOx_abs="12.503538" fuel_abs="14.418980" electricity_abs="0"
            CO_normed="17.659486" CO2_normed="1833.364427" HC_normed="0.122292" PMx_normed="0.023593" NOx_normed="0.683399" fuel_normed="0.788090" electricity_normed="0"
            traveltime="1.26" CO_perVeh="7.541719" CO2_perVeh="782.962728" HC_perVeh="0.052227" PMx_perVeh="0.010075" NOx_perVeh="0.291855" fuel_perVeh="0.336564" electricity_perVeh="0"/>
        <edge id=":1110673630_1" sampledSeconds="7.25" CO_abs="23.598517" CO2_abs="2664.396821" HC_abs="0.166966" PMx_abs="0.027052" NOx_abs="0.947777" fuel_abs="1.145327" electricity_abs="0"
            CO_normed="1.572448" CO2_normed="177.537686" HC_normed="0.011126" PMx_normed="0.001803" NOx_normed="0.063154" fuel_normed="0.076317" electricity_normed="0"
            traveltime="1.03" CO_perVeh="3.340098" CO2_perVeh="377.114627" HC_perVeh="0.023632" PMx_perVeh="0.003829" NOx_perVeh="0.134147" fuel_perVeh="0.162108" electricity_perVeh="0"/>
        <edge id=":1110673650_0" sampledSeconds="143.16" CO_abs="2224.776055" CO2_abs="280165.940999" HC_abs="16.500266" PMx_abs="3.851283" NOx_abs="104.680866" fuel_abs="120.431517" electricity_abs="0"
            CO_normed="5682.697459" CO2_normed="715621.816090" HC_normed="42.146274" PMx_normed="9.837250" NOx_normed="267.384077" fuel_normed="307.615623" electricity_normed="0"
            traveltime="0.02" CO_perVeh="0.357767" CO2_perVeh="45.053592" HC_perVeh="0.002653" PMx_perVeh="0.000619" NOx_perVeh="0.016834" fuel_perVeh="0.019367" electricity_perVeh="0"/>
        <edge id=":1110673655_0" sampledSeconds="44.94" CO_abs="746.054502" CO2_abs="81334.476301" HC_abs="5.265765" PMx_abs="1.150598" NOx_abs="30.800843" fuel_abs="34.962278" electricity_abs="0"
            CO_normed="1905.630911" CO2_normed="207750.897321" HC_normed="13.450230" PMx_normed="2.938947" NOx_normed="78.673928" fuel_normed="89.303393" electricity_normed="0"
            traveltime="0.02" CO_perVeh="0.399280" CO2_perVeh="43.529289" HC_perVeh="0.002818" PMx_perVeh="0.000616" NOx_perVeh="0.016484" fuel_perVeh="0.018711" electricity_perVeh="0"/>
        <edge id=":1110673663_0" sampledSeconds="108.94" CO_abs="1606.151655" CO2_abs="195629.959163" HC_abs="11.788250" PMx_abs="2.674773" NOx_abs="73.134814" fuel_abs="84.093124" electricity_abs="0"
            CO_normed="75.138434" CO2_normed="9151.893448" HC_normed="0.551474" PMx_normed="0.125130" NOx_normed="3.421368" fuel_normed="3.934016" electricity_normed="0"
            traveltime="1.28" CO_perVeh="18.865009" CO2_perVeh="2297.766160" HC_perVeh="0.138459" PMx_perVeh="0.031416" NOx_perVeh="0.859003" fuel_perVeh="0.987713" electricity_perVeh="0"/>
        <edge id=":1110673663_1" sampledSeconds="154.45" CO_abs="2582.818901" CO2_abs="318529.058997" HC_abs="19.011015" PMx_abs="4.463377" NOx_abs="119.537957" fuel_abs="136.922120" electricity_abs="0"
            CO_normed="120.976257" CO2_normed="14919.533625" HC_normed="0.890454" PMx_normed="0.209059" NOx_normed="5.599020" fuel_normed="6.413274" electricity_normed="0"
            traveltime="1.25" CO_perVeh="20.850563" CO2_perVeh="2571.419255" HC_perVeh="0.153472" PMx_perVeh="0.036032" NOx_perVeh="0.965005" fuel_perVeh="1.105344" electricity_perVeh="0"/>
        <edge id=":1110673666_0" sampledSeconds="192.17" CO_abs="4472.359493" CO2_abs="361993.097117" HC_abs="28.612290" PMx_abs="4.814656" NOx_abs="137.382391" fuel_abs="155.606869" electricity_abs="0"