<?xml version="1.0" encoding="UTF-8"?>

<!-- generated on Tue Nov 10 05:26:20 2020 by Eclipse SUMO sumo Version 1.7.0
<configuration xmlns:xsi="http://www.w3.org/2001/XMLSchema-instance" xsi:noNamespaceSchemaLocation="http://sumo.dlr.de/xsd/sumoConfiguration.xsd">

    <input>
        <net-file value="../dataSets/Porto/8AM9AM_Routing_SaoBento/Porto.net.xml"/>
        <route-files value="../results/Porto/8AM9AM_Routing_SaoBento/cost_hc-ttime/solution2/Porto.rou.xml"/>
        <additional-files value="moreOutputInfo.xml"/>
    </input>

    <output>
        <emission-output.precision value="6"/>
        <tripinfo-output value="../results/Porto/8AM9AM_Routing_SaoBento/cost_hc-ttime/solution2/Porto-tripinfo"/>
    </output>

    <processing>
        <collision.action value="warn"/>
        <time-to-teleport value="-1"/>
    </processing>

    <emissions>
        <device.emissions.probability value="1"/>
    </emissions>

    <gui_only>
        <quit-on-end value="true"/>
        <start value="true"/>
    </gui_only>

</configuration>
-->

<meandata xmlns:xsi="http://www.w3.org/2001/XMLSchema-instance" xsi:noNamespaceSchemaLocation="http://sumo.dlr.de/xsd/meandata_file.xsd">
    <interval begin="0.00" end="8562.00" id="emissions-detector">
        <edge id=":1092997347_0" sampledSeconds="598.38" CO_abs="72842.310912" CO2_abs="3091314.305759" HC_abs="404.771262" PMx_abs="62.407988" NOx_abs="1336.901433" fuel_abs="1328.831173" electricity_abs="0"
            CO_normed="69607.865432" CO2_normed="2954049.473555" HC_normed="386.798046" PMx_normed="59.636862" NOx_normed="1277.538478" fuel_normed="1269.826565" electricity_normed="0"
            traveltime="0.07" CO_perVeh="8.337256" CO2_perVeh="353.820174" HC_perVeh="0.046329" PMx_perVeh="0.007143" NOx_perVeh="0.153017" fuel_perVeh="0.152093" electricity_perVeh="0"/>
        <edge id=":1103427051_0" sampledSeconds="19.68" CO_abs="1547.456033" CO2_abs="86963.656485" HC_abs="9.098067" PMx_abs="1.639743" NOx_abs="36.676878" fuel_abs="37.381931" electricity_abs="0"
            CO_normed="2243.611193" CO2_normed="126086.059230" HC_normed="13.191021" PMx_normed="2.377415" NOx_normed="53.176732" fuel_normed="54.198967" electricity_normed="0"
            traveltime="0.03" CO_perVeh="2.406490" CO2_perVeh="135.239492" HC_perVeh="0.014149" PMx_perVeh="0.002550" NOx_perVeh="0.057037" fuel_perVeh="0.058134" electricity_perVeh="0"/>
        <edge id=":1105984386_0" sampledSeconds="10.45" CO_abs="280.176772" CO2_abs="19186.996778" HC_abs="1.711166" PMx_abs="0.257218" NOx_abs="7.350015" fuel_abs="8.247778" electricity_abs="0"
            CO_normed="12.132217" CO2_normed="830.835510" HC_normed="0.074097" PMx_normed="0.011138" NOx_normed="0.318270" fuel_normed="0.357145" electricity_normed="0"
            traveltime="1.00" CO_perVeh="26.877262" CO2_perVeh="1840.602042" HC_perVeh="0.164152" PMx_perVeh="0.024675" NOx_perVeh="0.705084" fuel_perVeh="0.791207" electricity_perVeh="0"/>
        <edge id=":1105984390_0" sampledSeconds="11.14" CO_abs="48.519164" CO2_abs="2938.072257" HC_abs="0.287818" PMx_abs="0.041857" NOx_abs="1.147226" fuel_abs="1.262969" electricity_abs="0"
            CO_normed="1.624243" CO2_normed="98.355831" HC_normed="0.009635" PMx_normed="0.001401" NOx_normed="0.038405" fuel_normed="0.042280" electricity_normed="0"
            traveltime="1.15" CO_perVeh="5.029303" CO2_perVeh="304.548878" HC_perVeh="0.029834" PMx_perVeh="0.004339" NOx_perVeh="0.118917" fuel_perVeh="0.130914" electricity_perVeh="0"/>
        <edge id=":1105984390_1" sampledSeconds="2395.55" CO_abs="63308.382509" CO2_abs="7546482.573889" HC_abs="468.160347" PMx_abs="136.126958" NOx_abs="2868.403222" fuel_abs="3243.884523" electricity_abs="0"
            CO_normed="2027.326834" CO2_normed="241661.309621" HC_normed="14.991917" PMx_normed="4.359199" NOx_normed="91.854990" fuel_normed="103.879042" electricity_normed="0"
            traveltime="0.65" CO_perVeh="17.099861" CO2_perVeh="2038.336736" HC_perVeh="0.126452" PMx_perVeh="0.036768" NOx_perVeh="0.774768" fuel_perVeh="0.876187" electricity_perVeh="0"/>
        <edge id=":1105984395_0" sampledSeconds="4.12" CO_abs="91.099960" CO2_abs="7695.785859" HC_abs="0.588294" PMx_abs="0.092099" NOx_abs="2.854884" fuel_abs="3.308134" electricity_abs="0"
            CO_normed="41.634910" CO2_normed="3517.162423" HC_normed="0.268865" PMx_normed="0.042091" NOx_normed="1.304752" fuel_normed="1.511898" electricity_normed="0"
            traveltime="0.10" CO_perVeh="2.111664" CO2_perVeh="178.385563" HC_perVeh="0.013636" PMx_perVeh="0.002135" NOx_perVeh="0.066175" fuel_perVeh="0.076681" electricity_perVeh="0"/>
        <edge id=":1105984398_0" sampledSeconds="11.01" CO_abs="636.794962" CO2_abs="45341.358761" HC_abs="3.956175" PMx_abs="0.744001" NOx_abs="18.207593" fuel_abs="19.490342" electricity_abs="0"
            CO_normed="22.146270" CO2_normed="1576.868607" HC_normed="0.137587" PMx_normed="0.025875" NOx_normed="0.633218" fuel_normed="0.677829" electricity_normed="0"
            traveltime="1.20" CO_perVeh="69.650465" CO2_perVeh="4959.283480" HC_perVeh="0.432713" PMx_perVeh="0.081376" NOx_perVeh="1.991485" fuel_perVeh="2.131787" electricity_perVeh="0"/>
        <edge id=":1105984398_1" sampledSeconds="648.54" CO_abs="11620.236607" CO2_abs="1374472.056314" HC_abs="84.520367" PMx_abs="19.734005" NOx_abs="519.738508" fuel_abs="590.826827" electricity_abs="0"
            CO_normed="391.182853" CO2_normed="46270.133628" HC_normed="2.845288" PMx_normed="0.664324" NOx_normed="17.496442" fuel_normed="19.889554" electricity_normed="0"
            traveltime="0.95" CO_perVeh="17.070221" CO2_perVeh="2019.110488" HC_perVeh="0.124161" PMx_perVeh="0.028989" NOx_perVeh="0.763500" fuel_perVeh="0.867929" electricity_perVeh="0"/>
        <edge id=":1106006327_0" sampledSeconds="257.13" CO_abs="34641.837899" CO2_abs="1133208.758127" HC_abs="184.415654" PMx_abs="23.614871" NOx_abs="495.921218" fuel_abs="487.126234" electricity_abs="0"
            CO_normed="1643.972243" CO2_normed="53777.855236" HC_normed="8.751678" PMx_normed="1.120674" NOx_normed="23.534569" fuel_normed="23.117192" electricity_normed="0"
            traveltime="2.07" CO_perVeh="278.414278" CO2_perVeh="9107.527687" HC_perVeh="1.482137" PMx_perVeh="0.189791" NOx_perVeh="3.985688" fuel_perVeh="3.915003" electricity_perVeh="0"/>
        <edge id=":1106006327_1" sampledSeconds="683.11" CO_abs="92136.560760" CO2_abs="3074427.590982" HC_abs="491.970377" PMx_abs="64.055676" NOx_abs="1345.044415" fuel_abs="1321.585798" electricity_abs="0"
            CO_normed="3812.989123" CO2_normed="127232.434833" HC_normed="20.359754" PMx_normed="2.650887" NOx_normed="55.663460" fuel_normed="54.692646" electricity_normed="0"
            traveltime="2.29" CO_perVeh="309.280133" CO2_perVeh="10320.109268" HC_perVeh="1.651425" PMx_perVeh="0.215019" NOx_perVeh="4.514989" fuel_perVeh="4.436244" electricity_perVeh="0"/>
        <edge id=":1106006327_2" sampledSeconds="0.00" CO_abs="0" CO2_abs="0" HC_abs="0" PMx_abs="0" NOx_abs="0" fuel_abs="0" electricity_abs="0"
            CO_normed="0" CO2_normed="0" HC_normed="0" PMx_normed="0" NOx_normed="0" fuel_normed="0" electricity_normed="0"/>
        <edge id=":1106006327_3" sampledSeconds="0.00" CO_abs="0" CO2_abs="0" HC_abs="0" PMx_abs="0" NOx_abs="0" fuel_abs="0" electricity_abs="0"
            CO_normed="0" CO2_normed="0" HC_normed="0" PMx_normed="0" NOx_normed="0" fuel_normed="0" electricity_normed="0"/>
        <edge id=":1107381198_0" sampledSeconds="0.00" CO_abs="0" CO2_abs="0" HC_abs="0" PMx_abs="0" NOx_abs="0" fuel_abs="0" electricity_abs="0"
            CO_normed="0" CO2_normed="0" HC_normed="0" PMx_normed="0" NOx_normed="0" fuel_normed="0" electricity_normed="0"/>
        <edge id=":1107381198_1" sampledSeconds="105.46" CO_abs="4973.993188" CO2_abs="191414.718137" HC_abs="27.053658" PMx_abs="3.325891" NOx_abs="79.481955" fuel_abs="82.282657" electricity_abs="0"
            CO_normed="228.067356" CO2_normed="8776.740742" HC_normed="1.240463" PMx_normed="0.152499" NOx_normed="3.644404" fuel_normed="3.772821" electricity_normed="0"
            traveltime="1.58" CO_perVeh="74.470215" CO2_perVeh="2865.845359" HC_perVeh="0.405045" PMx_perVeh="0.049795" NOx_perVeh="1.189997" fuel_perVeh="1.231929" electricity_perVeh="0"/>
        <edge id=":1110338277_0" sampledSeconds="159.55" CO_abs="2721.813000" CO2_abs="326406.411193" HC_abs="19.905603" PMx_abs="4.513234" NOx_abs="122.480528" fuel_abs="140.308396" electricity_abs="0"
            CO_normed="4087.215436" CO2_normed="490148.780447" HC_normed="29.891285" PMx_normed="6.777306" NOx_normed="183.923108" fuel_normed="210.694357" electricity_normed="0"
            traveltime="0.02" CO_perVeh="0.369874" CO2_perVeh="44.356175" HC_perVeh="0.002705" PMx_perVeh="0.000613" NOx_perVeh="0.016644" fuel_perVeh="0.019067" electricity_perVeh="0"/>
        <edge id=":1110338293_0" sampledSeconds="6308.79" CO_abs="592790.015863" CO2_abs="10439807.659349" HC_abs="2943.377745" PMx_abs="248.357821" NOx_abs="4714.817586" fuel_abs="4487.895470" electricity_abs="0"
            CO_normed="830819.924125" CO2_normed="14631825.731393" HC_normed="4125.266636" PMx_normed="348.083842" NOx_normed="6608.013435" fuel_normed="6289.972628" electricity_normed="0"
            traveltime="0.42" CO_perVeh="39.612203" CO2_perVeh="697.622715" HC_perVeh="0.196686" PMx_perVeh="0.016596" NOx_perVeh="0.315060" fuel_perVeh="0.299896" electricity_perVeh="0"/>
        <edge id=":1110338295_0" sampledSeconds="0.00" CO_abs="0" CO2_abs="0" HC_abs="0" PMx_abs="0" NOx_abs="0" fuel_abs="0" electricity_abs="0"
            CO_normed="0" CO2_normed="0" HC_normed="0" PMx_normed="0" NOx_normed="0" fuel_normed="0" electricity_normed="0"/>
        <edge id=":1110673403_0" sampledSeconds="200.68" CO_abs="3234.670065" CO2_abs="396300.082695" HC_abs="23.793675" PMx_abs="5.416257" NOx_abs="148.108782" fuel_abs="170.352795" electricity_abs="0"
            CO_normed="4533.524968" CO2_normed="555431.089972" HC_normed="33.347827" PMx_normed="7.591110" NOx_normed="207.580634" fuel_normed="238.756545" electricity_normed="0"
            traveltime="0.02" CO_perVeh="0.373852" CO2_perVeh="45.802946" HC_perVeh="0.002750" PMx_perVeh="0.000626" NOx_perVeh="0.017118" fuel_perVeh="0.019689" electricity_perVeh="0"/>
        <edge id=":1110673412_0" sampledSeconds="940.83" CO_abs="165700.358137" CO2_abs="11339925.212778" HC_abs="1031.949512" PMx_abs="248.871342" NOx_abs="4870.062984" fuel_abs="4874.475513" electricity_abs="0"
            CO_normed="240244.097534" CO2_normed="16441425.531418" HC_normed="1496.193383" PMx_normed="360.831271" NOx_normed="7060.961725" fuel_normed="7067.359321" electricity_normed="0"
            traveltime="0.02" CO_perVeh="2.735459" CO2_perVeh="187.204786" HC_perVeh="0.017036" PMx_perVeh="0.004108" NOx_perVeh="0.080397" fuel_perVeh="0.080470" electricity_perVeh="0"/>
        <edge id=":1110673414_0" sampledSeconds="0.00" CO_abs="0" CO2_abs="0" HC_abs="0" PMx_abs="0" NOx_abs="0" fuel_abs="0" electricity_abs="0"
            CO_normed="0" CO2_normed="0" HC_normed="0" PMx_normed="0" NOx_normed="0" fuel_normed="0" electricity_normed="0"/>
        <edge id=":1110673414_1" sampledSeconds="7.20" CO_abs="404.969258" CO2_abs="15092.864481" HC_abs="2.188285" PMx_abs="0.248747" NOx_abs="6.182798" fuel_abs="6.487939" electricity_abs="0"
            CO_normed="18.856522" CO2_normed="702.766740" HC_normed="0.101893" PMx_normed="0.011582" NOx_normed="0.287889" fuel_normed="0.302097" electricity_normed="0"
            traveltime="1.57" CO_perVeh="88.458452" CO2_perVeh="3296.772285" HC_perVeh="0.477993" PMx_perVeh="0.054334" NOx_perVeh="1.350524" fuel_perVeh="1.417177" electricity_perVeh="0"/>
        <edge id=":1110673417_0" sampledSeconds="28.93" CO_abs="525.801923" CO2_abs="57632.167996" HC_abs="3.714030" PMx_abs="0.833503" NOx_abs="21.909250" fuel_abs="24.773622" electricity_abs="0"
            CO_normed="789.571414" CO2_normed="86543.449789" HC_normed="5.577179" PMx_normed="1.251631" NOx_normed="32.900065" fuel_normed="37.201355" electricity_normed="0"
            traveltime="0.02" CO_perVeh="0.400949" CO2_perVeh="43.947294" HC_perVeh="0.002832" PMx_perVeh="0.000636" NOx_perVeh="0.016707" fuel_perVeh="0.018891" electricity_perVeh="0"/>
        <edge id=":1110673446_0" sampledSeconds="1314.39" CO_abs="13981.597050" CO2_abs="1141248.831583" HC_abs="90.610991" PMx_abs="20.691333" NOx_abs="465.272057" fuel_abs="490.570656" electricity_abs="0"
            CO_normed="19595.791241" CO2_normed="1599507.822821" HC_normed="126.995082" PMx_normed="28.999766" NOx_normed="652.098188" fuel_normed="687.555229" electricity_normed="0"
            traveltime="0.02" CO_perVeh="0.242479" CO2_perVeh="19.792357" HC_perVeh="0.001571" PMx_perVeh="0.000359" NOx_perVeh="0.008069" fuel_perVeh="0.008508" electricity_perVeh="0"/>
        <edge id=":1110673451_0" sampledSeconds="36.99" CO_abs="335.709453" CO2_abs="23693.013888" HC_abs="2.071999" PMx_abs="0.344265" NOx_abs="9.230889" fuel_abs="10.184700" electricity_abs="0"
            CO_normed="522.789774" CO2_normed="36896.385406" HC_normed="3.226658" PMx_normed="0.536113" NOx_normed="14.374973" fuel_normed="15.860313" electricity_normed="0"
            traveltime="0.03" CO_perVeh="0.247344" CO2_perVeh="17.456513" HC_perVeh="0.001527" PMx_perVeh="0.000254" NOx_perVeh="0.006801" fuel_perVeh="0.007504" electricity_perVeh="0"/>
        <edge id=":1110673464_0" sampledSeconds="1027.15" CO_abs="2583.114711" CO2_abs="200666.293942" HC_abs="16.326244" PMx_abs="2.734383" NOx_abs="76.678525" fuel_abs="86.258675" electricity_abs="0"
            CO_normed="76.919468" CO2_normed="5975.400381" HC_normed="0.486160" PMx_normed="0.081424" NOx_normed="2.283318" fuel_normed="2.568593" electricity_normed="0"
            traveltime="1.22" CO_perVeh="3.063213" CO2_perVeh="237.962141" HC_perVeh="0.019361" PMx_perVeh="0.003243" NOx_perVeh="0.090930" fuel_perVeh="0.102291" electricity_perVeh="0"/>
        <edge id=":1110673464_1" sampledSeconds="2595.62" CO_abs="61964.977407" CO2_abs="7655614.093333" HC_abs="464.833100" PMx_abs="136.403391" NOx_abs="2895.759869" fuel_abs="3290.796186" electricity_abs="0"
            CO_normed="1808.046485" CO2_normed="223379.507826" HC_normed="13.563143" PMx_normed="3.980049" NOx_normed="84.493994" fuel_normed="96.020570" electricity_normed="0"
            traveltime="0.72" CO_perVeh="17.082558" CO2_perVeh="2110.506200" HC_perVeh="0.128146" PMx_perVeh="0.037604" NOx_perVeh="0.798306" fuel_perVeh="0.907209" electricity_perVeh="0"/>
        <edge id=":1110673479_0" sampledSeconds="134.15" CO_abs="6756.680254" CO2_abs="466430.078623" HC_abs="41.726417" PMx_abs="8.179623" NOx_abs="190.890759" fuel_abs="200.498015" electricity_abs="0"
            CO_normed="9469.769102" CO2_normed="653721.203396" HC_normed="58.481314" PMx_normed="11.464083" NOx_normed="267.541358" fuel_normed="281.006328" electricity_normed="0"
            traveltime="0.03" CO_perVeh="1.428432" CO2_perVeh="98.608124" HC_perVeh="0.008821" PMx_perVeh="0.001729" NOx_perVeh="0.040356" fuel_perVeh="0.042387" electricity_perVeh="0"/>
        <edge id=":1110673511_0" sampledSeconds="63.25" CO_abs="1027.534765" CO2_abs="117749.682031" HC_abs="7.356660" PMx_abs="1.574784" NOx_abs="43.992816" fuel_abs="50.615740" electricity_abs="0"
            CO_normed="1440.132817" CO2_normed="165031.089042" HC_normed="10.310665" PMx_normed="2.207125" NOx_normed="61.657766" fuel_normed="70.940070" electricity_normed="0"
            traveltime="0.02" CO_perVeh="0.393817" CO2_perVeh="45.129230" HC_perVeh="0.002820" PMx_perVeh="0.000604" NOx_perVeh="0.016861" fuel_perVeh="0.019399" electricity_perVeh="0"/>
        <edge id=":1110673517_0" sampledSeconds="182.24" CO_abs="7987.927450" CO2_abs="567352.462816" HC_abs="49.687204" PMx_abs="9.808887" NOx_abs="230.957375" fuel_abs="243.880212" electricity_abs="0"
            CO_normed="11195.413385" CO2_normed="795168.132889" HC_normed="69.638688" PMx_normed="13.747564" NOx_normed="323.696391" fuel_normed="341.808286" electricity_normed="0"
            traveltime="0.03" CO_perVeh="1.223028" CO2_perVeh="86.867088" HC_perVeh="0.007608" PMx_perVeh="0.001502" NOx_perVeh="0.035362" fuel_perVeh="0.037340" electricity_perVeh="0"/>
        <edge id=":1110673534_0" sampledSeconds="659.66" CO_abs="5110.735381" CO2_abs="411435.317368" HC_abs="32.707318" PMx_abs="5.833247" NOx_abs="158.469999" fuel_abs="176.859644" electricity_abs="0"
            CO_normed="138.816061" CO2_normed="11175.266520" HC_normed="0.888385" PMx_normed="0.158441" NOx_normed="4.304308" fuel_normed="4.803802" electricity_normed="0"
            traveltime="1.45" CO_perVeh="11.237747" CO2_perVeh="904.685099" HC_perVeh="0.071919" PMx_perVeh="0.012826" NOx_perVeh="0.348452" fuel_perVeh="0.388888" electricity_perVeh="0"/>
        <edge id=":1110673534_1" sampledSeconds="263.50" CO_abs="4665.143540" CO2_abs="541743.486018" HC_abs="33.671648" PMx_abs="7.848165" NOx_abs="205.303811" fuel_abs="232.872343" electricity_abs="0"
            CO_normed="123.210927" CO2_normed="14307.966409" HC_normed="0.889301" PMx_normed="0.207278" NOx_normed="5.422271" fuel_normed="6.150382" electricity_normed="0"
            traveltime="1.22" CO_perVeh="21.645096" CO2_perVeh="2513.553866" HC_perVeh="0.156228" PMx_perVeh="0.036414" NOx_perVeh="0.952558" fuel_perVeh="1.080469" electricity_perVeh="0"/>
        <edge id=":1110673549_0" sampledSeconds="652.54" CO_abs="1762.625068" CO2_abs="161950.417068" HC_abs="11.760235" PMx_abs="2.378185" NOx_abs="62.088057" fuel_abs="69.615773" electricity_abs="0"
            CO_normed="46.377832" CO2_normed="4261.206424" HC_normed="0.309433" PMx_normed="0.062574" NOx_normed="1.633648" fuel_normed="1.831716" electricity_normed="0"
            traveltime="1.30" CO_perVeh="3.501916" CO2_perVeh="321.756862" HC_perVeh="0.023365" PMx_perVeh="0.004725" NOx_perVeh="0.123354" fuel_perVeh="0.138310" electricity_perVeh="0"/>
        <edge id=":1110673549_1" sampledSeconds="3195.50" CO_abs="69129.014286" CO2_abs="9009462.957207" HC_abs="529.861354" PMx_abs="158.758349" NOx_abs="3372.057899" fuel_abs="3872.755495" electricity_abs="0"
            CO_normed="1759.452710" CO2_normed="229306.379998" HC_normed="13.485886" PMx_normed="4.040674" NOx_normed="85.824693" fuel_normed="98.568311" electricity_normed="0"
            traveltime="0.81" CO_perVeh="17.438426" CO2_perVeh="2272.719468" HC_perVeh="0.133662" PMx_perVeh="0.040048" NOx_perVeh="0.850632" fuel_perVeh="0.976938" electricity_perVeh="0"/>
        <edge id=":1110673556_0" sampledSeconds="469.11" CO_abs="57682.007023" CO2_abs="2766576.946116" HC_abs="328.329613" PMx_abs="55.766884" NOx_abs="1192.280058" fuel_abs="1189.233781" electricity_abs="0"
            CO_normed="1125.434867" CO2_normed="53978.741691" HC_normed="6.406046" PMx_normed="1.088069" NOx_normed="23.262602" fuel_normed="23.203166" electricity_normed="0"
            traveltime="2.77" CO_perVeh="340.029885" CO2_perVeh="16308.705088" HC_perVeh="1.935471" PMx_perVeh="0.328740" NOx_perVeh="7.028376" fuel_perVeh="7.010419" electricity_perVeh="0"/>
        <edge id=":1110673556_2" sampledSeconds="176.15" CO_abs="17398.923469" CO2_abs="744404.132402" HC_abs="96.742780" PMx_abs="14.571361" NOx_abs="318.873420" fuel_abs="319.989861" electricity_abs="0"
            CO_normed="354.953664" CO2_normed="15186.512811" HC_normed="1.973640" PMx_normed="0.297269" NOx_normed="6.505304" fuel_normed="6.528081" electricity_normed="0"
            traveltime="3.05" CO_perVeh="300.852249" CO2_perVeh="12871.811169" HC_perVeh="1.672821" PMx_perVeh="0.251960" NOx_perVeh="5.513777" fuel_perVeh="5.533082" electricity_perVeh="0"/>
        <edge id=":1110673556_3" sampledSeconds="353.56" CO_abs="34168.091326" CO2_abs="1197095.978543" HC_abs="183.565706" PMx_abs="23.557094" NOx_abs="515.088466" fuel_abs="514.589109" electricity_abs="0"
            CO_normed="1585.695519" CO2_normed="55555.626751" HC_normed="8.519039" PMx_normed="1.093253" NOx_normed="23.904568" fuel_normed="23.881394" electricity_normed="0"
            traveltime="1.80" CO_perVeh="173.766880" CO2_perVeh="6088.008580" HC_perVeh="0.933551" PMx_perVeh="0.119803" NOx_perVeh="2.619559" fuel_perVeh="2.617019" electricity_perVeh="0"/>
        <edge id=":1110673556_4" sampledSeconds="65.57" CO_abs="7341.258430" CO2_abs="287314.514720" HC_abs="40.184669" PMx_abs="5.713329" NOx_abs="123.830305" fuel_abs="123.505514" electricity_abs="0"
            CO_normed="208.140522" CO2_normed="8145.986626" HC_normed="1.139322" PMx_normed="0.161985" NOx_normed="3.510856" fuel_normed="3.501648" electricity_normed="0"
            traveltime="2.50" CO_perVeh="279.608811" CO2_perVeh="10943.037981" HC_perVeh="1.530526" PMx_perVeh="0.217605" NOx_perVeh="4.716364" fuel_perVeh="4.703993" electricity_perVeh="0"/>
        <edge id=":1110673556_5" sampledSeconds="22.57" CO_abs="1092.193195" CO2_abs="49033.836581" HC_abs="6.112432" PMx_abs="0.875665" NOx_abs="20.467798" fuel_abs="21.077786" electricity_abs="0"
            CO_normed="43.160366" CO2_normed="1937.677626" HC_normed="0.241546" PMx_normed="0.034604" NOx_normed="0.808829" fuel_normed="0.832934" electricity_normed="0"
            traveltime="1.56" CO_perVeh="75.509653" CO2_perVeh="3389.993640" HC_perVeh="0.422588" PMx_perVeh="0.060540" NOx_perVeh="1.415058" fuel_perVeh="1.457230" electricity_perVeh="0"/>
        <edge id=":1110673556_6" sampledSeconds="540.09" CO_abs="62324.324642" CO2_abs="3042614.895618" HC_abs="356.011406" PMx_abs="61.081907" NOx_abs="1309.347879" fuel_abs="1307.890215" electricity_abs="0"
            CO_normed="1246.671831" CO2_normed="60861.345966" HC_normed="7.121287" PMx_normed="1.221820" NOx_normed="26.190851" fuel_normed="26.161694" electricity_normed="0"
            traveltime="2.62" CO_perVeh="302.598376" CO2_perVeh="14772.568025" HC_perVeh="1.728514" PMx_perVeh="0.296566" NOx_perVeh="6.357173" fuel_perVeh="6.350096" electricity_perVeh="0"/>
        <edge id=":1110673561_0" sampledSeconds="101.60" CO_abs="10384.881766" CO2_abs="739671.219595" HC_abs="65.083605" PMx_abs="14.983151" NOx_abs="313.195665" fuel_abs="317.949407" electricity_abs="0"
            CO_normed="260.995424" CO2_normed="18589.600517" HC_normed="1.635697" PMx_normed="0.376560" NOx_normed="7.871311" fuel_normed="7.990783" electricity_normed="0"
            traveltime="1.20" CO_perVeh="122.551684" CO2_perVeh="8728.838316" HC_perVeh="0.768050" PMx_perVeh="0.176816" NOx_perVeh="3.696013" fuel_perVeh="3.752112" electricity_perVeh="0"/>
        <edge id=":1110673561_1" sampledSeconds="5194.99" CO_abs="480801.630557" CO2_abs="33358011.895338" HC_abs="2996.081788" PMx_abs="696.201247" NOx_abs="14254.575524" fuel_abs="14338.999287" electricity_abs="0"
            CO_normed="11780.830991" CO2_normed="817353.925918" HC_normed="73.411426" PMx_normed="17.058655" NOx_normed="349.272412" fuel_normed="351.341003" electricity_normed="0"
            traveltime="1.19" CO_perVeh="110.437923" CO2_perVeh="7662.181918" HC_perVeh="0.688186" PMx_perVeh="0.159914" NOx_perVeh="3.274210" fuel_perVeh="3.293602" electricity_perVeh="0"/>
        <edge id=":1110673562_0" sampledSeconds="300.30" CO_abs="7953.068754" CO2_abs="594727.287862" HC_abs="49.815498" PMx_abs="8.338065" NOx_abs="229.315032" fuel_abs="255.650097" electricity_abs="0"
            CO_normed="12385.063855" CO2_normed="926150.101786" HC_normed="77.576109" PMx_normed="12.984607" NOx_normed="357.105088" fuel_normed="398.115856" electricity_normed="0"
            traveltime="0.03" CO_perVeh="0.712926" CO2_perVeh="53.312317" HC_perVeh="0.004466" PMx_perVeh="0.000747" NOx_perVeh="0.020556" fuel_perVeh="0.022917" electricity_perVeh="0"/>
        <edge id=":1110673564_0" sampledSeconds="27.65" CO_abs="597.068306" CO2_abs="66670.047003" HC_abs="4.257104" PMx_abs="0.980501" NOx_abs="25.410044" fuel_abs="28.658594" electricity_abs="0"
            CO_normed="2510.448378" CO2_normed="280322.552222" HC_normed="17.899528" PMx_normed="4.122640" NOx_normed="106.839709" fuel_normed="120.498642" electricity_normed="0"
            traveltime="7.810704e-03" CO_perVeh="0.168640" CO2_perVeh="18.830687" HC_perVeh="0.001202" PMx_perVeh="0.000277" NOx_perVeh="0.007177" fuel_perVeh="0.008095" electricity_perVeh="0"/>
        <edge id=":1110673588_0" sampledSeconds="62.39" CO_abs="1220.717166" CO2_abs="129557.906364" HC_abs="8.553893" PMx_abs="1.853011" NOx_abs="49.283948" fuel_abs="55.691498" electricity_abs="0"
            CO_normed="2053.063209" CO2_normed="217896.969357" HC_normed="14.386366" PMx_normed="3.116486" NOx_normed="82.888210" fuel_normed="93.664747" electricity_normed="0"
            traveltime="0.02" CO_perVeh="0.393780" CO2_perVeh="41.792873" HC_perVeh="0.002759" PMx_perVeh="0.000598" NOx_perVeh="0.015898" fuel_perVeh="0.017965" electricity_perVeh="0"/>
        <edge id=":1110673601_0" sampledSeconds="29.21" CO_abs="474.262758" CO2_abs="60188.660438" HC_abs="3.520259" PMx_abs="0.795861" NOx_abs="22.286723" fuel_abs="25.872610" electricity_abs="0"
            CO_normed="712.177532" CO2_normed="90382.411309" HC_normed="5.286203" PMx_normed="1.195105" NOx_normed="33.466898" fuel_normed="38.851652" electricity_normed="0"
            traveltime="0.02" CO_perVeh="0.361648" CO2_perVeh="45.896743" HC_perVeh="0.002684" PMx_perVeh="0.000607" NOx_perVeh="0.016995" fuel_perVeh="0.019729" electricity_perVeh="0"/>
        <edge id=":1110673617_0" sampledSeconds="850.58" CO_abs="30422.105960" CO2_abs="3153703.401816" HC_abs="214.065414" PMx_abs="59.137486" NOx_abs="1231.013122" fuel_abs="1355.629687" electricity_abs="0"
            CO_normed="42637.849979" CO2_normed="4420046.814037" HC_normed="300.021604" PMx_normed="82.883652" NOx_normed="1725.316219" fuel_normed="1899.971531" electricity_normed="0"
            traveltime="0.02" CO_perVeh="0.538453" CO2_perVeh="55.818677" HC_perVeh="0.003789" PMx_perVeh="0.001047" NOx_perVeh="0.021788" fuel_perVeh="0.023994" electricity_perVeh="0"/>
        <edge id=":1110673621_0" sampledSeconds="26.26" CO_abs="675.719676" CO2_abs="61847.693633" HC_abs="4.521476" PMx_abs="0.987888" NOx_abs="24.318618" fuel_abs="26.585632" electricity_abs="0"
            CO_normed="1136.459161" CO2_normed="104018.545704" HC_normed="7.604445" PMx_normed="1.661479" NOx_normed="40.900268" fuel_normed="44.713047" electricity_normed="0"
            traveltime="0.02" CO_perVeh="0.511909" CO2_perVeh="46.854313" HC_perVeh="0.003425" PMx_perVeh="0.000748" NOx_perVeh="0.018423" fuel_perVeh="0.020141" electricity_perVeh="0"/>
        <edge id=":1110673630_0" sampledSeconds="286.59" CO_abs="1275.630358" CO2_abs="114892.221959" HC_abs="8.424906" PMx_abs="1.490508" NOx_abs="43.184314" fuel_abs="49.387687" electricity_abs="0"
            CO_normed="38.256401" CO2_normed="3445.639935" HC_normed="0.252665" PMx_normed="0.044701" NOx_normed="1.295106" fuel_normed="1.481146" electricity_normed="0"
            traveltime="1.29" CO_perVeh="5.739849" CO2_perVeh="516.971119" HC_perVeh="0.037909" PMx_perVeh="0.006707" NOx_perVeh="0.194313" fuel_perVeh="0.222226" electricity_perVeh="0"/>
        <edge id=":1110673630_1" sampledSeconds="338.54" CO_abs="1339.252090" CO2_abs="108681.298060" HC_abs="8.572698" PMx_abs="1.436896" NOx_abs="41.200747" fuel_abs="46.717907" electricity_abs="0"
            CO_normed="48.965678" CO2_normed="3973.600977" HC_normed="0.313435" PMx_normed="0.052536" NOx_normed="1.506380" fuel_normed="1.708098" electricity_normed="0"
            traveltime="1.08" CO_perVeh="4.269272" CO2_perVeh="346.454588" HC_perVeh="0.027328" PMx_perVeh="0.004581" NOx_perVeh="0.131340" fuel_perVeh="0.148927" electricity_perVeh="0"/>
        <edge id=":1110673650_0" sampledSeconds="200.22" CO_abs="2953.371989" CO2_abs="376534.970560" HC_abs="22.062701" PMx_abs="5.096279" NOx_abs="140.160036" fuel_abs="161.856601" electricity_abs="0"
            CO_normed="4139.273987" CO2_normed="527729.461191" HC_normed="30.921796" PMx_normed="7.142647" NOx_normed="196.440135" fuel_normed="226.848775" electricity_normed="0"
            traveltime="0.02" CO_perVeh="0.341339" CO2_perVeh="43.518474" HC_perVeh="0.002550" PMx_perVeh="0.000589" NOx_perVeh="0.016199" fuel_perVeh="0.018707" electricity_perVeh="0"/>
        <edge id=":1110673655_0" sampledSeconds="20.49" CO_abs="516.006272" CO2_abs="55437.052389" HC_abs="3.620960" PMx_abs="0.796204" NOx_abs="21.075677" fuel_abs="23.830049" electricity_abs="0"
            CO_normed="723.204305" CO2_normed="77697.340419" HC_normed="5.074927" PMx_normed="1.115913" NOx_normed="29.538441" fuel_normed="33.398808" electricity_normed="0"
            traveltime="0.02" CO_perVeh="0.589497" CO2_perVeh="63.332505" HC_perVeh="0.004137" PMx_perVeh="0.000910" NOx_perVeh="0.024077" fuel_perVeh="0.027224" electricity_perVeh="0"/>
        <edge id=":1110673663_0" sampledSeconds="111.69" CO_abs="2120.586808" CO2_abs="219083.310888" HC_abs="14.683842" PMx_abs="3.197458" NOx_abs="83.798110" fuel_abs="94.174642" electricity_abs="0"
            CO_normed="54.433898" CO2_normed="5623.706870" HC_normed="0.376923" PMx_normed="0.082076" NOx_normed="2.151036" fuel_normed="2.417394" electricity_normed="0"
            traveltime="1.31" CO_perVeh="24.907292" CO2_perVeh="2573.236840" HC_perVeh="0.172469" PMx_perVeh="0.037556" NOx_perVeh="0.984248" fuel_perVeh="1.106126" electricity_perVeh="0"/>
        <edge id=":1110673663_1" sampledSeconds="169.89" CO_abs="2266.663695" CO2_abs="299351.572217" HC_abs="17.023828" PMx_abs="3.899729" NOx_abs="110.286629" fuel_abs="128.678849" electricity_abs="0"
            CO_normed="58.254713" CO2_normed="7693.527693" HC_normed="0.437523" PMx_normed="0.100226" NOx_normed="2.834437" fuel_normed="3.307129" electricity_normed="0"
            traveltime="1.27" CO_perVeh="16.950423" CO2_perVeh="2238.592265" HC_perVeh="0.127307" PMx_perVeh="0.029163" NOx_perVeh="0.824739" fuel_perVeh="0.962278" electricity_perVeh="0"/>