<?xml version="1.0" encoding="UTF-8"?>

<!-- generated on Mon Nov  9 23:27:16 2020 by Eclipse SUMO sumo Version 1.7.0
<configuration xmlns:xsi="http://www.w3.org/2001/XMLSchema-instance" xsi:noNamespaceSchemaLocation="http://sumo.dlr.de/xsd/sumoConfiguration.xsd">

    <input>
        <net-file value="../dataSets/Porto/6AM7AM_Routing_SaoBento/Porto.net.xml"/>
        <route-files value="../results/Porto/6AM7AM_Routing_SaoBento/cost_PMx-length/solution4/Porto.rou.xml"/>
        <additional-files value="moreOutputInfo.xml"/>
    </input>

    <output>
        <emission-output.precision value="6"/>
        <tripinfo-output value="../results/Porto/6AM7AM_Routing_SaoBento/cost_PMx-length/solution4/Porto-tripinfo"/>
    </output>

    <processing>
        <collision.action value="warn"/>
        <time-to-teleport value="-1"/>
    </processing>

    <emissions>
        <device.emissions.probability value="1"/>
    </emissions>

    <gui_only>
        <quit-on-end value="true"/>
        <start value="true"/>
    </gui_only>

</configuration>
-->

<meandata xmlns:xsi="http://www.w3.org/2001/XMLSchema-instance" xsi:noNamespaceSchemaLocation="http://sumo.dlr.de/xsd/meandata_file.xsd">
    <interval begin="0.00" end="4698.00" id="emissions-detector">
        <edge id=":1092997347_0" sampledSeconds="308.48" CO_abs="39346.318968" CO2_abs="1538917.309145" HC_abs="215.508600" PMx_abs="31.400546" NOx_abs="668.164636" fuel_abs="661.520481" electricity_abs="0"
            CO_normed="68523.718160" CO2_normed="2680106.773155" HC_normed="375.319749" PMx_normed="54.685730" NOx_normed="1163.644438" fuel_normed="1152.073286" electricity_normed="0"
            traveltime="0.08" CO_perVeh="9.756474" CO2_perVeh="381.596205" HC_perVeh="0.053438" PMx_perVeh="0.007786" NOx_perVeh="0.165681" fuel_perVeh="0.164033" electricity_perVeh="0"/>
        <edge id=":1103427051_0" sampledSeconds="10.91" CO_abs="912.417759" CO2_abs="50831.755871" HC_abs="5.366022" PMx_abs="1.023374" NOx_abs="21.872614" fuel_abs="21.850289" electricity_abs="0"
            CO_normed="2410.933436" CO2_normed="134315.645054" HC_normed="14.178945" PMx_normed="2.704120" NOx_normed="57.795254" fuel_normed="57.736263" electricity_normed="0"
            traveltime="0.03" CO_perVeh="2.500011" CO2_perVeh="139.278243" HC_perVeh="0.014703" PMx_perVeh="0.002804" NOx_perVeh="0.059931" fuel_perVeh="0.059869" electricity_perVeh="0"/>
        <edge id=":1105984386_0" sampledSeconds="22.65" CO_abs="527.712586" CO2_abs="44828.533816" HC_abs="3.411084" PMx_abs="0.523270" NOx_abs="16.536335" fuel_abs="19.270147" electricity_abs="0"
            CO_normed="41.645465" CO2_normed="3537.730887" HC_normed="0.269192" PMx_normed="0.041295" NOx_normed="1.304997" fuel_normed="1.520741" electricity_normed="0"
            traveltime="0.95" CO_perVeh="22.147689" CO2_perVeh="1881.418842" HC_perVeh="0.143161" PMx_perVeh="0.021961" NOx_perVeh="0.694017" fuel_perVeh="0.808753" electricity_perVeh="0"/>
        <edge id=":1105984390_0" sampledSeconds="23.02" CO_abs="35.253138" CO2_abs="2625.653745" HC_abs="0.220319" PMx_abs="0.035566" NOx_abs="1.004941" fuel_abs="1.128668" electricity_abs="0"
            CO_normed="2.150788" CO2_normed="160.190701" HC_normed="0.013442" PMx_normed="0.002170" NOx_normed="0.061311" fuel_normed="0.068860" electricity_normed="0"
            traveltime="1.04" CO_perVeh="1.598713" CO2_perVeh="119.072108" HC_perVeh="0.009991" PMx_perVeh="0.001613" NOx_perVeh="0.045574" fuel_perVeh="0.051185" electricity_perVeh="0"/>
        <edge id=":1105984390_1" sampledSeconds="646.10" CO_abs="15312.106101" CO2_abs="1961477.201660" HC_abs="116.765198" PMx_abs="34.829290" NOx_abs="736.054265" fuel_abs="843.149045" electricity_abs="0"
            CO_normed="893.634017" CO2_normed="114474.308005" HC_normed="6.814566" PMx_normed="2.032682" NOx_normed="42.957064" fuel_normed="49.207252" electricity_normed="0"
            traveltime="0.64" CO_perVeh="15.076927" CO2_perVeh="1931.350751" HC_perVeh="0.114972" PMx_perVeh="0.034294" NOx_perVeh="0.724749" fuel_perVeh="0.830199" electricity_perVeh="0"/>
        <edge id=":1105984395_0" sampledSeconds="8.95" CO_abs="153.082279" CO2_abs="12064.535102" HC_abs="0.969349" PMx_abs="0.148581" NOx_abs="4.512884" fuel_abs="5.186099" electricity_abs="0"
            CO_normed="127.504814" CO2_normed="10048.754874" HC_normed="0.807387" PMx_normed="0.123756" NOx_normed="3.758857" fuel_normed="4.319589" electricity_normed="0"
            traveltime="0.09" CO_perVeh="1.552422" CO2_perVeh="122.347578" HC_perVeh="0.009830" PMx_perVeh="0.001507" NOx_perVeh="0.045766" fuel_perVeh="0.052593" electricity_perVeh="0"/>
        <edge id=":1105984398_0" sampledSeconds="24.03" CO_abs="1374.170065" CO2_abs="96553.230633" HC_abs="8.532353" PMx_abs="1.718931" NOx_abs="39.655356" fuel_abs="41.503979" electricity_abs="0"
            CO_normed="87.097095" CO2_normed="6119.698090" HC_normed="0.540794" PMx_normed="0.108949" NOx_normed="2.513420" fuel_normed="2.630589" electricity_normed="0"
            traveltime="1.11" CO_perVeh="63.414764" CO2_perVeh="4455.707813" HC_perVeh="0.393748" PMx_perVeh="0.079325" NOx_perVeh="1.830003" fuel_perVeh="1.915312" electricity_perVeh="0"/>
        <edge id=":1105984398_1" sampledSeconds="449.33" CO_abs="7839.610698" CO2_abs="929817.127446" HC_abs="57.071081" PMx_abs="13.247065" NOx_abs="351.043391" fuel_abs="399.688796" electricity_abs="0"
            CO_normed="480.973941" CO2_normed="57045.920411" HC_normed="3.501411" PMx_normed="0.812731" NOx_normed="21.537131" fuel_normed="24.521612" electricity_normed="0"
            traveltime="0.95" CO_perVeh="16.609677" CO2_perVeh="1969.990995" HC_perVeh="0.120916" PMx_perVeh="0.028066" NOx_perVeh="0.743751" fuel_perVeh="0.846815" electricity_perVeh="0"/>
        <edge id=":1106006327_0" sampledSeconds="39.05" CO_abs="5274.270463" CO2_abs="169802.300907" HC_abs="28.012060" PMx_abs="3.544749" NOx_abs="74.341971" fuel_abs="72.992047" electricity_abs="0"
            CO_normed="456.161012" CO2_normed="14685.858428" HC_normed="2.422707" PMx_normed="0.306578" NOx_normed="6.429687" fuel_normed="6.312935" electricity_normed="0"
            traveltime="2.12" CO_perVeh="286.125620" CO2_perVeh="9211.660458" HC_perVeh="1.519635" PMx_perVeh="0.192300" NOx_perVeh="4.033002" fuel_perVeh="3.959769" electricity_perVeh="0"/>
        <edge id=":1106006327_1" sampledSeconds="160.79" CO_abs="21822.856016" CO2_abs="732101.034290" HC_abs="116.627252" PMx_abs="15.286832" NOx_abs="320.494474" fuel_abs="314.703742" electricity_abs="0"
            CO_normed="1645.914865" CO2_normed="55216.236333" HC_normed="8.796215" PMx_normed="1.152957" NOx_normed="24.172208" fuel_normed="23.735462" electricity_normed="0"
            traveltime="2.28" CO_perVeh="309.803567" CO2_perVeh="10393.117746" HC_perVeh="1.655674" PMx_perVeh="0.217016" NOx_perVeh="4.549832" fuel_perVeh="4.467625" electricity_perVeh="0"/>
        <edge id=":1106006327_2" sampledSeconds="0.00" CO_abs="0" CO2_abs="0" HC_abs="0" PMx_abs="0" NOx_abs="0" fuel_abs="0" electricity_abs="0"
            CO_normed="0" CO2_normed="0" HC_normed="0" PMx_normed="0" NOx_normed="0" fuel_normed="0" electricity_normed="0"/>
        <edge id=":1106006327_3" sampledSeconds="0.00" CO_abs="0" CO2_abs="0" HC_abs="0" PMx_abs="0" NOx_abs="0" fuel_abs="0" electricity_abs="0"
            CO_normed="0" CO2_normed="0" HC_normed="0" PMx_normed="0" NOx_normed="0" fuel_normed="0" electricity_normed="0"/>
        <edge id=":1107381198_0" sampledSeconds="0.00" CO_abs="0" CO2_abs="0" HC_abs="0" PMx_abs="0" NOx_abs="0" fuel_abs="0" electricity_abs="0"
            CO_normed="0" CO2_normed="0" HC_normed="0" PMx_normed="0" NOx_normed="0" fuel_normed="0" electricity_normed="0"/>
        <edge id=":1107381198_1" sampledSeconds="36.34" CO_abs="1343.831209" CO2_abs="55440.609205" HC_abs="7.395584" PMx_abs="0.950180" NOx_abs="22.916745" fuel_abs="23.831966" electricity_abs="0"
            CO_normed="112.296152" CO2_normed="4632.849013" HC_normed="0.618006" PMx_normed="0.079401" NOx_normed="1.915019" fuel_normed="1.991499" electricity_normed="0"
            traveltime="1.50" CO_perVeh="55.329257" CO2_perVeh="2282.643617" HC_perVeh="0.304497" PMx_perVeh="0.039122" NOx_perVeh="0.943546" fuel_perVeh="0.981228" electricity_perVeh="0"/>
        <edge id=":1110338277_0" sampledSeconds="96.89" CO_abs="1428.279367" CO2_abs="172438.266877" HC_abs="10.417181" PMx_abs="2.338831" NOx_abs="64.395608" fuel_abs="74.124017" electricity_abs="0"
            CO_normed="3908.810529" CO2_normed="471916.439181" HC_normed="28.508979" PMx_normed="6.400743" NOx_normed="176.233191" fuel_normed="202.857188" electricity_normed="0"
            traveltime="0.02" CO_perVeh="0.322858" CO2_perVeh="38.979161" HC_perVeh="0.002355" PMx_perVeh="0.000529" NOx_perVeh="0.014556" fuel_perVeh="0.016756" electricity_perVeh="0"/>
        <edge id=":1110338293_0" sampledSeconds="122.19" CO_abs="7024.405828" CO2_abs="478444.366426" HC_abs="43.268749" PMx_abs="8.618696" NOx_abs="197.372611" fuel_abs="205.662157" electricity_abs="0"
            CO_normed="17942.288194" CO2_normed="1222080.118585" HC_normed="110.520432" PMx_normed="22.014548" NOx_normed="504.144601" fuel_normed="525.318410" electricity_normed="0"
            traveltime="0.03" CO_perVeh="1.611164" CO2_perVeh="109.739141" HC_perVeh="0.009924" PMx_perVeh="0.001977" NOx_perVeh="0.045271" fuel_perVeh="0.047172" electricity_perVeh="0"/>
        <edge id=":1110338295_0" sampledSeconds="0.00" CO_abs="0" CO2_abs="0" HC_abs="0" PMx_abs="0" NOx_abs="0" fuel_abs="0" electricity_abs="0"
            CO_normed="0" CO2_normed="0" HC_normed="0" PMx_normed="0" NOx_normed="0" fuel_normed="0" electricity_normed="0"/>
        <edge id=":1110673403_0" sampledSeconds="143.95" CO_abs="2191.917817" CO2_abs="275508.304635" HC_abs="16.276591" PMx_abs="3.712601" NOx_abs="102.526173" fuel_abs="118.429515" electricity_abs="0"
            CO_normed="5598.768370" CO2_normed="703724.916054" HC_normed="41.574944" PMx_normed="9.483016" NOx_normed="261.880390" fuel_normed="302.501953" electricity_normed="0"
            traveltime="0.02" CO_perVeh="0.351927" CO2_perVeh="44.234676" HC_perVeh="0.002613" PMx_perVeh="0.000596" NOx_perVeh="0.016461" fuel_perVeh="0.019015" electricity_perVeh="0"/>
        <edge id=":1110673412_0" sampledSeconds="253.37" CO_abs="44675.500849" CO2_abs="3051503.163900" HC_abs="278.097301" PMx_abs="67.013449" NOx_abs="1311.200165" fuel_abs="1311.690932" electricity_abs="0"
            CO_normed="118048.621612" CO2_normed="8063160.692034" HC_normed="734.832344" PMx_normed="177.073455" NOx_normed="3464.658912" fuel_normed="3465.955693" electricity_normed="0"
            traveltime="0.02" CO_perVeh="2.747536" CO2_perVeh="187.666943" HC_perVeh="0.017103" PMx_perVeh="0.004121" NOx_perVeh="0.080639" fuel_perVeh="0.080669" electricity_perVeh="0"/>
        <edge id=":1110673414_0" sampledSeconds="0.00" CO_abs="0" CO2_abs="0" HC_abs="0" PMx_abs="0" NOx_abs="0" fuel_abs="0" electricity_abs="0"
            CO_normed="0" CO2_normed="0" HC_normed="0" PMx_normed="0" NOx_normed="0" fuel_normed="0" electricity_normed="0"/>
        <edge id=":1110673414_1" sampledSeconds="234.87" CO_abs="15944.078363" CO2_abs="595813.138905" HC_abs="86.412918" PMx_abs="10.952471" NOx_abs="251.288800" fuel_abs="256.119220" electricity_abs="0"
            CO_normed="1353.010473" CO2_normed="50560.552853" HC_normed="7.332978" PMx_normed="0.929424" NOx_normed="21.324304" fuel_normed="21.734212" electricity_normed="0"
            traveltime="1.62" CO_perVeh="109.980359" CO2_perVeh="4109.848270" HC_perVeh="0.596066" PMx_perVeh="0.075549" NOx_perVeh="1.733360" fuel_perVeh="1.766680" electricity_perVeh="0"/>
        <edge id=":1110673417_0" sampledSeconds="29.70" CO_abs="682.213223" CO2_abs="69699.649861" HC_abs="4.719945" PMx_abs="1.030432" NOx_abs="26.750409" fuel_abs="29.960917" electricity_abs="0"
            CO_normed="1867.031261" CO2_normed="190748.904928" HC_normed="12.917202" PMx_normed="2.820012" NOx_normed="73.208563" fuel_normed="81.994848" electricity_normed="0"
            traveltime="0.02" CO_perVeh="0.506348" CO2_perVeh="51.732013" HC_perVeh="0.003503" PMx_perVeh="0.000765" NOx_perVeh="0.019855" fuel_perVeh="0.022237" electricity_perVeh="0"/>
        <edge id=":1110673446_0" sampledSeconds="334.45" CO_abs="3226.668367" CO2_abs="258479.452167" HC_abs="20.832723" PMx_abs="4.750462" NOx_abs="105.856200" fuel_abs="111.108442" electricity_abs="0"
            CO_normed="8241.809366" CO2_normed="660228.485741" HC_normed="53.212575" PMx_normed="12.134002" NOx_normed="270.386206" fuel_normed="283.801895" electricity_normed="0"
            traveltime="0.02" CO_perVeh="0.220214" CO2_perVeh="17.640761" HC_perVeh="0.001422" PMx_perVeh="0.000324" NOx_perVeh="0.007224" fuel_perVeh="0.007583" electricity_perVeh="0"/>
        <edge id=":1110673451_0" sampledSeconds="37.99" CO_abs="315.824360" CO2_abs="23062.640963" HC_abs="1.956226" PMx_abs="0.315910" NOx_abs="8.849849" fuel_abs="9.913747" electricity_abs="0"
            CO_normed="896.337052" CO2_normed="65453.784483" HC_normed="5.551939" PMx_normed="0.896579" NOx_normed="25.116642" fuel_normed="28.136077" electricity_normed="0"
            traveltime="0.03" CO_perVeh="0.226488" CO2_perVeh="16.538946" HC_perVeh="0.001403" PMx_perVeh="0.000227" NOx_perVeh="0.006347" fuel_perVeh="0.007109" electricity_perVeh="0"/>
        <edge id=":1110673464_0" sampledSeconds="326.05" CO_abs="601.551815" CO2_abs="43572.700284" HC_abs="3.738009" PMx_abs="0.628050" NOx_abs="16.937019" fuel_abs="18.730194" electricity_abs="0"
            CO_normed="32.645839" CO2_normed="2364.663057" HC_normed="0.202859" PMx_normed="0.034084" NOx_normed="0.919161" fuel_normed="1.016476" electricity_normed="0"
            traveltime="1.18" CO_perVeh="2.174530" CO2_perVeh="157.509563" HC_perVeh="0.013512" PMx_perVeh="0.002270" NOx_perVeh="0.061225" fuel_perVeh="0.067707" electricity_perVeh="0"/>
        <edge id=":1110673464_1" sampledSeconds="711.38" CO_abs="16728.336980" CO2_abs="2064005.170747" HC_abs="125.334678" PMx_abs="36.937276" NOx_abs="779.016154" fuel_abs="887.220865" electricity_abs="0"
            CO_normed="889.566206" CO2_normed="109758.026208" HC_normed="6.664948" PMx_normed="1.964221" NOx_normed="41.425902" fuel_normed="47.179926" electricity_normed="0"
            traveltime="0.70" CO_perVeh="16.505877" CO2_perVeh="2036.557278" HC_perVeh="0.123668" PMx_perVeh="0.036446" NOx_perVeh="0.768657" fuel_perVeh="0.875422" electricity_perVeh="0"/>
        <edge id=":1110673479_0" sampledSeconds="133.26" CO_abs="7086.767370" CO2_abs="488925.808035" HC_abs="43.776623" PMx_abs="8.663426" NOx_abs="200.651263" fuel_abs="210.167821" electricity_abs="0"
            CO_normed="18101.576934" CO2_normed="1248852.638658" HC_normed="111.817684" PMx_normed="22.128803" NOx_normed="512.519190" fuel_normed="536.827130" electricity_normed="0"
            traveltime="0.03" CO_perVeh="1.492901" CO2_perVeh="102.997282" HC_perVeh="0.009222" PMx_perVeh="0.001825" NOx_perVeh="0.042269" fuel_perVeh="0.044274" electricity_perVeh="0"/>
        <edge id=":1110673511_0" sampledSeconds="11.78" CO_abs="153.541576" CO2_abs="20494.412281" HC_abs="1.162328" PMx_abs="0.250795" NOx_abs="7.461577" fuel_abs="8.809723" electricity_abs="0"
            CO_normed="392.187934" CO2_normed="52348.434944" HC_normed="2.968909" PMx_normed="0.640601" NOx_normed="19.058946" fuel_normed="22.502484" electricity_normed="0"
            traveltime="0.02" CO_perVeh="0.304043" CO2_perVeh="40.582995" HC_perVeh="0.002302" PMx_perVeh="0.000497" NOx_perVeh="0.014775" fuel_perVeh="0.017445" electricity_perVeh="0"/>
        <edge id=":1110673517_0" sampledSeconds="17.25" CO_abs="721.405509" CO2_abs="51346.511801" HC_abs="4.487291" PMx_abs="0.872488" NOx_abs="20.803226" fuel_abs="22.071660" electricity_abs="0"
            CO_normed="1842.670520" CO2_normed="131153.286849" HC_normed="11.461790" PMx_normed="2.228576" NOx_normed="53.137231" fuel_normed="56.377165" electricity_normed="0"
            traveltime="0.03" CO_perVeh="1.158264" CO2_perVeh="82.440212" HC_perVeh="0.007205" PMx_perVeh="0.001401" NOx_perVeh="0.033401" fuel_perVeh="0.035438" electricity_perVeh="0"/>
        <edge id=":1110673534_0" sampledSeconds="475.21" CO_abs="2995.767333" CO2_abs="272539.729500" HC_abs="19.841418" PMx_abs="3.483964" NOx_abs="102.081900" fuel_abs="117.154260" electricity_abs="0"
            CO_normed="148.295036" CO2_normed="13491.130788" HC_normed="0.982180" PMx_normed="0.172462" NOx_normed="5.053209" fuel_normed="5.799314" electricity_normed="0"
            traveltime="1.43" CO_perVeh="9.025049" CO2_perVeh="821.053233" HC_perVeh="0.059774" PMx_perVeh="0.010496" NOx_perVeh="0.307532" fuel_perVeh="0.352939" electricity_perVeh="0"/>
        <edge id=":1110673534_1" sampledSeconds="184.36" CO_abs="3307.656257" CO2_abs="397427.094982" HC_abs="24.140038" PMx_abs="5.576456" NOx_abs="149.388246" fuel_abs="170.837084" electricity_abs="0"
            CO_normed="159.208699" CO2_normed="19129.512264" HC_normed="1.161942" PMx_normed="0.268414" NOx_normed="7.190562" fuel_normed="8.222968" electricity_normed="0"
            traveltime="1.22" CO_perVeh="21.961650" CO2_perVeh="2638.773231" HC_perVeh="0.160281" PMx_perVeh="0.037026" NOx_perVeh="0.991884" fuel_perVeh="1.134297" electricity_perVeh="0"/>
        <edge id=":1110673549_0" sampledSeconds="59.83" CO_abs="17.102851" CO2_abs="1392.180467" HC_abs="0.108437" PMx_abs="0.012531" NOx_abs="0.490160" fuel_abs="0.598454" electricity_abs="0"
            CO_normed="0.820127" CO2_normed="66.758758" HC_normed="0.005200" PMx_normed="0.000601" NOx_normed="0.023504" fuel_normed="0.028697" electricity_normed="0"
            traveltime="1.25" CO_perVeh="0.356323" CO2_perVeh="29.004894" HC_perVeh="0.002259" PMx_perVeh="0.000261" NOx_perVeh="0.010212" fuel_perVeh="0.012468" electricity_perVeh="0"/>
        <edge id=":1110673549_1" sampledSeconds="639.28" CO_abs="13146.704648" CO2_abs="1781017.444962" HC_abs="102.229441" PMx_abs="30.997523" NOx_abs="662.739472" fuel_abs="765.578096" electricity_abs="0"
            CO_normed="609.812541" CO2_normed="82612.852642" HC_normed="4.741933" PMx_normed="1.437826" NOx_normed="30.741304" fuel_normed="35.511494" electricity_normed="0"
            traveltime="0.80" CO_perVeh="16.549128" CO2_perVeh="2241.952346" HC_perVeh="0.128687" PMx_perVeh="0.039020" NOx_perVeh="0.834259" fuel_perVeh="0.963713" electricity_perVeh="0"/>
        <edge id=":1110673556_0" sampledSeconds="412.65" CO_abs="50176.144968" CO2_abs="2545134.350216" HC_abs="288.980848" PMx_abs="51.206212" NOx_abs="1095.146131" fuel_abs="1094.042814" electricity_abs="0"
            CO_normed="1784.183445" CO2_normed="90500.905858" HC_normed="10.275697" PMx_normed="1.820811" NOx_normed="38.941644" fuel_normed="38.902412" electricity_normed="0"
            traveltime="2.56" CO_perVeh="311.469041" CO2_perVeh="15798.953004" HC_perVeh="1.793852" PMx_perVeh="0.317863" NOx_perVeh="6.798133" fuel_perVeh="6.791284" electricity_perVeh="0"/>
        <edge id=":1110673556_2" sampledSeconds="245.77" CO_abs="23318.030783" CO2_abs="1012069.455880" HC_abs="129.940861" PMx_abs="19.473107" NOx_abs="431.232416" fuel_abs="435.048824" electricity_abs="0"
            CO_normed="866.968599" CO2_normed="37628.925284" HC_normed="4.831225" PMx_normed="0.724014" NOx_normed="16.033299" fuel_normed="16.175194" electricity_normed="0"
            traveltime="2.98" CO_perVeh="282.843245" CO2_perVeh="12276.208558" HC_perVeh="1.576158" PMx_perVeh="0.236205" NOx_perVeh="5.230767" fuel_perVeh="5.277059" electricity_perVeh="0"/>
        <edge id=":1110673556_3" sampledSeconds="378.45" CO_abs="32085.952926" CO2_abs="1145397.134152" HC_abs="172.783139" PMx_abs="21.964135" NOx_abs="489.165585" fuel_abs="492.365966" electricity_abs="0"
            CO_normed="2713.789968" CO2_normed="96876.264169" HC_normed="14.613783" PMx_normed="1.857699" NOx_normed="41.373016" fuel_normed="41.643701" electricity_normed="0"
            traveltime="1.74" CO_perVeh="147.201903" CO2_perVeh="5254.780429" HC_perVeh="0.792684" PMx_perVeh="0.100766" NOx_perVeh="2.244163" fuel_perVeh="2.258845" electricity_perVeh="0"/>
        <edge id=":1110673556_4" sampledSeconds="159.93" CO_abs="15407.563038" CO2_abs="621027.932523" HC_abs="84.730529" PMx_abs="12.113628" NOx_abs="266.135422" fuel_abs="266.956106" electricity_abs="0"
            CO_normed="796.126886" CO2_normed="32089.242967" HC_normed="4.378126" PMx_normed="0.625925" NOx_normed="13.751530" fuel_normed="13.793936" electricity_normed="0"
            traveltime="2.38" CO_perVeh="228.819083" CO2_perVeh="9222.940815" HC_perVeh="1.258341" PMx_perVeh="0.179901" NOx_perVeh="3.952401" fuel_perVeh="3.964589" electricity_perVeh="0"/>
        <edge id=":1110673556_5" sampledSeconds="23.83" CO_abs="1529.245272" CO2_abs="65199.166789" HC_abs="8.494336" PMx_abs="1.262131" NOx_abs="27.865117" fuel_abs="28.026563" electricity_abs="0"
            CO_normed="110.134911" CO2_normed="4695.587157" HC_normed="0.611755" PMx_normed="0.090898" NOx_normed="2.006821" fuel_normed="2.018449" electricity_normed="0"
            traveltime="1.65" CO_perVeh="105.725599" CO2_perVeh="4507.596716" HC_perVeh="0.587263" PMx_perVeh="0.087258" NOx_perVeh="1.926477" fuel_perVeh="1.937639" electricity_perVeh="0"/>
        <edge id=":1110673556_6" sampledSeconds="308.48" CO_abs="36970.210631" CO2_abs="1893167.686409" HC_abs="213.363409" PMx_abs="38.053495" NOx_abs="813.677277" fuel_abs="813.790463" electricity_abs="0"
            CO_normed="1347.748017" CO2_normed="69015.376212" HC_normed="7.778157" PMx_normed="1.387239" NOx_normed="29.662583" fuel_normed="29.666709" electricity_normed="0"
            traveltime="2.44" CO_perVeh="292.774328" CO2_perVeh="14992.365160" HC_perVeh="1.689667" PMx_perVeh="0.301353" NOx_perVeh="6.443669" fuel_perVeh="6.444566" electricity_perVeh="0"/>
        <edge id=":1110673561_0" sampledSeconds="100.28" CO_abs="9859.965608" CO2_abs="711861.655133" HC_abs="62.040957" PMx_abs="14.353392" NOx_abs="300.672248" fuel_abs="305.995424" electricity_abs="0"
            CO_normed="451.615613" CO2_normed="32605.371090" HC_normed="2.841659" PMx_normed="0.657428" NOx_normed="13.771679" fuel_normed="14.015496" electricity_normed="0"
            traveltime="1.18" CO_perVeh="116.357164" CO2_perVeh="8400.658463" HC_perVeh="0.732144" PMx_perVeh="0.169384" NOx_perVeh="3.548224" fuel_perVeh="3.611043" electricity_perVeh="0"/>
        <edge id=":1110673561_1" sampledSeconds="1316.78" CO_abs="120912.033590" CO2_abs="8386154.292188" HC_abs="753.465292" PMx_abs="175.035607" NOx_abs="3583.893532" fuel_abs="3604.802978" electricity_abs="0"
            CO_normed="5399.353106" CO2_normed="374485.540292" HC_normed="33.646156" PMx_normed="7.816253" NOx_normed="160.039544" fuel_normed="160.973259" electricity_normed="0"
            traveltime="1.20" CO_perVeh="109.755285" CO2_perVeh="7612.350282" HC_perVeh="0.683942" PMx_perVeh="0.158885" NOx_perVeh="3.253202" fuel_perVeh="3.272182" electricity_perVeh="0"/>
        <edge id=":1110673562_0" sampledSeconds="104.36" CO_abs="1954.332917" CO2_abs="161794.276491" HC_abs="12.570937" PMx_abs="2.089033" NOx_abs="60.949033" fuel_abs="69.549181" electricity_abs="0"
            CO_normed="5546.567097" CO2_normed="459186.253699" HC_normed="35.677415" PMx_normed="5.928858" NOx_normed="172.978666" fuel_normed="197.386635" electricity_normed="0"
            traveltime="0.03" CO_perVeh="0.498168" CO2_perVeh="41.242098" HC_perVeh="0.003204" PMx_perVeh="0.000533" NOx_perVeh="0.015536" fuel_perVeh="0.017728" electricity_perVeh="0"/>
        <edge id=":1110673564_0" sampledSeconds="28.47" CO_abs="695.741109" CO2_abs="74889.366148" HC_abs="4.885224" PMx_abs="1.064757" NOx_abs="28.438632" fuel_abs="32.191790" electricity_abs="0"
            CO_normed="5331.349496" CO2_normed="573864.874695" HC_normed="37.434667" PMx_normed="8.159061" NOx_normed="217.920549" fuel_normed="246.680383" electricity_normed="0"
            traveltime="7.825679e-03" CO_perVeh="0.191269" CO2_perVeh="20.588142" HC_perVeh="0.001343" PMx_perVeh="0.000293" NOx_perVeh="0.007818" fuel_perVeh="0.008850" electricity_perVeh="0"/>
        <edge id=":1110673588_0" sampledSeconds="11.81" CO_abs="195.411243" CO2_abs="23467.401646" HC_abs="1.430187" PMx_abs="0.328196" NOx_abs="8.820352" fuel_abs="10.087644" electricity_abs="0"
            CO_normed="598.961664" CO2_normed="71930.733015" HC_normed="4.383715" PMx_normed="1.005964" NOx_normed="27.035562" fuel_normed="30.919983" electricity_normed="0"
            traveltime="0.02" CO_perVeh="0.325685" CO2_perVeh="39.112336" HC_perVeh="0.002384" PMx_perVeh="0.000547" NOx_perVeh="0.014701" fuel_perVeh="0.016813" electricity_perVeh="0"/>
        <edge id=":1110673601_0" sampledSeconds="29.87" CO_abs="575.897107" CO2_abs="65152.990652" HC_abs="4.127999" PMx_abs="0.919212" NOx_abs="24.620066" fuel_abs="28.006527" electricity_abs="0"
            CO_normed="1576.073091" CO2_normed="178305.940481" HC_normed="11.297206" PMx_normed="2.515634" NOx_normed="67.378397" fuel_normed="76.646215" electricity_normed="0"
            traveltime="0.02" CO_perVeh="0.427439" CO2_perVeh="48.357422" HC_perVeh="0.003064" PMx_perVeh="0.000682" NOx_perVeh="0.018273" fuel_perVeh="0.020787" electricity_perVeh="0"/>
        <edge id=":1110673617_0" sampledSeconds="238.54" CO_abs="6181.661334" CO2_abs="755399.903592" HC_abs="46.277723" PMx_abs="13.580706" NOx_abs="285.757095" fuel_abs="324.711620" electricity_abs="0"
            CO_normed="15789.684123" CO2_normed="1929501.669457" HC_normed="118.206189" PMx_normed="34.688905" NOx_normed="729.903179" fuel_normed="829.403882" electricity_normed="0"
            traveltime="0.01" CO_perVeh="0.378585" CO2_perVeh="46.263144" HC_perVeh="0.002834" PMx_perVeh="0.000832" NOx_perVeh="0.017501" fuel_perVeh="0.019886" electricity_perVeh="0"/>
        <edge id=":1110673621_0" sampledSeconds="25.84" CO_abs="615.587395" CO2_abs="65823.712964" HC_abs="4.323454" PMx_abs="0.955931" NOx_abs="25.096597" fuel_abs="28.294824" electricity_abs="0"
            CO_normed="1886.857917" CO2_normed="201758.507171" HC_normed="13.251965" PMx_normed="2.930057" NOx_normed="76.924437" fuel_normed="86.727430" electricity_normed="0"
            traveltime="0.02" CO_perVeh="0.466354" CO2_perVeh="49.866449" HC_perVeh="0.003275" PMx_perVeh="0.000724" NOx_perVeh="0.019013" fuel_perVeh="0.021435" electricity_perVeh="0"/>
        <edge id=":1110673630_0" sampledSeconds="54.38" CO_abs="260.649149" CO2_abs="21340.932772" HC_abs="1.671892" PMx_abs="0.286245" NOx_abs="8.118174" fuel_abs="9.173637" electricity_abs="0"
            CO_normed="14.246159" CO2_normed="1166.419771" HC_normed="0.091380" PMx_normed="0.015645" NOx_normed="0.443711" fuel_normed="0.501398" electricity_normed="0"
            traveltime="1.27" CO_perVeh="6.084012" CO2_perVeh="498.135118" HC_perVeh="0.039025" PMx_perVeh="0.006681" NOx_perVeh="0.189493" fuel_perVeh="0.214129" electricity_perVeh="0"/>
        <edge id=":1110673630_1" sampledSeconds="7.53" CO_abs="19.580338" CO2_abs="1612.745598" HC_abs="0.126008" PMx_abs="0.021753" NOx_abs="0.611647" fuel_abs="0.693257" electricity_abs="0"
            CO_normed="1.304704" CO2_normed="107.462642" HC_normed="0.008396" PMx_normed="0.001449" NOx_normed="0.040756" fuel_normed="0.046194" electricity_normed="0"
            traveltime="1.07" CO_perVeh="2.771371" CO2_perVeh="228.265531" HC_perVeh="0.017835" PMx_perVeh="0.003079" NOx_perVeh="0.086572" fuel_perVeh="0.098122" electricity_perVeh="0"/>
        <edge id=":1110673650_0" sampledSeconds="142.78" CO_abs="2315.908420" CO2_abs="289385.143132" HC_abs="17.147169" PMx_abs="3.927616" NOx_abs="107.872923" fuel_abs="124.394554" electricity_abs="0"
            CO_normed="5915.474892" CO2_normed="739170.225115" HC_normed="43.798643" PMx_normed="10.032225" NOx_normed="275.537478" fuel_normed="317.738323" electricity_normed="0"
            traveltime="0.02" CO_perVeh="0.372679" CO2_perVeh="46.568296" HC_perVeh="0.002759" PMx_perVeh="0.000632" NOx_perVeh="0.017359" fuel_perVeh="0.020018" electricity_perVeh="0"/>
        <edge id=":1110673655_0" sampledSeconds="44.73" CO_abs="712.559034" CO2_abs="83874.415649" HC_abs="5.171633" PMx_abs="1.140645" NOx_abs="31.386545" fuel_abs="36.054122" electricity_abs="0"
            CO_normed="1820.074160" CO2_normed="214238.609575" HC_normed="13.209791" PMx_normed="2.913524" NOx_normed="80.169974" fuel_normed="92.092267" electricity_normed="0"
            traveltime="0.02" CO_perVeh="0.381354" CO2_perVeh="44.888636" HC_perVeh="0.002768" PMx_perVeh="0.000610" NOx_perVeh="0.016798" fuel_perVeh="0.019296" electricity_perVeh="0"/>
        <edge id=":1110673663_0" sampledSeconds="109.05" CO_abs="1979.184369" CO2_abs="236117.760528" HC_abs="14.362333" PMx_abs="3.253083" NOx_abs="88.443176" fuel_abs="101.497120" electricity_abs="0"
            CO_normed="92.589522" CO2_normed="11045.979843" HC_normed="0.671894" PMx_normed="0.152185" NOx_normed="4.137518" fuel_normed="4.748203" electricity_normed="0"
            traveltime="1.28" CO_perVeh="23.246454" CO2_perVeh="2773.314487" HC_perVeh="0.168692" PMx_perVeh="0.038209" NOx_perVeh="1.038807" fuel_perVeh="1.192132" electricity_perVeh="0"/>
        <edge id=":1110673663_1" sampledSeconds="154.48" CO_abs="2929.708620" CO2_abs="346009.438396" HC_abs="21.274830" PMx_abs="4.959376" NOx_abs="130.791398" fuel_abs="148.734690" electricity_abs="0"
            CO_normed="137.224172" CO2_normed="16206.682891" HC_normed="0.996488" PMx_normed="0.232291" NOx_normed="6.126118" fuel_normed="6.966561" electricity_normed="0"
            traveltime="1.25" CO_perVeh="23.681669" CO2_perVeh="2796.892780" HC_perVeh="0.171971" PMx_perVeh="0.040088" NOx_perVeh="1.057224" fuel_perVeh="1.202265" electricity_perVeh="0"/>
        <edge id=":1110673666_0" sampledSeconds="191.17" CO_abs="4151.750310" CO2_abs="328897.445370" HC_abs="26.409274" PMx_abs="4.456985" NOx_abs="125.508328" fuel_abs="141.380259" electricity_abs="0"