<?xml version="1.0" encoding="UTF-8"?>

<!-- generated on Tue Nov 10 15:45:41 2020 by Eclipse SUMO sumo Version 1.7.0
<configuration xmlns:xsi="http://www.w3.org/2001/XMLSchema-instance" xsi:noNamespaceSchemaLocation="http://sumo.dlr.de/xsd/sumoConfiguration.xsd">

    <input>
        <net-file value="../dataSets/Porto/8AM9AM_Routing_SaoBento/Porto.net.xml"/>
        <route-files value="../results/Porto/8AM9AM_Routing_SaoBento/cost_nox-length/solution16/Porto.rou.xml"/>
        <additional-files value="moreOutputInfo.xml"/>
    </input>

    <output>
        <emission-output.precision value="6"/>
        <tripinfo-output value="../results/Porto/8AM9AM_Routing_SaoBento/cost_nox-length/solution16/Porto-tripinfo"/>
    </output>

    <processing>
        <collision.action value="warn"/>
        <time-to-teleport value="-1"/>
    </processing>

    <emissions>
        <device.emissions.probability value="1"/>
    </emissions>

    <gui_only>
        <quit-on-end value="true"/>
        <start value="true"/>
    </gui_only>

</configuration>
-->

<meandata xmlns:xsi="http://www.w3.org/2001/XMLSchema-instance" xsi:noNamespaceSchemaLocation="http://sumo.dlr.de/xsd/meandata_file.xsd">
    <interval begin="0.00" end="8561.00" id="emissions-detector">
        <edge id=":1092997347_0" sampledSeconds="589.32" CO_abs="72039.039124" CO2_abs="3086494.188524" HC_abs="401.029067" PMx_abs="62.348812" NOx_abs="1334.997066" fuel_abs="1326.758558" electricity_abs="0"
            CO_normed="68848.302780" CO2_normed="2949787.906756" HC_normed="383.266781" PMx_normed="59.587273" NOx_normed="1275.867687" fuel_normed="1267.994077" electricity_normed="0"
            traveltime="0.07" CO_perVeh="8.253315" CO2_perVeh="353.611165" HC_perVeh="0.045945" PMx_perVeh="0.007143" NOx_perVeh="0.152947" fuel_perVeh="0.152003" electricity_perVeh="0"/>
        <edge id=":1103427051_0" sampledSeconds="19.14" CO_abs="1591.203801" CO2_abs="89952.424801" HC_abs="9.382625" PMx_abs="1.771248" NOx_abs="38.419602" fuel_abs="38.666551" electricity_abs="0"
            CO_normed="2307.309283" CO2_normed="130434.621030" HC_normed="13.605183" PMx_normed="2.568380" NOx_normed="55.709962" fuel_normed="56.068048" electricity_normed="0"
            traveltime="0.03" CO_perVeh="2.474523" CO2_perVeh="139.887405" HC_perVeh="0.014591" PMx_perVeh="0.002755" NOx_perVeh="0.059747" fuel_perVeh="0.060131" electricity_perVeh="0"/>
        <edge id=":1105984386_0" sampledSeconds="10.49" CO_abs="187.268429" CO2_abs="13138.982271" HC_abs="1.151861" PMx_abs="0.180247" NOx_abs="5.055871" fuel_abs="5.647951" electricity_abs="0"
            CO_normed="8.110046" CO2_normed="569.010788" HC_normed="0.049884" PMx_normed="0.007806" NOx_normed="0.218955" fuel_normed="0.244596" electricity_normed="0"
            traveltime="1.01" CO_perVeh="17.964596" CO2_perVeh="1260.418078" HC_perVeh="0.110498" PMx_perVeh="0.017291" NOx_perVeh="0.485008" fuel_perVeh="0.541806" electricity_perVeh="0"/>
        <edge id=":1105984390_0" sampledSeconds="10.57" CO_abs="31.800914" CO2_abs="2074.197485" HC_abs="0.193263" PMx_abs="0.035443" NOx_abs="0.846273" fuel_abs="0.891610" electricity_abs="0"
            CO_normed="1.064702" CO2_normed="69.444598" HC_normed="0.006471" PMx_normed="0.001187" NOx_normed="0.028333" fuel_normed="0.029851" electricity_normed="0"
            traveltime="1.10" CO_perVeh="3.296356" CO2_perVeh="215.003057" HC_perVeh="0.020033" PMx_perVeh="0.003674" NOx_perVeh="0.087721" fuel_perVeh="0.092421" electricity_perVeh="0"/>
        <edge id=":1105984390_1" sampledSeconds="2401.40" CO_abs="61501.324407" CO2_abs="7436710.504675" HC_abs="456.938124" PMx_abs="133.476030" NOx_abs="2820.760192" fuel_abs="3196.698953" electricity_abs="0"
            CO_normed="1969.689392" CO2_normed="238173.891865" HC_normed="14.634257" PMx_normed="4.274807" NOx_normed="90.339866" fuel_normed="102.379974" electricity_normed="0"
            traveltime="0.65" CO_perVeh="16.610694" CO2_perVeh="2008.557098" HC_perVeh="0.123413" PMx_perVeh="0.036050" NOx_perVeh="0.761850" fuel_perVeh="0.863386" electricity_perVeh="0"/>
        <edge id=":1105984395_0" sampledSeconds="4.07" CO_abs="112.706614" CO2_abs="7277.662752" HC_abs="0.680619" PMx_abs="0.110898" NOx_abs="2.881145" fuel_abs="3.128382" electricity_abs="0"
            CO_normed="51.515697" CO2_normed="3326.458447" HC_normed="0.311096" PMx_normed="0.050689" NOx_normed="1.316908" fuel_normed="1.429914" electricity_normed="0"
            traveltime="0.09" CO_perVeh="2.612499" CO2_perVeh="168.693619" HC_perVeh="0.015777" PMx_perVeh="0.002571" NOx_perVeh="0.066784" fuel_perVeh="0.072515" electricity_perVeh="0"/>
        <edge id=":1105984398_0" sampledSeconds="10.01" CO_abs="697.191437" CO2_abs="45865.886998" HC_abs="4.261899" PMx_abs="0.861699" NOx_abs="19.185320" fuel_abs="19.715687" electricity_abs="0"
            CO_normed="24.249554" CO2_normed="1595.296820" HC_normed="0.148236" PMx_normed="0.029971" NOx_normed="0.667299" fuel_normed="0.685747" electricity_normed="0"
            traveltime="1.14" CO_perVeh="79.068733" CO2_perVeh="5201.666823" HC_perVeh="0.483343" PMx_perVeh="0.097726" NOx_perVeh="2.175814" fuel_perVeh="2.235963" electricity_perVeh="0"/>
        <edge id=":1105984398_1" sampledSeconds="645.60" CO_abs="11287.594017" CO2_abs="1355559.091661" HC_abs="82.554503" PMx_abs="19.253695" NOx_abs="511.104147" fuel_abs="582.697139" electricity_abs="0"
            CO_normed="380.029181" CO2_normed="45638.779263" HC_normed="2.779434" PMx_normed="0.648231" NOx_normed="17.207785" fuel_normed="19.618168" electricity_normed="0"
            traveltime="0.95" CO_perVeh="16.642183" CO2_perVeh="1998.606858" HC_perVeh="0.121717" PMx_perVeh="0.028387" NOx_perVeh="0.753561" fuel_perVeh="0.859116" electricity_perVeh="0"/>
        <edge id=":1106006327_0" sampledSeconds="391.31" CO_abs="52922.360089" CO2_abs="1711461.358439" HC_abs="281.265198" PMx_abs="35.741991" NOx_abs="749.370649" fuel_abs="735.696917" electricity_abs="0"
            CO_normed="2511.790915" CO2_normed="81229.051088" HC_normed="13.349355" PMx_normed="1.696380" NOx_normed="35.566486" fuel_normed="34.917506" electricity_normed="0"
            traveltime="2.11" CO_perVeh="284.727510" CO2_perVeh="9207.830676" HC_perVeh="1.513234" PMx_perVeh="0.192295" NOx_perVeh="4.031688" fuel_perVeh="3.958122" electricity_perVeh="0"/>
        <edge id=":1106006327_1" sampledSeconds="681.48" CO_abs="92799.457115" CO2_abs="3112114.454468" HC_abs="495.936847" PMx_abs="65.069899" NOx_abs="1362.899775" fuel_abs="1337.785287" electricity_abs="0"
            CO_normed="3840.871090" CO2_normed="128807.116001" HC_normed="20.526300" PMx_normed="2.693174" NOx_normed="56.408976" fuel_normed="55.369514" electricity_normed="0"
            traveltime="2.29" CO_perVeh="311.505759" CO2_perVeh="10446.629822" HC_perVeh="1.664742" PMx_perVeh="0.218424" NOx_perVeh="4.574931" fuel_perVeh="4.490628" electricity_perVeh="0"/>
        <edge id=":1106006327_2" sampledSeconds="0.00" CO_abs="0" CO2_abs="0" HC_abs="0" PMx_abs="0" NOx_abs="0" fuel_abs="0" electricity_abs="0"
            CO_normed="0" CO2_normed="0" HC_normed="0" PMx_normed="0" NOx_normed="0" fuel_normed="0" electricity_normed="0"/>
        <edge id=":1106006327_3" sampledSeconds="0.00" CO_abs="0" CO2_abs="0" HC_abs="0" PMx_abs="0" NOx_abs="0" fuel_abs="0" electricity_abs="0"
            CO_normed="0" CO2_normed="0" HC_normed="0" PMx_normed="0" NOx_normed="0" fuel_normed="0" electricity_normed="0"/>
        <edge id=":1107381198_0" sampledSeconds="0.00" CO_abs="0" CO2_abs="0" HC_abs="0" PMx_abs="0" NOx_abs="0" fuel_abs="0" electricity_abs="0"
            CO_normed="0" CO2_normed="0" HC_normed="0" PMx_normed="0" NOx_normed="0" fuel_normed="0" electricity_normed="0"/>
        <edge id=":1107381198_1" sampledSeconds="104.25" CO_abs="4404.885984" CO2_abs="174062.668442" HC_abs="24.066759" PMx_abs="3.022829" NOx_abs="72.233723" fuel_abs="74.823508" electricity_abs="0"
            CO_normed="201.996265" CO2_normed="7982.047450" HC_normed="1.103637" PMx_normed="0.138619" NOx_normed="3.312445" fuel_normed="3.431206" electricity_normed="0"
            traveltime="1.56" CO_perVeh="65.949699" CO2_perVeh="2606.056222" HC_perVeh="0.360326" PMx_perVeh="0.045258" NOx_perVeh="1.081479" fuel_perVeh="1.120253" electricity_perVeh="0"/>
        <edge id=":1110338277_0" sampledSeconds="159.81" CO_abs="2680.122026" CO2_abs="314905.058093" HC_abs="19.436074" PMx_abs="4.466066" NOx_abs="118.824296" fuel_abs="135.364323" electricity_abs="0"
            CO_normed="4025.080220" CO2_normed="472932.988942" HC_normed="29.189626" PMx_normed="6.707259" NOx_normed="178.453563" fuel_normed="203.293825" electricity_normed="0"
            traveltime="0.02" CO_perVeh="0.362997" CO2_perVeh="42.650867" HC_perVeh="0.002632" PMx_perVeh="0.000605" NOx_perVeh="0.016094" fuel_perVeh="0.018334" electricity_perVeh="0"/>
        <edge id=":1110338293_0" sampledSeconds="6562.11" CO_abs="630356.287850" CO2_abs="10999583.406632" HC_abs="3127.605822" PMx_abs="262.920916" NOx_abs="4974.515355" fuel_abs="4728.536692" electricity_abs="0"
            CO_normed="883573.817801" CO2_normed="15418175.549537" HC_normed="4383.981995" PMx_normed="368.537670" NOx_normed="6972.805076" fuel_normed="6628.015454" electricity_normed="0"
            traveltime="0.44" CO_perVeh="42.170407" CO2_perVeh="735.864657" HC_perVeh="0.209235" PMx_perVeh="0.017589" NOx_perVeh="0.332792" fuel_perVeh="0.316336" electricity_perVeh="0"/>
        <edge id=":1110338295_0" sampledSeconds="0.00" CO_abs="0" CO2_abs="0" HC_abs="0" PMx_abs="0" NOx_abs="0" fuel_abs="0" electricity_abs="0"
            CO_normed="0" CO2_normed="0" HC_normed="0" PMx_normed="0" NOx_normed="0" fuel_normed="0" electricity_normed="0"/>
        <edge id=":1110673403_0" sampledSeconds="200.70" CO_abs="3162.429362" CO2_abs="396304.341658" HC_abs="23.495748" PMx_abs="5.424345" NOx_abs="147.942520" fuel_abs="170.354579" electricity_abs="0"
            CO_normed="4432.794340" CO2_normed="555501.939014" HC_normed="32.934117" PMx_normed="7.603333" NOx_normed="207.371830" fuel_normed="238.786934" electricity_normed="0"
            traveltime="0.02" CO_perVeh="0.365500" CO2_perVeh="45.803175" HC_perVeh="0.002716" PMx_perVeh="0.000627" NOx_perVeh="0.017099" fuel_perVeh="0.019689" electricity_perVeh="0"/>
        <edge id=":1110673412_0" sampledSeconds="939.43" CO_abs="166686.233132" CO2_abs="11381831.226435" HC_abs="1037.559249" PMx_abs="250.119538" NOx_abs="4890.857895" fuel_abs="4892.488602" electricity_abs="0"
            CO_normed="241701.718408" CO2_normed="16504111.433633" HC_normed="1504.502494" PMx_normed="362.683354" NOx_normed="7091.939962" fuel_normed="7094.304552" electricity_normed="0"
            traveltime="0.02" CO_perVeh="2.752195" CO2_perVeh="187.928033" HC_perVeh="0.017131" PMx_perVeh="0.004130" NOx_perVeh="0.080754" fuel_perVeh="0.080781" electricity_perVeh="0"/>
        <edge id=":1110673414_0" sampledSeconds="0.00" CO_abs="0" CO2_abs="0" HC_abs="0" PMx_abs="0" NOx_abs="0" fuel_abs="0" electricity_abs="0"
            CO_normed="0" CO2_normed="0" HC_normed="0" PMx_normed="0" NOx_normed="0" fuel_normed="0" electricity_normed="0"/>
        <edge id=":1110673414_1" sampledSeconds="6.90" CO_abs="449.176111" CO2_abs="17062.984909" HC_abs="2.434283" PMx_abs="0.278444" NOx_abs="6.969631" fuel_abs="7.334828" electricity_abs="0"
            CO_normed="20.917362" CO2_normed="794.593961" HC_normed="0.113360" PMx_normed="0.012967" NOx_normed="0.324564" fuel_normed="0.341570" electricity_normed="0"
            traveltime="1.51" CO_perVeh="98.114666" CO2_perVeh="3727.110637" HC_perVeh="0.531727" PMx_perVeh="0.060821" NOx_perVeh="1.522394" fuel_perVeh="1.602165" electricity_perVeh="0"/>
        <edge id=":1110673417_0" sampledSeconds="29.07" CO_abs="436.365402" CO2_abs="45773.139975" HC_abs="3.050028" PMx_abs="0.672220" NOx_abs="17.517524" fuel_abs="19.675927" electricity_abs="0"
            CO_normed="655.345440" CO2_normed="68743.347702" HC_normed="4.580615" PMx_normed="1.009559" NOx_normed="26.308294" fuel_normed="29.549843" electricity_normed="0"
            traveltime="0.02" CO_perVeh="0.332750" CO2_perVeh="34.904216" HC_perVeh="0.002326" PMx_perVeh="0.000513" NOx_perVeh="0.013358" fuel_perVeh="0.015004" electricity_perVeh="0"/>
        <edge id=":1110673446_0" sampledSeconds="1311.74" CO_abs="13485.253862" CO2_abs="1094348.043334" HC_abs="87.299035" PMx_abs="20.066707" NOx_abs="447.548753" fuel_abs="470.409884" electricity_abs="0"
            CO_normed="18902.353270" CO2_normed="1533953.570846" HC_normed="122.367530" PMx_normed="28.127611" NOx_normed="627.331507" fuel_normed="659.376078" electricity_normed="0"
            traveltime="0.02" CO_perVeh="0.234052" CO2_perVeh="18.993622" HC_perVeh="0.001515" PMx_perVeh="0.000348" NOx_perVeh="0.007768" fuel_perVeh="0.008164" electricity_perVeh="0"/>
        <edge id=":1110673451_0" sampledSeconds="36.48" CO_abs="348.388461" CO2_abs="23867.969355" HC_abs="2.131238" PMx_abs="0.336219" NOx_abs="9.240686" fuel_abs="10.259930" electricity_abs="0"
            CO_normed="542.597766" CO2_normed="37173.179699" HC_normed="3.319298" PMx_normed="0.523645" NOx_normed="14.391911" fuel_normed="15.979333" electricity_normed="0"
            traveltime="0.03" CO_perVeh="0.256685" CO2_perVeh="17.585416" HC_perVeh="0.001570" PMx_perVeh="0.000248" NOx_perVeh="0.006808" fuel_perVeh="0.007559" electricity_perVeh="0"/>
        <edge id=":1110673464_0" sampledSeconds="1025.98" CO_abs="3107.461670" CO2_abs="239916.159601" HC_abs="19.652487" PMx_abs="3.415100" NOx_abs="92.651164" fuel_abs="103.130467" electricity_abs="0"
            CO_normed="92.544175" CO2_normed="7145.009457" HC_normed="0.585276" PMx_normed="0.101706" NOx_normed="2.759270" fuel_normed="3.071357" electricity_normed="0"
            traveltime="1.22" CO_perVeh="3.685015" CO2_perVeh="284.506988" HC_perVeh="0.023305" PMx_perVeh="0.004050" NOx_perVeh="0.109871" fuel_perVeh="0.122298" electricity_perVeh="0"/>
        <edge id=":1110673464_1" sampledSeconds="2611.02" CO_abs="62766.866360" CO2_abs="7640279.684435" HC_abs="467.723070" PMx_abs="136.344927" NOx_abs="2898.877493" fuel_abs="3284.204254" electricity_abs="0"
            CO_normed="1831.658349" CO2_normed="222958.112856" HC_normed="13.649062" PMx_normed="3.978808" NOx_normed="84.594842" fuel_normed="95.839421" electricity_normed="0"
            traveltime="0.72" CO_perVeh="17.308158" CO2_perVeh="2106.830850" HC_perVeh="0.128976" PMx_perVeh="0.037598" NOx_perVeh="0.799374" fuel_perVeh="0.905630" electricity_perVeh="0"/>
        <edge id=":1110673479_0" sampledSeconds="134.54" CO_abs="6740.905635" CO2_abs="459909.515888" HC_abs="41.532398" PMx_abs="8.235247" NOx_abs="189.347465" fuel_abs="197.694914" electricity_abs="0"
            CO_normed="9448.763885" CO2_normed="644657.655724" HC_normed="58.216187" PMx_normed="11.543390" NOx_normed="265.409366" fuel_normed="277.110030" electricity_normed="0"
            traveltime="0.03" CO_perVeh="1.425088" CO2_perVeh="97.229030" HC_perVeh="0.008780" PMx_perVeh="0.001741" NOx_perVeh="0.040030" fuel_perVeh="0.041794" electricity_perVeh="0"/>
        <edge id=":1110673511_0" sampledSeconds="63.07" CO_abs="1066.758503" CO2_abs="119319.216807" HC_abs="7.601597" PMx_abs="1.685300" NOx_abs="45.129834" fuel_abs="51.290309" electricity_abs="0"
            CO_normed="1495.281162" CO2_normed="167250.391506" HC_normed="10.655200" PMx_normed="2.362294" NOx_normed="63.258732" fuel_normed="71.893903" electricity_normed="0"
            traveltime="0.02" CO_perVeh="0.408850" CO2_perVeh="45.730776" HC_perVeh="0.002913" PMx_perVeh="0.000646" NOx_perVeh="0.017297" fuel_perVeh="0.019658" electricity_perVeh="0"/>
        <edge id=":1110673517_0" sampledSeconds="181.97" CO_abs="8873.666773" CO2_abs="621123.031665" HC_abs="55.015345" PMx_abs="10.923919" NOx_abs="254.200463" fuel_abs="266.993659" electricity_abs="0"
            CO_normed="12438.266707" CO2_normed="870631.512672" HC_normed="77.115307" PMx_normed="15.312116" NOx_normed="356.314164" fuel_normed="374.246455" electricity_normed="0"
            traveltime="0.03" CO_perVeh="1.358630" CO2_perVeh="95.098964" HC_perVeh="0.008423" PMx_perVeh="0.001673" NOx_perVeh="0.038920" fuel_perVeh="0.040879" electricity_perVeh="0"/>
        <edge id=":1110673534_0" sampledSeconds="658.31" CO_abs="4630.203658" CO2_abs="367392.892629" HC_abs="29.521078" PMx_abs="5.258351" NOx_abs="141.963116" fuel_abs="157.927529" electricity_abs="0"
            CO_normed="125.778711" CO2_normed="9980.166755" HC_normed="0.801935" PMx_normed="0.142842" NOx_normed="3.856404" fuel_normed="4.290075" electricity_normed="0"
            traveltime="1.45" CO_perVeh="10.181129" CO2_perVeh="807.842282" HC_perVeh="0.064912" PMx_perVeh="0.011562" NOx_perVeh="0.312156" fuel_perVeh="0.347259" electricity_perVeh="0"/>
        <edge id=":1110673534_1" sampledSeconds="265.37" CO_abs="4147.802754" CO2_abs="528763.782329" HC_abs="30.862040" PMx_abs="7.090766" NOx_abs="196.373830" fuel_abs="227.293469" electricity_abs="0"
            CO_normed="109.560255" CO2_normed="13966.791207" HC_normed="0.815191" PMx_normed="0.187296" NOx_normed="5.187028" fuel_normed="6.003740" electricity_normed="0"
            traveltime="1.23" CO_perVeh="19.244764" CO2_perVeh="2453.331298" HC_perVeh="0.143192" PMx_perVeh="0.032899" NOx_perVeh="0.911125" fuel_perVeh="1.054585" electricity_perVeh="0"/>
        <edge id=":1110673549_0" sampledSeconds="654.63" CO_abs="1481.761627" CO2_abs="148968.831539" HC_abs="10.124188" PMx_abs="2.051982" NOx_abs="55.908579" fuel_abs="64.035642" electricity_abs="0"
            CO_normed="38.992365" CO2_normed="3920.095435" HC_normed="0.266417" PMx_normed="0.053998" NOx_normed="1.471227" fuel_normed="1.685090" electricity_normed="0"
            traveltime="1.30" CO_perVeh="2.943907" CO2_perVeh="295.965547" HC_perVeh="0.020114" PMx_perVeh="0.004077" NOx_perVeh="0.111077" fuel_perVeh="0.127224" electricity_perVeh="0"/>
        <edge id=":1110673549_1" sampledSeconds="3198.71" CO_abs="70344.998891" CO2_abs="9278126.013911" HC_abs="541.947264" PMx_abs="162.921179" NOx_abs="3467.044938" fuel_abs="3988.241820" electricity_abs="0"
            CO_normed="1790.610752" CO2_normed="236171.902157" HC_normed="13.795104" PMx_normed="4.147110" NOx_normed="88.252584" fuel_normed="101.519494" electricity_normed="0"
            traveltime="0.81" CO_perVeh="17.741921" CO2_perVeh="2340.063723" HC_perVeh="0.136686" PMx_perVeh="0.041091" NOx_perVeh="0.874434" fuel_perVeh="1.005886" electricity_perVeh="0"/>
        <edge id=":1110673556_0" sampledSeconds="465.17" CO_abs="56801.477551" CO2_abs="2733198.091071" HC_abs="323.541835" PMx_abs="55.127014" NOx_abs="1177.970941" fuel_abs="1174.885437" electricity_abs="0"
            CO_normed="1108.384292" CO2_normed="53333.715258" HC_normed="6.313369" PMx_normed="1.075710" NOx_normed="22.986101" fuel_normed="22.925892" electricity_normed="0"
            traveltime="2.74" CO_perVeh="334.839249" CO2_perVeh="16111.939947" HC_perVeh="1.907248" PMx_perVeh="0.324968" NOx_perVeh="6.944025" fuel_perVeh="6.925837" electricity_perVeh="0"/>
        <edge id=":1110673556_2" sampledSeconds="175.09" CO_abs="17139.113651" CO2_abs="734182.132993" HC_abs="95.303918" PMx_abs="14.286294" NOx_abs="313.914188" fuel_abs="315.595943" electricity_abs="0"
            CO_normed="349.694153" CO2_normed="14979.724403" HC_normed="1.944513" PMx_normed="0.291487" NOx_normed="6.404879" fuel_normed="6.439193" electricity_normed="0"
            traveltime="3.03" CO_perVeh="296.359766" CO2_perVeh="12695.058193" HC_perVeh="1.647941" PMx_perVeh="0.247030" NOx_perVeh="5.428025" fuel_perVeh="5.457105" electricity_perVeh="0"/>
        <edge id=":1110673556_3" sampledSeconds="358.83" CO_abs="35713.213725" CO2_abs="1232852.615733" HC_abs="191.426501" PMx_abs="24.290635" NOx_abs="530.695463" fuel_abs="529.960020" electricity_abs="0"
            CO_normed="1657.596186" CO2_normed="57221.727783" HC_normed="8.884886" PMx_normed="1.127428" NOx_normed="24.631745" fuel_normed="24.597610" electricity_normed="0"
            traveltime="1.84" CO_perVeh="183.043151" CO2_perVeh="6318.816018" HC_perVeh="0.981130" PMx_perVeh="0.124498" NOx_perVeh="2.720006" fuel_perVeh="2.716237" electricity_perVeh="0"/>
        <edge id=":1110673556_4" sampledSeconds="68.65" CO_abs="7790.846852" CO2_abs="306702.686865" HC_abs="42.689541" PMx_abs="6.099431" NOx_abs="132.173902" fuel_abs="131.839708" electricity_abs="0"
            CO_normed="220.913125" CO2_normed="8696.698885" HC_normed="1.210482" PMx_normed="0.172952" NOx_normed="3.747853" fuel_normed="3.738377" electricity_normed="0"
            traveltime="2.48" CO_perVeh="280.991923" CO2_perVeh="11061.824131" HC_perVeh="1.539681" PMx_perVeh="0.219988" NOx_perVeh="4.767107" fuel_perVeh="4.755053" electricity_perVeh="0"/>
        <edge id=":1110673556_5" sampledSeconds="22.21" CO_abs="1354.125043" CO2_abs="62293.545851" HC_abs="7.618522" PMx_abs="1.134605" NOx_abs="26.142722" fuel_abs="26.777570" electricity_abs="0"
            CO_normed="53.517417" CO2_normed="2461.951131" HC_normed="0.301097" PMx_normed="0.044842" NOx_normed="1.033207" fuel_normed="1.058297" electricity_normed="0"
            traveltime="1.54" CO_perVeh="93.618580" CO2_perVeh="4306.716987" HC_perVeh="0.526713" PMx_perVeh="0.078442" NOx_perVeh="1.807399" fuel_perVeh="1.851290" electricity_perVeh="0"/>
        <edge id=":1110673556_6" sampledSeconds="553.53" CO_abs="66080.329301" CO2_abs="3173267.046090" HC_abs="376.213960" PMx_abs="63.898981" NOx_abs="1367.218646" fuel_abs="1364.052582" electricity_abs="0"
            CO_normed="1321.957492" CO2_normed="63482.191917" HC_normed="7.526277" PMx_normed="1.278319" NOx_normed="27.351633" fuel_normed="27.288295" electricity_normed="0"
            traveltime="2.69" CO_perVeh="320.834609" CO2_perVeh="15406.913102" HC_perVeh="1.826602" PMx_perVeh="0.310244" NOx_perVeh="6.638149" fuel_perVeh="6.622777" electricity_perVeh="0"/>
        <edge id=":1110673561_0" sampledSeconds="101.65" CO_abs="9880.727423" CO2_abs="711469.623667" HC_abs="62.070066" PMx_abs="14.309504" NOx_abs="300.453030" fuel_abs="305.826958" electricity_abs="0"
            CO_normed="248.353898" CO2_normed="17882.919653" HC_normed="1.560143" PMx_normed="0.359672" NOx_normed="7.551942" fuel_normed="7.687017" electricity_normed="0"
            traveltime="1.20" CO_perVeh="116.602309" CO2_perVeh="8396.041876" HC_perVeh="0.732488" PMx_perVeh="0.168866" NOx_perVeh="3.545641" fuel_perVeh="3.609059" electricity_perVeh="0"/>
        <edge id=":1110673561_1" sampledSeconds="5188.77" CO_abs="480844.799119" CO2_abs="33361876.228007" HC_abs="2996.377637" PMx_abs="696.787333" NOx_abs="14258.935760" fuel_abs="14340.659633" electricity_abs="0"
            CO_normed="11783.264955" CO2_normed="817544.096819" HC_normed="73.427251" PMx_normed="17.075010" NOx_normed="349.420059" fuel_normed="351.422730" electricity_normed="0"
            traveltime="1.19" CO_perVeh="110.420127" CO2_perVeh="7661.146813" HC_perVeh="0.688081" PMx_perVeh="0.160009" NOx_perVeh="3.274390" fuel_perVeh="3.293157" electricity_perVeh="0"/>
        <edge id=":1110673562_0" sampledSeconds="301.27" CO_abs="6907.381383" CO2_abs="524231.349243" HC_abs="43.407541" PMx_abs="7.148311" NOx_abs="200.732281" fuel_abs="225.346869" electricity_abs="0"
            CO_normed="10757.904268" CO2_normed="816464.352673" HC_normed="67.605094" PMx_normed="11.133141" NOx_normed="312.630582" fuel_normed="350.966583" electricity_normed="0"
            traveltime="0.03" CO_perVeh="0.619188" CO2_perVeh="46.992850" HC_perVeh="0.003891" PMx_perVeh="0.000641" NOx_perVeh="0.017994" fuel_perVeh="0.020200" electricity_perVeh="0"/>
        <edge id=":1110673564_0" sampledSeconds="27.72" CO_abs="504.755397" CO2_abs="59371.081653" HC_abs="3.664577" PMx_abs="0.813217" NOx_abs="22.243951" fuel_abs="25.521151" electricity_abs="0"
            CO_normed="2122.555111" CO2_normed="249662.298739" HC_normed="15.409972" PMx_normed="3.419671" NOx_normed="93.538399" fuel_normed="107.319407" electricity_normed="0"
            traveltime="7.828656e-03" CO_perVeh="0.142566" CO2_perVeh="16.769123" HC_perVeh="0.001035" PMx_perVeh="0.000230" NOx_perVeh="0.006283" fuel_perVeh="0.007208" electricity_perVeh="0"/>
        <edge id=":1110673588_0" sampledSeconds="62.73" CO_abs="1113.696522" CO2_abs="124021.473990" HC_abs="7.911084" PMx_abs="1.682163" NOx_abs="46.500360" fuel_abs="53.311718" electricity_abs="0"
            CO_normed="1873.289326" CO2_normed="208609.884996" HC_normed="13.306811" PMx_normed="2.829476" NOx_normed="78.215768" fuel_normed="89.672788" electricity_normed="0"
            traveltime="0.02" CO_perVeh="0.359257" CO2_perVeh="40.006927" HC_perVeh="0.002552" PMx_perVeh="0.000543" NOx_perVeh="0.015000" fuel_perVeh="0.017197" electricity_perVeh="0"/>
        <edge id=":1110673601_0" sampledSeconds="28.90" CO_abs="535.668528" CO2_abs="60243.163553" HC_abs="3.835272" PMx_abs="0.871897" NOx_abs="22.885204" fuel_abs="25.895971" electricity_abs="0"
            CO_normed="804.481577" CO2_normed="90474.823031" HC_normed="5.759916" PMx_normed="1.309438" NOx_normed="34.369622" fuel_normed="38.891273" electricity_normed="0"
            traveltime="0.02" CO_perVeh="0.408473" CO2_perVeh="45.938304" HC_perVeh="0.002925" PMx_perVeh="0.000665" NOx_perVeh="0.017451" fuel_perVeh="0.019747" electricity_perVeh="0"/>
        <edge id=":1110673617_0" sampledSeconds="852.46" CO_abs="31825.630523" CO2_abs="3202814.680003" HC_abs="221.799078" PMx_abs="60.611151" NOx_abs="1257.814517" fuel_abs="1376.739887" electricity_abs="0"
            CO_normed="44610.158425" CO2_normed="4489402.658572" HC_normed="310.896968" PMx_normed="84.958978" NOx_normed="1763.085411" fuel_normed="1929.783745" electricity_normed="0"
            traveltime="0.02" CO_perVeh="0.563785" CO2_perVeh="56.737226" HC_perVeh="0.003929" PMx_perVeh="0.001074" NOx_perVeh="0.022282" fuel_perVeh="0.024389" electricity_perVeh="0"/>
        <edge id=":1110673621_0" sampledSeconds="26.26" CO_abs="576.873002" CO2_abs="57234.219531" HC_abs="3.949269" PMx_abs="0.863874" NOx_abs="22.113058" fuel_abs="24.602542" electricity_abs="0"
            CO_normed="970.327207" CO2_normed="96270.618064" HC_normed="6.642853" PMx_normed="1.453076" NOx_normed="37.195192" fuel_normed="41.382619" electricity_normed="0"
            traveltime="0.02" CO_perVeh="0.437025" CO2_perVeh="43.359257" HC_perVeh="0.002992" PMx_perVeh="0.000654" NOx_perVeh="0.016752" fuel_perVeh="0.018638" electricity_perVeh="0"/>
        <edge id=":1110673630_0" sampledSeconds="287.36" CO_abs="1322.254459" CO2_abs="125581.970135" HC_abs="8.877710" PMx_abs="1.598332" NOx_abs="46.895188" fuel_abs="53.982790" electricity_abs="0"
            CO_normed="39.659299" CO2_normed="3766.667476" HC_normed="0.266275" PMx_normed="0.047940" NOx_normed="1.406560" fuel_normed="1.619143" electricity_normed="0"
            traveltime="1.29" CO_perVeh="5.949640" CO2_perVeh="565.070903" HC_perVeh="0.039946" PMx_perVeh="0.007192" NOx_perVeh="0.211010" fuel_perVeh="0.242902" electricity_perVeh="0"/>
        <edge id=":1110673630_1" sampledSeconds="336.95" CO_abs="1239.397734" CO2_abs="105899.602241" HC_abs="8.052644" PMx_abs="1.375240" NOx_abs="39.935198" fuel_abs="45.522150" electricity_abs="0"
            CO_normed="45.320100" CO2_normed="3872.349005" HC_normed="0.294455" PMx_normed="0.050287" NOx_normed="1.460280" fuel_normed="1.664573" electricity_normed="0"
            traveltime="1.07" CO_perVeh="3.950959" CO2_perVeh="337.587356" HC_perVeh="0.025670" PMx_perVeh="0.004384" NOx_perVeh="0.127306" fuel_perVeh="0.145116" electricity_perVeh="0"/>
        <edge id=":1110673650_0" sampledSeconds="199.64" CO_abs="3002.203806" CO2_abs="370021.340616" HC_abs="22.108357" PMx_abs="5.075361" NOx_abs="138.313867" fuel_abs="159.056625" electricity_abs="0"
            CO_normed="4208.205311" CO2_normed="518660.914308" HC_normed="30.989403" PMx_normed="7.114161" NOx_normed="193.875295" fuel_normed="222.950532" electricity_normed="0"
            traveltime="0.02" CO_perVeh="0.346982" CO2_perVeh="42.765498" HC_perVeh="0.002555" PMx_perVeh="0.000587" NOx_perVeh="0.015986" fuel_perVeh="0.018383" electricity_perVeh="0"/>
        <edge id=":1110673655_0" sampledSeconds="20.81" CO_abs="261.508598" CO2_abs="32203.769049" HC_abs="1.926477" PMx_abs="0.429028" NOx_abs="11.976186" fuel_abs="13.843065" electricity_abs="0"
            CO_normed="366.558016" CO2_normed="45140.197242" HC_normed="2.700354" PMx_normed="0.601370" NOx_normed="16.787084" fuel_normed="19.403899" electricity_normed="0"
            traveltime="0.02" CO_perVeh="0.298753" CO2_perVeh="36.790292" HC_perVeh="0.002201" PMx_perVeh="0.000490" NOx_perVeh="0.013682" fuel_perVeh="0.015815" electricity_perVeh="0"/>
        <edge id=":1110673663_0" sampledSeconds="110.83" CO_abs="1779.075708" CO2_abs="201391.090535" HC_abs="12.715044" PMx_abs="2.798128" NOx_abs="75.824098" fuel_abs="86.569608" electricity_abs="0"
            CO_normed="45.672895" CO2_normed="5170.164483" HC_normed="0.326424" PMx_normed="0.071834" NOx_normed="1.946576" fuel_normed="2.222438" electricity_normed="0"
            traveltime="1.30" CO_perVeh="20.896083" CO2_perVeh="2365.433366" HC_perVeh="0.149344" PMx_perVeh="0.032865" NOx_perVeh="0.890590" fuel_perVeh="1.016801" electricity_perVeh="0"/>
        <edge id=":1110673663_1" sampledSeconds="169.76" CO_abs="2587.037778" CO2_abs="315432.698289" HC_abs="19.010213" PMx_abs="4.356250" NOx_abs="118.125706" fuel_abs="135.591244" electricity_abs="0"
            CO_normed="66.496299" CO2_normed="8107.769911" HC_normed="0.488632" PMx_normed="0.111972" NOx_normed="3.036261" fuel_normed="3.485189" electricity_normed="0"
            traveltime="1.27" CO_perVeh="19.278112" CO2_perVeh="2350.544285" HC_perVeh="0.141660" PMx_perVeh="0.032462" NOx_perVeh="0.880250" fuel_perVeh="1.010400" electricity_perVeh="0"/>