<?xml version="1.0" encoding="UTF-8"?>

<!-- generated on Tue Nov 10 13:04:08 2020 by Eclipse SUMO sumo Version 1.7.0
<configuration xmlns:xsi="http://www.w3.org/2001/XMLSchema-instance" xsi:noNamespaceSchemaLocation="http://sumo.dlr.de/xsd/sumoConfiguration.xsd">

    <input>
        <net-file value="../dataSets/Porto/8AM9AM_Routing_SaoBento/Porto.net.xml"/>
        <route-files value="../results/Porto/8AM9AM_Routing_SaoBento/inputdata/cost_hc-length/solution6/Porto.rou.xml"/>
        <additional-files value="moreOutputInfo.xml"/>
    </input>

    <output>
        <emission-output.precision value="6"/>
        <tripinfo-output value="../results/Porto/8AM9AM_Routing_SaoBento/inputdata/cost_hc-length/solution6/Porto-tripinfo"/>
    </output>

    <processing>
        <collision.action value="warn"/>
        <time-to-teleport value="-1"/>
    </processing>

    <emissions>
        <device.emissions.probability value="1"/>
    </emissions>

    <gui_only>
        <quit-on-end value="true"/>
        <start value="true"/>
    </gui_only>

</configuration>
-->

<meandata xmlns:xsi="http://www.w3.org/2001/XMLSchema-instance" xsi:noNamespaceSchemaLocation="http://sumo.dlr.de/xsd/meandata_file.xsd">
    <interval begin="0.00" end="8471.00" id="emissions-detector">
        <edge id=":1092997347_0" sampledSeconds="598.14" CO_abs="71872.858865" CO2_abs="3067745.567212" HC_abs="399.830892" PMx_abs="62.017554" NOx_abs="1327.121757" fuel_abs="1318.699454" electricity_abs="0"
            CO_normed="69419.273219" CO2_normed="2963019.296306" HC_normed="386.181521" PMx_normed="59.900407" NOx_normed="1281.816660" fuel_normed="1273.681876" electricity_normed="0"
            traveltime="0.07" CO_perVeh="8.221997" CO2_perVeh="350.939087" HC_perVeh="0.045739" PMx_perVeh="0.007095" NOx_perVeh="0.151818" fuel_perVeh="0.150854" electricity_perVeh="0"/>
        <edge id=":1103427051_0" sampledSeconds="19.49" CO_abs="1619.594915" CO2_abs="91432.960719" HC_abs="9.542722" PMx_abs="1.777940" NOx_abs="38.903878" fuel_abs="39.303004" electricity_abs="0"
            CO_normed="2373.428898" CO2_normed="133990.066958" HC_normed="13.984344" PMx_normed="2.605476" NOx_normed="57.011532" fuel_normed="57.596430" electricity_normed="0"
            traveltime="0.03" CO_perVeh="2.518675" CO2_perVeh="142.189825" HC_perVeh="0.014840" PMx_perVeh="0.002765" NOx_perVeh="0.060500" fuel_perVeh="0.061121" electricity_perVeh="0"/>
        <edge id=":1105984386_0" sampledSeconds="10.58" CO_abs="338.653696" CO2_abs="22340.810325" HC_abs="2.050524" PMx_abs="0.310309" NOx_abs="8.640401" fuel_abs="9.603478" electricity_abs="0"
            CO_normed="14.821918" CO2_normed="977.794321" HC_normed="0.089746" PMx_normed="0.013581" NOx_normed="0.378166" fuel_normed="0.420317" electricity_normed="0"
            traveltime="1.02" CO_perVeh="32.486933" CO2_perVeh="2143.146298" HC_perVeh="0.196706" PMx_perVeh="0.029768" NOx_perVeh="0.828871" fuel_perVeh="0.921258" electricity_perVeh="0"/>
        <edge id=":1105984390_0" sampledSeconds="10.64" CO_abs="0.932956" CO2_abs="128.410123" HC_abs="0.007072" PMx_abs="0.001023" NOx_abs="0.043638" fuel_abs="0.055199" electricity_abs="0"
            CO_normed="0.031567" CO2_normed="4.344877" HC_normed="0.000239" PMx_normed="0.000035" NOx_normed="0.001477" fuel_normed="0.001868" electricity_normed="0"
            traveltime="1.10" CO_perVeh="0.096707" CO2_perVeh="13.310482" HC_perVeh="0.000733" PMx_perVeh="0.000106" NOx_perVeh="0.004523" fuel_perVeh="0.005722" electricity_perVeh="0"/>
        <edge id=":1105984390_1" sampledSeconds="2399.99" CO_abs="64401.887765" CO2_abs="7555585.397902" HC_abs="474.177727" PMx_abs="137.050552" NOx_abs="2881.690362" fuel_abs="3247.796752" electricity_abs="0"
            CO_normed="2084.498998" CO2_normed="244551.995842" HC_normed="15.347733" PMx_normed="4.435922" NOx_normed="93.271811" fuel_normed="105.121594" electricity_normed="0"
            traveltime="0.65" CO_perVeh="17.402935" CO2_perVeh="2041.700412" HC_perVeh="0.128134" PMx_perVeh="0.037034" NOx_perVeh="0.778702" fuel_perVeh="0.877633" electricity_perVeh="0"/>
        <edge id=":1105984395_0" sampledSeconds="4.12" CO_abs="61.091396" CO2_abs="4718.921206" HC_abs="0.382774" PMx_abs="0.048461" NOx_abs="1.703317" fuel_abs="2.028506" electricity_abs="0"
            CO_normed="28.220197" CO2_normed="2179.830463" HC_normed="0.176817" PMx_normed="0.022386" NOx_normed="0.786820" fuel_normed="0.937036" electricity_normed="0"
            traveltime="0.10" CO_perVeh="1.416077" CO2_perVeh="109.382905" HC_perVeh="0.008873" PMx_perVeh="0.001123" NOx_perVeh="0.039482" fuel_perVeh="0.047020" electricity_perVeh="0"/>
        <edge id=":1105984398_0" sampledSeconds="10.34" CO_abs="568.725865" CO2_abs="42136.726271" HC_abs="3.567519" PMx_abs="0.665479" NOx_abs="16.735336" fuel_abs="18.112827" electricity_abs="0"
            CO_normed="19.991459" CO2_normed="1481.161139" HC_normed="0.125403" PMx_normed="0.023392" NOx_normed="0.588269" fuel_normed="0.636690" electricity_normed="0"
            traveltime="1.13" CO_perVeh="62.358138" CO2_perVeh="4620.095432" HC_perVeh="0.391162" PMx_perVeh="0.072967" NOx_perVeh="1.834951" fuel_perVeh="1.985987" electricity_perVeh="0"/>
        <edge id=":1105984398_1" sampledSeconds="648.06" CO_abs="12544.315561" CO2_abs="1432217.347674" HC_abs="90.134360" PMx_abs="20.897610" NOx_abs="544.422280" fuel_abs="615.648858" electricity_abs="0"
            CO_normed="426.827459" CO2_normed="48732.008406" HC_normed="3.066873" PMx_normed="0.711053" NOx_normed="18.524277" fuel_normed="20.947802" electricity_normed="0"
            traveltime="0.95" CO_perVeh="18.480699" CO2_perVeh="2109.989829" HC_perVeh="0.132789" PMx_perVeh="0.030787" NOx_perVeh="0.802061" fuel_perVeh="0.906994" electricity_perVeh="0"/>
        <edge id=":1106006327_0" sampledSeconds="542.27" CO_abs="73235.268218" CO2_abs="2380120.777633" HC_abs="389.500675" PMx_abs="49.664935" NOx_abs="1041.943396" fuel_abs="1023.129780" electricity_abs="0"
            CO_normed="3512.807680" CO2_normed="114165.029374" HC_normed="18.682815" PMx_normed="2.382232" NOx_normed="49.977925" fuel_normed="49.075510" electricity_normed="0"
            traveltime="2.09" CO_perVeh="282.103951" CO2_perVeh="9168.280411" HC_perVeh="1.500366" PMx_perVeh="0.191310" NOx_perVeh="4.013590" fuel_perVeh="3.941120" electricity_perVeh="0"/>
        <edge id=":1106006327_1" sampledSeconds="686.14" CO_abs="92934.285158" CO2_abs="3096129.168077" HC_abs="496.132421" PMx_abs="64.620144" NOx_abs="1355.184739" fuel_abs="1330.914488" electricity_abs="0"
            CO_normed="3887.318040" CO2_normed="129506.981730" HC_normed="20.752562" PMx_normed="2.702975" NOx_normed="56.685582" fuel_normed="55.670390" electricity_normed="0"
            traveltime="2.30" CO_perVeh="311.957901" CO2_perVeh="10392.956209" HC_perVeh="1.665396" PMx_perVeh="0.216914" NOx_perVeh="4.549027" fuel_perVeh="4.467558" electricity_perVeh="0"/>
        <edge id=":1106006327_2" sampledSeconds="0.00" CO_abs="0" CO2_abs="0" HC_abs="0" PMx_abs="0" NOx_abs="0" fuel_abs="0" electricity_abs="0"
            CO_normed="0" CO2_normed="0" HC_normed="0" PMx_normed="0" NOx_normed="0" fuel_normed="0" electricity_normed="0"/>
        <edge id=":1106006327_3" sampledSeconds="0.00" CO_abs="0" CO2_abs="0" HC_abs="0" PMx_abs="0" NOx_abs="0" fuel_abs="0" electricity_abs="0"
            CO_normed="0" CO2_normed="0" HC_normed="0" PMx_normed="0" NOx_normed="0" fuel_normed="0" electricity_normed="0"/>
        <edge id=":1107381198_0" sampledSeconds="0.00" CO_abs="0" CO2_abs="0" HC_abs="0" PMx_abs="0" NOx_abs="0" fuel_abs="0" electricity_abs="0"
            CO_normed="0" CO2_normed="0" HC_normed="0" PMx_normed="0" NOx_normed="0" fuel_normed="0" electricity_normed="0"/>
        <edge id=":1107381198_1" sampledSeconds="104.35" CO_abs="5048.834610" CO2_abs="200233.998840" HC_abs="27.620687" PMx_abs="3.573054" NOx_abs="83.720656" fuel_abs="86.073493" electricity_abs="0"
            CO_normed="233.985868" CO2_normed="9279.750592" HC_normed="1.280068" PMx_normed="0.165592" NOx_normed="3.879994" fuel_normed="3.989036" electricity_normed="0"
            traveltime="1.56" CO_perVeh="75.590735" CO2_perVeh="2997.886901" HC_perVeh="0.413535" PMx_perVeh="0.053495" NOx_perVeh="1.253459" fuel_perVeh="1.288685" electricity_perVeh="0"/>
        <edge id=":1110338277_0" sampledSeconds="160.06" CO_abs="2579.841106" CO2_abs="320714.137363" HC_abs="19.093561" PMx_abs="4.374694" NOx_abs="119.739867" fuel_abs="137.861554" electricity_abs="0"
            CO_normed="3915.639907" CO2_normed="486774.581559" HC_normed="28.979889" PMx_normed="6.639837" NOx_normed="181.739178" fuel_normed="209.243973" electricity_normed="0"
            traveltime="0.02" CO_perVeh="0.349415" CO2_perVeh="43.437651" HC_perVeh="0.002586" PMx_perVeh="0.000593" NOx_perVeh="0.016218" fuel_perVeh="0.018672" electricity_perVeh="0"/>
        <edge id=":1110338293_0" sampledSeconds="6515.81" CO_abs="621534.900278" CO2_abs="10860562.935101" HC_abs="3084.142589" PMx_abs="259.250395" NOx_abs="4909.561599" fuel_abs="4668.773902" electricity_abs="0"
            CO_normed="880464.975013" CO2_normed="15385049.607038" HC_normed="4368.989620" PMx_normed="367.253540" NOx_normed="6954.874181" fuel_normed="6613.774858" electricity_normed="0"
            traveltime="0.44" CO_perVeh="41.533402" CO2_perVeh="725.745449" HC_perVeh="0.206095" PMx_perVeh="0.017324" NOx_perVeh="0.328076" fuel_perVeh="0.311986" electricity_perVeh="0"/>
        <edge id=":1110338295_0" sampledSeconds="0.00" CO_abs="0" CO2_abs="0" HC_abs="0" PMx_abs="0" NOx_abs="0" fuel_abs="0" electricity_abs="0"
            CO_normed="0" CO2_normed="0" HC_normed="0" PMx_normed="0" NOx_normed="0" fuel_normed="0" electricity_normed="0"/>
        <edge id=":1110673403_0" sampledSeconds="201.10" CO_abs="2966.243409" CO2_abs="368156.815190" HC_abs="21.890415" PMx_abs="5.007570" NOx_abs="137.330215" fuel_abs="158.255191" electricity_abs="0"
            CO_normed="4201.973900" CO2_normed="521530.136027" HC_normed="31.009914" PMx_normed="7.093713" NOx_normed="194.541681" fuel_normed="224.183957" electricity_normed="0"
            traveltime="0.02" CO_perVeh="0.342826" CO2_perVeh="42.550004" HC_perVeh="0.002530" PMx_perVeh="0.000579" NOx_perVeh="0.015872" fuel_perVeh="0.018290" electricity_perVeh="0"/>
        <edge id=":1110673412_0" sampledSeconds="951.02" CO_abs="169868.036915" CO2_abs="11572490.442254" HC_abs="1056.716520" PMx_abs="254.563389" NOx_abs="4975.067985" fuel_abs="4974.443481" electricity_abs="0"
            CO_normed="248932.435976" CO2_normed="16958859.879799" HC_normed="1548.561003" PMx_normed="373.048901" NOx_normed="7290.693500" fuel_normed="7289.778324" electricity_normed="0"
            traveltime="0.02" CO_perVeh="2.770487" CO2_perVeh="188.743213" HC_perVeh="0.017235" PMx_perVeh="0.004152" NOx_perVeh="0.081142" fuel_perVeh="0.081131" electricity_perVeh="0"/>
        <edge id=":1110673414_0" sampledSeconds="0.00" CO_abs="0" CO2_abs="0" HC_abs="0" PMx_abs="0" NOx_abs="0" fuel_abs="0" electricity_abs="0"
            CO_normed="0" CO2_normed="0" HC_normed="0" PMx_normed="0" NOx_normed="0" fuel_normed="0" electricity_normed="0"/>
        <edge id=":1110673414_1" sampledSeconds="239.65" CO_abs="17363.456765" CO2_abs="673643.603870" HC_abs="94.739892" PMx_abs="12.580682" NOx_abs="285.308214" fuel_abs="289.574953" electricity_abs="0"
            CO_normed="817.177233" CO2_normed="31703.722595" HC_normed="4.458748" PMx_normed="0.592085" NOx_normed="13.427475" fuel_normed="13.628280" electricity_normed="0"
            traveltime="1.55" CO_perVeh="112.655746" CO2_perVeh="4370.663282" HC_perVeh="0.614681" PMx_perVeh="0.081625" NOx_perVeh="1.851107" fuel_perVeh="1.878790" electricity_perVeh="0"/>
        <edge id=":1110673417_0" sampledSeconds="29.15" CO_abs="529.254914" CO2_abs="61223.147702" HC_abs="3.813113" PMx_abs="0.847010" NOx_abs="23.008672" fuel_abs="26.317269" electricity_abs="0"
            CO_normed="803.294303" CO2_normed="92923.474934" HC_normed="5.787479" PMx_normed="1.285578" NOx_normed="34.922180" fuel_normed="39.943913" electricity_normed="0"
            traveltime="0.02" CO_perVeh="0.403582" CO2_perVeh="46.685589" HC_perVeh="0.002908" PMx_perVeh="0.000646" NOx_perVeh="0.017545" fuel_perVeh="0.020068" electricity_perVeh="0"/>
        <edge id=":1110673446_0" sampledSeconds="1326.52" CO_abs="13962.026948" CO2_abs="1142944.070576" HC_abs="90.659984" PMx_abs="20.785054" NOx_abs="466.213649" fuel_abs="491.299263" electricity_abs="0"
            CO_normed="19778.576718" CO2_normed="1619092.060785" HC_normed="128.428734" PMx_normed="29.444061" NOx_normed="660.437231" fuel_normed="695.973457" electricity_normed="0"
            traveltime="0.02" CO_perVeh="0.239685" CO2_perVeh="19.620815" HC_perVeh="0.001556" PMx_perVeh="0.000357" NOx_perVeh="0.008003" fuel_perVeh="0.008434" electricity_perVeh="0"/>
        <edge id=":1110673451_0" sampledSeconds="36.64" CO_abs="390.406430" CO2_abs="27063.448999" HC_abs="2.396449" PMx_abs="0.385319" NOx_abs="10.503832" fuel_abs="11.633535" electricity_abs="0"
            CO_normed="614.498769" CO2_normed="42597.802697" HC_normed="3.772004" PMx_normed="0.606491" NOx_normed="16.533006" fuel_normed="18.311155" electricity_normed="0"
            traveltime="0.03" CO_perVeh="0.287643" CO2_perVeh="19.939779" HC_perVeh="0.001766" PMx_perVeh="0.000284" NOx_perVeh="0.007739" fuel_perVeh="0.008571" electricity_perVeh="0"/>
        <edge id=":1110673464_0" sampledSeconds="1034.24" CO_abs="3647.303314" CO2_abs="260086.811408" HC_abs="22.580036" PMx_abs="3.807623" NOx_abs="101.456851" fuel_abs="111.801075" electricity_abs="0"
            CO_normed="109.775394" CO2_normed="7828.011458" HC_normed="0.679607" PMx_normed="0.114601" NOx_normed="3.053617" fuel_normed="3.364954" electricity_normed="0"
            traveltime="1.23" CO_perVeh="4.325191" CO2_perVeh="308.426558" HC_perVeh="0.026777" PMx_perVeh="0.004515" NOx_perVeh="0.120314" fuel_perVeh="0.132580" electricity_perVeh="0"/>
        <edge id=":1110673464_1" sampledSeconds="2607.02" CO_abs="65626.770101" CO2_abs="7849536.670847" HC_abs="485.666613" PMx_abs="141.049180" NOx_abs="2985.283453" fuel_abs="3374.153570" electricity_abs="0"
            CO_normed="1935.462979" CO2_normed="231498.329198" HC_normed="14.323267" PMx_normed="4.159819" NOx_normed="88.041901" fuel_normed="99.510448" electricity_normed="0"
            traveltime="0.72" CO_perVeh="18.089403" CO2_perVeh="2163.651030" HC_perVeh="0.133869" PMx_perVeh="0.038879" NOx_perVeh="0.822865" fuel_perVeh="0.930054" electricity_perVeh="0"/>
        <edge id=":1110673479_0" sampledSeconds="134.88" CO_abs="6562.185720" CO2_abs="450092.119008" HC_abs="40.465297" PMx_abs="7.937735" NOx_abs="184.488396" fuel_abs="193.475005" electricity_abs="0"
            CO_normed="9295.977882" CO2_normed="637599.507507" HC_normed="57.323051" PMx_normed="11.244579" NOx_normed="261.345856" fuel_normed="274.076267" electricity_normed="0"
            traveltime="0.03" CO_perVeh="1.387305" CO2_perVeh="95.153543" HC_perVeh="0.008555" PMx_perVeh="0.001678" NOx_perVeh="0.039003" fuel_perVeh="0.040902" electricity_perVeh="0"/>
        <edge id=":1110673511_0" sampledSeconds="63.75" CO_abs="1209.479580" CO2_abs="128308.659750" HC_abs="8.441687" PMx_abs="1.796963" NOx_abs="48.571363" fuel_abs="55.154552" electricity_abs="0"
            CO_normed="1713.346118" CO2_normed="181761.765671" HC_normed="11.958476" PMx_normed="2.545574" NOx_normed="68.806086" fuel_normed="78.131818" electricity_normed="0"
            traveltime="0.02" CO_perVeh="0.463550" CO2_perVeh="49.176107" HC_perVeh="0.003235" PMx_perVeh="0.000689" NOx_perVeh="0.018616" fuel_perVeh="0.021139" electricity_perVeh="0"/>
        <edge id=":1110673517_0" sampledSeconds="181.92" CO_abs="8306.659782" CO2_abs="583236.014903" HC_abs="51.532262" PMx_abs="10.196555" NOx_abs="238.241500" fuel_abs="250.707763" electricity_abs="0"
            CO_normed="11767.196009" CO2_normed="826210.858085" HC_normed="73.000489" PMx_normed="14.444417" NOx_normed="337.492386" fuel_normed="355.152066" electricity_normed="0"
            traveltime="0.03" CO_perVeh="1.271817" CO2_perVeh="89.298155" HC_perVeh="0.007890" PMx_perVeh="0.001561" NOx_perVeh="0.036477" fuel_perVeh="0.038385" electricity_perVeh="0"/>
        <edge id=":1110673534_0" sampledSeconds="740.35" CO_abs="5864.083428" CO2_abs="480395.212313" HC_abs="37.687860" PMx_abs="6.613210" NOx_abs="183.697088" fuel_abs="206.502975" electricity_abs="0"
            CO_normed="160.989297" CO2_normed="13188.503933" HC_normed="1.034662" PMx_normed="0.181555" NOx_normed="5.043118" fuel_normed="5.669218" electricity_normed="0"
            traveltime="1.46" CO_perVeh="11.564943" CO2_perVeh="947.418844" HC_perVeh="0.074327" PMx_perVeh="0.013042" NOx_perVeh="0.362281" fuel_perVeh="0.407258" electricity_perVeh="0"/>
        <edge id=":1110673534_1" sampledSeconds="199.65" CO_abs="3464.023292" CO2_abs="411647.473746" HC_abs="25.264734" PMx_abs="5.784025" NOx_abs="154.826646" fuel_abs="176.949855" electricity_abs="0"
            CO_normed="92.471001" CO2_normed="10988.798507" HC_normed="0.674434" PMx_normed="0.154403" NOx_normed="4.133048" fuel_normed="4.723620" electricity_normed="0"
            traveltime="1.22" CO_perVeh="21.174494" CO2_perVeh="2516.272661" HC_perVeh="0.154435" PMx_perVeh="0.035356" NOx_perVeh="0.946407" fuel_perVeh="1.081639" electricity_perVeh="0"/>
        <edge id=":1110673549_0" sampledSeconds="650.63" CO_abs="1609.142867" CO2_abs="151954.219108" HC_abs="10.826383" PMx_abs="2.201376" NOx_abs="57.958944" fuel_abs="65.318840" electricity_abs="0"
            CO_normed="42.794273" CO2_normed="4041.139170" HC_normed="0.287922" PMx_normed="0.058544" NOx_normed="1.541386" fuel_normed="1.737119" electricity_normed="0"
            traveltime="1.29" CO_perVeh="3.196987" CO2_perVeh="301.897168" HC_perVeh="0.021509" PMx_perVeh="0.004374" NOx_perVeh="0.115151" fuel_perVeh="0.129773" electricity_perVeh="0"/>
        <edge id=":1110673549_1" sampledSeconds="3198.00" CO_abs="71441.465500" CO2_abs="9412103.529707" HC_abs="550.102984" PMx_abs="165.321731" NOx_abs="3518.986510" fuel_abs="4045.832452" electricity_abs="0"
            CO_normed="1837.841825" CO2_normed="242127.697224" HC_normed="14.151477" PMx_normed="4.252925" NOx_normed="90.526427" fuel_normed="104.079613" electricity_normed="0"
            traveltime="0.81" CO_perVeh="18.021944" CO2_perVeh="2374.313034" HC_perVeh="0.138770" PMx_perVeh="0.041704" NOx_perVeh="0.887705" fuel_perVeh="1.020608" electricity_perVeh="0"/>
        <edge id=":1110673556_0" sampledSeconds="466.27" CO_abs="57441.092643" CO2_abs="2764731.566010" HC_abs="327.220705" PMx_abs="55.862802" NOx_abs="1192.343162" fuel_abs="1188.440154" electricity_abs="0"
            CO_normed="1132.773908" CO2_normed="54522.218086" HC_normed="6.452995" PMx_normed="1.101649" NOx_normed="23.513745" fuel_normed="23.436776" electricity_normed="0"
            traveltime="2.75" CO_perVeh="338.609718" CO2_perVeh="16297.826749" HC_perVeh="1.928935" PMx_perVeh="0.329306" NOx_perVeh="7.028748" fuel_perVeh="7.005740" electricity_perVeh="0"/>
        <edge id=":1110673556_2" sampledSeconds="177.49" CO_abs="17629.871602" CO2_abs="744281.410212" HC_abs="97.770592" PMx_abs="14.496341" NOx_abs="318.335594" fuel_abs="319.937420" electricity_abs="0"
            CO_normed="363.528929" CO2_normed="15347.123893" HC_normed="2.016035" PMx_normed="0.298915" NOx_normed="6.564098" fuel_normed="6.597127" electricity_normed="0"
            traveltime="3.07" CO_perVeh="304.845672" CO2_perVeh="12869.689127" HC_perVeh="1.690593" PMx_perVeh="0.250662" NOx_perVeh="5.504477" fuel_perVeh="5.532175" electricity_perVeh="0"/>
        <edge id=":1110673556_3" sampledSeconds="249.59" CO_abs="26755.715656" CO2_abs="917406.691383" HC_abs="143.296360" PMx_abs="18.250760" NOx_abs="396.032997" fuel_abs="394.360788" electricity_abs="0"
            CO_normed="1255.036028" CO2_normed="43032.990220" HC_normed="6.721633" PMx_normed="0.856092" NOx_normed="18.576804" fuel_normed="18.498365" electricity_normed="0"
            traveltime="1.86" CO_perVeh="199.465789" CO2_perVeh="6839.333013" HC_perVeh="1.068285" PMx_perVeh="0.136061" NOx_perVeh="2.952455" fuel_perVeh="2.939988" electricity_perVeh="0"/>
        <edge id=":1110673556_4" sampledSeconds="37.88" CO_abs="4750.797009" CO2_abs="183509.736944" HC_abs="25.961369" PMx_abs="3.729148" NOx_abs="79.620812" fuel_abs="78.883742" electricity_abs="0"
            CO_normed="136.142319" CO2_normed="5258.789422" HC_normed="0.743968" PMx_normed="0.106865" NOx_normed="2.281672" fuel_normed="2.260550" electricity_normed="0"
            traveltime="2.61" CO_perVeh="327.116351" CO2_perVeh="12635.571543" HC_perVeh="1.787571" PMx_perVeh="0.256771" NOx_perVeh="5.482295" fuel_perVeh="5.431544" electricity_perVeh="0"/>
        <edge id=":1110673556_5" sampledSeconds="23.49" CO_abs="1678.974800" CO2_abs="71580.207856" HC_abs="9.307817" PMx_abs="1.291197" NOx_abs="29.976382" fuel_abs="30.769668" electricity_abs="0"
            CO_normed="67.061053" CO2_normed="2859.032856" HC_normed="0.371770" PMx_normed="0.051573" NOx_normed="1.197307" fuel_normed="1.228992" electricity_normed="0"
            traveltime="1.62" CO_perVeh="116.077270" CO2_perVeh="4948.755111" HC_perVeh="0.643503" PMx_perVeh="0.089268" NOx_perVeh="2.072441" fuel_perVeh="2.127286" electricity_perVeh="0"/>
        <edge id=":1110673556_6" sampledSeconds="214.18" CO_abs="26096.499559" CO2_abs="1311084.483016" HC_abs="150.019897" PMx_abs="26.516512" NOx_abs="564.852106" fuel_abs="563.578348" electricity_abs="0"
            CO_normed="527.615280" CO2_normed="26507.317791" HC_normed="3.033081" PMx_normed="0.536107" NOx_normed="11.420099" fuel_normed="11.394346" electricity_normed="0"
            traveltime="2.50" CO_perVeh="304.090260" CO2_perVeh="15277.452094" HC_perVeh="1.748111" PMx_perVeh="0.308984" NOx_perVeh="6.581956" fuel_perVeh="6.567114" electricity_perVeh="0"/>
        <edge id=":1110673561_0" sampledSeconds="104.19" CO_abs="10523.792756" CO2_abs="733556.151038" HC_abs="65.603807" PMx_abs="15.013662" NOx_abs="311.917827" fuel_abs="315.320757" electricity_abs="0"
            CO_normed="267.327825" CO2_normed="18633.963530" HC_normed="1.666483" PMx_normed="0.381381" NOx_normed="7.923409" fuel_normed="8.009851" electricity_normed="0"
            traveltime="1.23" CO_perVeh="124.190969" CO2_perVeh="8656.674572" HC_perVeh="0.774189" PMx_perVeh="0.177176" NOx_perVeh="3.680933" fuel_perVeh="3.721091" electricity_perVeh="0"/>
        <edge id=":1110673561_1" sampledSeconds="5245.55" CO_abs="487123.868880" CO2_abs="33811283.049469" HC_abs="3036.051097" PMx_abs="705.829559" NOx_abs="14448.466540" fuel_abs="14533.838365" electricity_abs="0"
            CO_normed="12063.961592" CO2_normed="837359.953279" HC_normed="75.189918" PMx_normed="17.480360" NOx_normed="357.826328" fuel_normed="359.940621" electricity_normed="0"
            traveltime="1.19" CO_perVeh="110.687539" CO2_perVeh="7682.825571" HC_perVeh="0.689872" PMx_perVeh="0.160383" NOx_perVeh="3.283077" fuel_perVeh="3.302476" electricity_perVeh="0"/>
        <edge id=":1110673562_0" sampledSeconds="301.87" CO_abs="6322.026143" CO2_abs="492241.824926" HC_abs="40.005924" PMx_abs="6.635977" NOx_abs="187.794325" fuel_abs="211.595801" electricity_abs="0"
            CO_normed="9950.853725" CO2_normed="774787.431513" HC_normed="62.969227" PMx_normed="10.445012" NOx_normed="295.587810" fuel_normed="333.051274" electricity_normed="0"
            traveltime="0.03" CO_perVeh="0.566717" CO2_perVeh="44.125397" HC_perVeh="0.003586" PMx_perVeh="0.000595" NOx_perVeh="0.016834" fuel_perVeh="0.018968" electricity_perVeh="0"/>
        <edge id=":1110673564_0" sampledSeconds="27.85" CO_abs="559.810871" CO2_abs="62784.252246" HC_abs="3.998650" PMx_abs="0.883053" NOx_abs="23.717446" fuel_abs="26.988313" electricity_abs="0"
            CO_normed="2379.080554" CO2_normed="266820.101623" HC_normed="16.993438" PMx_normed="3.752794" NOx_normed="100.794247" fuel_normed="114.694757" electricity_normed="0"
            traveltime="7.867522e-03" CO_perVeh="0.158116" CO2_perVeh="17.733160" HC_perVeh="0.001129" PMx_perVeh="0.000249" NOx_perVeh="0.006699" fuel_perVeh="0.007623" electricity_perVeh="0"/>
        <edge id=":1110673588_0" sampledSeconds="62.93" CO_abs="1079.723398" CO2_abs="116701.261628" HC_abs="7.596286" PMx_abs="1.617462" NOx_abs="44.064839" fuel_abs="50.165026" electricity_abs="0"
            CO_normed="1835.440553" CO2_normed="198382.501174" HC_normed="12.913059" PMx_normed="2.749552" NOx_normed="74.906585" fuel_normed="85.276399" electricity_normed="0"
            traveltime="0.02" CO_perVeh="0.348298" CO2_perVeh="37.645568" HC_perVeh="0.002450" PMx_perVeh="0.000522" NOx_perVeh="0.014214" fuel_perVeh="0.016182" electricity_perVeh="0"/>
        <edge id=":1110673601_0" sampledSeconds="28.79" CO_abs="531.792527" CO2_abs="62934.265127" HC_abs="3.832300" PMx_abs="0.854433" NOx_abs="23.508027" fuel_abs="27.052819" electricity_abs="0"
            CO_normed="807.145850" CO2_normed="95520.580492" HC_normed="5.816600" PMx_normed="1.296845" NOx_normed="35.680093" fuel_normed="41.060319" electricity_normed="0"
            traveltime="0.02" CO_perVeh="0.405517" CO2_perVeh="47.990398" HC_perVeh="0.002922" PMx_perVeh="0.000652" NOx_perVeh="0.017926" fuel_perVeh="0.020629" electricity_perVeh="0"/>
        <edge id=":1110673617_0" sampledSeconds="856.97" CO_abs="30915.487060" CO2_abs="3223241.039395" HC_abs="217.728240" PMx_abs="60.098383" NOx_abs="1256.877849" fuel_abs="1385.520909" electricity_abs="0"
            CO_normed="43794.811088" CO2_normed="4566036.179051" HC_normed="308.433346" PMx_normed="85.135237" NOx_normed="1780.490402" fuel_normed="1962.725878" electricity_normed="0"
            traveltime="0.02" CO_perVeh="0.547358" CO2_perVeh="57.067456" HC_perVeh="0.003855" PMx_perVeh="0.001064" NOx_perVeh="0.022253" fuel_perVeh="0.024531" electricity_perVeh="0"/>
        <edge id=":1110673621_0" sampledSeconds="26.46" CO_abs="537.265138" CO2_abs="53375.712626" HC_abs="3.690848" PMx_abs="0.818475" NOx_abs="20.686317" fuel_abs="22.943918" electricity_abs="0"
            CO_normed="913.306338" CO2_normed="90734.300769" HC_normed="6.274137" PMx_normed="1.391341" NOx_normed="35.165030" fuel_normed="39.002764" electricity_normed="0"
            traveltime="0.02" CO_perVeh="0.407019" CO2_perVeh="40.436146" HC_perVeh="0.002796" PMx_perVeh="0.000620" NOx_perVeh="0.015671" fuel_perVeh="0.017382" electricity_perVeh="0"/>
        <edge id=":1110673630_0" sampledSeconds="287.49" CO_abs="1620.197834" CO2_abs="148829.124181" HC_abs="10.733892" PMx_abs="1.836212" NOx_abs="55.287022" fuel_abs="63.975956" electricity_abs="0"
            CO_normed="49.112026" CO2_normed="4511.362565" HC_normed="0.325370" PMx_normed="0.055660" NOx_normed="1.675880" fuel_normed="1.939262" electricity_normed="0"
            traveltime="1.29" CO_perVeh="7.290271" CO2_perVeh="669.674218" HC_perVeh="0.048298" PMx_perVeh="0.008262" NOx_perVeh="0.248770" fuel_perVeh="0.287867" electricity_perVeh="0"/>
        <edge id=":1110673630_1" sampledSeconds="337.93" CO_abs="1405.544277" CO2_abs="114866.540010" HC_abs="9.001254" PMx_abs="1.444118" NOx_abs="43.067019" fuel_abs="49.376810" electricity_abs="0"
            CO_normed="51.941503" CO2_normed="4244.861436" HC_normed="0.332639" PMx_normed="0.053367" NOx_normed="1.591530" fuel_normed="1.824706" electricity_normed="0"
            traveltime="1.08" CO_perVeh="4.480599" CO2_perVeh="366.171922" HC_perVeh="0.028694" PMx_perVeh="0.004604" NOx_perVeh="0.137289" fuel_perVeh="0.157404" electricity_perVeh="0"/>
        <edge id=":1110673650_0" sampledSeconds="200.24" CO_abs="3086.278022" CO2_abs="391509.598254" HC_abs="22.958480" PMx_abs="5.295646" NOx_abs="145.718762" fuel_abs="168.293574" electricity_abs="0"
            CO_normed="4372.014669" CO2_normed="554611.637239" HC_normed="32.522932" PMx_normed="7.501800" NOx_normed="206.424878" fuel_normed="238.404307" electricity_normed="0"
            traveltime="0.02" CO_perVeh="0.356699" CO2_perVeh="45.249019" HC_perVeh="0.002653" PMx_perVeh="0.000612" NOx_perVeh="0.016842" fuel_perVeh="0.019451" electricity_perVeh="0"/>
        <edge id=":1110673655_0" sampledSeconds="20.73" CO_abs="327.565323" CO2_abs="39755.553813" HC_abs="2.397167" PMx_abs="0.533537" NOx_abs="14.820753" fuel_abs="17.089261" electricity_abs="0"
            CO_normed="464.028318" CO2_normed="56317.630240" HC_normed="3.395822" PMx_normed="0.755808" NOx_normed="20.995046" fuel_normed="24.208609" electricity_normed="0"
            traveltime="0.02" CO_perVeh="0.374218" CO2_perVeh="45.417617" HC_perVeh="0.002739" PMx_perVeh="0.000610" NOx_perVeh="0.016932" fuel_perVeh="0.019523" electricity_perVeh="0"/>
        <edge id=":1110673663_0" sampledSeconds="111.34" CO_abs="2176.808840" CO2_abs="237230.284677" HC_abs="15.341609" PMx_abs="3.314174" NOx_abs="89.594354" fuel_abs="101.975404" electricity_abs="0"
            CO_normed="56.477337" CO2_normed="6154.943230" HC_normed="0.398038" PMx_normed="0.085986" NOx_normed="2.324527" fuel_normed="2.645753" electricity_normed="0"
            traveltime="1.31" CO_perVeh="25.567647" CO2_perVeh="2786.381608" HC_perVeh="0.180194" PMx_perVeh="0.038927" NOx_perVeh="1.052328" fuel_perVeh="1.197749" electricity_perVeh="0"/>
        <edge id=":1110673663_1" sampledSeconds="169.86" CO_abs="2643.039195" CO2_abs="327353.408181" HC_abs="19.461252" PMx_abs="4.403145" NOx_abs="121.786868" fuel_abs="140.715593" electricity_abs="0"
            CO_normed="68.657522" CO2_normed="8503.571869" HC_normed="0.505540" PMx_normed="0.114379" NOx_normed="3.163625" fuel_normed="3.655331" electricity_normed="0"
            traveltime="1.27" CO_perVeh="19.829060" CO2_perVeh="2455.926698" HC_perVeh="0.146006" PMx_perVeh="0.033034" NOx_perVeh="0.913690" fuel_perVeh="1.055701" electricity_perVeh="0"/>