<?xml version="1.0" encoding="UTF-8"?>

<!-- generated on ter 01 set 2020 21:26:53 by Eclipse SUMO GUI Version 1.6.0
<configuration xmlns:xsi="http://www.w3.org/2001/XMLSchema-instance" xsi:noNamespaceSchemaLocation="http://sumo.dlr.de/xsd/sumoConfiguration.xsd">

    <input>
        <net-file value="../dataSets/Angeja_Estarreja/angeja_estarreja.net.xml"/>
        <route-files value="../results/angeja_estarreja/cost_co-cost_nox/solution9/angeja_estarreja.rou.xml"/>
        <additional-files value="moreOutputInfo.xml"/>
    </input>

    <output>
        <emission-output.precision value="6"/>
        <tripinfo-output value="../results/angeja_estarreja/cost_co-cost_nox/solution9/angeja_estarreja-tripinfo"/>
    </output>

    <processing>
        <collision.action value="warn"/>
        <time-to-teleport value="-1"/>
    </processing>

    <emissions>
        <device.emissions.probability value="1"/>
    </emissions>

    <gui_only>
        <gui-settings-file value="gui-settings.xml"/>
        <quit-on-end value="true"/>
        <start value="true"/>
    </gui_only>

</configuration>
-->

<tripinfos xmlns:xsi="http://www.w3.org/2001/XMLSchema-instance" xsi:noNamespaceSchemaLocation="http://sumo.dlr.de/xsd/tripinfo_file.xsd">
    <tripinfo id="sveh22" depart="88.00" departLane="1_0" departPos="4.85" departSpeed="14.03" departDelay="0.00" arrival="141.00" arrivalLane="77477309_0" arrivalPos="222.43" arrivalSpeed="16.35" duration="53.00" routeLength="718.95" waitingTime="0.00" waitingCount="0" stopTime="0.00" timeLoss="3.15" rerouteNo="0" devices="tripinfo_sveh22 emissions_sveh22" vType="SCar" speedFactor="1.01" vaporized="">
        <emissions CO_abs="1111.363947" CO2_abs="121865.435267" HC_abs="7.834184" PMx_abs="1.861954" NOx_abs="46.773941" fuel_abs="52.384637" electricity_abs="0"/>
    </tripinfo>
    <tripinfo id="sveh24" depart="94.00" departLane="100_0" departPos="4.85" departSpeed="14.83" departDelay="0.00" arrival="145.00" arrivalLane="2_0" arrivalPos="142.18" arrivalSpeed="12.30" duration="51.00" routeLength="613.33" waitingTime="0.00" waitingCount="0" stopTime="0.00" timeLoss="3.55" rerouteNo="0" devices="tripinfo_sveh24 emissions_sveh24" vType="SCar" speedFactor="0.89" vaporized="">
        <emissions CO_abs="1106.536685" CO2_abs="102919.656223" HC_abs="7.431666" PMx_abs="1.563456" NOx_abs="39.945710" fuel_abs="44.240790" electricity_abs="0"/>
    </tripinfo>
    <tripinfo id="sveh7" depart="41.00" departLane="389783911.154_0" departPos="4.85" departSpeed="22.22" departDelay="0.00" arrival="215.00" arrivalLane="462392869_1" arrivalPos="125.48" arrivalSpeed="22.18" duration="174.00" routeLength="3746.53" waitingTime="0.00" waitingCount="0" stopTime="0.00" timeLoss="4.84" rerouteNo="0" devices="tripinfo_sveh7 emissions_sveh7" vType="SCar" speedFactor="1.05" vaporized="">
        <emissions CO_abs="4264.944013" CO2_abs="534868.000776" HC_abs="32.406679" PMx_abs="9.689871" NOx_abs="199.856941" fuel_abs="229.915229" electricity_abs="0"/>
    </tripinfo>
    <tripinfo id="sveh8" depart="42.00" departLane="389783911.154_0" departPos="4.85" departSpeed="20.72" departDelay="0.00" arrival="216.00" arrivalLane="462392869_2" arrivalPos="125.48" arrivalSpeed="22.11" duration="174.00" routeLength="3746.53" waitingTime="0.00" waitingCount="0" stopTime="0.00" timeLoss="5.03" rerouteNo="0" devices="tripinfo_sveh8 emissions_sveh8" vType="SCar" speedFactor="0.89" vaporized="">
        <emissions CO_abs="4728.803221" CO2_abs="542844.620829" HC_abs="34.755574" PMx_abs="10.093061" NOx_abs="205.940438" fuel_abs="233.343816" electricity_abs="0"/>
    </tripinfo>
    <tripinfo id="sveh12" depart="55.00" departLane="462392872_0" departPos="4.85" departSpeed="22.22" departDelay="0.00" arrival="220.00" arrivalLane="389783908_0" arrivalPos="273.35" arrivalSpeed="21.68" duration="165.00" routeLength="3556.47" waitingTime="0.00" waitingCount="0" stopTime="0.00" timeLoss="4.53" rerouteNo="0" devices="tripinfo_sveh12 emissions_sveh12" vType="SCar" speedFactor="1.03" vaporized="">
        <emissions CO_abs="3792.548055" CO2_abs="475147.653792" HC_abs="28.809019" PMx_abs="8.611539" NOx_abs="177.565901" fuel_abs="204.244189" electricity_abs="0"/>
    </tripinfo>
    <tripinfo id="sveh32" depart="147.00" departLane="1_0" departPos="4.85" departSpeed="16.28" departDelay="0.00" arrival="238.00" arrivalLane="245327988#1_0" arrivalPos="180.33" arrivalSpeed="21.29" duration="91.00" routeLength="1550.83" waitingTime="0.00" waitingCount="0" stopTime="0.00" timeLoss="11.68" rerouteNo="0" devices="tripinfo_sveh32 emissions_sveh32" vType="SCar" speedFactor="1.17" vaporized="">
        <emissions CO_abs="4848.442628" CO2_abs="384629.833497" HC_abs="31.340115" PMx_abs="7.624850" NOx_abs="157.659709" fuel_abs="165.334240" electricity_abs="0"/>
    </tripinfo>
    <tripinfo id="sveh27" depart="125.00" departLane="462392872_0" departPos="4.85" departSpeed="22.22" departDelay="0.00" arrival="290.00" arrivalLane="389783908_0" arrivalPos="273.35" arrivalSpeed="21.18" duration="165.00" routeLength="3556.47" waitingTime="0.00" waitingCount="0" stopTime="0.00" timeLoss="4.94" rerouteNo="0" devices="tripinfo_sveh27 emissions_sveh27" vType="SCar" speedFactor="0.92" vaporized="">
        <emissions CO_abs="3416.665020" CO2_abs="464401.867196" HC_abs="26.817957" PMx_abs="8.225425" NOx_abs="171.468063" fuel_abs="199.625199" electricity_abs="0"/>
    </tripinfo>
    <tripinfo id="sveh13" depart="58.00" departLane="462392872_0" departPos="4.85" departSpeed="22.22" departDelay="0.00" arrival="307.00" arrivalLane="319615436_0" arrivalPos="125.64" arrivalSpeed="22.12" duration="249.00" routeLength="4773.89" waitingTime="0.00" waitingCount="0" stopTime="0.00" timeLoss="9.90" rerouteNo="0" devices="tripinfo_sveh13 emissions_sveh13" vType="SCar" speedFactor="1.05" vaporized="">
        <emissions CO_abs="6180.729633" CO2_abs="754188.336624" HC_abs="46.006977" PMx_abs="13.175687" NOx_abs="284.847188" fuel_abs="324.191180" electricity_abs="0"/>
    </tripinfo>
    <tripinfo id="sveh35" depart="151.00" departLane="462392872_0" departPos="4.85" departSpeed="22.22" departDelay="0.00" arrival="317.00" arrivalLane="389783908_0" arrivalPos="273.35" arrivalSpeed="21.17" duration="166.00" routeLength="3556.47" waitingTime="0.00" waitingCount="0" stopTime="0.00" timeLoss="5.24" rerouteNo="0" devices="tripinfo_sveh35 emissions_sveh35" vType="SCar" speedFactor="0.99" vaporized="">
        <emissions CO_abs="3819.110274" CO2_abs="513161.045673" HC_abs="29.804105" PMx_abs="9.110237" NOx_abs="189.818894" fuel_abs="220.584526" electricity_abs="0"/>
    </tripinfo>
    <tripinfo id="sveh54" depart="264.00" departLane="24443879.82_0" departPos="4.85" departSpeed="16.72" departDelay="0.00" arrival="332.00" arrivalLane="319615436_0" arrivalPos="125.64" arrivalSpeed="21.85" duration="68.00" routeLength="1041.49" waitingTime="0.00" waitingCount="0" stopTime="0.00" timeLoss="4.50" rerouteNo="0" devices="tripinfo_sveh54 emissions_sveh54" vType="SCar" speedFactor="1.00" vaporized="">
        <emissions CO_abs="1991.531633" CO2_abs="204634.751701" HC_abs="13.906575" PMx_abs="3.543266" NOx_abs="80.412684" fuel_abs="87.963131" electricity_abs="0"/>
    </tripinfo>
    <tripinfo id="sveh19" depart="77.00" departLane="319615443_0" departPos="4.85" departSpeed="22.22" departDelay="0.00" arrival="359.00" arrivalLane="462392869_1" arrivalPos="125.48" arrivalSpeed="21.40" duration="282.00" routeLength="5127.13" waitingTime="1.00" waitingCount="1" stopTime="0.00" timeLoss="17.85" rerouteNo="0" devices="tripinfo_sveh19 emissions_sveh19" vType="SCar" speedFactor="0.94" vaporized="">
        <emissions CO_abs="7111.370599" CO2_abs="800767.036183" HC_abs="51.512111" PMx_abs="13.895791" NOx_abs="304.324363" fuel_abs="344.213638" electricity_abs="0"/>
    </tripinfo>
    <tripinfo id="sveh29" depart="136.00" departLane="319615443_0" departPos="4.85" departSpeed="22.22" departDelay="0.00" arrival="401.00" arrivalLane="462392869_2" arrivalPos="125.48" arrivalSpeed="22.21" duration="265.00" routeLength="5127.13" waitingTime="1.00" waitingCount="1" stopTime="0.00" timeLoss="17.50" rerouteNo="0" devices="tripinfo_sveh29 emissions_sveh29" vType="SCar" speedFactor="1.13" vaporized="">
        <emissions CO_abs="8293.970526" CO2_abs="833449.939243" HC_abs="57.927377" PMx_abs="15.620763" NOx_abs="324.805045" fuel_abs="358.261490" electricity_abs="0"/>
    </tripinfo>
    <tripinfo id="sveh49" depart="226.00" departLane="389783911.154_0" departPos="4.85" departSpeed="22.22" departDelay="0.00" arrival="401.00" arrivalLane="462392869_1" arrivalPos="125.48" arrivalSpeed="21.01" duration="175.00" routeLength="3746.53" waitingTime="0.00" waitingCount="0" stopTime="0.00" timeLoss="5.66" rerouteNo="0" devices="tripinfo_sveh49 emissions_sveh49" vType="SCar" speedFactor="0.88" vaporized="">
        <emissions CO_abs="3997.787123" CO2_abs="525490.652590" HC_abs="30.916325" PMx_abs="9.383615" NOx_abs="195.053837" fuel_abs="225.884419" electricity_abs="0"/>
    </tripinfo>
    <tripinfo id="sveh51" depart="239.00" departLane="27_0" departPos="4.85" departSpeed="16.62" departDelay="0.00" arrival="413.00" arrivalLane="389783908_0" arrivalPos="273.35" arrivalSpeed="22.02" duration="174.00" routeLength="3248.08" waitingTime="0.00" waitingCount="0" stopTime="0.00" timeLoss="7.53" rerouteNo="0" devices="tripinfo_sveh51 emissions_sveh51" vType="SCar" speedFactor="0.85" vaporized="">
        <emissions CO_abs="4712.379592" CO2_abs="499673.697748" HC_abs="33.503147" PMx_abs="8.951331" NOx_abs="191.503142" fuel_abs="214.787029" electricity_abs="0"/>
    </tripinfo>
    <tripinfo id="sveh72" depart="435.00" departLane="1_0" departPos="4.85" departSpeed="14.66" departDelay="0.00" arrival="487.00" arrivalLane="77477309_0" arrivalPos="222.43" arrivalSpeed="17.56" duration="52.00" routeLength="718.95" waitingTime="0.00" waitingCount="0" stopTime="0.00" timeLoss="4.25" rerouteNo="0" devices="tripinfo_sveh72 emissions_sveh72" vType="SCar" speedFactor="1.06" vaporized="">
        <emissions CO_abs="1220.330759" CO2_abs="139107.823371" HC_abs="8.761160" PMx_abs="2.118743" NOx_abs="53.044748" fuel_abs="59.796395" electricity_abs="0"/>
    </tripinfo>
    <tripinfo id="sveh58" depart="321.00" departLane="389783911.154_0" departPos="4.85" departSpeed="22.22" departDelay="0.00" arrival="495.00" arrivalLane="462392869_1" arrivalPos="125.48" arrivalSpeed="21.45" duration="174.00" routeLength="3746.53" waitingTime="0.00" waitingCount="0" stopTime="0.00" timeLoss="5.14" rerouteNo="0" devices="tripinfo_sveh58 emissions_sveh58" vType="SCar" speedFactor="1.02" vaporized="">
        <emissions CO_abs="4153.686113" CO2_abs="547455.058270" HC_abs="32.139197" PMx_abs="9.771783" NOx_abs="202.944766" fuel_abs="235.325930" electricity_abs="0"/>
    </tripinfo>
    <tripinfo id="sveh21" depart="86.00" departLane="248846659#1.206_0" departPos="4.85" departSpeed="11.31" departDelay="0.00" arrival="501.00" arrivalLane="188949094#1_0" arrivalPos="37.15" arrivalSpeed="15.82" duration="415.00" routeLength="5895.24" waitingTime="1.00" waitingCount="1" stopTime="0.00" timeLoss="33.67" rerouteNo="0" devices="tripinfo_sveh21 emissions_sveh21" vType="SCar" speedFactor="1.02" vaporized="">
        <emissions CO_abs="9729.189298" CO2_abs="996708.145001" HC_abs="67.512201" PMx_abs="16.183838" NOx_abs="386.406896" fuel_abs="428.440766" electricity_abs="0"/>
    </tripinfo>
    <tripinfo id="sveh20" depart="80.00" departLane="248846659#1.206_0" departPos="4.85" departSpeed="12.87" departDelay="0.00" arrival="505.00" arrivalLane="77477309_0" arrivalPos="222.43" arrivalSpeed="18.72" duration="425.00" routeLength="6518.69" waitingTime="0.00" waitingCount="0" stopTime="0.00" timeLoss="32.18" rerouteNo="0" devices="tripinfo_sveh20 emissions_sveh20" vType="SCar" speedFactor="1.16" vaporized="">
        <emissions CO_abs="11280.859244" CO2_abs="1174514.792133" HC_abs="78.547128" PMx_abs="19.705967" NOx_abs="456.380075" fuel_abs="504.871109" electricity_abs="0"/>
    </tripinfo>
    <tripinfo id="sveh23" depart="92.00" departLane="27_0" departPos="4.85" departSpeed="18.95" departDelay="0.00" arrival="527.00" arrivalLane="-248846659#1_0" arrivalPos="144.53" arrivalSpeed="9.83" duration="435.00" routeLength="5825.70" waitingTime="0.00" waitingCount="0" stopTime="0.00" timeLoss="24.07" rerouteNo="0" devices="tripinfo_sveh23 emissions_sveh23" vType="SCar" speedFactor="0.98" vaporized="">
        <emissions CO_abs="7997.329962" CO2_abs="935489.695496" HC_abs="57.935972" PMx_abs="13.683676" NOx_abs="354.368275" fuel_abs="402.126846" electricity_abs="0"/>
    </tripinfo>
    <tripinfo id="sveh50" depart="237.00" departLane="319615443_0" departPos="4.85" departSpeed="22.22" departDelay="0.00" arrival="532.00" arrivalLane="462392869_1" arrivalPos="125.48" arrivalSpeed="21.44" duration="295.00" routeLength="5127.13" waitingTime="1.00" waitingCount="1" stopTime="0.00" timeLoss="20.54" rerouteNo="0" devices="tripinfo_sveh50 emissions_sveh50" vType="SCar" speedFactor="0.85" vaporized="">
        <emissions CO_abs="7334.125543" CO2_abs="807853.778807" HC_abs="52.660779" PMx_abs="13.956884" NOx_abs="306.872205" fuel_abs="347.260111" electricity_abs="0"/>
    </tripinfo>
    <tripinfo id="sveh39" depart="170.00" departLane="248846659#1.206_0" departPos="4.85" departSpeed="12.25" departDelay="0.00" arrival="545.00" arrivalLane="188949094#1_0" arrivalPos="37.15" arrivalSpeed="18.27" duration="375.00" routeLength="5895.24" waitingTime="0.00" waitingCount="0" stopTime="0.00" timeLoss="22.07" rerouteNo="0" devices="tripinfo_sveh39 emissions_sveh39" vType="SCar" speedFactor="1.10" vaporized="">
        <emissions CO_abs="8801.830733" CO2_abs="996078.644056" HC_abs="63.291296" PMx_abs="16.426513" NOx_abs="383.345792" fuel_abs="428.169436" electricity_abs="0"/>
    </tripinfo>
    <tripinfo id="sveh6" depart="31.00" departLane="319611362_0" departPos="4.85" departSpeed="22.22" departDelay="0.00" arrival="549.00" arrivalLane="319615436_1" arrivalPos="125.64" arrivalSpeed="21.58" duration="518.00" routeLength="11178.14" waitingTime="0.00" waitingCount="0" stopTime="0.00" timeLoss="14.44" rerouteNo="0" devices="tripinfo_sveh6 emissions_sveh6" vType="SCar" speedFactor="1.03" vaporized="">
        <emissions CO_abs="12196.608658" CO2_abs="1554327.055762" HC_abs="93.346040" PMx_abs="28.046387" NOx_abs="579.358889" fuel_abs="668.134024" electricity_abs="0"/>
    </tripinfo>
    <tripinfo id="sveh31" depart="141.00" departLane="248846659#1.206_0" departPos="4.85" departSpeed="13.09" departDelay="0.00" arrival="557.00" arrivalLane="77477309_0" arrivalPos="222.43" arrivalSpeed="19.55" duration="416.00" routeLength="6518.69" waitingTime="0.00" waitingCount="0" stopTime="0.00" timeLoss="29.82" rerouteNo="0" devices="tripinfo_sveh31 emissions_sveh31" vType="SCar" speedFactor="1.18" vaporized="">
        <emissions CO_abs="10411.138746" CO2_abs="1153375.942557" HC_abs="73.876155" PMx_abs="18.961114" NOx_abs="443.687943" fuel_abs="495.784660" electricity_abs="0"/>
    </tripinfo>
    <tripinfo id="sveh9" depart="45.00" departLane="319615443_0" departPos="4.85" departSpeed="22.22" departDelay="0.00" arrival="560.00" arrivalLane="319611370_1" arrivalPos="380.09" arrivalSpeed="21.63" duration="515.00" routeLength="11083.48" waitingTime="0.00" waitingCount="0" stopTime="0.00" timeLoss="15.30" rerouteNo="0" devices="tripinfo_sveh9 emissions_sveh9" vType="SCar" speedFactor="0.94" vaporized="">
        <emissions CO_abs="12413.746428" CO2_abs="1574705.469624" HC_abs="94.678761" PMx_abs="28.417427" NOx_abs="587.469938" fuel_abs="676.893737" electricity_abs="0"/>
    </tripinfo>
    <tripinfo id="sveh10" depart="52.00" departLane="319611362_0" departPos="4.85" departSpeed="22.22" departDelay="0.00" arrival="571.00" arrivalLane="319615436_1" arrivalPos="125.64" arrivalSpeed="21.00" duration="519.00" routeLength="11178.14" waitingTime="0.00" waitingCount="0" stopTime="0.00" timeLoss="15.26" rerouteNo="0" devices="tripinfo_sveh10 emissions_sveh10" vType="SCar" speedFactor="0.86" vaporized="">
        <emissions CO_abs="11793.932594" CO2_abs="1519255.554800" HC_abs="90.546270" PMx_abs="27.307776" NOx_abs="565.406350" fuel_abs="653.058446" electricity_abs="0"/>
    </tripinfo>
    <tripinfo id="sveh71" depart="423.00" departLane="27_0" departPos="4.85" departSpeed="18.91" departDelay="0.00" arrival="590.00" arrivalLane="389783908_0" arrivalPos="273.35" arrivalSpeed="20.95" duration="167.00" routeLength="3248.08" waitingTime="0.00" waitingCount="0" stopTime="0.00" timeLoss="6.52" rerouteNo="0" devices="tripinfo_sveh71 emissions_sveh71" vType="SCar" speedFactor="0.97" vaporized="">
        <emissions CO_abs="4209.901575" CO2_abs="482178.221288" HC_abs="30.771630" PMx_abs="8.672839" NOx_abs="183.323832" fuel_abs="207.266341" electricity_abs="0"/>
    </tripinfo>
    <tripinfo id="sveh18" depart="72.00" departLane="319611362_0" departPos="4.85" departSpeed="22.22" departDelay="0.00" arrival="591.00" arrivalLane="319615436_1" arrivalPos="125.64" arrivalSpeed="22.01" duration="519.00" routeLength="11178.14" waitingTime="0.00" waitingCount="0" stopTime="0.00" timeLoss="15.40" rerouteNo="0" devices="tripinfo_sveh18 emissions_sveh18" vType="SCar" speedFactor="0.94" vaporized="">
        <emissions CO_abs="11922.123788" CO2_abs="1551489.309266" HC_abs="91.925641" PMx_abs="27.810059" NOx_abs="576.539910" fuel_abs="666.914318" electricity_abs="0"/>
    </tripinfo>
    <tripinfo id="sveh38" depart="165.00" departLane="248846659#1.206_0" departPos="4.85" departSpeed="13.11" departDelay="0.00" arrival="594.00" arrivalLane="77477309_0" arrivalPos="222.43" arrivalSpeed="18.37" duration="429.00" routeLength="6518.69" waitingTime="8.00" waitingCount="1" stopTime="0.00" timeLoss="42.31" rerouteNo="0" devices="tripinfo_sveh38 emissions_sveh38" vType="SCar" speedFactor="1.18" vaporized="">
        <emissions CO_abs="11734.782968" CO2_abs="1157486.927548" HC_abs="80.148448" PMx_abs="19.584309" NOx_abs="450.064564" fuel_abs="497.551934" electricity_abs="0"/>
    </tripinfo>
    <tripinfo id="sveh44" depart="191.00" departLane="27_0" departPos="4.85" departSpeed="20.17" departDelay="0.00" arrival="603.00" arrivalLane="-248846659#1_0" arrivalPos="144.53" arrivalSpeed="11.26" duration="412.00" routeLength="5825.70" waitingTime="0.00" waitingCount="0" stopTime="0.00" timeLoss="25.90" rerouteNo="0" devices="tripinfo_sveh44 emissions_sveh44" vType="SCar" speedFactor="1.04" vaporized="">
        <emissions CO_abs="7651.226202" CO2_abs="894486.915871" HC_abs="55.401729" PMx_abs="13.623890" NOx_abs="340.746699" fuel_abs="384.500828" electricity_abs="0"/>
    </tripinfo>
    <tripinfo id="sveh85" depart="535.00" departLane="27_0" departPos="4.85" departSpeed="19.47" departDelay="0.00" arrival="603.00" arrivalLane="462392869_0" arrivalPos="125.48" arrivalSpeed="21.31" duration="68.00" routeLength="996.02" waitingTime="0.00" waitingCount="0" stopTime="0.00" timeLoss="5.66" rerouteNo="0" devices="tripinfo_sveh85 emissions_sveh85" vType="SCar" speedFactor="1.00" vaporized="">
        <emissions CO_abs="2330.252419" CO2_abs="215846.025866" HC_abs="15.670399" PMx_abs="3.743374" NOx_abs="85.444527" fuel_abs="92.782467" electricity_abs="0"/>
    </tripinfo>
    <tripinfo id="sveh25" depart="103.00" departLane="319615443_0" departPos="4.85" departSpeed="22.22" departDelay="0.00" arrival="617.00" arrivalLane="319611370_1" arrivalPos="380.09" arrivalSpeed="21.98" duration="514.00" routeLength="11083.48" waitingTime="0.00" waitingCount="0" stopTime="0.00" timeLoss="15.12" rerouteNo="0" devices="tripinfo_sveh25 emissions_sveh25" vType="SCar" speedFactor="0.83" vaporized="">
        <emissions CO_abs="12473.549004" CO2_abs="1578596.169101" HC_abs="95.156806" PMx_abs="28.528082" NOx_abs="589.156528" fuel_abs="678.566156" electricity_abs="0"/>
    </tripinfo>
    <tripinfo id="sveh74" depart="450.00" departLane="389783911.154_0" departPos="4.85" departSpeed="22.22" departDelay="0.00" arrival="624.00" arrivalLane="462392869_1" arrivalPos="125.48" arrivalSpeed="21.05" duration="174.00" routeLength="3746.53" waitingTime="0.00" waitingCount="0" stopTime="0.00" timeLoss="4.92" rerouteNo="0" devices="tripinfo_sveh74 emissions_sveh74" vType="SCar" speedFactor="0.98" vaporized="">
        <emissions CO_abs="3632.404717" CO2_abs="507876.898299" HC_abs="28.844913" PMx_abs="8.932835" NOx_abs="186.594877" fuel_abs="218.313193" electricity_abs="0"/>
    </tripinfo>
    <tripinfo id="sveh15" depart="62.00" departLane="319611362_0" departPos="4.85" departSpeed="22.22" departDelay="0.00" arrival="642.00" arrivalLane="95223234_0" arrivalPos="261.08" arrivalSpeed="12.73" duration="580.00" routeLength="11795.50" waitingTime="0.00" waitingCount="0" stopTime="0.00" timeLoss="21.91" rerouteNo="0" devices="tripinfo_sveh15 emissions_sveh15" vType="SCar" speedFactor="0.99" vaporized="">
        <emissions CO_abs="13479.302826" CO2_abs="1687658.650586" HC_abs="102.011031" PMx_abs="29.846146" NOx_abs="631.161645" fuel_abs="725.447634" electricity_abs="0"/>
    </tripinfo>
    <tripinfo id="sveh69" depart="408.00" departLane="27_0" departPos="4.85" departSpeed="19.89" departDelay="0.00" arrival="659.00" arrivalLane="319615436_0" arrivalPos="125.64" arrivalSpeed="20.96" duration="251.00" routeLength="4465.50" waitingTime="0.00" waitingCount="0" stopTime="0.00" timeLoss="11.47" rerouteNo="0" devices="tripinfo_sveh69 emissions_sveh69" vType="SCar" speedFactor="1.02" vaporized="">
        <emissions CO_abs="6302.341637" CO2_abs="687320.134231" HC_abs="45.155558" PMx_abs="12.255297" NOx_abs="265.114590" fuel_abs="295.447414" electricity_abs="0"/>
    </tripinfo>
    <tripinfo id="sveh36" depart="152.00" departLane="319615443_0" departPos="4.85" departSpeed="22.22" departDelay="0.00" arrival="667.00" arrivalLane="319611370_1" arrivalPos="380.09" arrivalSpeed="22.08" duration="515.00" routeLength="11083.48" waitingTime="0.00" waitingCount="0" stopTime="0.00" timeLoss="15.30" rerouteNo="0" devices="tripinfo_sveh36 emissions_sveh36" vType="SCar" speedFactor="1.02" vaporized="">
        <emissions CO_abs="11349.473472" CO2_abs="1509907.363333" HC_abs="88.390302" PMx_abs="26.918878" NOx_abs="559.237114" fuel_abs="649.040258" electricity_abs="0"/>
    </tripinfo>
    <tripinfo id="sveh3" depart="22.00" departLane="516175821_0" departPos="4.85" departSpeed="22.22" departDelay="0.00" arrival="668.00" arrivalLane="462392869_1" arrivalPos="125.48" arrivalSpeed="22.18" duration="646.00" routeLength="13909.04" waitingTime="0.00" waitingCount="0" stopTime="0.00" timeLoss="19.36" rerouteNo="0" devices="tripinfo_sveh3 emissions_sveh3" vType="SCar" speedFactor="1.01" vaporized="">
        <emissions CO_abs="14913.958918" CO2_abs="1903940.300556" HC_abs="114.186964" PMx_abs="34.319018" NOx_abs="709.834947" fuel_abs="818.416735" electricity_abs="0"/>
    </tripinfo>
    <tripinfo id="sveh87" depart="549.00" departLane="516175821_0" departPos="4.85" departSpeed="22.22" departDelay="0.00" arrival="670.00" arrivalLane="2_0" arrivalPos="142.18" arrivalSpeed="13.60" duration="121.00" routeLength="1876.02" waitingTime="0.00" waitingCount="0" stopTime="0.00" timeLoss="10.99" rerouteNo="0" devices="tripinfo_sveh87 emissions_sveh87" vType="SCar" speedFactor="1.01" vaporized="">
        <emissions CO_abs="3437.813828" CO2_abs="333595.375174" HC_abs="23.399338" PMx_abs="5.737982" NOx_abs="129.975906" fuel_abs="143.397697" electricity_abs="0"/>
    </tripinfo>
    <tripinfo id="sveh93" depart="562.00" departLane="516175821_0" departPos="4.85" departSpeed="22.22" departDelay="0.00" arrival="674.00" arrivalLane="2_0" arrivalPos="142.18" arrivalSpeed="14.81" duration="112.00" routeLength="1876.02" waitingTime="0.00" waitingCount="0" stopTime="0.00" timeLoss="8.33" rerouteNo="0" devices="tripinfo_sveh93 emissions_sveh93" vType="SCar" speedFactor="1.09" vaporized="">
        <emissions CO_abs="2985.721818" CO2_abs="330114.908265" HC_abs="21.337016" PMx_abs="5.614668" NOx_abs="127.096669" fuel_abs="141.901469" electricity_abs="0"/>
    </tripinfo>
    <tripinfo id="sveh1" depart="1.00" departLane="516175821_0" departPos="4.85" departSpeed="22.22" departDelay="0.00" arrival="683.00" arrivalLane="389783908_0" arrivalPos="273.35" arrivalSpeed="21.40" duration="682.00" routeLength="14621.90" waitingTime="0.00" waitingCount="0" stopTime="0.00" timeLoss="19.51" rerouteNo="0" devices="tripinfo_sveh1 emissions_sveh1" vType="SCar" speedFactor="1.06" vaporized="">
        <emissions CO_abs="16801.411474" CO2_abs="2053724.915540" HC_abs="126.369042" PMx_abs="37.393282" NOx_abs="771.453848" fuel_abs="882.801961" electricity_abs="0"/>
    </tripinfo>
    <tripinfo id="sveh43" depart="183.00" departLane="319615443_0" departPos="4.85" departSpeed="22.22" departDelay="0.00" arrival="698.00" arrivalLane="319611370_1" arrivalPos="380.09" arrivalSpeed="20.92" duration="515.00" routeLength="11083.48" waitingTime="0.00" waitingCount="0" stopTime="0.00" timeLoss="15.73" rerouteNo="0" devices="tripinfo_sveh43 emissions_sveh43" vType="SCar" speedFactor="1.09" vaporized="">
        <emissions CO_abs="11932.069779" CO2_abs="1527408.681785" HC_abs="91.500094" PMx_abs="27.513298" NOx_abs="569.374703" fuel_abs="656.563043" electricity_abs="0"/>
    </tripinfo>
    <tripinfo id="sveh2" depart="16.00" departLane="462392872_0" departPos="4.85" departSpeed="22.22" departDelay="0.00" arrival="701.00" arrivalLane="245327988#1_0" arrivalPos="180.33" arrivalSpeed="20.99" duration="685.00" routeLength="14544.77" waitingTime="0.00" waitingCount="0" stopTime="0.00" timeLoss="21.53" rerouteNo="0" devices="tripinfo_sveh2 emissions_sveh2" vType="SCar" speedFactor="0.94" vaporized="">
        <emissions CO_abs="16472.948820" CO2_abs="2071845.512615" HC_abs="125.286474" PMx_abs="37.319467" NOx_abs="774.903098" fuel_abs="890.591464" electricity_abs="0"/>
    </tripinfo>
    <tripinfo id="sveh86" depart="537.00" departLane="462392872_0" departPos="4.85" departSpeed="22.22" departDelay="0.00" arrival="703.00" arrivalLane="389783908_0" arrivalPos="273.35" arrivalSpeed="21.37" duration="166.00" routeLength="3556.47" waitingTime="0.00" waitingCount="0" stopTime="0.00" timeLoss="5.00" rerouteNo="0" devices="tripinfo_sveh86 emissions_sveh86" vType="SCar" speedFactor="1.04" vaporized="">
        <emissions CO_abs="3958.713333" CO2_abs="497842.235124" HC_abs="30.088597" PMx_abs="9.003389" NOx_abs="186.051382" fuel_abs="213.999548" electricity_abs="0"/>
    </tripinfo>
    <tripinfo id="sveh14" depart="59.00" departLane="516175821_0" departPos="4.85" departSpeed="22.22" departDelay="0.00" arrival="704.00" arrivalLane="462392869_1" arrivalPos="125.48" arrivalSpeed="20.92" duration="645.00" routeLength="13909.04" waitingTime="0.00" waitingCount="0" stopTime="0.00" timeLoss="18.33" rerouteNo="0" devices="tripinfo_sveh14 emissions_sveh14" vType="SCar" speedFactor="1.12" vaporized="">
        <emissions CO_abs="15377.047585" CO2_abs="1947651.582490" HC_abs="117.320468" PMx_abs="35.190925" NOx_abs="726.620653" fuel_abs="837.206184" electricity_abs="0"/>
    </tripinfo>
    <tripinfo id="sveh88" depart="550.00" departLane="462392872_0" departPos="4.85" departSpeed="22.22" departDelay="0.00" arrival="715.00" arrivalLane="389783908_0" arrivalPos="273.35" arrivalSpeed="21.62" duration="165.00" routeLength="3556.47" waitingTime="0.00" waitingCount="0" stopTime="0.00" timeLoss="4.51" rerouteNo="0" devices="tripinfo_sveh88 emissions_sveh88" vType="SCar" speedFactor="1.02" vaporized="">
        <emissions CO_abs="3501.344236" CO2_abs="465040.269758" HC_abs="27.261000" PMx_abs="8.300014" NOx_abs="172.197765" fuel_abs="199.899589" electricity_abs="0"/>
    </tripinfo>
    <tripinfo id="sveh17" depart="69.00" departLane="516175821_0" departPos="4.85" departSpeed="22.22" departDelay="0.00" arrival="718.00" arrivalLane="462392869_1" arrivalPos="125.48" arrivalSpeed="21.48" duration="649.00" routeLength="13909.04" waitingTime="0.00" waitingCount="0" stopTime="0.00" timeLoss="19.29" rerouteNo="0" devices="tripinfo_sveh17 emissions_sveh17" vType="SCar" speedFactor="0.88" vaporized="">
        <emissions CO_abs="15619.413684" CO2_abs="1913696.315015" HC_abs="117.561631" PMx_abs="34.836490" NOx_abs="718.690640" fuel_abs="822.610087" electricity_abs="0"/>
    </tripinfo>
    <tripinfo id="sveh89" depart="552.00" departLane="462392872_0" departPos="4.85" departSpeed="22.22" departDelay="0.00" arrival="718.00" arrivalLane="389783908_0" arrivalPos="273.35" arrivalSpeed="21.46" duration="166.00" routeLength="3556.47" waitingTime="0.00" waitingCount="0" stopTime="0.00" timeLoss="5.09" rerouteNo="0" devices="tripinfo_sveh89 emissions_sveh89" vType="SCar" speedFactor="1.02" vaporized="">
        <emissions CO_abs="3981.789372" CO2_abs="495448.479335" HC_abs="30.158470" PMx_abs="8.992037" NOx_abs="185.459826" fuel_abs="212.970563" electricity_abs="0"/>
    </tripinfo>
    <tripinfo id="sveh46" depart="215.00" departLane="319615443_0" departPos="4.85" departSpeed="22.22" departDelay="0.00" arrival="730.00" arrivalLane="319611370_1" arrivalPos="380.09" arrivalSpeed="21.42" duration="515.00" routeLength="11083.48" waitingTime="0.00" waitingCount="0" stopTime="0.00" timeLoss="15.68" rerouteNo="0" devices="tripinfo_sveh46 emissions_sveh46" vType="SCar" speedFactor="1.09" vaporized="">
        <emissions CO_abs="11867.542567" CO2_abs="1541682.725682" HC_abs="91.448841" PMx_abs="27.646237" NOx_abs="573.149461" fuel_abs="662.698899" electricity_abs="0"/>
    </tripinfo>
    <tripinfo id="sveh48" depart="226.00" departLane="319615443_0" departPos="4.85" departSpeed="22.22" departDelay="0.00" arrival="740.00" arrivalLane="319611370_1" arrivalPos="380.09" arrivalSpeed="22.22" duration="514.00" routeLength="11083.48" waitingTime="0.00" waitingCount="0" stopTime="0.00" timeLoss="14.48" rerouteNo="0" devices="tripinfo_sveh48 emissions_sveh48" vType="SCar" speedFactor="0.90" vaporized="">