<?xml version="1.0" encoding="UTF-8"?>

<!-- generated on Tue Nov 10 02:16:42 2020 by Eclipse SUMO sumo Version 1.7.0
<configuration xmlns:xsi="http://www.w3.org/2001/XMLSchema-instance" xsi:noNamespaceSchemaLocation="http://sumo.dlr.de/xsd/sumoConfiguration.xsd">

    <input>
        <net-file value="../dataSets/Porto/6AM7AM_Routing_SaoBento/Porto.net.xml"/>
        <route-files value="../results/Porto/6AM7AM_Routing_SaoBento/cost_PMx-cost_hc/solution5/Porto.rou.xml"/>
        <additional-files value="moreOutputInfo.xml"/>
    </input>

    <output>
        <emission-output.precision value="6"/>
        <tripinfo-output value="../results/Porto/6AM7AM_Routing_SaoBento/cost_PMx-cost_hc/solution5/Porto-tripinfo"/>
    </output>

    <processing>
        <collision.action value="warn"/>
        <time-to-teleport value="-1"/>
    </processing>

    <emissions>
        <device.emissions.probability value="1"/>
    </emissions>

    <gui_only>
        <quit-on-end value="true"/>
        <start value="true"/>
    </gui_only>

</configuration>
-->

<meandata xmlns:xsi="http://www.w3.org/2001/XMLSchema-instance" xsi:noNamespaceSchemaLocation="http://sumo.dlr.de/xsd/meandata_file.xsd">
    <interval begin="0.00" end="4702.00" id="emissions-detector">
        <edge id=":1092997347_0" sampledSeconds="281.21" CO_abs="36378.673760" CO2_abs="1453367.377677" HC_abs="200.015747" PMx_abs="29.729193" NOx_abs="631.329311" fuel_abs="624.745141" electricity_abs="0"
            CO_normed="63301.508804" CO2_normed="2528963.767661" HC_normed="348.041785" PMx_normed="51.730935" NOx_normed="1098.558408" fuel_normed="1087.101479" electricity_normed="0"
            traveltime="0.07" CO_perVeh="9.599716" CO2_perVeh="383.519054" HC_perVeh="0.052781" PMx_perVeh="0.007845" NOx_perVeh="0.166597" fuel_perVeh="0.164860" electricity_perVeh="0"/>
        <edge id=":1103427051_0" sampledSeconds="10.99" CO_abs="877.762661" CO2_abs="49341.736935" HC_abs="5.169538" PMx_abs="0.974752" NOx_abs="21.099378" fuel_abs="21.209819" electricity_abs="0"
            CO_normed="2317.389212" CO2_normed="130267.569902" HC_normed="13.648145" PMx_normed="2.573451" NOx_normed="55.704660" fuel_normed="55.996238" electricity_normed="0"
            traveltime="0.03" CO_perVeh="2.405056" CO2_perVeh="135.195613" HC_perVeh="0.014164" PMx_perVeh="0.002671" NOx_perVeh="0.057812" fuel_perVeh="0.058115" electricity_perVeh="0"/>
        <edge id=":1105984386_0" sampledSeconds="22.77" CO_abs="459.860600" CO2_abs="38282.450935" HC_abs="2.963381" PMx_abs="0.493287" NOx_abs="14.434911" fuel_abs="16.456161" electricity_abs="0"
            CO_normed="36.259921" CO2_normed="3018.563947" HC_normed="0.233662" PMx_normed="0.038896" NOx_normed="1.138190" fuel_normed="1.297565" electricity_normed="0"
            traveltime="0.96" CO_perVeh="19.299993" CO2_perVeh="1606.684814" HC_perVeh="0.124371" PMx_perVeh="0.020703" NOx_perVeh="0.605822" fuel_perVeh="0.690652" electricity_perVeh="0"/>
        <edge id=":1105984390_0" sampledSeconds="23.35" CO_abs="0" CO2_abs="0" HC_abs="0" PMx_abs="0" NOx_abs="0" fuel_abs="0" electricity_abs="0"
            CO_normed="0" CO2_normed="0" HC_normed="0" PMx_normed="0" NOx_normed="0" fuel_normed="0" electricity_normed="0"
            traveltime="1.06" CO_perVeh="0" CO2_perVeh="0" HC_perVeh="0" PMx_perVeh="0" NOx_perVeh="0" fuel_perVeh="0" electricity_perVeh="0"/>
        <edge id=":1105984390_1" sampledSeconds="670.74" CO_abs="15549.574462" CO2_abs="1983778.520347" HC_abs="118.460825" PMx_abs="35.269887" NOx_abs="744.893282" fuel_abs="852.735340" electricity_abs="0"
            CO_normed="906.720967" CO2_normed="115677.350651" HC_normed="6.907643" PMx_normed="2.056644" NOx_normed="43.435938" fuel_normed="49.724384" electricity_normed="0"
            traveltime="0.64" CO_perVeh="14.755612" CO2_perVeh="1882.486699" HC_perVeh="0.112412" PMx_perVeh="0.033469" NOx_perVeh="0.706859" fuel_perVeh="0.809195" electricity_perVeh="0"/>
        <edge id=":1105984395_0" sampledSeconds="8.92" CO_abs="247.728752" CO2_abs="19217.852064" HC_abs="1.565832" PMx_abs="0.258594" NOx_abs="7.333263" fuel_abs="8.261015" electricity_abs="0"
            CO_normed="206.161926" CO2_normed="15993.256207" HC_normed="1.303098" PMx_normed="0.215204" NOx_normed="6.102803" fuel_normed="6.874886" electricity_normed="0"
            traveltime="0.09" CO_perVeh="2.512240" CO2_perVeh="194.890034" HC_perVeh="0.015879" PMx_perVeh="0.002622" NOx_perVeh="0.074367" fuel_perVeh="0.083776" electricity_perVeh="0"/>
        <edge id=":1105984398_0" sampledSeconds="23.42" CO_abs="1514.290840" CO2_abs="107771.495211" HC_abs="9.430023" PMx_abs="1.889204" NOx_abs="44.047442" fuel_abs="46.326248" electricity_abs="0"
            CO_normed="95.896525" CO2_normed="6824.918716" HC_normed="0.597181" PMx_normed="0.119639" NOx_normed="2.789422" fuel_normed="2.933734" electricity_normed="0"
            traveltime="1.09" CO_perVeh="70.764769" CO2_perVeh="5036.301347" HC_perVeh="0.440677" PMx_perVeh="0.088285" NOx_perVeh="2.058394" fuel_perVeh="2.164885" electricity_perVeh="0"/>
        <edge id=":1105984398_1" sampledSeconds="453.44" CO_abs="8662.027277" CO2_abs="964010.598614" HC_abs="61.729867" PMx_abs="14.185761" NOx_abs="367.725997" fuel_abs="414.386804" electricity_abs="0"
            CO_normed="530.978559" CO2_normed="59093.436468" HC_normed="3.784014" PMx_normed="0.869581" NOx_normed="22.541446" fuel_normed="25.401733" electricity_normed="0"
            traveltime="0.96" CO_perVeh="18.294307" CO2_perVeh="2036.002094" HC_perVeh="0.130374" PMx_perVeh="0.029961" NOx_perVeh="0.776642" fuel_perVeh="0.875190" electricity_perVeh="0"/>
        <edge id=":1106006327_0" sampledSeconds="135.07" CO_abs="18121.740449" CO2_abs="586442.945281" HC_abs="96.312750" PMx_abs="12.206504" NOx_abs="256.541420" fuel_abs="252.091202" electricity_abs="0"
            CO_normed="1565.979455" CO2_normed="50677.119362" HC_normed="8.322809" PMx_normed="1.054818" NOx_normed="22.168875" fuel_normed="21.784312" electricity_normed="0"
            traveltime="2.09" CO_perVeh="280.883490" CO2_perVeh="9089.752799" HC_perVeh="1.492829" PMx_perVeh="0.189198" NOx_perVeh="3.976343" fuel_perVeh="3.907365" electricity_perVeh="0"/>
        <edge id=":1106006327_1" sampledSeconds="160.74" CO_abs="21831.482827" CO2_abs="732585.966180" HC_abs="116.679147" PMx_abs="15.301427" NOx_abs="320.726278" fuel_abs="314.912186" electricity_abs="0"
            CO_normed="1645.164777" CO2_normed="55205.807008" HC_normed="8.792642" PMx_normed="1.153076" NOx_normed="24.169113" fuel_normed="23.730978" electricity_normed="0"
            traveltime="2.28" CO_perVeh="309.926036" CO2_perVeh="10400.001979" HC_perVeh="1.656411" PMx_perVeh="0.217223" NOx_perVeh="4.553123" fuel_perVeh="4.470584" electricity_perVeh="0"/>
        <edge id=":1106006327_2" sampledSeconds="0.00" CO_abs="0" CO2_abs="0" HC_abs="0" PMx_abs="0" NOx_abs="0" fuel_abs="0" electricity_abs="0"
            CO_normed="0" CO2_normed="0" HC_normed="0" PMx_normed="0" NOx_normed="0" fuel_normed="0" electricity_normed="0"/>
        <edge id=":1106006327_3" sampledSeconds="0.00" CO_abs="0" CO2_abs="0" HC_abs="0" PMx_abs="0" NOx_abs="0" fuel_abs="0" electricity_abs="0"
            CO_normed="0" CO2_normed="0" HC_normed="0" PMx_normed="0" NOx_normed="0" fuel_normed="0" electricity_normed="0"/>
        <edge id=":1107381198_0" sampledSeconds="0.00" CO_abs="0" CO2_abs="0" HC_abs="0" PMx_abs="0" NOx_abs="0" fuel_abs="0" electricity_abs="0"
            CO_normed="0" CO2_normed="0" HC_normed="0" PMx_normed="0" NOx_normed="0" fuel_normed="0" electricity_normed="0"/>
        <edge id=":1107381198_1" sampledSeconds="35.93" CO_abs="1517.499363" CO2_abs="60128.015074" HC_abs="8.283652" PMx_abs="0.985154" NOx_abs="24.565342" fuel_abs="25.847037" electricity_abs="0"
            CO_normed="126.700713" CO2_normed="5020.273845" HC_normed="0.691628" PMx_normed="0.082254" NOx_normed="2.051036" fuel_normed="2.158049" electricity_normed="0"
            traveltime="1.48" CO_perVeh="62.479657" CO2_perVeh="2475.637115" HC_perVeh="0.341061" PMx_perVeh="0.040562" NOx_perVeh="1.011423" fuel_perVeh="1.064194" electricity_perVeh="0"/>
        <edge id=":1110338277_0" sampledSeconds="97.03" CO_abs="1391.580318" CO2_abs="182299.643999" HC_abs="10.500082" PMx_abs="2.364911" NOx_abs="67.231599" fuel_abs="78.363098" electricity_abs="0"
            CO_normed="3805.135462" CO2_normed="498479.916141" HC_normed="28.711412" PMx_normed="6.466609" NOx_normed="183.837999" fuel_normed="214.275956" electricity_normed="0"
            traveltime="0.02" CO_perVeh="0.313618" CO2_perVeh="41.084586" HC_perVeh="0.002366" PMx_perVeh="0.000533" NOx_perVeh="0.015152" fuel_perVeh="0.017661" electricity_perVeh="0"/>
        <edge id=":1110338293_0" sampledSeconds="123.97" CO_abs="5931.752653" CO2_abs="402411.261460" HC_abs="36.493456" PMx_abs="7.220764" NOx_abs="165.866079" fuel_abs="172.978934" electricity_abs="0"
            CO_normed="15138.458492" CO2_normed="1026995.988414" HC_normed="93.135150" PMx_normed="18.428152" NOx_normed="423.307731" fuel_normed="441.460486" electricity_normed="0"
            traveltime="0.03" CO_perVeh="1.360546" CO2_perVeh="92.299689" HC_perVeh="0.008370" PMx_perVeh="0.001656" NOx_perVeh="0.038044" fuel_perVeh="0.039676" electricity_perVeh="0"/>
        <edge id=":1110338295_0" sampledSeconds="0.00" CO_abs="0" CO2_abs="0" HC_abs="0" PMx_abs="0" NOx_abs="0" fuel_abs="0" electricity_abs="0"
            CO_normed="0" CO2_normed="0" HC_normed="0" PMx_normed="0" NOx_normed="0" fuel_normed="0" electricity_normed="0"/>
        <edge id=":1110673403_0" sampledSeconds="143.84" CO_abs="2158.940073" CO2_abs="270620.373955" HC_abs="16.016271" PMx_abs="3.704746" NOx_abs="101.058821" fuel_abs="116.328314" electricity_abs="0"
            CO_normed="5509.842807" CO2_normed="690651.741271" HC_normed="40.875212" PMx_normed="9.454903" NOx_normed="257.912771" fuel_normed="296.882129" electricity_normed="0"
            traveltime="0.02" CO_perVeh="0.346633" CO2_perVeh="43.450048" HC_perVeh="0.002572" PMx_perVeh="0.000595" NOx_perVeh="0.016226" fuel_perVeh="0.018677" electricity_perVeh="0"/>
        <edge id=":1110673412_0" sampledSeconds="252.64" CO_abs="45138.501847" CO2_abs="3073083.156069" HC_abs="280.752186" PMx_abs="67.606099" NOx_abs="1321.412030" fuel_abs="1320.967035" electricity_abs="0"
            CO_normed="119170.570592" CO2_normed="8113274.880718" HC_normed="741.216409" PMx_normed="178.487480" NOx_normed="3488.671958" fuel_normed="3487.497122" electricity_normed="0"
            traveltime="0.02" CO_perVeh="2.779405" CO2_perVeh="189.225241" HC_perVeh="0.017287" PMx_perVeh="0.004163" NOx_perVeh="0.081366" fuel_perVeh="0.081339" electricity_perVeh="0"/>
        <edge id=":1110673414_0" sampledSeconds="0.00" CO_abs="0" CO2_abs="0" HC_abs="0" PMx_abs="0" NOx_abs="0" fuel_abs="0" electricity_abs="0"
            CO_normed="0" CO2_normed="0" HC_normed="0" PMx_normed="0" NOx_normed="0" fuel_normed="0" electricity_normed="0"/>
        <edge id=":1110673414_1" sampledSeconds="251.60" CO_abs="16879.295709" CO2_abs="633732.843597" HC_abs="91.548307" PMx_abs="11.626021" NOx_abs="267.132401" fuel_abs="272.419542" electricity_abs="0"
            CO_normed="1431.154259" CO2_normed="53732.660048" HC_normed="7.762157" PMx_normed="0.985742" NOx_normed="22.649504" fuel_normed="23.097788" electricity_normed="0"
            traveltime="1.60" CO_perVeh="107.387969" CO2_perVeh="4031.879308" HC_perVeh="0.582441" PMx_perVeh="0.073966" NOx_perVeh="1.699526" fuel_perVeh="1.733164" electricity_perVeh="0"/>
        <edge id=":1110673417_0" sampledSeconds="29.71" CO_abs="647.720040" CO2_abs="70113.778077" HC_abs="4.567075" PMx_abs="1.013801" NOx_abs="26.709253" fuel_abs="30.138940" electricity_abs="0"
            CO_normed="1771.124859" CO2_normed="191719.026158" HC_normed="12.488204" PMx_normed="2.772136" NOx_normed="73.033748" fuel_normed="82.411880" electricity_normed="0"
            traveltime="0.02" CO_perVeh="0.480746" CO2_perVeh="52.039385" HC_perVeh="0.003390" PMx_perVeh="0.000752" NOx_perVeh="0.019824" fuel_perVeh="0.022370" electricity_perVeh="0"/>
        <edge id=":1110673446_0" sampledSeconds="334.59" CO_abs="2925.933690" CO2_abs="241563.662396" HC_abs="18.998463" PMx_abs="4.383070" NOx_abs="98.339941" fuel_abs="103.837143" electricity_abs="0"
            CO_normed="7467.291426" CO2_normed="616495.948268" HC_normed="48.486082" PMx_normed="11.186057" NOx_normed="250.973902" fuel_normed="265.003343" electricity_normed="0"
            traveltime="0.02" CO_perVeh="0.199561" CO2_perVeh="16.475679" HC_perVeh="0.001296" PMx_perVeh="0.000299" NOx_perVeh="0.006707" fuel_perVeh="0.007082" electricity_perVeh="0"/>
        <edge id=":1110673451_0" sampledSeconds="37.73" CO_abs="371.747844" CO2_abs="28985.252938" HC_abs="2.347882" PMx_abs="0.362434" NOx_abs="10.876476" fuel_abs="12.459686" electricity_abs="0"
            CO_normed="1054.155236" CO2_normed="82192.692295" HC_normed="6.657825" PMx_normed="1.027746" NOx_normed="30.842126" fuel_normed="35.331594" electricity_normed="0"
            traveltime="0.03" CO_perVeh="0.266592" CO2_perVeh="20.786237" HC_perVeh="0.001684" PMx_perVeh="0.000260" NOx_perVeh="0.007800" fuel_perVeh="0.008935" electricity_perVeh="0"/>
        <edge id=":1110673464_0" sampledSeconds="324.16" CO_abs="686.007820" CO2_abs="58576.131472" HC_abs="4.471941" PMx_abs="0.836160" NOx_abs="22.501366" fuel_abs="25.179510" electricity_abs="0"
            CO_normed="37.197542" CO2_normed="3176.185550" HC_normed="0.242483" PMx_normed="0.045339" NOx_normed="1.220096" fuel_normed="1.365314" electricity_normed="0"
            traveltime="1.17" CO_perVeh="2.479828" CO2_perVeh="211.744987" HC_perVeh="0.016165" PMx_perVeh="0.003023" NOx_perVeh="0.081339" fuel_perVeh="0.091021" electricity_perVeh="0"/>
        <edge id=":1110673464_1" sampledSeconds="736.01" CO_abs="17412.017626" CO2_abs="2261877.065979" HC_abs="133.332077" PMx_abs="39.947479" NOx_abs="846.889744" fuel_abs="972.277302" electricity_abs="0"
            CO_normed="925.134748" CO2_normed="120177.977885" HC_normed="7.084196" PMx_normed="2.122488" NOx_normed="44.996918" fuel_normed="51.659006" electricity_normed="0"
            traveltime="0.70" CO_perVeh="16.563746" CO2_perVeh="2151.683888" HC_perVeh="0.126836" PMx_perVeh="0.038001" NOx_perVeh="0.805631" fuel_perVeh="0.924910" electricity_perVeh="0"/>
        <edge id=":1110673479_0" sampledSeconds="133.44" CO_abs="6705.272342" CO2_abs="458320.191096" HC_abs="41.325161" PMx_abs="8.171722" NOx_abs="188.542047" fuel_abs="197.011768" electricity_abs="0"
            CO_normed="17112.562335" CO2_normed="1169681.474511" HC_normed="105.466170" PMx_normed="20.855097" NOx_normed="481.179192" fuel_normed="502.794814" electricity_normed="0"
            traveltime="0.03" CO_perVeh="1.412535" CO2_perVeh="96.549892" HC_perVeh="0.008706" PMx_perVeh="0.001721" NOx_perVeh="0.039718" fuel_perVeh="0.041503" electricity_perVeh="0"/>
        <edge id=":1110673511_0" sampledSeconds="11.84" CO_abs="180.027345" CO2_abs="21604.447768" HC_abs="1.303317" PMx_abs="0.288802" NOx_abs="8.046971" fuel_abs="9.286856" electricity_abs="0"
            CO_normed="459.448774" CO2_normed="55136.829694" HC_normed="3.326203" PMx_normed="0.737053" NOx_normed="20.536718" fuel_normed="23.701037" electricity_normed="0"
            traveltime="0.02" CO_perVeh="0.356490" CO2_perVeh="42.781085" HC_perVeh="0.002581" PMx_perVeh="0.000572" NOx_perVeh="0.015935" fuel_perVeh="0.018390" electricity_perVeh="0"/>
        <edge id=":1110673517_0" sampledSeconds="17.01" CO_abs="751.846368" CO2_abs="52550.681071" HC_abs="4.661544" PMx_abs="0.933940" NOx_abs="21.559391" fuel_abs="22.589229" electricity_abs="0"
            CO_normed="1918.791240" CO2_normed="134114.881509" HC_normed="11.896753" PMx_normed="2.383514" NOx_normed="55.021840" fuel_normed="57.650096" electricity_normed="0"
            traveltime="0.03" CO_perVeh="1.207139" CO2_perVeh="84.373585" HC_perVeh="0.007484" PMx_perVeh="0.001500" NOx_perVeh="0.034615" fuel_perVeh="0.036268" electricity_perVeh="0"/>
        <edge id=":1110673534_0" sampledSeconds="474.68" CO_abs="2744.436179" CO2_abs="256803.688317" HC_abs="18.331450" PMx_abs="3.225401" NOx_abs="95.741700" fuel_abs="110.389975" electricity_abs="0"
            CO_normed="135.738191" CO2_normed="12701.358567" HC_normed="0.906663" PMx_normed="0.159526" NOx_normed="4.735328" fuel_normed="5.459823" electricity_normed="0"
            traveltime="1.43" CO_perVeh="8.267890" CO2_perVeh="773.646917" HC_perVeh="0.055225" PMx_perVeh="0.009717" NOx_perVeh="0.288431" fuel_perVeh="0.332561" electricity_perVeh="0"/>
        <edge id=":1110673534_1" sampledSeconds="183.85" CO_abs="2633.914748" CO2_abs="329973.284469" HC_abs="19.495998" PMx_abs="4.511645" NOx_abs="123.085826" fuel_abs="141.841647" electricity_abs="0"
            CO_normed="126.671387" CO2_normed="15869.220412" HC_normed="0.937610" PMx_normed="0.216976" NOx_normed="5.919498" fuel_normed="6.821511" electricity_normed="0"
            traveltime="1.22" CO_perVeh="17.488248" CO2_perVeh="2190.904146" HC_perVeh="0.129446" PMx_perVeh="0.029956" NOx_perVeh="0.817246" fuel_perVeh="0.941778" electricity_perVeh="0"/>
        <edge id=":1110673549_0" sampledSeconds="59.22" CO_abs="79.344463" CO2_abs="7662.488347" HC_abs="0.538453" PMx_abs="0.111041" NOx_abs="2.943752" fuel_abs="3.293784" electricity_abs="0"
            CO_normed="3.801541" CO2_normed="367.124128" HC_normed="0.025798" PMx_normed="0.005320" NOx_normed="0.141041" fuel_normed="0.157811" electricity_normed="0"
            traveltime="1.23" CO_perVeh="1.653074" CO2_perVeh="159.641418" HC_perVeh="0.011218" PMx_perVeh="0.002313" NOx_perVeh="0.061331" fuel_perVeh="0.068623" electricity_perVeh="0"/>
        <edge id=":1110673549_1" sampledSeconds="639.50" CO_abs="13417.052501" CO2_abs="1731276.129338" HC_abs="102.598378" PMx_abs="30.635703" NOx_abs="649.031588" fuel_abs="744.196240" electricity_abs="0"
            CO_normed="621.823244" CO2_normed="80237.275592" HC_normed="4.754998" PMx_normed="1.419834" NOx_normed="30.079850" fuel_normed="34.490326" electricity_normed="0"
            traveltime="0.81" CO_perVeh="16.891214" CO2_perVeh="2179.566247" HC_perVeh="0.129165" PMx_perVeh="0.038568" NOx_perVeh="0.817089" fuel_perVeh="0.936896" electricity_perVeh="0"/>
        <edge id=":1110673556_0" sampledSeconds="419.94" CO_abs="51695.100485" CO2_abs="2586578.224683" HC_abs="296.883138" PMx_abs="52.168030" NOx_abs="1113.985648" fuel_abs="1111.858124" electricity_abs="0"
            CO_normed="1836.631317" CO2_normed="91896.340787" HC_normed="10.547709" PMx_normed="1.853434" NOx_normed="39.577850" fuel_normed="39.502263" electricity_normed="0"
            traveltime="2.61" CO_perVeh="320.897977" CO2_perVeh="16056.216368" HC_perVeh="1.842906" PMx_perVeh="0.323834" NOx_perVeh="6.915080" fuel_perVeh="6.901873" electricity_perVeh="0"/>
        <edge id=":1110673556_2" sampledSeconds="244.26" CO_abs="23773.692739" CO2_abs="1039614.382769" HC_abs="132.680052" PMx_abs="20.065092" NOx_abs="443.358099" fuel_abs="446.889057" electricity_abs="0"
            CO_normed="883.158249" CO2_normed="38620.168423" HC_normed="4.928872" PMx_normed="0.745389" NOx_normed="16.470111" fuel_normed="16.601281" electricity_normed="0"
            traveltime="2.96" CO_perVeh="288.370337" CO2_perVeh="12610.323243" HC_perVeh="1.609384" PMx_perVeh="0.243386" NOx_perVeh="5.377849" fuel_perVeh="5.420679" electricity_perVeh="0"/>
        <edge id=":1110673556_3" sampledSeconds="368.52" CO_abs="31971.600848" CO2_abs="1131293.439148" HC_abs="171.923206" PMx_abs="21.682805" NOx_abs="483.073709" fuel_abs="486.303540" electricity_abs="0"
            CO_normed="2701.817813" CO2_normed="95601.993162" HC_normed="14.528681" PMx_normed="1.832345" NOx_normed="40.823015" fuel_normed="41.095958" electricity_normed="0"
            traveltime="1.75" CO_perVeh="151.991680" CO2_perVeh="5378.122637" HC_perVeh="0.817316" PMx_perVeh="0.103079" NOx_perVeh="2.296513" fuel_perVeh="2.311867" electricity_perVeh="0"/>
        <edge id=":1110673556_4" sampledSeconds="174.04" CO_abs="17385.809398" CO2_abs="705372.486178" HC_abs="95.727396" PMx_abs="13.786883" NOx_abs="302.402172" fuel_abs="303.212462" electricity_abs="0"
            CO_normed="897.580976" CO2_normed="36416.419266" HC_normed="4.942139" PMx_normed="0.711778" NOx_normed="15.612183" fuel_normed="15.654016" electricity_normed="0"
            traveltime="2.35" CO_perVeh="235.144785" CO2_perVeh="9540.232353" HC_perVeh="1.294722" PMx_perVeh="0.186469" NOx_perVeh="4.090019" fuel_perVeh="4.100978" electricity_perVeh="0"/>
        <edge id=":1110673556_5" sampledSeconds="24.84" CO_abs="1822.865477" CO2_abs="73124.779665" HC_abs="10.005658" PMx_abs="1.372643" NOx_abs="30.988400" fuel_abs="31.433630" electricity_abs="0"
            CO_normed="131.169502" CO2_normed="5261.902766" HC_normed="0.719986" PMx_normed="0.098772" NOx_normed="2.229859" fuel_normed="2.261897" electricity_normed="0"
            traveltime="1.72" CO_perVeh="126.025268" CO2_perVeh="5055.540323" HC_perVeh="0.691749" PMx_perVeh="0.094899" NOx_perVeh="2.142408" fuel_perVeh="2.173189" electricity_perVeh="0"/>
        <edge id=":1110673556_6" sampledSeconds="311.48" CO_abs="37471.595511" CO2_abs="1902965.239504" HC_abs="215.883954" PMx_abs="38.332303" NOx_abs="818.536881" fuel_abs="818.002132" electricity_abs="0"
            CO_normed="1364.863908" CO2_normed="69313.530390" HC_normed="7.863349" PMx_normed="1.396214" NOx_normed="29.814355" fuel_normed="29.794877" electricity_normed="0"
            traveltime="2.47" CO_perVeh="296.744893" CO2_perVeh="15069.953899" HC_perVeh="1.709627" PMx_perVeh="0.303561" NOx_perVeh="6.482154" fuel_perVeh="6.477919" electricity_perVeh="0"/>
        <edge id=":1110673561_0" sampledSeconds="99.85" CO_abs="10208.605824" CO2_abs="732537.592142" HC_abs="64.133972" PMx_abs="14.846675" NOx_abs="309.837319" fuel_abs="314.882966" electricity_abs="0"
            CO_normed="467.186592" CO2_normed="33523.847131" HC_normed="2.935027" PMx_normed="0.679443" NOx_normed="14.179394" fuel_normed="14.410303" electricity_normed="0"
            traveltime="1.18" CO_perVeh="120.471457" CO2_perVeh="8644.654588" HC_perVeh="0.756843" PMx_perVeh="0.175205" NOx_perVeh="3.656381" fuel_perVeh="3.715925" electricity_perVeh="0"/>
        <edge id=":1110673561_1" sampledSeconds="1316.87" CO_abs="120001.151827" CO2_abs="8312227.999012" HC_abs="747.436401" PMx_abs="173.808012" NOx_abs="3554.255415" fuel_abs="3573.025263" electricity_abs="0"
            CO_normed="5354.118847" CO2_normed="370868.578421" HC_normed="33.348541" PMx_normed="7.754832" NOx_normed="158.581027" fuel_normed="159.418486" electricity_normed="0"
            traveltime="1.20" CO_perVeh="108.904372" CO2_perVeh="7543.577315" HC_perVeh="0.678319" PMx_perVeh="0.157736" NOx_perVeh="3.225585" fuel_perVeh="3.242619" electricity_perVeh="0"/>
        <edge id=":1110673562_0" sampledSeconds="103.86" CO_abs="2346.590397" CO2_abs="188487.864169" HC_abs="14.976036" PMx_abs="2.495598" NOx_abs="71.513850" fuel_abs="81.023689" electricity_abs="0"
            CO_normed="6654.162476" CO2_normed="534489.902647" HC_normed="42.467138" PMx_normed="7.076699" NOx_normed="202.789875" fuel_normed="229.756669" electricity_normed="0"
            traveltime="0.03" CO_perVeh="0.598157" CO2_perVeh="48.046415" HC_perVeh="0.003817" PMx_perVeh="0.000636" NOx_perVeh="0.018229" fuel_perVeh="0.020653" electricity_perVeh="0"/>
        <edge id=":1110673564_0" sampledSeconds="28.93" CO_abs="503.776530" CO2_abs="54097.542329" HC_abs="3.535996" PMx_abs="0.794385" NOx_abs="20.668362" fuel_abs="23.254225" electricity_abs="0"
            CO_normed="3857.072538" CO2_normed="414187.903835" HC_normed="27.072702" PMx_normed="6.082062" NOx_normed="158.243522" fuel_normed="178.041704" electricity_normed="0"
            traveltime="7.952712e-03" CO_perVeh="0.138495" CO2_perVeh="14.872177" HC_perVeh="0.000972" PMx_perVeh="0.000218" NOx_perVeh="0.005682" fuel_perVeh="0.006393" electricity_perVeh="0"/>
        <edge id=":1110673588_0" sampledSeconds="11.67" CO_abs="201.560661" CO2_abs="20480.271080" HC_abs="1.391599" PMx_abs="0.309148" NOx_abs="7.891052" fuel_abs="8.803590" electricity_abs="0"
            CO_normed="617.284881" CO2_normed="62721.374640" HC_normed="4.261810" PMx_normed="0.946775" NOx_normed="24.166555" fuel_normed="26.961229" electricity_normed="0"
            traveltime="0.02" CO_perVeh="0.335934" CO2_perVeh="34.133785" HC_perVeh="0.002319" PMx_perVeh="0.000515" NOx_perVeh="0.013152" fuel_perVeh="0.014673" electricity_perVeh="0"/>
        <edge id=":1110673601_0" sampledSeconds="29.75" CO_abs="517.995911" CO2_abs="61884.042425" HC_abs="3.787440" PMx_abs="0.847258" NOx_abs="23.170180" fuel_abs="26.601364" electricity_abs="0"
            CO_normed="1416.407364" CO2_normed="169215.647392" HC_normed="10.356370" PMx_normed="2.316741" NOx_normed="63.356512" fuel_normed="72.738736" electricity_normed="0"
            traveltime="0.02" CO_perVeh="0.384463" CO2_perVeh="45.931165" HC_perVeh="0.002811" PMx_perVeh="0.000629" NOx_perVeh="0.017197" fuel_perVeh="0.019744" electricity_perVeh="0"/>
        <edge id=":1110673617_0" sampledSeconds="245.57" CO_abs="6355.471062" CO2_abs="764206.659549" HC_abs="47.236619" PMx_abs="13.788018" NOx_abs="289.869485" fuel_abs="328.497194" electricity_abs="0"
            CO_normed="16219.832570" CO2_normed="1950336.009058" HC_normed="120.552835" PMx_normed="35.188475" NOx_normed="739.777504" fuel_normed="838.359492" electricity_normed="0"
            traveltime="0.01" CO_perVeh="0.378310" CO2_perVeh="45.489416" HC_perVeh="0.002812" PMx_perVeh="0.000821" NOx_perVeh="0.017254" fuel_perVeh="0.019554" electricity_perVeh="0"/>
        <edge id=":1110673621_0" sampledSeconds="25.92" CO_abs="577.226563" CO2_abs="62082.309428" HC_abs="4.057052" PMx_abs="0.930871" NOx_abs="23.802478" fuel_abs="26.686509" electricity_abs="0"
            CO_normed="1767.771694" CO2_normed="190128.723045" HC_normed="12.424830" PMx_normed="2.850818" NOx_normed="72.895722" fuel_normed="81.728144" electricity_normed="0"
            traveltime="0.02" CO_perVeh="0.437293" CO2_perVeh="47.032053" HC_perVeh="0.003074" PMx_perVeh="0.000705" NOx_perVeh="0.018032" fuel_perVeh="0.020217" electricity_perVeh="0"/>
        <edge id=":1110673630_0" sampledSeconds="54.38" CO_abs="214.767397" CO2_abs="20979.418434" HC_abs="1.454000" PMx_abs="0.257662" NOx_abs="7.768340" fuel_abs="9.018243" electricity_abs="0"
            CO_normed="11.728439" CO2_normed="1145.685212" HC_normed="0.079403" PMx_normed="0.014071" NOx_normed="0.424229" fuel_normed="0.492486" electricity_normed="0"
            traveltime="1.27" CO_perVeh="5.013051" CO2_perVeh="489.696734" HC_perVeh="0.033939" PMx_perVeh="0.006014" NOx_perVeh="0.181327" fuel_perVeh="0.210502" electricity_perVeh="0"/>
        <edge id=":1110673630_1" sampledSeconds="7.37" CO_abs="0" CO2_abs="0" HC_abs="0" PMx_abs="0" NOx_abs="0" fuel_abs="0" electricity_abs="0"
            CO_normed="0" CO2_normed="0" HC_normed="0" PMx_normed="0" NOx_normed="0" fuel_normed="0" electricity_normed="0"
            traveltime="1.04" CO_perVeh="0" CO2_perVeh="0" HC_perVeh="0" PMx_perVeh="0" NOx_perVeh="0" fuel_perVeh="0" electricity_perVeh="0"/>
        <edge id=":1110673650_0" sampledSeconds="142.96" CO_abs="2348.729197" CO2_abs="289969.723529" HC_abs="17.315393" PMx_abs="4.035562" NOx_abs="108.681779" fuel_abs="124.645715" electricity_abs="0"
            CO_normed="5994.204672" CO2_normed="740033.322491" HC_normed="44.190710" PMx_normed="10.299180" NOx_normed="277.367364" fuel_normed="318.109012" electricity_normed="0"
            traveltime="0.02" CO_perVeh="0.377104" CO2_perVeh="46.556552" HC_perVeh="0.002780" PMx_perVeh="0.000648" NOx_perVeh="0.017450" fuel_perVeh="0.020013" electricity_perVeh="0"/>
        <edge id=":1110673655_0" sampledSeconds="45.22" CO_abs="804.735025" CO2_abs="87669.246819" HC_abs="5.658190" PMx_abs="1.255765" NOx_abs="33.266090" fuel_abs="37.685306" electricity_abs="0"
            CO_normed="2053.768673" CO2_normed="223741.165851" HC_normed="14.440297" PMx_normed="3.204845" NOx_normed="84.898571" fuel_normed="96.176876" electricity_normed="0"
            traveltime="0.02" CO_perVeh="0.430685" CO2_perVeh="46.919586" HC_perVeh="0.003028" PMx_perVeh="0.000672" NOx_perVeh="0.017804" fuel_perVeh="0.020169" electricity_perVeh="0"/>
        <edge id=":1110673663_0" sampledSeconds="108.89" CO_abs="1856.254006" CO2_abs="216481.379056" HC_abs="13.426372" PMx_abs="3.060460" NOx_abs="81.669280" fuel_abs="93.056182" electricity_abs="0"
            CO_normed="86.764763" CO2_normed="10118.742039" HC_normed="0.627574" PMx_normed="0.143052" NOx_normed="3.817374" fuel_normed="4.349619" electricity_normed="0"
            traveltime="1.28" CO_perVeh="21.802579" CO2_perVeh="2542.675923" HC_perVeh="0.157699" PMx_perVeh="0.035947" NOx_perVeh="0.959244" fuel_perVeh="1.092989" electricity_perVeh="0"/>
        <edge id=":1110673663_1" sampledSeconds="154.48" CO_abs="2892.153664" CO2_abs="337030.532283" HC_abs="20.913483" PMx_abs="4.884228" NOx_abs="127.740822" fuel_abs="144.874994" electricity_abs="0"
            CO_normed="135.349900" CO2_normed="15772.692006" HC_normed="0.978730" PMx_normed="0.228577" NOx_normed="5.978143" fuel_normed="6.780005" electricity_normed="0"
            traveltime="1.25" CO_perVeh="23.398504" CO2_perVeh="2726.691327" HC_perVeh="0.169197" PMx_perVeh="0.039515" NOx_perVeh="1.033467" fuel_perVeh="1.172088" electricity_perVeh="0"/>
        <edge id=":1110673666_0" sampledSeconds="191.25" CO_abs="4338.526257" CO2_abs="337586.090530" HC_abs="27.470281" PMx_abs="4.655305" NOx_abs="129.404780" fuel_abs="145.115107" electricity_abs="0"
            CO_normed="271.603679" CO2_normed="21133.818005" HC_normed="1.719715" PMx_normed="0.291435" NOx_normed="8.101095" fuel_normed="9.084605" electricity_normed="0"