<?xml version="1.0" encoding="UTF-8"?>

<!-- generated on Mon Nov  9 23:44:39 2020 by Eclipse SUMO sumo Version 1.7.0
<configuration xmlns:xsi="http://www.w3.org/2001/XMLSchema-instance" xsi:noNamespaceSchemaLocation="http://sumo.dlr.de/xsd/sumoConfiguration.xsd">

    <input>
        <net-file value="../dataSets/Porto/6AM7AM_Routing_SaoBento/Porto.net.xml"/>
        <route-files value="../results/Porto/6AM7AM_Routing_SaoBento/cost_PMx-length/solution16/Porto.rou.xml"/>
        <additional-files value="moreOutputInfo.xml"/>
    </input>

    <output>
        <emission-output.precision value="6"/>
        <tripinfo-output value="../results/Porto/6AM7AM_Routing_SaoBento/cost_PMx-length/solution16/Porto-tripinfo"/>
    </output>

    <processing>
        <collision.action value="warn"/>
        <time-to-teleport value="-1"/>
    </processing>

    <emissions>
        <device.emissions.probability value="1"/>
    </emissions>

    <gui_only>
        <quit-on-end value="true"/>
        <start value="true"/>
    </gui_only>

</configuration>
-->

<meandata xmlns:xsi="http://www.w3.org/2001/XMLSchema-instance" xsi:noNamespaceSchemaLocation="http://sumo.dlr.de/xsd/meandata_file.xsd">
    <interval begin="0.00" end="4699.00" id="emissions-detector">
        <edge id=":1092997347_0" sampledSeconds="319.97" CO_abs="40815.231582" CO2_abs="1594574.645280" HC_abs="223.525506" PMx_abs="32.616768" NOx_abs="692.877424" fuel_abs="685.445310" electricity_abs="0"
            CO_normed="71066.780986" CO2_normed="2776446.015113" HC_normed="389.198776" PMx_normed="56.791757" NOx_normed="1206.426283" fuel_normed="1193.485614" electricity_normed="0"
            traveltime="0.08" CO_perVeh="9.830306" CO2_perVeh="384.051636" HC_perVeh="0.053836" PMx_perVeh="0.007856" NOx_perVeh="0.166879" fuel_perVeh="0.165089" electricity_perVeh="0"/>
        <edge id=":1103427051_0" sampledSeconds="11.27" CO_abs="836.248082" CO2_abs="46126.945017" HC_abs="4.901537" PMx_abs="0.901523" NOx_abs="19.675649" fuel_abs="19.827950" electricity_abs="0"
            CO_normed="2209.195717" CO2_normed="121857.916990" HC_normed="12.948853" PMx_normed="2.381639" NOx_normed="51.979025" fuel_normed="52.381373" electricity_normed="0"
            traveltime="0.03" CO_perVeh="2.291307" CO2_perVeh="126.387132" HC_perVeh="0.013430" PMx_perVeh="0.002470" NOx_perVeh="0.053911" fuel_perVeh="0.054328" electricity_perVeh="0"/>
        <edge id=":1105984386_0" sampledSeconds="36.75" CO_abs="597.680479" CO2_abs="48992.886269" HC_abs="3.830642" PMx_abs="0.614145" NOx_abs="18.359241" fuel_abs="21.060202" electricity_abs="0"
            CO_normed="47.157079" CO2_normed="3865.546049" HC_normed="0.302238" PMx_normed="0.048456" NOx_normed="1.448547" fuel_normed="1.661653" electricity_normed="0"
            traveltime="0.95" CO_perVeh="15.436423" CO2_perVeh="1265.349840" HC_perVeh="0.098935" PMx_perVeh="0.015862" NOx_perVeh="0.474168" fuel_perVeh="0.543926" electricity_perVeh="0"/>
        <edge id=":1105984390_0" sampledSeconds="37.09" CO_abs="85.946433" CO2_abs="5904.935667" HC_abs="0.523426" PMx_abs="0.069107" NOx_abs="2.196481" fuel_abs="2.538328" electricity_abs="0"
            CO_normed="5.242462" CO2_normed="360.182482" HC_normed="0.031927" PMx_normed="0.004215" NOx_normed="0.133978" fuel_normed="0.154830" electricity_normed="0"
            traveltime="1.04" CO_perVeh="2.398541" CO2_perVeh="164.791343" HC_perVeh="0.014607" PMx_perVeh="0.001929" NOx_perVeh="0.061298" fuel_perVeh="0.070838" electricity_perVeh="0"/>
        <edge id=":1105984390_1" sampledSeconds="646.96" CO_abs="13702.011995" CO2_abs="1763654.032794" HC_abs="104.667774" PMx_abs="31.296702" NOx_abs="660.817743" fuel_abs="758.114001" electricity_abs="0"
            CO_normed="799.496695" CO2_normed="102907.191416" HC_normed="6.107245" PMx_normed="1.826127" NOx_normed="38.557958" fuel_normed="44.235083" electricity_normed="0"
            traveltime="0.64" CO_perVeh="13.487668" CO2_perVeh="1736.064761" HC_perVeh="0.103030" PMx_perVeh="0.030807" NOx_perVeh="0.650480" fuel_perVeh="0.746255" electricity_perVeh="0"/>
        <edge id=":1105984395_0" sampledSeconds="14.53" CO_abs="218.068797" CO2_abs="18751.265530" HC_abs="1.418597" PMx_abs="0.238170" NOx_abs="7.033570" fuel_abs="8.060452" electricity_abs="0"
            CO_normed="181.594527" CO2_normed="15614.921748" HC_normed="1.181322" PMx_normed="0.198334" NOx_normed="5.857133" fuel_normed="6.712258" electricity_normed="0"
            traveltime="0.09" CO_perVeh="1.360896" CO2_perVeh="117.020515" HC_perVeh="0.008853" PMx_perVeh="0.001486" NOx_perVeh="0.043894" fuel_perVeh="0.050303" electricity_perVeh="0"/>
        <edge id=":1105984398_0" sampledSeconds="37.30" CO_abs="2510.753373" CO2_abs="173316.989704" HC_abs="15.536730" PMx_abs="3.197590" NOx_abs="71.913270" fuel_abs="74.501203" electricity_abs="0"
            CO_normed="159.101696" CO2_normed="10982.770087" HC_normed="0.984533" PMx_normed="0.202625" NOx_normed="4.557008" fuel_normed="4.721000" electricity_normed="0"
            traveltime="1.08" CO_perVeh="72.901374" CO2_perVeh="5032.372707" HC_perVeh="0.451119" PMx_perVeh="0.092844" NOx_perVeh="2.088049" fuel_perVeh="2.163191" electricity_perVeh="0"/>
        <edge id=":1105984398_1" sampledSeconds="453.87" CO_abs="7990.128648" CO2_abs="970958.750699" HC_abs="58.563856" PMx_abs="13.633596" NOx_abs="364.873008" fuel_abs="417.373987" electricity_abs="0"
            CO_normed="490.104161" CO2_normed="59557.354375" HC_normed="3.592231" PMx_normed="0.836267" NOx_normed="22.380839" fuel_normed="25.601181" electricity_normed="0"
            traveltime="0.96" CO_perVeh="16.840981" CO2_perVeh="2046.512474" HC_perVeh="0.123436" PMx_perVeh="0.028736" NOx_perVeh="0.769051" fuel_perVeh="0.879709" electricity_perVeh="0"/>
        <edge id=":1106006327_0" sampledSeconds="38.27" CO_abs="5131.034826" CO2_abs="167023.250948" HC_abs="27.293617" PMx_abs="3.474370" NOx_abs="73.057358" fuel_abs="71.797399" electricity_abs="0"
            CO_normed="443.678410" CO2_normed="14442.429839" HC_normed="2.360067" PMx_normed="0.300427" NOx_normed="6.317239" fuel_normed="6.208291" electricity_normed="0"
            traveltime="2.08" CO_perVeh="278.355183" CO2_perVeh="9060.898870" HC_perVeh="1.480660" PMx_perVeh="0.188482" NOx_perVeh="3.963312" fuel_perVeh="3.894961" electricity_perVeh="0"/>
        <edge id=":1106006327_1" sampledSeconds="160.16" CO_abs="21653.380347" CO2_abs="727305.357664" HC_abs="115.738533" PMx_abs="15.162845" NOx_abs="318.252764" fuel_abs="312.642267" electricity_abs="0"
            CO_normed="1632.785189" CO2_normed="54842.865034" HC_normed="8.727328" PMx_normed="1.143363" NOx_normed="23.998027" fuel_normed="23.574964" electricity_normed="0"
            traveltime="2.27" CO_perVeh="307.397642" CO2_perVeh="10325.036935" HC_perVeh="1.643058" PMx_perVeh="0.215256" NOx_perVeh="4.518008" fuel_perVeh="4.438360" electricity_perVeh="0"/>
        <edge id=":1106006327_2" sampledSeconds="0.00" CO_abs="0" CO2_abs="0" HC_abs="0" PMx_abs="0" NOx_abs="0" fuel_abs="0" electricity_abs="0"
            CO_normed="0" CO2_normed="0" HC_normed="0" PMx_normed="0" NOx_normed="0" fuel_normed="0" electricity_normed="0"/>
        <edge id=":1106006327_3" sampledSeconds="0.00" CO_abs="0" CO2_abs="0" HC_abs="0" PMx_abs="0" NOx_abs="0" fuel_abs="0" electricity_abs="0"
            CO_normed="0" CO2_normed="0" HC_normed="0" PMx_normed="0" NOx_normed="0" fuel_normed="0" electricity_normed="0"/>
        <edge id=":1107381198_0" sampledSeconds="0.00" CO_abs="0" CO2_abs="0" HC_abs="0" PMx_abs="0" NOx_abs="0" fuel_abs="0" electricity_abs="0"
            CO_normed="0" CO2_normed="0" HC_normed="0" PMx_normed="0" NOx_normed="0" fuel_normed="0" electricity_normed="0"/>
        <edge id=":1107381198_1" sampledSeconds="35.18" CO_abs="1589.056287" CO2_abs="67685.978268" HC_abs="8.796104" PMx_abs="1.160838" NOx_abs="27.968746" fuel_abs="29.095775" electricity_abs="0"
            CO_normed="132.759926" CO2_normed="5654.919543" HC_normed="0.734883" PMx_normed="0.096984" NOx_normed="2.336688" fuel_normed="2.430847" electricity_normed="0"
            traveltime="1.45" CO_perVeh="65.425854" CO2_perVeh="2786.819418" HC_perVeh="0.362160" PMx_perVeh="0.047795" NOx_perVeh="1.151551" fuel_perVeh="1.197954" electricity_perVeh="0"/>
        <edge id=":1110338277_0" sampledSeconds="97.24" CO_abs="1659.659391" CO2_abs="186246.085016" HC_abs="11.811432" PMx_abs="2.659864" NOx_abs="70.607270" fuel_abs="80.059299" electricity_abs="0"
            CO_normed="4541.067862" CO2_normed="509596.195283" HC_normed="32.317786" PMx_normed="7.277772" NOx_normed="193.191691" fuel_normed="219.053808" electricity_normed="0"
            traveltime="0.02" CO_perVeh="0.374035" CO2_perVeh="41.973989" HC_perVeh="0.002662" PMx_perVeh="0.000599" NOx_perVeh="0.015913" fuel_perVeh="0.018043" electricity_perVeh="0"/>
        <edge id=":1110338293_0" sampledSeconds="123.48" CO_abs="6529.254005" CO2_abs="446761.117084" HC_abs="40.240031" PMx_abs="7.903600" NOx_abs="183.364749" fuel_abs="192.043120" electricity_abs="0"
            CO_normed="16673.983413" CO2_normed="1140909.428603" HC_normed="102.762369" PMx_normed="20.183699" NOx_normed="468.264947" fuel_normed="490.427205" electricity_normed="0"
            traveltime="0.03" CO_perVeh="1.497593" CO2_perVeh="102.472063" HC_perVeh="0.009230" PMx_perVeh="0.001813" NOx_perVeh="0.042058" fuel_perVeh="0.044048" electricity_perVeh="0"/>
        <edge id=":1110338295_0" sampledSeconds="0.00" CO_abs="0" CO2_abs="0" HC_abs="0" PMx_abs="0" NOx_abs="0" fuel_abs="0" electricity_abs="0"
            CO_normed="0" CO2_normed="0" HC_normed="0" PMx_normed="0" NOx_normed="0" fuel_normed="0" electricity_normed="0"/>
        <edge id=":1110673403_0" sampledSeconds="148.01" CO_abs="2076.709463" CO2_abs="275958.492998" HC_abs="15.712271" PMx_abs="3.671320" NOx_abs="102.124476" fuel_abs="118.623021" electricity_abs="0"
            CO_normed="5303.365302" CO2_normed="704724.817189" HC_normed="40.124973" PMx_normed="9.375577" NOx_normed="260.798833" fuel_normed="302.931741" electricity_normed="0"
            traveltime="0.02" CO_perVeh="0.324655" CO2_perVeh="43.140984" HC_perVeh="0.002456" PMx_perVeh="0.000574" NOx_perVeh="0.015965" fuel_perVeh="0.018545" electricity_perVeh="0"/>
        <edge id=":1110673412_0" sampledSeconds="252.90" CO_abs="44690.520230" CO2_abs="3049995.798846" HC_abs="278.105852" PMx_abs="67.000384" NOx_abs="1310.862394" fuel_abs="1311.042968" electricity_abs="0"
            CO_normed="118063.177659" CO2_normed="8057462.611888" HC_normed="734.698554" PMx_normed="177.001256" NOx_normed="3463.029271" fuel_normed="3463.506310" electricity_normed="0"
            traveltime="0.02" CO_perVeh="2.752415" CO2_perVeh="187.844190" HC_perVeh="0.017128" PMx_perVeh="0.004126" NOx_perVeh="0.080734" fuel_perVeh="0.080745" electricity_perVeh="0"/>
        <edge id=":1110673414_0" sampledSeconds="0.00" CO_abs="0" CO2_abs="0" HC_abs="0" PMx_abs="0" NOx_abs="0" fuel_abs="0" electricity_abs="0"
            CO_normed="0" CO2_normed="0" HC_normed="0" PMx_normed="0" NOx_normed="0" fuel_normed="0" electricity_normed="0"/>
        <edge id=":1110673414_1" sampledSeconds="249.38" CO_abs="15749.218323" CO2_abs="611754.828720" HC_abs="85.887042" PMx_abs="11.098429" NOx_abs="256.979842" fuel_abs="262.971696" electricity_abs="0"
            CO_normed="1336.190282" CO2_normed="51902.312888" HC_normed="7.286802" PMx_normed="0.941609" NOx_normed="21.802604" fuel_normed="22.310963" electricity_normed="0"
            traveltime="1.56" CO_perVeh="98.289752" CO2_perVeh="3817.918380" HC_perVeh="0.536015" PMx_perVeh="0.069265" NOx_perVeh="1.603793" fuel_perVeh="1.641188" electricity_perVeh="0"/>
        <edge id=":1110673417_0" sampledSeconds="29.72" CO_abs="489.402845" CO2_abs="57293.443019" HC_abs="3.545429" PMx_abs="0.803249" NOx_abs="21.591446" fuel_abs="24.628033" electricity_abs="0"
            CO_normed="1339.076888" CO2_normed="156763.137193" HC_normed="9.700807" PMx_normed="2.197805" NOx_normed="59.077315" fuel_normed="67.385857" electricity_normed="0"
            traveltime="0.02" CO_perVeh="0.363241" CO2_perVeh="42.523960" HC_perVeh="0.002631" PMx_perVeh="0.000596" NOx_perVeh="0.016025" fuel_perVeh="0.018279" electricity_perVeh="0"/>
        <edge id=":1110673446_0" sampledSeconds="333.37" CO_abs="3348.042664" CO2_abs="259009.369035" HC_abs="21.422115" PMx_abs="4.930472" NOx_abs="107.288799" fuel_abs="111.336054" electricity_abs="0"
            CO_normed="8550.013187" CO2_normed="661441.248867" HC_normed="54.706402" PMx_normed="12.591119" NOx_normed="273.987143" fuel_normed="284.322760" electricity_normed="0"
            traveltime="0.02" CO_perVeh="0.228558" CO2_perVeh="17.681566" HC_perVeh="0.001462" PMx_perVeh="0.000337" NOx_perVeh="0.007324" fuel_perVeh="0.007600" electricity_perVeh="0"/>
        <edge id=":1110673451_0" sampledSeconds="37.88" CO_abs="280.334588" CO2_abs="19710.316738" HC_abs="1.724150" PMx_abs="0.264292" NOx_abs="7.540921" fuel_abs="8.472728" electricity_abs="0"
            CO_normed="795.444672" CO2_normed="55927.691674" HC_normed="4.892246" PMx_normed="0.749923" NOx_normed="21.397236" fuel_normed="24.041224" electricity_normed="0"
            traveltime="0.03" CO_perVeh="0.201037" CO2_perVeh="14.134888" HC_perVeh="0.001236" PMx_perVeh="0.000190" NOx_perVeh="0.005408" fuel_perVeh="0.006076" electricity_perVeh="0"/>
        <edge id=":1110673464_0" sampledSeconds="324.35" CO_abs="426.440485" CO2_abs="34097.670929" HC_abs="2.713490" PMx_abs="0.428074" NOx_abs="12.782725" fuel_abs="14.657316" electricity_abs="0"
            CO_normed="23.137732" CO2_normed="1850.065371" HC_normed="0.147228" PMx_normed="0.023226" NOx_normed="0.693563" fuel_normed="0.795274" electricity_normed="0"
            traveltime="1.17" CO_perVeh="1.541526" CO2_perVeh="123.258582" HC_perVeh="0.009809" PMx_perVeh="0.001547" NOx_perVeh="0.046208" fuel_perVeh="0.052984" electricity_perVeh="0"/>
        <edge id=":1110673464_1" sampledSeconds="718.00" CO_abs="16113.429983" CO2_abs="2078568.779306" HC_abs="122.944169" PMx_abs="36.785674" NOx_abs="778.678824" fuel_abs="893.481436" electricity_abs="0"
            CO_normed="856.684819" CO2_normed="110508.955654" HC_normed="6.536436" PMx_normed="1.955743" NOx_normed="41.399151" fuel_normed="47.502734" electricity_normed="0"
            traveltime="0.70" CO_perVeh="15.706708" CO2_perVeh="2026.103264" HC_perVeh="0.119841" PMx_perVeh="0.035857" NOx_perVeh="0.759024" fuel_perVeh="0.870929" electricity_perVeh="0"/>
        <edge id=":1110673479_0" sampledSeconds="133.68" CO_abs="6856.952064" CO2_abs="475213.576841" HC_abs="42.381425" PMx_abs="8.282339" NOx_abs="194.152308" fuel_abs="204.273715" electricity_abs="0"
            CO_normed="17510.837364" CO2_normed="1213569.466290" HC_normed="108.230921" PMx_normed="21.150898" NOx_normed="495.813514" fuel_normed="521.660902" electricity_normed="0"
            traveltime="0.03" CO_perVeh="1.444489" CO2_perVeh="100.108714" HC_perVeh="0.008928" PMx_perVeh="0.001745" NOx_perVeh="0.040900" fuel_perVeh="0.043032" electricity_perVeh="0"/>
        <edge id=":1110673511_0" sampledSeconds="11.80" CO_abs="170.280236" CO2_abs="20232.545174" HC_abs="1.242797" PMx_abs="0.281172" NOx_abs="7.601106" fuel_abs="8.697120" electricity_abs="0"
            CO_normed="434.850570" CO2_normed="51668.555457" HC_normed="3.173774" PMx_normed="0.718038" NOx_normed="19.411209" fuel_normed="22.210139" electricity_normed="0"
            traveltime="0.02" CO_perVeh="0.337189" CO2_perVeh="40.064446" HC_perVeh="0.002461" PMx_perVeh="0.000557" NOx_perVeh="0.015052" fuel_perVeh="0.017222" electricity_perVeh="0"/>
        <edge id=":1110673517_0" sampledSeconds="17.24" CO_abs="781.678764" CO2_abs="54078.798090" HC_abs="4.835033" PMx_abs="0.971448" NOx_abs="22.260193" fuel_abs="23.246090" electricity_abs="0"
            CO_normed="1996.200292" CO2_normed="138102.910637" HC_normed="12.347393" PMx_normed="2.480822" NOx_normed="56.846630" fuel_normed="59.364350" electricity_normed="0"
            traveltime="0.03" CO_perVeh="1.255037" CO2_perVeh="86.827077" HC_perVeh="0.007763" PMx_perVeh="0.001560" NOx_perVeh="0.035740" fuel_perVeh="0.037323" electricity_perVeh="0"/>
        <edge id=":1110673534_0" sampledSeconds="474.34" CO_abs="3373.965068" CO2_abs="298137.844917" HC_abs="22.188783" PMx_abs="4.049548" NOx_abs="113.218766" fuel_abs="128.157615" electricity_abs="0"
            CO_normed="166.980855" CO2_normed="14755.135675" HC_normed="1.098145" PMx_normed="0.200416" NOx_normed="5.603308" fuel_normed="6.342647" electricity_normed="0"
            traveltime="1.43" CO_perVeh="10.164404" CO2_perVeh="898.169834" HC_perVeh="0.066846" PMx_perVeh="0.012200" NOx_perVeh="0.341083" fuel_perVeh="0.386088" electricity_perVeh="0"/>
        <edge id=":1110673534_1" sampledSeconds="200.44" CO_abs="2805.742572" CO2_abs="375055.478404" HC_abs="21.189542" PMx_abs="4.981052" NOx_abs="138.593254" fuel_abs="161.220670" electricity_abs="0"
            CO_normed="135.021154" CO2_normed="18048.848764" HC_normed="1.019707" PMx_normed="0.239704" NOx_normed="6.669543" fuel_normed="7.758445" electricity_normed="0"
            traveltime="1.23" CO_perVeh="17.150622" CO2_perVeh="2292.596131" HC_perVeh="0.129525" PMx_perVeh="0.030448" NOx_perVeh="0.847177" fuel_perVeh="0.985491" electricity_perVeh="0"/>
        <edge id=":1110673549_0" sampledSeconds="60.14" CO_abs="102.436653" CO2_abs="9086.689763" HC_abs="0.678268" PMx_abs="0.141764" NOx_abs="3.553002" fuel_abs="3.905980" electricity_abs="0"
            CO_normed="4.911065" CO2_normed="435.638227" HC_normed="0.032518" PMx_normed="0.006797" NOx_normed="0.170340" fuel_normed="0.187262" electricity_normed="0"
            traveltime="1.25" CO_perVeh="2.134180" CO2_perVeh="189.313441" HC_perVeh="0.014131" PMx_perVeh="0.002954" NOx_perVeh="0.074024" fuel_perVeh="0.081378" electricity_perVeh="0"/>
        <edge id=":1110673549_1" sampledSeconds="639.46" CO_abs="13501.739223" CO2_abs="1812801.453136" HC_abs="104.711226" PMx_abs="31.719253" NOx_abs="675.021866" fuel_abs="779.240515" electricity_abs="0"
            CO_normed="626.147612" CO2_normed="84069.265565" HC_normed="4.856018" PMx_normed="1.470991" NOx_normed="31.304362" fuel_normed="36.137536" electricity_normed="0"
            traveltime="0.81" CO_perVeh="16.997999" CO2_perVeh="2282.224250" HC_perVeh="0.131826" PMx_perVeh="0.039933" NOx_perVeh="0.849818" fuel_perVeh="0.981024" electricity_perVeh="0"/>
        <edge id=":1110673556_0" sampledSeconds="414.64" CO_abs="51722.021852" CO2_abs="2601984.857199" HC_abs="297.437510" PMx_abs="52.752940" NOx_abs="1122.125457" fuel_abs="1118.480137" electricity_abs="0"
            CO_normed="1838.760961" CO2_normed="92502.729128" HC_normed="10.574151" PMx_normed="1.875411" NOx_normed="39.892495" fuel_normed="39.762901" electricity_normed="0"
            traveltime="2.57" CO_perVeh="321.065091" CO2_perVeh="16151.853230" HC_perVeh="1.846347" PMx_perVeh="0.327465" NOx_perVeh="6.965608" fuel_perVeh="6.942979" electricity_perVeh="0"/>
        <edge id=":1110673556_2" sampledSeconds="247.81" CO_abs="23881.332621" CO2_abs="1031499.469223" HC_abs="132.955166" PMx_abs="19.834310" NOx_abs="439.489611" fuel_abs="443.401134" electricity_abs="0"
            CO_normed="887.723305" CO2_normed="38343.175096" HC_normed="4.942245" PMx_normed="0.737286" NOx_normed="16.336826" fuel_normed="16.482226" electricity_normed="0"
            traveltime="3.01" CO_perVeh="289.675988" CO2_perVeh="12511.890897" HC_perVeh="1.612721" PMx_perVeh="0.240586" NOx_perVeh="5.330925" fuel_perVeh="5.378371" electricity_perVeh="0"/>
        <edge id=":1110673556_3" sampledSeconds="382.33" CO_abs="32307.578654" CO2_abs="1144247.538443" HC_abs="173.775660" PMx_abs="22.034390" NOx_abs="489.265504" fuel_abs="491.871872" electricity_abs="0"
            CO_normed="2731.953282" CO2_normed="96758.437129" HC_normed="14.694601" PMx_normed="1.863245" NOx_normed="41.372661" fuel_normed="41.593057" electricity_normed="0"
            traveltime="1.77" CO_perVeh="149.262457" CO2_perVeh="5286.474742" HC_perVeh="0.802851" PMx_perVeh="0.101800" NOx_perVeh="2.260428" fuel_perVeh="2.272470" electricity_perVeh="0"/>
        <edge id=":1110673556_4" sampledSeconds="162.95" CO_abs="16976.642094" CO2_abs="684858.437889" HC_abs="93.362024" PMx_abs="13.294036" NOx_abs="293.007753" fuel_abs="294.394487" electricity_abs="0"
            CO_normed="877.016366" CO2_normed="35379.909334" HC_normed="4.823099" PMx_normed="0.686772" NOx_normed="15.136833" fuel_normed="15.208472" electricity_normed="0"
            traveltime="2.37" CO_perVeh="247.273122" CO2_perVeh="9975.299200" HC_perVeh="1.359864" PMx_perVeh="0.193634" NOx_perVeh="4.267802" fuel_perVeh="4.288000" electricity_perVeh="0"/>
        <edge id=":1110673556_5" sampledSeconds="24.19" CO_abs="2183.883945" CO2_abs="90812.615260" HC_abs="12.077022" PMx_abs="1.769132" NOx_abs="38.893268" fuel_abs="39.036808" electricity_abs="0"
            CO_normed="157.247947" CO2_normed="6538.853550" HC_normed="0.869591" PMx_normed="0.127384" NOx_normed="2.800463" fuel_normed="2.810799" electricity_normed="0"
            traveltime="1.67" CO_perVeh="150.984569" CO2_perVeh="6278.403030" HC_perVeh="0.834955" PMx_perVeh="0.122310" NOx_perVeh="2.688917" fuel_perVeh="2.698841" electricity_perVeh="0"/>
        <edge id=":1110673556_6" sampledSeconds="307.84" CO_abs="37043.962432" CO2_abs="1903210.219299" HC_abs="213.947823" PMx_abs="38.288213" NOx_abs="818.226358" fuel_abs="818.107154" electricity_abs="0"
            CO_normed="1350.149249" CO2_normed="69366.711316" HC_normed="7.797802" PMx_normed="1.395499" NOx_normed="29.822072" fuel_normed="29.817727" electricity_normed="0"
            traveltime="2.44" CO_perVeh="293.358383" CO2_perVeh="15071.893942" HC_perVeh="1.694295" PMx_perVeh="0.303212" NOx_perVeh="6.479695" fuel_perVeh="6.478751" electricity_perVeh="0"/>
        <edge id=":1110673561_0" sampledSeconds="100.26" CO_abs="9624.880548" CO2_abs="689025.946962" HC_abs="60.423026" PMx_abs="13.980881" NOx_abs="291.678509" fuel_abs="296.179365" electricity_abs="0"
            CO_normed="440.754204" CO2_normed="31552.711856" HC_normed="2.766965" PMx_normed="0.640229" NOx_normed="13.356896" fuel_normed="13.563005" electricity_normed="0"
            traveltime="1.18" CO_perVeh="113.582932" CO2_perVeh="8131.174943" HC_perVeh="0.713050" PMx_perVeh="0.164988" NOx_perVeh="3.442090" fuel_perVeh="3.495204" electricity_perVeh="0"/>
        <edge id=":1110673561_1" sampledSeconds="1314.20" CO_abs="120468.952340" CO2_abs="8346590.574124" HC_abs="750.571188" PMx_abs="174.651608" NOx_abs="3569.608811" fuel_abs="3587.795902" electricity_abs="0"
            CO_normed="5378.422384" CO2_normed="372639.495122" HC_normed="33.509787" PMx_normed="7.797446" NOx_normed="159.367734" fuel_normed="160.179710" electricity_normed="0"
            traveltime="1.19" CO_perVeh="109.276608" CO2_perVeh="7571.138393" HC_perVeh="0.680838" PMx_perVeh="0.158425" NOx_perVeh="3.237969" fuel_perVeh="3.254466" electricity_perVeh="0"/>
        <edge id=":1110673562_0" sampledSeconds="104.86" CO_abs="2062.767873" CO2_abs="163857.506267" HC_abs="13.120198" PMx_abs="2.177743" NOx_abs="62.225171" fuel_abs="70.436051" electricity_abs="0"
            CO_normed="5853.069086" CO2_normed="464942.913433" HC_normed="37.228341" PMx_normed="6.179309" NOx_normed="176.562873" fuel_normed="199.861108" electricity_normed="0"
            traveltime="0.03" CO_perVeh="0.525809" CO2_perVeh="41.768024" HC_perVeh="0.003344" PMx_perVeh="0.000555" NOx_perVeh="0.015861" fuel_perVeh="0.017954" electricity_perVeh="0"/>
        <edge id=":1110673564_0" sampledSeconds="28.68" CO_abs="481.683407" CO2_abs="59695.293618" HC_abs="3.549976" PMx_abs="0.791185" NOx_abs="22.170592" fuel_abs="25.660535" electricity_abs="0"
            CO_normed="3690.275093" CO2_normed="457337.852791" HC_normed="27.197092" PMx_normed="6.061433" NOx_normed="169.853438" fuel_normed="196.590604" electricity_normed="0"
            traveltime="7.884794e-03" CO_perVeh="0.132422" CO2_perVeh="16.411077" HC_perVeh="0.000976" PMx_perVeh="0.000218" NOx_perVeh="0.006095" fuel_perVeh="0.007054" electricity_perVeh="0"/>
        <edge id=":1110673588_0" sampledSeconds="11.76" CO_abs="167.237238" CO2_abs="19253.788539" HC_abs="1.208201" PMx_abs="0.276124" NOx_abs="7.304678" fuel_abs="8.276384" electricity_abs="0"
            CO_normed="512.495472" CO2_normed="59002.884648" HC_normed="3.702510" PMx_normed="0.846177" NOx_normed="22.385052" fuel_normed="25.362827" electricity_normed="0"
            traveltime="0.02" CO_perVeh="0.278757" CO2_perVeh="32.092907" HC_perVeh="0.002014" PMx_perVeh="0.000460" NOx_perVeh="0.012176" fuel_perVeh="0.013795" electricity_perVeh="0"/>
        <edge id=":1110673601_0" sampledSeconds="29.72" CO_abs="527.438107" CO2_abs="59065.703637" HC_abs="3.757070" PMx_abs="0.845152" NOx_abs="22.369638" fuel_abs="25.389846" electricity_abs="0"
            CO_normed="1443.146858" CO2_normed="161612.298280" HC_normed="10.279886" PMx_normed="2.312457" NOx_normed="61.206561" fuel_normed="69.470286" electricity_normed="0"
            traveltime="0.02" CO_perVeh="0.391472" CO2_perVeh="43.839356" HC_perVeh="0.002789" PMx_perVeh="0.000627" NOx_perVeh="0.016603" fuel_perVeh="0.018845" electricity_perVeh="0"/>
        <edge id=":1110673617_0" sampledSeconds="240.29" CO_abs="6463.694391" CO2_abs="770625.222802" HC_abs="47.961936" PMx_abs="13.957283" NOx_abs="292.754941" fuel_abs="331.256206" electricity_abs="0"
            CO_normed="16506.561542" CO2_normed="1967972.477894" HC_normed="122.482068" PMx_normed="35.643199" NOx_normed="747.618492" fuel_normed="845.940514" electricity_normed="0"
            traveltime="0.01" CO_perVeh="0.392435" CO2_perVeh="46.787568" HC_perVeh="0.002912" PMx_perVeh="0.000847" NOx_perVeh="0.017774" fuel_perVeh="0.020112" electricity_perVeh="0"/>
        <edge id=":1110673621_0" sampledSeconds="25.76" CO_abs="410.293998" CO2_abs="48673.103833" HC_abs="2.972749" PMx_abs="0.666712" NOx_abs="18.205201" fuel_abs="20.922534" electricity_abs="0"
            CO_normed="1257.338492" CO2_normed="149157.841072" HC_normed="9.109936" PMx_normed="2.043127" NOx_normed="55.789509" fuel_normed="64.116724" electricity_normed="0"
            traveltime="0.02" CO_perVeh="0.310829" CO2_perVeh="36.873564" HC_perVeh="0.002252" PMx_perVeh="0.000505" NOx_perVeh="0.013792" fuel_perVeh="0.015850" electricity_perVeh="0"/>
        <edge id=":1110673630_0" sampledSeconds="53.83" CO_abs="432.690566" CO2_abs="35170.154682" HC_abs="2.785217" PMx_abs="0.537063" NOx_abs="13.779178" fuel_abs="15.118187" electricity_abs="0"
            CO_normed="23.644300" CO2_normed="1921.866960" HC_normed="0.152198" PMx_normed="0.029348" NOx_normed="0.752961" fuel_normed="0.826131" electricity_normed="0"
            traveltime="1.26" CO_perVeh="10.099763" CO2_perVeh="820.933619" HC_perVeh="0.065012" PMx_perVeh="0.012536" NOx_perVeh="0.321630" fuel_perVeh="0.352885" electricity_perVeh="0"/>
        <edge id=":1110673630_1" sampledSeconds="7.45" CO_abs="24.448376" CO2_abs="1624.025253" HC_abs="0.148568" PMx_abs="0.024020" NOx_abs="0.638013" fuel_abs="0.698105" electricity_abs="0"
            CO_normed="1.628731" CO2_normed="108.191214" HC_normed="0.009897" PMx_normed="0.001600" NOx_normed="0.042504" fuel_normed="0.046507" electricity_normed="0"
            traveltime="1.06" CO_perVeh="3.460386" CO2_perVeh="229.862036" HC_perVeh="0.021028" PMx_perVeh="0.003400" NOx_perVeh="0.090303" fuel_perVeh="0.098809" electricity_perVeh="0"/>
        <edge id=":1110673650_0" sampledSeconds="147.33" CO_abs="2147.098771" CO2_abs="278199.338480" HC_abs="16.110749" PMx_abs="3.745165" NOx_abs="103.346412" fuel_abs="119.586238" electricity_abs="0"
            CO_normed="5483.120930" CO2_normed="710447.342361" HC_normed="41.142582" PMx_normed="9.564159" NOx_normed="263.919332" fuel_normed="305.391542" electricity_normed="0"
            traveltime="0.02" CO_perVeh="0.335821" CO2_perVeh="43.512310" HC_perVeh="0.002520" PMx_perVeh="0.000586" NOx_perVeh="0.016164" fuel_perVeh="0.018704" electricity_perVeh="0"/>
        <edge id=":1110673655_0" sampledSeconds="44.67" CO_abs="785.152772" CO2_abs="85907.822133" HC_abs="5.553610" PMx_abs="1.220778" NOx_abs="32.584207" fuel_abs="36.928156" electricity_abs="0"
            CO_normed="2005.071985" CO2_normed="219385.798170" HC_normed="14.182448" PMx_normed="3.117544" NOx_normed="83.211425" fuel_normed="94.304718" electricity_normed="0"
            traveltime="0.02" CO_perVeh="0.420205" CO2_perVeh="45.976892" HC_perVeh="0.002972" PMx_perVeh="0.000653" NOx_perVeh="0.017439" fuel_perVeh="0.019764" electricity_perVeh="0"/>
        <edge id=":1110673663_0" sampledSeconds="108.60" CO_abs="1655.822670" CO2_abs="199898.660802" HC_abs="12.083628" PMx_abs="2.747488" NOx_abs="74.771098" fuel_abs="85.928051" electricity_abs="0"
            CO_normed="77.445642" CO2_normed="9349.600256" HC_normed="0.565172" PMx_normed="0.128505" NOx_normed="3.497171" fuel_normed="4.019001" electricity_normed="0"
            traveltime="1.28" CO_perVeh="19.448418" CO2_perVeh="2347.904074" HC_perVeh="0.141928" PMx_perVeh="0.032271" NOx_perVeh="0.878222" fuel_perVeh="1.009265" electricity_perVeh="0"/>
        <edge id=":1110673663_1" sampledSeconds="154.17" CO_abs="2519.631560" CO2_abs="312729.504534" HC_abs="18.638619" PMx_abs="4.328817" NOx_abs="117.048887" fuel_abs="134.429213" electricity_abs="0"
            CO_normed="117.991520" CO2_normed="14644.771950" HC_normed="0.872826" PMx_normed="0.202714" NOx_normed="5.481268" fuel_normed="6.295169" electricity_normed="0"
            traveltime="1.25" CO_perVeh="20.355142" CO2_perVeh="2526.422353" HC_perVeh="0.150574" PMx_perVeh="0.034971" NOx_perVeh="0.945593" fuel_perVeh="1.086002" electricity_perVeh="0"/>
        <edge id=":1110673666_0" sampledSeconds="207.37" CO_abs="4300.064854" CO2_abs="349518.569136" HC_abs="27.535086" PMx_abs="4.605940" NOx_abs="132.421033" fuel_abs="150.244596" electricity_abs="0"