<?xml version="1.0" encoding="UTF-8"?>

<!-- generated on Tue Nov 10 03:56:31 2020 by Eclipse SUMO sumo Version 1.7.0
<configuration xmlns:xsi="http://www.w3.org/2001/XMLSchema-instance" xsi:noNamespaceSchemaLocation="http://sumo.dlr.de/xsd/sumoConfiguration.xsd">

    <input>
        <net-file value="../dataSets/Porto/8AM9AM_Routing_SaoBento/Porto.net.xml"/>
        <route-files value="../results/Porto/8AM9AM_Routing_SaoBento/cost_co-ttime/solution4/Porto.rou.xml"/>
        <additional-files value="moreOutputInfo.xml"/>
    </input>

    <output>
        <emission-output.precision value="6"/>
        <tripinfo-output value="../results/Porto/8AM9AM_Routing_SaoBento/cost_co-ttime/solution4/Porto-tripinfo"/>
    </output>

    <processing>
        <collision.action value="warn"/>
        <time-to-teleport value="-1"/>
    </processing>

    <emissions>
        <device.emissions.probability value="1"/>
    </emissions>

    <gui_only>
        <quit-on-end value="true"/>
        <start value="true"/>
    </gui_only>

</configuration>
-->

<meandata xmlns:xsi="http://www.w3.org/2001/XMLSchema-instance" xsi:noNamespaceSchemaLocation="http://sumo.dlr.de/xsd/meandata_file.xsd">
    <interval begin="0.00" end="8809.00" id="emissions-detector">
        <edge id=":1092997347_0" sampledSeconds="603.12" CO_abs="72574.923104" CO2_abs="3070745.166996" HC_abs="403.065327" PMx_abs="62.010560" NOx_abs="1328.047446" fuel_abs="1319.989497" electricity_abs="0"
            CO_normed="67407.744965" CO2_normed="2852114.728012" HC_normed="374.367944" PMx_normed="57.595541" NOx_normed="1233.493329" fuel_normed="1226.009090" electricity_normed="0"
            traveltime="0.07" CO_perVeh="8.320442" CO2_perVeh="352.049390" HC_perVeh="0.046210" PMx_perVeh="0.007109" NOx_perVeh="0.152256" fuel_perVeh="0.151332" electricity_perVeh="0"/>
        <edge id=":1103427051_0" sampledSeconds="19.46" CO_abs="1648.324780" CO2_abs="92042.755430" HC_abs="9.687964" PMx_abs="1.794000" NOx_abs="39.210339" fuel_abs="39.565135" electricity_abs="0"
            CO_normed="2322.847404" CO2_normed="129708.221430" HC_normed="13.652445" PMx_normed="2.528135" NOx_normed="55.255879" fuel_normed="55.755863" electricity_normed="0"
            traveltime="0.03" CO_perVeh="2.563354" CO2_perVeh="143.138133" HC_perVeh="0.015066" PMx_perVeh="0.002790" NOx_perVeh="0.060977" fuel_perVeh="0.061529" electricity_perVeh="0"/>
        <edge id=":1105984386_0" sampledSeconds="10.44" CO_abs="186.538576" CO2_abs="15240.187869" HC_abs="1.194208" PMx_abs="0.190130" NOx_abs="5.705713" fuel_abs="6.551186" electricity_abs="0"
            CO_normed="7.851006" CO2_normed="641.426623" HC_normed="0.050262" PMx_normed="0.008002" NOx_normed="0.240141" fuel_normed="0.275725" electricity_normed="0"
            traveltime="1.00" CO_perVeh="17.894582" CO2_perVeh="1461.986013" HC_perVeh="0.114560" PMx_perVeh="0.018239" NOx_perVeh="0.547347" fuel_perVeh="0.628453" electricity_perVeh="0"/>
        <edge id=":1105984390_0" sampledSeconds="11.24" CO_abs="16.112170" CO2_abs="1010.587295" HC_abs="0.095589" PMx_abs="0.010172" NOx_abs="0.366391" fuel_abs="0.434420" electricity_abs="0"
            CO_normed="0.524252" CO2_normed="32.882141" HC_normed="0.003110" PMx_normed="0.000331" NOx_normed="0.011922" fuel_normed="0.014135" electricity_normed="0"
            traveltime="1.17" CO_perVeh="1.670123" CO2_perVeh="104.753457" HC_perVeh="0.009908" PMx_perVeh="0.001054" NOx_perVeh="0.037979" fuel_perVeh="0.045030" electricity_perVeh="0"/>
        <edge id=":1105984390_1" sampledSeconds="2398.82" CO_abs="59781.800867" CO2_abs="7239028.667737" HC_abs="444.880559" PMx_abs="129.978769" NOx_abs="2745.915019" fuel_abs="3111.724603" electricity_abs="0"
            CO_normed="1860.716284" CO2_normed="225315.703517" HC_normed="13.846965" PMx_normed="4.045606" NOx_normed="85.466960" fuel_normed="96.852831" electricity_normed="0"
            traveltime="0.65" CO_perVeh="16.147506" CO2_perVeh="1955.315091" HC_perVeh="0.120166" PMx_perVeh="0.035108" NOx_perVeh="0.741692" fuel_perVeh="0.840500" electricity_perVeh="0"/>
        <edge id=":1105984395_0" sampledSeconds="4.25" CO_abs="55.442902" CO2_abs="3881.183050" HC_abs="0.340968" PMx_abs="0.054011" NOx_abs="1.498277" fuel_abs="1.668373" electricity_abs="0"
            CO_normed="24.628276" CO2_normed="1724.059260" HC_normed="0.151462" PMx_normed="0.023992" NOx_normed="0.665549" fuel_normed="0.741107" electricity_normed="0"
            traveltime="0.10" CO_perVeh="1.285147" CO2_perVeh="89.964435" HC_perVeh="0.007904" PMx_perVeh="0.001252" NOx_perVeh="0.034730" fuel_perVeh="0.038672" electricity_perVeh="0"/>
        <edge id=":1105984398_0" sampledSeconds="10.06" CO_abs="725.288422" CO2_abs="47778.216696" HC_abs="4.431516" PMx_abs="0.878956" NOx_abs="19.869916" fuel_abs="20.537739" electricity_abs="0"
            CO_normed="24.516605" CO2_normed="1615.026028" HC_normed="0.149797" PMx_normed="0.029711" NOx_normed="0.671654" fuel_normed="0.694228" electricity_normed="0"
            traveltime="1.15" CO_perVeh="83.244516" CO2_perVeh="5483.714352" HC_perVeh="0.508624" PMx_perVeh="0.100882" NOx_perVeh="2.280557" fuel_perVeh="2.357206" electricity_perVeh="0"/>
        <edge id=":1105984398_1" sampledSeconds="646.98" CO_abs="11851.622633" CO2_abs="1370822.805338" HC_abs="85.471031" PMx_abs="19.846598" NOx_abs="519.836100" fuel_abs="589.258092" electricity_abs="0"
            CO_normed="387.785233" CO2_normed="44853.338447" HC_normed="2.796613" PMx_normed="0.649381" NOx_normed="17.009043" fuel_normed="19.280532" electricity_normed="0"
            traveltime="0.95" CO_perVeh="17.470723" CO2_perVeh="2020.758368" HC_perVeh="0.125995" PMx_perVeh="0.029256" NOx_perVeh="0.766301" fuel_perVeh="0.868638" electricity_perVeh="0"/>
        <edge id=":1106006327_0" sampledSeconds="68.66" CO_abs="9278.059006" CO2_abs="297715.591391" HC_abs="49.252964" PMx_abs="6.217625" NOx_abs="130.352863" fuel_abs="127.977502" electricity_abs="0"
            CO_normed="427.956177" CO2_normed="13732.314722" HC_normed="2.271823" PMx_normed="0.286792" NOx_normed="6.012606" fuel_normed="5.903041" electricity_normed="0"
            traveltime="2.13" CO_perVeh="287.616258" CO2_perVeh="9229.068751" HC_perVeh="1.526823" PMx_perVeh="0.192744" NOx_perVeh="4.040889" fuel_perVeh="3.967253" electricity_perVeh="0"/>
        <edge id=":1106006327_1" sampledSeconds="684.38" CO_abs="92292.610913" CO2_abs="3075919.622882" HC_abs="492.712162" PMx_abs="64.085131" NOx_abs="1345.700987" fuel_abs="1322.227265" electricity_abs="0"
            CO_normed="3712.351712" CO2_normed="123724.915400" HC_normed="19.818714" PMx_normed="2.577742" NOx_normed="54.129093" fuel_normed="53.184893" electricity_normed="0"
            traveltime="2.30" CO_perVeh="309.803956" CO2_perVeh="10325.117658" HC_perVeh="1.653915" PMx_perVeh="0.215118" NOx_perVeh="4.517192" fuel_perVeh="4.438397" electricity_perVeh="0"/>
        <edge id=":1106006327_2" sampledSeconds="0.00" CO_abs="0" CO2_abs="0" HC_abs="0" PMx_abs="0" NOx_abs="0" fuel_abs="0" electricity_abs="0"
            CO_normed="0" CO2_normed="0" HC_normed="0" PMx_normed="0" NOx_normed="0" fuel_normed="0" electricity_normed="0"/>
        <edge id=":1106006327_3" sampledSeconds="0.00" CO_abs="0" CO2_abs="0" HC_abs="0" PMx_abs="0" NOx_abs="0" fuel_abs="0" electricity_abs="0"
            CO_normed="0" CO2_normed="0" HC_normed="0" PMx_normed="0" NOx_normed="0" fuel_normed="0" electricity_normed="0"/>
        <edge id=":1107381198_0" sampledSeconds="0.00" CO_abs="0" CO2_abs="0" HC_abs="0" PMx_abs="0" NOx_abs="0" fuel_abs="0" electricity_abs="0"
            CO_normed="0" CO2_normed="0" HC_normed="0" PMx_normed="0" NOx_normed="0" fuel_normed="0" electricity_normed="0"/>
        <edge id=":1107381198_1" sampledSeconds="102.92" CO_abs="4215.764374" CO2_abs="172527.026636" HC_abs="23.188609" PMx_abs="3.066442" NOx_abs="72.035454" fuel_abs="74.163154" electricity_abs="0"
            CO_normed="187.881009" CO2_normed="7688.890797" HC_normed="1.033430" PMx_normed="0.136660" NOx_normed="3.210353" fuel_normed="3.305177" electricity_normed="0"
            traveltime="1.54" CO_perVeh="63.118076" CO2_perVeh="2583.060401" HC_perVeh="0.347178" PMx_perVeh="0.045911" NOx_perVeh="1.078509" fuel_perVeh="1.110365" electricity_perVeh="0"/>
        <edge id=":1110338277_0" sampledSeconds="161.15" CO_abs="2663.258677" CO2_abs="310300.169808" HC_abs="19.263834" PMx_abs="4.324452" NOx_abs="116.757680" fuel_abs="133.385001" electricity_abs="0"
            CO_normed="3887.149196" CO2_normed="452897.447136" HC_normed="28.116456" PMx_normed="6.311738" NOx_normed="170.413233" fuel_normed="194.681577" electricity_normed="0"
            traveltime="0.02" CO_perVeh="0.360715" CO2_perVeh="42.027392" HC_perVeh="0.002609" PMx_perVeh="0.000586" NOx_perVeh="0.015814" fuel_perVeh="0.018066" electricity_perVeh="0"/>
        <edge id=":1110338293_0" sampledSeconds="6381.61" CO_abs="584405.150817" CO2_abs="10270816.039441" HC_abs="2901.281620" PMx_abs="244.726772" NOx_abs="4641.161050" fuel_abs="4415.249277" electricity_abs="0"
            CO_normed="796101.919606" CO2_normed="13991348.901498" HC_normed="3952.251044" PMx_normed="333.377372" NOx_normed="6322.389896" fuel_normed="6014.643129" electricity_normed="0"
            traveltime="0.43" CO_perVeh="39.071255" CO2_perVeh="686.670315" HC_perVeh="0.193969" PMx_perVeh="0.016362" NOx_perVeh="0.310292" fuel_perVeh="0.295188" electricity_perVeh="0"/>
        <edge id=":1110338295_0" sampledSeconds="0.00" CO_abs="0" CO2_abs="0" HC_abs="0" PMx_abs="0" NOx_abs="0" fuel_abs="0" electricity_abs="0"
            CO_normed="0" CO2_normed="0" HC_normed="0" PMx_normed="0" NOx_normed="0" fuel_normed="0" electricity_normed="0"/>
        <edge id=":1110673403_0" sampledSeconds="200.24" CO_abs="3315.960843" CO2_abs="402941.735835" HC_abs="24.256881" PMx_abs="5.565920" NOx_abs="150.964962" fuel_abs="173.207684" electricity_abs="0"
            CO_normed="4517.144979" CO2_normed="548904.623682" HC_normed="33.043770" PMx_normed="7.582136" NOx_normed="205.650987" fuel_normed="235.950982" electricity_normed="0"
            traveltime="0.02" CO_perVeh="0.383245" CO2_perVeh="46.570297" HC_perVeh="0.002804" PMx_perVeh="0.000643" NOx_perVeh="0.017448" fuel_perVeh="0.020019" electricity_perVeh="0"/>
        <edge id=":1110673412_0" sampledSeconds="964.50" CO_abs="169332.714745" CO2_abs="11576161.142899" HC_abs="1054.271718" PMx_abs="254.072619" NOx_abs="4972.068038" fuel_abs="4976.021793" electricity_abs="0"
            CO_normed="238626.550855" CO2_normed="16313323.800673" HC_normed="1485.697694" PMx_normed="358.043470" NOx_normed="7006.723115" fuel_normed="7012.294814" electricity_normed="0"
            traveltime="0.02" CO_perVeh="2.734048" CO2_perVeh="186.908821" HC_perVeh="0.017022" PMx_perVeh="0.004102" NOx_perVeh="0.080279" fuel_perVeh="0.080343" electricity_perVeh="0"/>
        <edge id=":1110673414_0" sampledSeconds="0.00" CO_abs="0" CO2_abs="0" HC_abs="0" PMx_abs="0" NOx_abs="0" fuel_abs="0" electricity_abs="0"
            CO_normed="0" CO2_normed="0" HC_normed="0" PMx_normed="0" NOx_normed="0" fuel_normed="0" electricity_normed="0"/>
        <edge id=":1110673414_1" sampledSeconds="242.82" CO_abs="16836.042802" CO2_abs="641317.232981" HC_abs="91.560539" PMx_abs="11.895687" NOx_abs="271.125890" fuel_abs="275.679401" electricity_abs="0"
            CO_normed="761.952962" CO2_normed="29024.252966" HC_normed="4.143778" PMx_normed="0.538366" NOx_normed="12.270412" fuel_normed="12.476491" electricity_normed="0"
            traveltime="1.58" CO_perVeh="109.233835" CO2_perVeh="4160.926737" HC_perVeh="0.594053" PMx_perVeh="0.077180" NOx_perVeh="1.759090" fuel_perVeh="1.788634" electricity_perVeh="0"/>
        <edge id=":1110673417_0" sampledSeconds="29.30" CO_abs="443.327677" CO2_abs="52742.233732" HC_abs="3.221713" PMx_abs="0.724067" NOx_abs="19.758243" fuel_abs="22.671678" electricity_abs="0"
            CO_normed="647.057246" CO2_normed="76979.729106" HC_normed="4.702239" PMx_normed="1.056810" NOx_normed="28.838069" fuel_normed="33.090363" electricity_normed="0"
            traveltime="0.02" CO_perVeh="0.338059" CO2_perVeh="40.218485" HC_perVeh="0.002457" PMx_perVeh="0.000552" NOx_perVeh="0.015067" fuel_perVeh="0.017288" electricity_perVeh="0"/>
        <edge id=":1110673446_0" sampledSeconds="1329.31" CO_abs="13647.498047" CO2_abs="1099732.878849" HC_abs="88.245943" PMx_abs="20.262728" NOx_abs="450.432460" fuel_abs="472.724517" electricity_abs="0"
            CO_normed="18591.210871" CO2_normed="1498103.592483" HC_normed="120.212433" PMx_normed="27.602763" NOx_normed="613.598538" fuel_normed="643.965740" electricity_normed="0"
            traveltime="0.02" CO_perVeh="0.234021" CO2_perVeh="18.857693" HC_perVeh="0.001513" PMx_perVeh="0.000347" NOx_perVeh="0.007724" fuel_perVeh="0.008106" electricity_perVeh="0"/>
        <edge id=":1110673451_0" sampledSeconds="37.10" CO_abs="300.433550" CO2_abs="23862.663984" HC_abs="1.909137" PMx_abs="0.305680" NOx_abs="8.989146" fuel_abs="10.257661" electricity_abs="0"
            CO_normed="454.737277" CO2_normed="36118.612001" HC_normed="2.889676" PMx_normed="0.462679" NOx_normed="13.606003" fuel_normed="15.526031" electricity_normed="0"
            traveltime="0.03" CO_perVeh="0.221353" CO2_perVeh="17.581508" HC_perVeh="0.001407" PMx_perVeh="0.000225" NOx_perVeh="0.006623" fuel_perVeh="0.007558" electricity_perVeh="0"/>
        <edge id=":1110673464_0" sampledSeconds="1035.78" CO_abs="3615.511457" CO2_abs="265192.480367" HC_abs="22.523803" PMx_abs="3.710048" NOx_abs="102.243676" fuel_abs="113.995985" electricity_abs="0"
            CO_normed="104.643182" CO2_normed="7675.424417" HC_normed="0.651903" PMx_normed="0.107379" NOx_normed="2.959223" fuel_normed="3.299368" electricity_normed="0"
            traveltime="1.23" CO_perVeh="4.287494" CO2_perVeh="314.481419" HC_perVeh="0.026710" PMx_perVeh="0.004400" NOx_perVeh="0.121247" fuel_perVeh="0.135183" electricity_perVeh="0"/>
        <edge id=":1110673464_1" sampledSeconds="2612.54" CO_abs="61453.226628" CO2_abs="7567271.903565" HC_abs="459.560628" PMx_abs="134.701506" NOx_abs="2863.575313" fuel_abs="3252.821954" electricity_abs="0"
            CO_normed="1742.836315" CO2_normed="214610.639699" HC_normed="13.033310" PMx_normed="3.820185" NOx_normed="81.212059" fuel_normed="92.251238" electricity_normed="0"
            traveltime="0.72" CO_perVeh="16.941386" CO2_perVeh="2086.140641" HC_perVeh="0.126691" PMx_perVeh="0.037134" NOx_perVeh="0.789429" fuel_perVeh="0.896736" electricity_perVeh="0"/>
        <edge id=":1110673479_0" sampledSeconds="135.15" CO_abs="6255.908355" CO2_abs="428622.562147" HC_abs="38.561730" PMx_abs="7.541612" NOx_abs="175.606505" fuel_abs="184.246207" electricity_abs="0"
            CO_normed="8522.068369" CO2_normed="583888.153680" HC_normed="52.530453" PMx_normed="10.273509" NOx_normed="239.218761" fuel_normed="250.988135" electricity_normed="0"
            traveltime="0.03" CO_perVeh="1.322563" CO2_perVeh="90.615161" HC_perVeh="0.008152" PMx_perVeh="0.001594" NOx_perVeh="0.037125" fuel_perVeh="0.038952" electricity_perVeh="0"/>
        <edge id=":1110673511_0" sampledSeconds="63.21" CO_abs="948.068356" CO2_abs="110172.480534" HC_abs="6.812571" PMx_abs="1.489330" NOx_abs="41.189567" fuel_abs="47.358582" electricity_abs="0"
            CO_normed="1291.499634" CO2_normed="150081.708072" HC_normed="9.280378" PMx_normed="2.028830" NOx_normed="56.110206" fuel_normed="64.513905" electricity_normed="0"
            traveltime="0.02" CO_perVeh="0.363361" CO2_perVeh="42.225160" HC_perVeh="0.002611" PMx_perVeh="0.000571" NOx_perVeh="0.015786" fuel_perVeh="0.018151" electricity_perVeh="0"/>
        <edge id=":1110673517_0" sampledSeconds="182.81" CO_abs="8047.253761" CO2_abs="571992.188662" HC_abs="50.083565" PMx_abs="9.959525" NOx_abs="233.285069" fuel_abs="245.874519" electricity_abs="0"
            CO_normed="10962.316396" CO2_normed="779192.446809" HC_normed="68.225994" PMx_normed="13.567295" NOx_normed="317.790989" fuel_normed="334.940882" electricity_normed="0"
            traveltime="0.03" CO_perVeh="1.232106" CO2_perVeh="87.577081" HC_perVeh="0.007668" PMx_perVeh="0.001525" NOx_perVeh="0.035718" fuel_perVeh="0.037646" electricity_perVeh="0"/>
        <edge id=":1110673534_0" sampledSeconds="738.65" CO_abs="4984.517850" CO2_abs="420707.299207" HC_abs="32.292997" PMx_abs="5.598031" NOx_abs="159.423590" fuel_abs="180.845681" electricity_abs="0"
            CO_normed="131.591577" CO2_normed="11106.698467" HC_normed="0.852537" PMx_normed="0.147788" NOx_normed="4.208793" fuel_normed="4.774337" electricity_normed="0"
            traveltime="1.46" CO_perVeh="9.830294" CO2_perVeh="829.704403" HC_perVeh="0.063687" PMx_perVeh="0.011040" NOx_perVeh="0.314410" fuel_perVeh="0.356658" electricity_perVeh="0"/>
        <edge id=":1110673534_1" sampledSeconds="199.54" CO_abs="3567.030554" CO2_abs="434484.168692" HC_abs="26.149422" PMx_abs="6.079311" NOx_abs="163.121584" fuel_abs="186.766341" electricity_abs="0"
            CO_normed="91.567141" CO2_normed="11153.387320" HC_normed="0.671266" PMx_normed="0.156058" NOx_normed="4.187398" fuel_normed="4.794369" electricity_normed="0"
            traveltime="1.22" CO_perVeh="21.804135" CO2_perVeh="2655.865016" HC_perVeh="0.159843" PMx_perVeh="0.037161" NOx_perVeh="0.997111" fuel_perVeh="1.141644" electricity_perVeh="0"/>
        <edge id=":1110673549_0" sampledSeconds="653.99" CO_abs="1353.480418" CO2_abs="124923.463968" HC_abs="9.003474" PMx_abs="1.846626" NOx_abs="47.916861" fuel_abs="53.699394" electricity_abs="0"
            CO_normed="34.613944" CO2_normed="3194.796014" HC_normed="0.230255" PMx_normed="0.047226" NOx_normed="1.225427" fuel_normed="1.373310" electricity_normed="0"
            traveltime="1.30" CO_perVeh="2.689043" CO2_perVeh="248.193135" HC_perVeh="0.017888" PMx_perVeh="0.003669" NOx_perVeh="0.095199" fuel_perVeh="0.106688" electricity_perVeh="0"/>
        <edge id=":1110673549_1" sampledSeconds="3196.40" CO_abs="69313.539524" CO2_abs="9140598.560179" HC_abs="533.700396" PMx_abs="160.535917" NOx_abs="3414.980783" fuel_abs="3929.125061" electricity_abs="0"
            CO_normed="1714.683326" CO2_normed="226120.784575" HC_normed="13.202719" PMx_normed="3.971349" NOx_normed="84.480040" fuel_normed="97.198978" electricity_normed="0"
            traveltime="0.81" CO_perVeh="17.481626" CO2_perVeh="2305.357997" HC_perVeh="0.134605" PMx_perVeh="0.040489" NOx_perVeh="0.861295" fuel_perVeh="0.990968" electricity_perVeh="0"/>
        <edge id=":1110673556_0" sampledSeconds="462.56" CO_abs="56786.735607" CO2_abs="2744059.270156" HC_abs="323.753036" PMx_abs="55.410886" NOx_abs="1183.032070" fuel_abs="1179.553894" electricity_abs="0"
            CO_normed="1076.900355" CO2_normed="52038.180592" HC_normed="6.139634" PMx_normed="1.050809" NOx_normed="22.434951" fuel_normed="22.368992" electricity_normed="0"
            traveltime="2.73" CO_perVeh="334.752346" CO2_perVeh="16175.965553" HC_perVeh="1.908493" PMx_perVeh="0.326642" NOx_perVeh="6.973860" fuel_perVeh="6.953357" electricity_perVeh="0"/>
        <edge id=":1110673556_2" sampledSeconds="174.63" CO_abs="17082.040035" CO2_abs="729803.715212" HC_abs="94.961510" PMx_abs="14.312852" NOx_abs="312.748737" fuel_abs="313.713703" electricity_abs="0"
            CO_normed="338.717499" CO2_normed="14471.180779" HC_normed="1.882979" PMx_normed="0.283808" NOx_normed="6.201453" fuel_normed="6.220587" electricity_normed="0"
            traveltime="3.02" CO_perVeh="295.372882" CO2_perVeh="12619.349093" HC_perVeh="1.642020" PMx_perVeh="0.247490" NOx_perVeh="5.407873" fuel_perVeh="5.424558" electricity_perVeh="0"/>
        <edge id=":1110673556_3" sampledSeconds="354.72" CO_abs="36312.740762" CO2_abs="1246786.995030" HC_abs="194.467755" PMx_abs="24.524897" NOx_abs="536.467347" fuel_abs="535.950146" electricity_abs="0"
            CO_normed="1637.972938" CO2_normed="56239.306505" HC_normed="8.771933" PMx_normed="1.106254" NOx_normed="24.198642" fuel_normed="24.175312" electricity_normed="0"
            traveltime="1.85" CO_perVeh="189.070954" CO2_perVeh="6491.694149" HC_perVeh="1.012543" PMx_perVeh="0.127695" NOx_perVeh="2.793245" fuel_perVeh="2.790552" electricity_perVeh="0"/>
        <edge id=":1110673556_4" sampledSeconds="76.57" CO_abs="8672.905322" CO2_abs="336484.448012" HC_abs="47.403115" PMx_abs="6.697298" NOx_abs="145.084952" fuel_abs="144.641839" electricity_abs="0"
            CO_normed="239.000795" CO2_normed="9272.561791" HC_normed="1.306296" PMx_normed="0.184559" NOx_normed="3.998132" fuel_normed="3.985921" electricity_normed="0"
            traveltime="2.52" CO_perVeh="285.604623" CO2_perVeh="11080.659866" HC_perVeh="1.561017" PMx_perVeh="0.220547" NOx_perVeh="4.777745" fuel_perVeh="4.763153" electricity_perVeh="0"/>
        <edge id=":1110673556_5" sampledSeconds="22.44" CO_abs="1152.142799" CO2_abs="51353.301414" HC_abs="6.432854" PMx_abs="0.884686" NOx_abs="21.222560" fuel_abs="22.074893" electricity_abs="0"
            CO_normed="44.252781" CO2_normed="1972.434688" HC_normed="0.247080" PMx_normed="0.033980" NOx_normed="0.815140" fuel_normed="0.847877" electricity_normed="0"
            traveltime="1.55" CO_perVeh="79.654317" CO2_perVeh="3550.351703" HC_perVeh="0.444741" PMx_perVeh="0.061163" NOx_perVeh="1.467239" fuel_perVeh="1.526165" electricity_perVeh="0"/>
        <edge id=":1110673556_6" sampledSeconds="214.04" CO_abs="25965.705957" CO2_abs="1309158.726146" HC_abs="149.369078" PMx_abs="26.410689" NOx_abs="563.548282" fuel_abs="562.750576" electricity_abs="0"
            CO_normed="504.827859" CO2_normed="25452.795251" HC_normed="2.904049" PMx_normed="0.513479" NOx_normed="10.956562" fuel_normed="10.941053" electricity_normed="0"
            traveltime="2.49" CO_perVeh="302.566184" CO2_perVeh="15255.012153" HC_perVeh="1.740528" PMx_perVeh="0.307751" NOx_perVeh="6.566764" fuel_perVeh="6.557468" electricity_perVeh="0"/>
        <edge id=":1110673561_0" sampledSeconds="164.26" CO_abs="16058.862645" CO2_abs="1137732.239715" HC_abs="100.508551" PMx_abs="23.066751" NOx_abs="482.064963" fuel_abs="489.056893" electricity_abs="0"
            CO_normed="392.278705" CO2_normed="27792.013663" HC_normed="2.455178" PMx_normed="0.563464" NOx_normed="11.775667" fuel_normed="11.946463" electricity_normed="0"
            traveltime="1.21" CO_perVeh="118.362921" CO2_perVeh="8385.731534" HC_perVeh="0.740805" PMx_perVeh="0.170015" NOx_perVeh="3.553092" fuel_perVeh="3.604627" electricity_perVeh="0"/>
        <edge id=":1110673561_1" sampledSeconds="5255.78" CO_abs="487155.294048" CO2_abs="33752678.022420" HC_abs="3034.942963" PMx_abs="705.573025" NOx_abs="14429.971990" fuel_abs="14508.646136" electricity_abs="0"
            CO_normed="11601.817611" CO2_normed="803834.873800" HC_normed="72.278502" PMx_normed="16.803532" NOx_normed="343.656130" fuel_normed="345.529790" electricity_normed="0"
            traveltime="1.19" CO_perVeh="110.611701" CO2_perVeh="7663.759768" HC_perVeh="0.689103" PMx_perVeh="0.160205" NOx_perVeh="3.276417" fuel_perVeh="3.294280" electricity_perVeh="0"/>
        <edge id=":1110673562_0" sampledSeconds="300.51" CO_abs="7091.071986" CO2_abs="534096.285885" HC_abs="44.493909" PMx_abs="7.424336" NOx_abs="205.469680" fuel_abs="229.587250" electricity_abs="0"
            CO_normed="10733.071458" CO2_normed="808410.013827" HC_normed="67.346136" PMx_normed="11.237501" NOx_normed="310.999629" fuel_normed="347.504068" electricity_normed="0"
            traveltime="0.03" CO_perVeh="0.635654" CO2_perVeh="47.877157" HC_perVeh="0.003988" PMx_perVeh="0.000666" NOx_perVeh="0.018419" fuel_perVeh="0.020581" electricity_perVeh="0"/>
        <edge id=":1110673564_0" sampledSeconds="27.88" CO_abs="633.069096" CO2_abs="71702.833452" HC_abs="4.515699" PMx_abs="1.016316" NOx_abs="27.095193" fuel_abs="30.822019" electricity_abs="0"
            CO_normed="2587.182139" CO2_normed="293030.083356" HC_normed="18.454440" PMx_normed="4.153409" NOx_normed="110.730725" fuel_normed="125.961255" electricity_normed="0"
            traveltime="7.875310e-03" CO_perVeh="0.178808" CO2_perVeh="20.252177" HC_perVeh="0.001275" PMx_perVeh="0.000287" NOx_perVeh="0.007653" fuel_perVeh="0.008706" electricity_perVeh="0"/>
        <edge id=":1110673588_0" sampledSeconds="62.50" CO_abs="1089.604918" CO2_abs="120423.586337" HC_abs="7.728499" PMx_abs="1.665051" NOx_abs="45.375042" fuel_abs="51.765092" electricity_abs="0"
            CO_normed="1781.168217" CO2_normed="196855.448206" HC_normed="12.633714" PMx_normed="2.721845" NOx_normed="74.174208" fuel_normed="84.619970" electricity_normed="0"
            traveltime="0.02" CO_perVeh="0.351485" CO2_perVeh="38.846318" HC_perVeh="0.002493" PMx_perVeh="0.000537" NOx_perVeh="0.014637" fuel_perVeh="0.016698" electricity_perVeh="0"/>
        <edge id=":1110673601_0" sampledSeconds="29.11" CO_abs="510.900505" CO2_abs="59755.957647" HC_abs="3.706327" PMx_abs="0.820832" NOx_abs="22.406249" fuel_abs="25.686593" electricity_abs="0"
            CO_normed="745.682912" CO2_normed="87216.583498" HC_normed="5.409556" PMx_normed="1.198042" NOx_normed="32.702957" fuel_normed="37.490770" electricity_normed="0"
            traveltime="0.02" CO_perVeh="0.389586" CO2_perVeh="45.566786" HC_perVeh="0.002826" PMx_perVeh="0.000626" NOx_perVeh="0.017086" fuel_perVeh="0.019587" electricity_perVeh="0"/>
        <edge id=":1110673617_0" sampledSeconds="854.27" CO_abs="32853.303971" CO2_abs="3313508.587005" HC_abs="229.004011" PMx_abs="62.581852" NOx_abs="1300.466731" fuel_abs="1424.322117" electricity_abs="0"
            CO_normed="44754.188631" CO2_normed="4513804.409588" HC_normed="311.959148" PMx_normed="85.251700" NOx_normed="1771.551910" fuel_normed="1940.273062" electricity_normed="0"
            traveltime="0.02" CO_perVeh="0.582392" CO2_perVeh="58.738689" HC_perVeh="0.004060" PMx_perVeh="0.001109" NOx_perVeh="0.023053" fuel_perVeh="0.025249" electricity_perVeh="0"/>
        <edge id=":1110673621_0" sampledSeconds="42.28" CO_abs="1276.051008" CO2_abs="119967.850039" HC_abs="8.588912" PMx_abs="1.869944" NOx_abs="46.796181" fuel_abs="51.569004" electricity_abs="0"
            CO_normed="2085.950110" CO2_normed="196110.459821" HC_normed="14.040224" PMx_normed="3.056782" NOx_normed="76.497332" fuel_normed="84.299428" electricity_normed="0"
            traveltime="0.02" CO_perVeh="0.601911" CO2_perVeh="56.588609" HC_perVeh="0.004051" PMx_perVeh="0.000882" NOx_perVeh="0.022074" fuel_perVeh="0.024325" electricity_perVeh="0"/>
        <edge id=":1110673630_0" sampledSeconds="287.02" CO_abs="1499.521898" CO2_abs="124294.242036" HC_abs="9.661140" PMx_abs="1.657673" NOx_abs="47.167062" fuel_abs="53.429266" electricity_abs="0"
            CO_normed="43.709988" CO2_normed="3623.088040" HC_normed="0.281615" PMx_normed="0.048320" NOx_normed="1.374886" fuel_normed="1.557425" electricity_normed="0"
            traveltime="1.29" CO_perVeh="6.747276" CO2_perVeh="559.276618" HC_perVeh="0.043471" PMx_perVeh="0.007459" NOx_perVeh="0.212234" fuel_perVeh="0.240411" electricity_perVeh="0"/>
        <edge id=":1110673630_1" sampledSeconds="338.56" CO_abs="1188.643549" CO2_abs="96221.906883" HC_abs="7.599712" PMx_abs="1.255143" NOx_abs="36.377039" fuel_abs="41.362122" electricity_abs="0"
            CO_normed="42.240562" CO2_normed="3419.416553" HC_normed="0.270069" PMx_normed="0.044604" NOx_normed="1.292723" fuel_normed="1.469877" electricity_normed="0"
            traveltime="1.08" CO_perVeh="3.789162" CO2_perVeh="306.736501" HC_perVeh="0.024226" PMx_perVeh="0.004001" NOx_perVeh="0.115963" fuel_perVeh="0.131854" electricity_perVeh="0"/>
        <edge id=":1110673650_0" sampledSeconds="200.19" CO_abs="3123.064421" CO2_abs="386658.335591" HC_abs="23.069390" PMx_abs="5.289765" NOx_abs="144.396170" fuel_abs="166.208190" electricity_abs="0"
            CO_normed="4254.373147" CO2_normed="526722.673072" HC_normed="31.426118" PMx_normed="7.205946" NOx_normed="196.702695" fuel_normed="226.415971" electricity_normed="0"
            traveltime="0.02" CO_perVeh="0.360952" CO2_perVeh="44.688497" HC_perVeh="0.002666" PMx_perVeh="0.000611" NOx_perVeh="0.016689" fuel_perVeh="0.019210" electricity_perVeh="0"/>
        <edge id=":1110673655_0" sampledSeconds="20.82" CO_abs="196.271333" CO2_abs="26873.108639" HC_abs="1.483312" PMx_abs="0.336093" NOx_abs="9.801981" fuel_abs="11.551651" electricity_abs="0"
            CO_normed="267.369281" CO2_normed="36607.708442" HC_normed="2.020632" PMx_normed="0.457841" NOx_normed="13.352681" fuel_normed="15.736158" electricity_normed="0"
            traveltime="0.02" CO_perVeh="0.224225" CO2_perVeh="30.700429" HC_perVeh="0.001695" PMx_perVeh="0.000384" NOx_perVeh="0.011198" fuel_perVeh="0.013197" electricity_perVeh="0"/>
        <edge id=":1110673663_0" sampledSeconds="179.41" CO_abs="3607.720551" CO2_abs="396461.800945" HC_abs="25.497668" PMx_abs="5.562066" NOx_abs="149.802282" fuel_abs="170.422335" electricity_abs="0"
            CO_normed="90.010854" CO2_normed="9891.527046" HC_normed="0.636154" PMx_normed="0.138771" NOx_normed="3.737493" fuel_normed="4.251953" electricity_normed="0"
            traveltime="1.31" CO_perVeh="26.384048" CO2_perVeh="2899.411683" HC_perVeh="0.186470" PMx_perVeh="0.040677" NOx_perVeh="1.095537" fuel_perVeh="1.246336" electricity_perVeh="0"/>
        <edge id=":1110673663_1" sampledSeconds="168.92" CO_abs="2938.158636" CO2_abs="345251.082170" HC_abs="21.301181" PMx_abs="4.866609" NOx_abs="130.064318" fuel_abs="148.408838" electricity_abs="0"
            CO_normed="73.395229" CO2_normed="8624.375158" HC_normed="0.532104" PMx_normed="0.121568" NOx_normed="3.249008" fuel_normed="3.707254" electricity_normed="0"
            traveltime="1.27" CO_perVeh="22.092299" CO2_perVeh="2595.976253" HC_perVeh="0.160166" PMx_perVeh="0.036593" NOx_perVeh="0.977966" fuel_perVeh="1.115900" electricity_perVeh="0"/>