<?xml version="1.0" encoding="UTF-8"?>

<!-- generated on Tue Nov 10 01:42:05 2020 by Eclipse SUMO sumo Version 1.7.0
<configuration xmlns:xsi="http://www.w3.org/2001/XMLSchema-instance" xsi:noNamespaceSchemaLocation="http://sumo.dlr.de/xsd/sumoConfiguration.xsd">

    <input>
        <net-file value="../dataSets/Porto/6AM7AM_Routing_SaoBento/Porto.net.xml"/>
        <route-files value="../results/Porto/6AM7AM_Routing_SaoBento/cost_PMx-cost_co2/solution11/Porto.rou.xml"/>
        <additional-files value="moreOutputInfo.xml"/>
    </input>

    <output>
        <emission-output.precision value="6"/>
        <tripinfo-output value="../results/Porto/6AM7AM_Routing_SaoBento/cost_PMx-cost_co2/solution11/Porto-tripinfo"/>
    </output>

    <processing>
        <collision.action value="warn"/>
        <time-to-teleport value="-1"/>
    </processing>

    <emissions>
        <device.emissions.probability value="1"/>
    </emissions>

    <gui_only>
        <quit-on-end value="true"/>
        <start value="true"/>
    </gui_only>

</configuration>
-->

<meandata xmlns:xsi="http://www.w3.org/2001/XMLSchema-instance" xsi:noNamespaceSchemaLocation="http://sumo.dlr.de/xsd/meandata_file.xsd">
    <interval begin="0.00" end="4700.00" id="emissions-detector">
        <edge id=":1092997347_0" sampledSeconds="313.92" CO_abs="39968.325677" CO2_abs="1573083.045004" HC_abs="219.146269" PMx_abs="32.048115" NOx_abs="682.656974" fuel_abs="676.206860" electricity_abs="0"
            CO_normed="69577.356111" CO2_normed="2738442.438111" HC_normed="381.492538" PMx_normed="55.789755" NOx_normed="1188.377711" fuel_normed="1177.149272" electricity_normed="0"
            traveltime="0.08" CO_perVeh="9.642896" CO2_perVeh="379.527428" HC_perVeh="0.052872" PMx_perVeh="0.007732" NOx_perVeh="0.164700" fuel_perVeh="0.163144" electricity_perVeh="0"/>
        <edge id=":1103427051_0" sampledSeconds="11.09" CO_abs="865.181163" CO2_abs="48492.963946" HC_abs="5.089719" PMx_abs="0.946191" NOx_abs="20.660557" fuel_abs="20.844990" electricity_abs="0"
            CO_normed="2285.144670" CO2_normed="128081.196042" HC_normed="13.443132" PMx_normed="2.499110" NOx_normed="54.569336" fuel_normed="55.056466" electricity_normed="0"
            traveltime="0.03" CO_perVeh="2.370583" CO2_perVeh="132.869988" HC_perVeh="0.013946" PMx_perVeh="0.002593" NOx_perVeh="0.056610" fuel_perVeh="0.057115" electricity_perVeh="0"/>
        <edge id=":1105984386_0" sampledSeconds="36.57" CO_abs="689.305510" CO2_abs="56185.818188" HC_abs="4.417010" PMx_abs="0.738229" NOx_abs="21.280832" fuel_abs="24.152124" electricity_abs="0"
            CO_normed="54.374736" CO2_normed="4432.126246" HC_normed="0.348429" PMx_normed="0.058234" NOx_normed="1.678704" fuel_normed="1.905201" electricity_normed="0"
            traveltime="0.94" CO_perVeh="17.802888" CO2_perVeh="1451.126965" HC_perVeh="0.114079" PMx_perVeh="0.019066" NOx_perVeh="0.549626" fuel_perVeh="0.623784" electricity_perVeh="0"/>
        <edge id=":1105984390_0" sampledSeconds="37.61" CO_abs="55.051510" CO2_abs="5131.003016" HC_abs="0.365560" PMx_abs="0.055992" NOx_abs="1.862141" fuel_abs="2.205632" electricity_abs="0"
            CO_normed="3.357254" CO2_normed="312.908437" HC_normed="0.022293" PMx_normed="0.003415" NOx_normed="0.113561" fuel_normed="0.134508" electricity_normed="0"
            traveltime="1.05" CO_perVeh="1.536344" CO2_perVeh="143.192903" HC_perVeh="0.010202" PMx_perVeh="0.001563" NOx_perVeh="0.051967" fuel_perVeh="0.061553" electricity_perVeh="0"/>
        <edge id=":1105984390_1" sampledSeconds="645.24" CO_abs="15416.770026" CO2_abs="1949806.045855" HC_abs="117.043669" PMx_abs="34.770221" NOx_abs="732.910686" fuel_abs="838.132075" electricity_abs="0"
            CO_normed="899.359467" CO2_normed="113744.741863" HC_normed="6.827911" PMx_normed="2.028371" NOx_normed="42.755400" fuel_normed="48.893641" electricity_normed="0"
            traveltime="0.64" CO_perVeh="15.183237" CO2_perVeh="1920.270381" HC_perVeh="0.115271" PMx_perVeh="0.034244" NOx_perVeh="0.721809" fuel_perVeh="0.825436" electricity_perVeh="0"/>
        <edge id=":1105984395_0" sampledSeconds="14.31" CO_abs="317.162295" CO2_abs="27388.540711" HC_abs="2.068040" PMx_abs="0.358926" NOx_abs="10.345011" fuel_abs="11.773269" electricity_abs="0"
            CO_normed="264.057415" CO2_normed="22802.670342" HC_normed="1.721773" PMx_normed="0.298829" NOx_normed="8.612868" fuel_normed="9.801981" electricity_normed="0"
            traveltime="0.09" CO_perVeh="1.979306" CO2_perVeh="170.922924" HC_perVeh="0.012906" PMx_perVeh="0.002240" NOx_perVeh="0.064560" fuel_perVeh="0.073473" electricity_perVeh="0"/>
        <edge id=":1105984398_0" sampledSeconds="37.38" CO_abs="2456.757989" CO2_abs="173773.066471" HC_abs="15.296909" PMx_abs="3.167754" NOx_abs="71.804171" fuel_abs="74.697261" electricity_abs="0"
            CO_normed="155.646987" CO2_normed="11009.327901" HC_normed="0.969130" PMx_normed="0.200692" NOx_normed="4.549127" fuel_normed="4.732417" electricity_normed="0"
            traveltime="1.08" CO_perVeh="71.182965" CO2_perVeh="5034.961559" HC_perVeh="0.443218" PMx_perVeh="0.091784" NOx_perVeh="2.080479" fuel_perVeh="2.164305" electricity_perVeh="0"/>
        <edge id=":1105984398_1" sampledSeconds="452.61" CO_abs="7923.260883" CO2_abs="961598.190394" HC_abs="58.083567" PMx_abs="13.518274" NOx_abs="361.519132" fuel_abs="413.350264" electricity_abs="0"
            CO_normed="485.899173" CO2_normed="58970.640094" HC_normed="3.562013" PMx_normed="0.829017" NOx_normed="22.170398" fuel_normed="25.348976" electricity_normed="0"
            traveltime="0.95" CO_perVeh="16.692551" CO2_perVeh="2025.873813" HC_perVeh="0.122369" PMx_perVeh="0.028480" NOx_perVeh="0.761641" fuel_perVeh="0.870837" electricity_perVeh="0"/>
        <edge id=":1106006327_0" sampledSeconds="130.22" CO_abs="17543.044641" CO2_abs="563935.909852" HC_abs="93.149499" PMx_abs="11.761638" NOx_abs="246.827511" fuel_abs="242.416284" electricity_abs="0"
            CO_normed="1516.616894" CO2_normed="48752.924342" HC_normed="8.052884" PMx_normed="1.016807" NOx_normed="21.338529" fuel_normed="20.957174" electricity_normed="0"
            traveltime="2.12" CO_perVeh="285.509507" CO2_perVeh="9177.942985" HC_perVeh="1.515989" PMx_perVeh="0.191418" NOx_perVeh="4.017068" fuel_perVeh="3.945276" electricity_perVeh="0"/>
        <edge id=":1106006327_1" sampledSeconds="159.68" CO_abs="21634.860354" CO2_abs="728655.819157" HC_abs="115.690116" PMx_abs="15.202251" NOx_abs="318.908405" fuel_abs="313.222715" electricity_abs="0"
            CO_normed="1631.041575" CO2_normed="54933.006973" HC_normed="8.721821" PMx_normed="1.146090" NOx_normed="24.042349" fuel_normed="23.613708" electricity_normed="0"
            traveltime="2.27" CO_perVeh="307.134727" CO2_perVeh="10344.208477" HC_perVeh="1.642370" PMx_perVeh="0.215816" NOx_perVeh="4.527316" fuel_perVeh="4.446600" electricity_perVeh="0"/>
        <edge id=":1106006327_2" sampledSeconds="0.00" CO_abs="0" CO2_abs="0" HC_abs="0" PMx_abs="0" NOx_abs="0" fuel_abs="0" electricity_abs="0"
            CO_normed="0" CO2_normed="0" HC_normed="0" PMx_normed="0" NOx_normed="0" fuel_normed="0" electricity_normed="0"/>
        <edge id=":1106006327_3" sampledSeconds="0.00" CO_abs="0" CO2_abs="0" HC_abs="0" PMx_abs="0" NOx_abs="0" fuel_abs="0" electricity_abs="0"
            CO_normed="0" CO2_normed="0" HC_normed="0" PMx_normed="0" NOx_normed="0" fuel_normed="0" electricity_normed="0"/>
        <edge id=":1107381198_0" sampledSeconds="0.00" CO_abs="0" CO2_abs="0" HC_abs="0" PMx_abs="0" NOx_abs="0" fuel_abs="0" electricity_abs="0"
            CO_normed="0" CO2_normed="0" HC_normed="0" PMx_normed="0" NOx_normed="0" fuel_normed="0" electricity_normed="0"/>
        <edge id=":1107381198_1" sampledSeconds="36.67" CO_abs="1515.330064" CO2_abs="59220.616759" HC_abs="8.248637" PMx_abs="0.951442" NOx_abs="24.081845" fuel_abs="25.457022" electricity_abs="0"
            CO_normed="126.573429" CO2_normed="4946.616403" HC_normed="0.688997" PMx_normed="0.079473" NOx_normed="2.011523" fuel_normed="2.126390" electricity_normed="0"
            traveltime="1.51" CO_perVeh="62.391968" CO2_perVeh="2438.340587" HC_perVeh="0.339628" PMx_perVeh="0.039175" NOx_perVeh="0.991542" fuel_perVeh="1.048164" electricity_perVeh="0"/>
        <edge id=":1110338277_0" sampledSeconds="96.08" CO_abs="1483.603547" CO2_abs="188894.595229" HC_abs="11.055073" PMx_abs="2.543272" NOx_abs="70.214264" fuel_abs="81.197888" electricity_abs="0"
            CO_normed="4058.489946" CO2_normed="516732.935277" HC_normed="30.241840" PMx_normed="6.957280" NOx_normed="192.075494" fuel_normed="222.121883" electricity_normed="0"
            traveltime="0.02" CO_perVeh="0.334594" CO2_perVeh="42.601040" HC_perVeh="0.002493" PMx_perVeh="0.000574" NOx_perVeh="0.015835" fuel_perVeh="0.018312" electricity_perVeh="0"/>
        <edge id=":1110338293_0" sampledSeconds="124.02" CO_abs="5814.461468" CO2_abs="402940.011562" HC_abs="35.946867" PMx_abs="7.071396" NOx_abs="164.934585" fuel_abs="173.206369" electricity_abs="0"
            CO_normed="14845.433536" CO2_normed="1028783.008244" HC_normed="91.779235" PMx_normed="18.054628" NOx_normed="421.109578" fuel_normed="442.229027" electricity_normed="0"
            traveltime="0.03" CO_perVeh="1.333643" CO2_perVeh="92.420967" HC_perVeh="0.008245" PMx_perVeh="0.001622" NOx_perVeh="0.037830" fuel_perVeh="0.039728" electricity_perVeh="0"/>
        <edge id=":1110338295_0" sampledSeconds="0.00" CO_abs="0" CO2_abs="0" HC_abs="0" PMx_abs="0" NOx_abs="0" fuel_abs="0" electricity_abs="0"
            CO_normed="0" CO2_normed="0" HC_normed="0" PMx_normed="0" NOx_normed="0" fuel_normed="0" electricity_normed="0"/>
        <edge id=":1110673403_0" sampledSeconds="147.39" CO_abs="2284.018392" CO2_abs="292803.007175" HC_abs="17.064072" PMx_abs="3.956236" NOx_abs="108.896449" fuel_abs="125.863738" electricity_abs="0"
            CO_normed="5831.536321" CO2_normed="747582.145980" HC_normed="43.567844" PMx_normed="10.101028" NOx_normed="278.033486" fuel_normed="321.354224" electricity_normed="0"
            traveltime="0.02" CO_perVeh="0.357064" CO2_perVeh="45.774311" HC_perVeh="0.002668" PMx_perVeh="0.000618" NOx_perVeh="0.017024" fuel_perVeh="0.019676" electricity_perVeh="0"/>
        <edge id=":1110673412_0" sampledSeconds="253.71" CO_abs="45659.843766" CO2_abs="3104363.281301" HC_abs="283.863233" PMx_abs="68.296661" NOx_abs="1335.282745" fuel_abs="1334.412822" electricity_abs="0"
            CO_normed="120598.266733" CO2_normed="8199345.423832" HC_normed="749.748818" PMx_normed="180.387366" NOx_normed="3526.792284" fuel_normed="3524.494616" electricity_normed="0"
            traveltime="0.02" CO_perVeh="2.805261" CO2_perVeh="190.726646" HC_perVeh="0.017440" PMx_perVeh="0.004196" NOx_perVeh="0.082037" fuel_perVeh="0.081984" electricity_perVeh="0"/>
        <edge id=":1110673414_0" sampledSeconds="0.00" CO_abs="0" CO2_abs="0" HC_abs="0" PMx_abs="0" NOx_abs="0" fuel_abs="0" electricity_abs="0"
            CO_normed="0" CO2_normed="0" HC_normed="0" PMx_normed="0" NOx_normed="0" fuel_normed="0" electricity_normed="0"/>
        <edge id=":1110673414_1" sampledSeconds="256.54" CO_abs="16307.585782" CO2_abs="621464.769173" HC_abs="88.720644" PMx_abs="11.668349" NOx_abs="263.630687" fuel_abs="267.145314" electricity_abs="0"
            CO_normed="1383.268745" CO2_normed="52714.902312" HC_normed="7.525608" PMx_normed="0.989752" NOx_normed="22.362114" fuel_normed="22.660237" electricity_normed="0"
            traveltime="1.60" CO_perVeh="101.774483" CO2_perVeh="3878.517427" HC_perVeh="0.553699" PMx_perVeh="0.072821" NOx_perVeh="1.645300" fuel_perVeh="1.667235" electricity_perVeh="0"/>
        <edge id=":1110673417_0" sampledSeconds="29.63" CO_abs="578.038608" CO2_abs="64295.347107" HC_abs="4.111723" PMx_abs="0.917062" NOx_abs="24.381028" fuel_abs="27.637852" electricity_abs="0"
            CO_normed="1581.260630" CO2_normed="175883.928257" HC_normed="11.247873" PMx_normed="2.508681" NOx_normed="66.695821" fuel_normed="75.605066" electricity_normed="0"
            traveltime="0.02" CO_perVeh="0.429028" CO2_perVeh="47.720867" HC_perVeh="0.003052" PMx_perVeh="0.000681" NOx_perVeh="0.018096" fuel_perVeh="0.020513" electricity_perVeh="0"/>
        <edge id=":1110673446_0" sampledSeconds="334.31" CO_abs="3000.715219" CO2_abs="239960.053896" HC_abs="19.346166" PMx_abs="4.404376" NOx_abs="98.263758" fuel_abs="103.147811" electricity_abs="0"
            CO_normed="7661.400558" CO2_normed="612663.967395" HC_normed="49.394467" PMx_normed="11.245215" NOx_normed="250.886190" fuel_normed="263.356112" electricity_normed="0"
            traveltime="0.02" CO_perVeh="0.205053" CO2_perVeh="16.397611" HC_perVeh="0.001322" PMx_perVeh="0.000301" NOx_perVeh="0.006715" fuel_perVeh="0.007049" electricity_perVeh="0"/>
        <edge id=":1110673451_0" sampledSeconds="37.48" CO_abs="415.472237" CO2_abs="29520.361237" HC_abs="2.572751" PMx_abs="0.449444" NOx_abs="11.642124" fuel_abs="12.689614" electricity_abs="0"
            CO_normed="1178.644643" CO2_normed="83745.705636" HC_normed="7.298585" PMx_normed="1.275019" NOx_normed="33.027303" fuel_normed="35.998904" electricity_normed="0"
            traveltime="0.03" CO_perVeh="0.297948" CO2_perVeh="21.169980" HC_perVeh="0.001845" PMx_perVeh="0.000322" NOx_perVeh="0.008349" fuel_perVeh="0.009100" electricity_perVeh="0"/>
        <edge id=":1110673464_0" sampledSeconds="323.19" CO_abs="774.550827" CO2_abs="52840.904807" HC_abs="4.752978" PMx_abs="0.849132" NOx_abs="21.154248" fuel_abs="22.714131" electricity_abs="0"
            CO_normed="42.016500" CO2_normed="2866.422417" HC_normed="0.257831" PMx_normed="0.046062" NOx_normed="1.147539" fuel_normed="1.232157" electricity_normed="0"
            traveltime="1.17" CO_perVeh="2.799899" CO2_perVeh="191.012899" HC_perVeh="0.017181" PMx_perVeh="0.003069" NOx_perVeh="0.076470" fuel_perVeh="0.082109" electricity_perVeh="0"/>
        <edge id=":1110673464_1" sampledSeconds="718.23" CO_abs="15258.583069" CO2_abs="2026591.938151" HC_abs="117.818092" PMx_abs="35.552073" NOx_abs="756.274248" fuel_abs="871.139170" electricity_abs="0"
            CO_normed="811.063520" CO2_normed="107722.636132" HC_normed="6.262571" PMx_normed="1.889755" NOx_normed="40.199437" fuel_normed="46.305034" electricity_normed="0"
            traveltime="0.70" CO_perVeh="14.880324" CO2_perVeh="1976.352940" HC_perVeh="0.114897" PMx_perVeh="0.034671" NOx_perVeh="0.737526" fuel_perVeh="0.849544" electricity_perVeh="0"/>
        <edge id=":1110673479_0" sampledSeconds="133.27" CO_abs="6732.346078" CO2_abs="467931.149873" HC_abs="41.638452" PMx_abs="8.123227" NOx_abs="190.900889" fuel_abs="201.143355" electricity_abs="0"
            CO_normed="17188.968711" CO2_normed="1194717.829463" HC_normed="106.310941" PMx_normed="20.740153" NOx_normed="487.406526" fuel_normed="513.557502" electricity_normed="0"
            traveltime="0.03" CO_perVeh="1.418232" CO2_perVeh="98.574078" HC_perVeh="0.008772" PMx_perVeh="0.001711" NOx_perVeh="0.040215" fuel_perVeh="0.042373" electricity_perVeh="0"/>
        <edge id=":1110673511_0" sampledSeconds="11.88" CO_abs="124.257132" CO2_abs="18418.291928" HC_abs="0.987189" PMx_abs="0.225113" NOx_abs="6.687211" fuel_abs="7.917273" electricity_abs="0"
            CO_normed="317.252252" CO2_normed="47025.426198" HC_normed="2.520481" PMx_normed="0.574757" NOx_normed="17.073730" fuel_normed="20.214315" electricity_normed="0"
            traveltime="0.02" CO_perVeh="0.246054" CO2_perVeh="36.471865" HC_perVeh="0.001955" PMx_perVeh="0.000446" NOx_perVeh="0.013242" fuel_perVeh="0.015678" electricity_perVeh="0"/>
        <edge id=":1110673517_0" sampledSeconds="17.14" CO_abs="697.926257" CO2_abs="51135.583276" HC_abs="4.379414" PMx_abs="0.883566" NOx_abs="20.778150" fuel_abs="21.980955" electricity_abs="0"
            CO_normed="1781.939381" CO2_normed="130558.936024" HC_normed="11.181483" PMx_normed="2.255912" NOx_normed="53.050596" fuel_normed="56.121586" electricity_normed="0"
            traveltime="0.03" CO_perVeh="1.120605" CO2_perVeh="82.104385" HC_perVeh="0.007032" PMx_perVeh="0.001419" NOx_perVeh="0.033362" fuel_perVeh="0.035293" electricity_perVeh="0"/>
        <edge id=":1110673534_0" sampledSeconds="474.14" CO_abs="2951.431003" CO2_abs="263534.668553" HC_abs="19.448890" PMx_abs="3.461993" NOx_abs="99.374703" fuel_abs="113.283232" electricity_abs="0"
            CO_normed="146.038150" CO2_normed="13039.815366" HC_normed="0.962340" PMx_normed="0.171301" NOx_normed="4.917106" fuel_normed="5.605306" electricity_normed="0"
            traveltime="1.43" CO_perVeh="8.891479" CO2_perVeh="793.924333" HC_perVeh="0.058592" PMx_perVeh="0.010430" NOx_perVeh="0.299376" fuel_perVeh="0.341277" electricity_perVeh="0"/>
        <edge id=":1110673534_1" sampledSeconds="199.57" CO_abs="3061.804865" CO2_abs="406773.296854" HC_abs="23.183803" PMx_abs="5.414215" NOx_abs="150.534772" fuel_abs="174.854839" electricity_abs="0"
            CO_normed="147.312326" CO2_normed="19571.044968" HC_normed="1.115440" PMx_normed="0.260494" NOx_normed="7.242665" fuel_normed="8.412774" electricity_normed="0"
            traveltime="1.22" CO_perVeh="18.715850" CO2_perVeh="2486.477176" HC_perVeh="0.141715" PMx_perVeh="0.033095" NOx_perVeh="0.920172" fuel_perVeh="1.068833" electricity_perVeh="0"/>
        <edge id=":1110673549_0" sampledSeconds="60.69" CO_abs="57.286316" CO2_abs="3944.960017" HC_abs="0.351235" PMx_abs="0.057255" NOx_abs="1.538649" fuel_abs="1.695785" electricity_abs="0"
            CO_normed="2.745862" CO2_normed="189.090832" HC_normed="0.016835" PMx_normed="0.002744" NOx_normed="0.073751" fuel_normed="0.081283" electricity_normed="0"
            traveltime="1.26" CO_perVeh="1.193512" CO2_perVeh="82.189882" HC_perVeh="0.007318" PMx_perVeh="0.001193" NOx_perVeh="0.032056" fuel_perVeh="0.035330" electricity_perVeh="0"/>
        <edge id=":1110673549_1" sampledSeconds="638.41" CO_abs="15095.804999" CO2_abs="1927159.842599" HC_abs="114.874527" PMx_abs="34.157682" NOx_abs="723.868360" fuel_abs="828.397602" electricity_abs="0"
            CO_normed="699.923986" CO2_normed="89353.658149" HC_normed="5.326211" PMx_normed="1.583737" NOx_normed="33.562492" fuel_normed="38.409038" electricity_normed="0"
            traveltime="0.80" CO_perVeh="19.002628" CO2_perVeh="2425.912468" HC_perVeh="0.144604" PMx_perVeh="0.042998" NOx_perVeh="0.911207" fuel_perVeh="1.042788" electricity_perVeh="0"/>
        <edge id=":1110673556_0" sampledSeconds="417.44" CO_abs="51523.144878" CO2_abs="2586832.714948" HC_abs="296.122549" PMx_abs="52.217111" NOx_abs="1114.216065" fuel_abs="1111.967316" electricity_abs="0"
            CO_normed="1831.300998" CO2_normed="91944.491028" HC_normed="10.525163" PMx_normed="1.855967" NOx_normed="39.602881" fuel_normed="39.522953" electricity_normed="0"
            traveltime="2.59" CO_perVeh="319.830560" CO2_perVeh="16057.796119" HC_perVeh="1.838184" PMx_perVeh="0.324138" NOx_perVeh="6.916510" fuel_perVeh="6.902551" electricity_perVeh="0"/>
        <edge id=":1110673556_2" sampledSeconds="250.62" CO_abs="24690.658222" CO2_abs="1051885.824945" HC_abs="137.127069" PMx_abs="20.326895" NOx_abs="448.888993" fuel_abs="452.164557" electricity_abs="0"
            CO_normed="917.612495" CO2_normed="39092.662824" HC_normed="5.096240" PMx_normed="0.755436" NOx_normed="16.682672" fuel_normed="16.804406" electricity_normed="0"
            traveltime="3.04" CO_perVeh="299.492953" CO2_perVeh="12759.173485" HC_perVeh="1.663325" PMx_perVeh="0.246561" NOx_perVeh="5.444937" fuel_perVeh="5.484669" electricity_perVeh="0"/>
        <edge id=":1110673556_3" sampledSeconds="374.43" CO_abs="33236.858335" CO2_abs="1190252.820145" HC_abs="179.078574" PMx_abs="22.857729" NOx_abs="508.519725" fuel_abs="511.647709" electricity_abs="0"
            CO_normed="2809.935889" CO2_normed="100627.263927" HC_normed="15.139798" PMx_normed="1.932456" NOx_normed="42.991663" fuel_normed="43.256112" electricity_normed="0"
            traveltime="1.73" CO_perVeh="153.555770" CO2_perVeh="5499.021198" HC_perVeh="0.827351" PMx_perVeh="0.105604" NOx_perVeh="2.349384" fuel_perVeh="2.363835" electricity_perVeh="0"/>
        <edge id=":1110673556_4" sampledSeconds="164.14" CO_abs="16893.969897" CO2_abs="678327.767881" HC_abs="92.834207" PMx_abs="13.190153" NOx_abs="290.376637" fuel_abs="291.587232" electricity_abs="0"
            CO_normed="872.559814" CO2_normed="35035.077895" HC_normed="4.794811" PMx_normed="0.681261" NOx_normed="14.997717" fuel_normed="15.060244" electricity_normed="0"
            traveltime="2.39" CO_perVeh="246.068961" CO2_perVeh="9880.176787" HC_perVeh="1.352176" PMx_perVeh="0.192121" NOx_perVeh="4.229478" fuel_perVeh="4.247111" electricity_perVeh="0"/>
        <edge id=":1110673556_5" sampledSeconds="23.99" CO_abs="1782.922848" CO2_abs="74338.554374" HC_abs="9.852841" PMx_abs="1.385948" NOx_abs="31.412497" fuel_abs="31.955344" electricity_abs="0"
            CO_normed="128.349909" CO2_normed="5351.519672" HC_normed="0.709291" PMx_normed="0.099772" NOx_normed="2.261338" fuel_normed="2.300417" electricity_normed="0"
            traveltime="1.66" CO_perVeh="123.263802" CO2_perVeh="5139.455611" HC_perVeh="0.681184" PMx_perVeh="0.095819" NOx_perVeh="2.171728" fuel_perVeh="2.209258" electricity_perVeh="0"/>
        <edge id=":1110673556_6" sampledSeconds="309.78" CO_abs="36442.848776" CO2_abs="1859323.346520" HC_abs="210.133471" PMx_abs="37.277886" NOx_abs="798.601159" fuel_abs="799.242504" electricity_abs="0"
            CO_normed="1327.957726" CO2_normed="67752.738501" HC_normed="7.657150" PMx_normed="1.358386" NOx_normed="29.100595" fuel_normed="29.123965" electricity_normed="0"
            traveltime="2.45" CO_perVeh="288.598047" CO2_perVeh="14724.345214" HC_perVeh="1.664088" PMx_perVeh="0.295211" NOx_perVeh="6.324279" fuel_perVeh="6.329358" electricity_perVeh="0"/>
        <edge id=":1110673561_0" sampledSeconds="101.40" CO_abs="9253.087558" CO2_abs="665014.000359" HC_abs="58.144593" PMx_abs="13.426021" NOx_abs="281.010047" fuel_abs="285.857855" electricity_abs="0"
            CO_normed="423.638453" CO2_normed="30446.648285" HC_normed="2.662061" PMx_normed="0.614690" NOx_normed="12.865615" fuel_normed="13.087564" electricity_normed="0"
            traveltime="1.20" CO_perVeh="109.195414" CO2_perVeh="7847.810667" HC_perVeh="0.686163" PMx_perVeh="0.158440" NOx_perVeh="3.316191" fuel_perVeh="3.373400" electricity_perVeh="0"/>
        <edge id=":1110673561_1" sampledSeconds="1321.15" CO_abs="119089.484750" CO2_abs="8250129.654935" HC_abs="741.824711" PMx_abs="172.245096" NOx_abs="3526.355241" fuel_abs="3546.332557" electricity_abs="0"
            CO_normed="5315.703828" CO2_normed="368254.559810" HC_normed="33.112247" PMx_normed="7.688369" NOx_normed="157.403150" fuel_normed="158.294862" electricity_normed="0"
            traveltime="1.20" CO_perVeh="108.079165" CO2_perVeh="7487.370724" HC_perVeh="0.673240" PMx_perVeh="0.156320" NOx_perVeh="3.200329" fuel_perVeh="3.218459" electricity_perVeh="0"/>
        <edge id=":1110673562_0" sampledSeconds="104.76" CO_abs="1975.106028" CO2_abs="161656.342920" HC_abs="12.658466" PMx_abs="2.057602" NOx_abs="60.742527" fuel_abs="69.489950" electricity_abs="0"
            CO_normed="5603.137667" CO2_normed="458599.554382" HC_normed="35.910542" PMx_normed="5.837169" NOx_normed="172.319226" fuel_normed="197.134609" electricity_normed="0"
            traveltime="0.03" CO_perVeh="0.503466" CO2_perVeh="41.207128" HC_perVeh="0.003227" PMx_perVeh="0.000524" NOx_perVeh="0.015484" fuel_perVeh="0.017713" electricity_perVeh="0"/>
        <edge id=":1110673564_0" sampledSeconds="28.63" CO_abs="451.141800" CO2_abs="52048.201543" HC_abs="3.255635" PMx_abs="0.718350" NOx_abs="19.570435" fuel_abs="22.373347" electricity_abs="0"
            CO_normed="3455.554209" CO2_normed="398667.075652" HC_normed="24.936776" PMx_normed="5.502258" NOx_normed="149.901202" fuel_normed="171.370314" electricity_normed="0"
            traveltime="7.870093e-03" CO_perVeh="0.124025" CO2_perVeh="14.308784" HC_perVeh="0.000895" PMx_perVeh="0.000197" NOx_perVeh="0.005380" fuel_perVeh="0.006151" electricity_perVeh="0"/>
        <edge id=":1110673588_0" sampledSeconds="11.70" CO_abs="208.709637" CO2_abs="25667.752911" HC_abs="1.538420" PMx_abs="0.364428" NOx_abs="9.661786" fuel_abs="11.033471" electricity_abs="0"
            CO_normed="639.450804" CO2_normed="78641.625940" HC_normed="4.713456" PMx_normed="1.116545" NOx_normed="29.602067" fuel_normed="33.804678" electricity_normed="0"
            traveltime="0.02" CO_perVeh="0.347849" CO2_perVeh="42.779588" HC_perVeh="0.002564" PMx_perVeh="0.000607" NOx_perVeh="0.016103" fuel_perVeh="0.018389" electricity_perVeh="0"/>
        <edge id=":1110673601_0" sampledSeconds="29.33" CO_abs="504.297615" CO2_abs="65007.679021" HC_abs="3.784932" PMx_abs="0.858454" NOx_abs="24.083281" fuel_abs="27.944103" electricity_abs="0"
            CO_normed="1379.537549" CO2_normed="177832.556592" HC_normed="10.353919" PMx_normed="2.348354" NOx_normed="65.881315" fuel_normed="76.442835" electricity_normed="0"
            traveltime="0.02" CO_perVeh="0.374296" CO2_perVeh="48.249570" HC_perVeh="0.002809" PMx_perVeh="0.000637" NOx_perVeh="0.017875" fuel_perVeh="0.020740" electricity_perVeh="0"/>
        <edge id=":1110673617_0" sampledSeconds="240.88" CO_abs="5774.991468" CO2_abs="733732.341146" HC_abs="43.861713" PMx_abs="13.030600" NOx_abs="275.824868" fuel_abs="315.397849" electricity_abs="0"
            CO_normed="14744.659068" CO2_normed="1873359.168883" HC_normed="111.987353" PMx_normed="33.269618" NOx_normed="704.233706" fuel_normed="805.271104" electricity_normed="0"
            traveltime="0.01" CO_perVeh="0.350196" CO2_perVeh="44.493564" HC_perVeh="0.002660" PMx_perVeh="0.000790" NOx_perVeh="0.016726" fuel_perVeh="0.019126" electricity_perVeh="0"/>
        <edge id=":1110673621_0" sampledSeconds="25.76" CO_abs="565.851245" CO2_abs="59608.919833" HC_abs="3.958928" PMx_abs="0.896810" NOx_abs="22.920116" fuel_abs="25.623308" electricity_abs="0"
            CO_normed="1733.671900" CO2_normed="182631.584168" HC_normed="12.129481" PMx_normed="2.747672" NOx_normed="70.223334" fuel_normed="78.505455" electricity_normed="0"
            traveltime="0.02" CO_perVeh="0.428675" CO2_perVeh="45.158273" HC_perVeh="0.002999" PMx_perVeh="0.000679" NOx_perVeh="0.017364" fuel_perVeh="0.019412" electricity_perVeh="0"/>
        <edge id=":1110673630_0" sampledSeconds="53.38" CO_abs="385.740329" CO2_abs="36794.889240" HC_abs="2.602717" PMx_abs="0.511244" NOx_abs="13.998596" fuel_abs="15.816622" electricity_abs="0"
            CO_normed="21.074228" CO2_normed="2010.222498" HC_normed="0.142195" PMx_normed="0.027931" NOx_normed="0.764788" fuel_normed="0.864113" electricity_normed="0"
            traveltime="1.25" CO_perVeh="9.003862" CO2_perVeh="858.857797" HC_perVeh="0.060752" PMx_perVeh="0.011933" NOx_perVeh="0.326752" fuel_perVeh="0.369188" electricity_perVeh="0"/>
        <edge id=":1110673630_1" sampledSeconds="7.41" CO_abs="0.334728" CO2_abs="41.561504" HC_abs="0.002441" PMx_abs="0.000354" NOx_abs="0.014317" fuel_abs="0.017866" electricity_abs="0"
            CO_normed="0.022295" CO2_normed="2.768204" HC_normed="0.000163" PMx_normed="0.000024" NOx_normed="0.000954" fuel_normed="0.001190" electricity_normed="0"
            traveltime="1.05" CO_perVeh="0.047377" CO2_perVeh="5.882551" HC_perVeh="0.000345" PMx_perVeh="0.000050" NOx_perVeh="0.002026" fuel_perVeh="0.002529" electricity_perVeh="0"/>
        <edge id=":1110673650_0" sampledSeconds="147.66" CO_abs="2241.550664" CO2_abs="279657.247790" HC_abs="16.617374" PMx_abs="3.815150" NOx_abs="104.375138" fuel_abs="120.212917" electricity_abs="0"
            CO_normed="5723.108078" CO2_normed="714018.504996" HC_normed="42.427338" PMx_normed="9.740809" NOx_normed="266.489713" fuel_normed="306.926596" electricity_normed="0"
            traveltime="0.02" CO_perVeh="0.350425" CO2_perVeh="43.719215" HC_perVeh="0.002598" PMx_perVeh="0.000596" NOx_perVeh="0.016317" fuel_perVeh="0.018793" electricity_perVeh="0"/>
        <edge id=":1110673655_0" sampledSeconds="45.01" CO_abs="870.495514" CO2_abs="93811.524624" HC_abs="6.132609" PMx_abs="1.345376" NOx_abs="35.668042" fuel_abs="40.325618" electricity_abs="0"
            CO_normed="2222.541738" CO2_normed="239518.786273" HC_normed="15.657724" PMx_normed="3.435003" NOx_normed="91.067340" fuel_normed="102.959024" electricity_normed="0"
            traveltime="0.02" CO_perVeh="0.465879" CO2_perVeh="50.206864" HC_perVeh="0.003282" PMx_perVeh="0.000720" NOx_perVeh="0.019089" fuel_perVeh="0.021582" electricity_perVeh="0"/>
        <edge id=":1110673663_0" sampledSeconds="107.76" CO_abs="1866.190189" CO2_abs="241516.278399" HC_abs="13.939706" PMx_abs="3.238885" NOx_abs="89.584447" fuel_abs="103.817744" electricity_abs="0"
            CO_normed="87.266317" CO2_normed="11293.723563" HC_normed="0.651845" PMx_normed="0.151456" NOx_normed="4.189125" fuel_normed="4.854699" electricity_normed="0"
            traveltime="1.27" CO_perVeh="21.919284" CO2_perVeh="2836.722626" HC_perVeh="0.163728" PMx_perVeh="0.038042" NOx_perVeh="1.052212" fuel_perVeh="1.219388" electricity_perVeh="0"/>
        <edge id=":1110673663_1" sampledSeconds="153.58" CO_abs="2751.749732" CO2_abs="334600.368686" HC_abs="20.192894" PMx_abs="4.674580" NOx_abs="125.644338" fuel_abs="143.830541" electricity_abs="0"
            CO_normed="128.833936" CO2_normed="15665.626167" HC_normed="0.945409" PMx_normed="0.218859" NOx_normed="5.882532" fuel_normed="6.733990" electricity_normed="0"
            traveltime="1.24" CO_perVeh="22.295436" CO2_perVeh="2711.024538" HC_perVeh="0.163608" PMx_perVeh="0.037875" NOx_perVeh="1.018005" fuel_perVeh="1.165355" electricity_perVeh="0"/>
        <edge id=":1110673666_0" sampledSeconds="207.93" CO_abs="4420.685426" CO2_abs="349125.077112" HC_abs="28.096727" PMx_abs="4.739597" NOx_abs="133.274943" fuel_abs="150.075333" electricity_abs="0"