<?xml version="1.0" encoding="UTF-8"?>

<!-- generated on Tue Nov 10 02:39:17 2020 by Eclipse SUMO sumo Version 1.7.0
<configuration xmlns:xsi="http://www.w3.org/2001/XMLSchema-instance" xsi:noNamespaceSchemaLocation="http://sumo.dlr.de/xsd/sumoConfiguration.xsd">

    <input>
        <net-file value="../dataSets/Porto/6AM7AM_Routing_SaoBento/Porto.net.xml"/>
        <route-files value="../results/Porto/6AM7AM_Routing_SaoBento/inputdata/Porto-base.rou.xml"/>
        <additional-files value="moreOutputInfo.xml"/>
    </input>

    <output>
        <emission-output.precision value="6"/>
        <tripinfo-output value="../results/Porto/6AM7AM_Routing_SaoBento/inputdata/Porto-tripinfo"/>
    </output>

    <processing>
        <collision.action value="warn"/>
        <time-to-teleport value="-1"/>
    </processing>

    <emissions>
        <device.emissions.probability value="1"/>
    </emissions>

    <gui_only>
        <quit-on-end value="true"/>
        <start value="true"/>
    </gui_only>

</configuration>
-->

<meandata xmlns:xsi="http://www.w3.org/2001/XMLSchema-instance" xsi:noNamespaceSchemaLocation="http://sumo.dlr.de/xsd/meandata_file.xsd">
    <interval begin="0.00" end="4700.00" id="emissions-detector">
        <edge id=":1092997347_0" sampledSeconds="271.06" CO_abs="34596.606296" CO2_abs="1358052.149312" HC_abs="189.608240" PMx_abs="27.683154" NOx_abs="589.437842" fuel_abs="583.773545" electricity_abs="0"
            CO_normed="60226.200516" CO2_normed="2364113.993000" HC_normed="330.072371" PMx_normed="48.191177" NOx_normed="1026.100692" fuel_normed="1016.240213" electricity_normed="0"
            traveltime="0.08" CO_perVeh="9.712117" CO2_perVeh="381.238601" HC_perVeh="0.053228" PMx_perVeh="0.007771" NOx_perVeh="0.165470" fuel_perVeh="0.163880" electricity_perVeh="0"/>
        <edge id=":1103427051_0" sampledSeconds="10.95" CO_abs="862.399909" CO2_abs="48927.706401" HC_abs="5.090233" PMx_abs="0.966975" NOx_abs="20.913925" fuel_abs="21.031840" electricity_abs="0"
            CO_normed="2277.798732" CO2_normed="129229.451977" HC_normed="13.444489" PMx_normed="2.554005" NOx_normed="55.238541" fuel_normed="55.549980" electricity_normed="0"
            traveltime="0.03" CO_perVeh="2.362963" CO2_perVeh="134.061176" HC_perVeh="0.013947" PMx_perVeh="0.002649" NOx_perVeh="0.057304" fuel_perVeh="0.057627" electricity_perVeh="0"/>
        <edge id=":1105984386_0" sampledSeconds="22.94" CO_abs="353.569398" CO2_abs="28530.465900" HC_abs="2.257504" PMx_abs="0.368206" NOx_abs="10.774052" fuel_abs="12.264163" electricity_abs="0"
            CO_normed="27.890743" CO2_normed="2250.579075" HC_normed="0.178079" PMx_normed="0.029045" NOx_normed="0.849893" fuel_normed="0.967438" electricity_normed="0"
            traveltime="0.96" CO_perVeh="14.839034" CO2_perVeh="1197.401556" HC_perVeh="0.094746" PMx_perVeh="0.015453" NOx_perVeh="0.452179" fuel_perVeh="0.514717" electricity_perVeh="0"/>
        <edge id=":1105984390_0" sampledSeconds="22.44" CO_abs="2.037995" CO2_abs="131.524185" HC_abs="0.012294" PMx_abs="0.001945" NOx_abs="0.051714" fuel_abs="0.056537" electricity_abs="0"
            CO_normed="0.124285" CO2_normed="8.020854" HC_normed="0.000750" PMx_normed="0.000119" NOx_normed="0.003154" fuel_normed="0.003448" electricity_normed="0"
            traveltime="1.02" CO_perVeh="0.092422" CO2_perVeh="5.964557" HC_perVeh="0.000558" PMx_perVeh="0.000088" NOx_perVeh="0.002345" fuel_perVeh="0.002564" electricity_perVeh="0"/>
        <edge id=":1105984390_1" sampledSeconds="646.18" CO_abs="14880.915326" CO2_abs="1958053.144045" HC_abs="114.606227" PMx_abs="34.496838" NOx_abs="731.289530" fuel_abs="841.677430" electricity_abs="0"
            CO_normed="868.099612" CO2_normed="114225.848205" HC_normed="6.685719" PMx_normed="2.012423" NOx_normed="42.660827" fuel_normed="49.100464" electricity_normed="0"
            traveltime="0.64" CO_perVeh="14.651871" CO2_perVeh="1927.915199" HC_perVeh="0.112842" PMx_perVeh="0.033966" NOx_perVeh="0.720034" fuel_perVeh="0.828723" electricity_perVeh="0"/>
        <edge id=":1105984395_0" sampledSeconds="9.06" CO_abs="163.974580" CO2_abs="14562.419814" HC_abs="1.075727" PMx_abs="0.176174" NOx_abs="5.401622" fuel_abs="6.259837" electricity_abs="0"
            CO_normed="136.519077" CO2_normed="12124.123804" HC_normed="0.895610" PMx_normed="0.146676" NOx_normed="4.497187" fuel_normed="5.211705" electricity_normed="0"
            traveltime="0.09" CO_perVeh="1.662882" CO2_perVeh="147.678861" HC_perVeh="0.010909" PMx_perVeh="0.001787" NOx_perVeh="0.054778" fuel_perVeh="0.063482" electricity_perVeh="0"/>
        <edge id=":1105984398_0" sampledSeconds="23.56" CO_abs="1613.002941" CO2_abs="108163.325457" HC_abs="9.906455" PMx_abs="2.011327" NOx_abs="45.061793" fuel_abs="46.494571" electricity_abs="0"
            CO_normed="102.191201" CO2_normed="6852.647197" HC_normed="0.627620" PMx_normed="0.127427" NOx_normed="2.854873" fuel_normed="2.945646" electricity_normed="0"
            traveltime="1.12" CO_perVeh="76.497358" CO2_perVeh="5129.692184" HC_perVeh="0.469818" PMx_perVeh="0.095388" NOx_perVeh="2.137075" fuel_perVeh="2.205025" electricity_perVeh="0"/>
        <edge id=":1105984398_1" sampledSeconds="453.37" CO_abs="8004.175157" CO2_abs="931213.134239" HC_abs="57.797670" PMx_abs="13.320872" NOx_abs="352.255586" fuel_abs="400.288882" electricity_abs="0"
            CO_normed="490.861294" CO2_normed="57107.256584" HC_normed="3.544480" PMx_normed="0.816911" NOx_normed="21.602305" fuel_normed="24.547978" electricity_normed="0"
            traveltime="0.96" CO_perVeh="16.883472" CO2_perVeh="1964.238733" HC_perVeh="0.121915" PMx_perVeh="0.028098" NOx_perVeh="0.743024" fuel_perVeh="0.844343" electricity_perVeh="0"/>
        <edge id=":1106006327_0" sampledSeconds="38.59" CO_abs="5217.343443" CO2_abs="169399.775646" HC_abs="27.744773" PMx_abs="3.536651" NOx_abs="74.168736" fuel_abs="72.818976" electricity_abs="0"
            CO_normed="451.045492" CO2_normed="14644.810344" HC_normed="2.398568" PMx_normed="0.305748" NOx_normed="6.411975" fuel_normed="6.295286" electricity_normed="0"
            traveltime="2.09" CO_perVeh="283.037368" CO2_perVeh="9189.823734" HC_perVeh="1.505135" PMx_perVeh="0.191861" NOx_perVeh="4.023604" fuel_perVeh="3.950380" electricity_perVeh="0"/>
        <edge id=":1106006327_1" sampledSeconds="161.19" CO_abs="21765.783976" CO2_abs="727819.506272" HC_abs="116.258566" PMx_abs="15.169281" NOx_abs="318.457794" fuel_abs="312.863369" electricity_abs="0"
            CO_normed="1640.911843" CO2_normed="54869.957752" HC_normed="8.764677" PMx_normed="1.143605" NOx_normed="24.008378" fuel_normed="23.586617" electricity_normed="0"
            traveltime="2.29" CO_perVeh="308.993356" CO2_perVeh="10332.335937" HC_perVeh="1.650440" PMx_perVeh="0.215347" NOx_perVeh="4.520919" fuel_perVeh="4.441499" electricity_perVeh="0"/>
        <edge id=":1106006327_2" sampledSeconds="0.00" CO_abs="0" CO2_abs="0" HC_abs="0" PMx_abs="0" NOx_abs="0" fuel_abs="0" electricity_abs="0"
            CO_normed="0" CO2_normed="0" HC_normed="0" PMx_normed="0" NOx_normed="0" fuel_normed="0" electricity_normed="0"/>
        <edge id=":1106006327_3" sampledSeconds="0.00" CO_abs="0" CO2_abs="0" HC_abs="0" PMx_abs="0" NOx_abs="0" fuel_abs="0" electricity_abs="0"
            CO_normed="0" CO2_normed="0" HC_normed="0" PMx_normed="0" NOx_normed="0" fuel_normed="0" electricity_normed="0"/>
        <edge id=":1107381198_0" sampledSeconds="0.00" CO_abs="0" CO2_abs="0" HC_abs="0" PMx_abs="0" NOx_abs="0" fuel_abs="0" electricity_abs="0"
            CO_normed="0" CO2_normed="0" HC_normed="0" PMx_normed="0" NOx_normed="0" fuel_normed="0" electricity_normed="0"/>
        <edge id=":1107381198_1" sampledSeconds="36.35" CO_abs="1612.217928" CO2_abs="63908.936920" HC_abs="8.806677" PMx_abs="1.074339" NOx_abs="26.281596" fuel_abs="27.472288" electricity_abs="0"
            CO_normed="134.666339" CO2_normed="5338.225316" HC_normed="0.735610" PMx_normed="0.089738" NOx_normed="2.195265" fuel_normed="2.294722" electricity_normed="0"
            traveltime="1.50" CO_perVeh="66.379483" CO2_perVeh="2631.308152" HC_perVeh="0.362595" PMx_perVeh="0.044234" NOx_perVeh="1.082086" fuel_perVeh="1.131110" electricity_perVeh="0"/>
        <edge id=":1110338277_0" sampledSeconds="96.96" CO_abs="1565.501729" CO2_abs="183387.813538" HC_abs="11.299630" PMx_abs="2.533173" NOx_abs="68.835911" fuel_abs="78.830734" electricity_abs="0"
            CO_normed="4282.527526" CO2_normed="501668.790834" HC_normed="30.910843" PMx_normed="6.929653" NOx_normed="188.304923" fuel_normed="215.646386" electricity_normed="0"
            traveltime="0.02" CO_perVeh="0.352815" CO2_perVeh="41.329825" HC_perVeh="0.002547" PMx_perVeh="0.000571" NOx_perVeh="0.015513" fuel_perVeh="0.017766" electricity_perVeh="0"/>
        <edge id=":1110338293_0" sampledSeconds="123.84" CO_abs="6259.065886" CO2_abs="431459.149024" HC_abs="38.646333" PMx_abs="7.605076" NOx_abs="176.872059" fuel_abs="185.465477" electricity_abs="0"
            CO_normed="15980.593751" CO2_normed="1101597.827296" HC_normed="98.671488" PMx_normed="19.417214" NOx_normed="451.588235" fuel_normed="473.528877" electricity_normed="0"
            traveltime="0.03" CO_perVeh="1.435626" CO2_perVeh="98.962662" HC_perVeh="0.008864" PMx_perVeh="0.001744" NOx_perVeh="0.040569" fuel_perVeh="0.042540" electricity_perVeh="0"/>
        <edge id=":1110338295_0" sampledSeconds="0.00" CO_abs="0" CO2_abs="0" HC_abs="0" PMx_abs="0" NOx_abs="0" fuel_abs="0" electricity_abs="0"
            CO_normed="0" CO2_normed="0" HC_normed="0" PMx_normed="0" NOx_normed="0" fuel_normed="0" electricity_normed="0"/>
        <edge id=":1110673403_0" sampledSeconds="143.55" CO_abs="2256.991091" CO2_abs="284765.924535" HC_abs="16.799173" PMx_abs="3.877622" NOx_abs="106.199519" fuel_abs="122.408914" electricity_abs="0"
            CO_normed="5762.530446" CO2_normed="727061.934983" HC_normed="42.891506" PMx_normed="9.900312" NOx_normed="271.147709" fuel_normed="312.533399" electricity_normed="0"
            traveltime="0.02" CO_perVeh="0.362375" CO2_perVeh="45.721048" HC_perVeh="0.002697" PMx_perVeh="0.000623" NOx_perVeh="0.017051" fuel_perVeh="0.019654" electricity_perVeh="0"/>
        <edge id=":1110673412_0" sampledSeconds="258.50" CO_abs="46305.626608" CO2_abs="3151209.650519" HC_abs="287.981904" PMx_abs="69.332098" NOx_abs="1355.267967" fuel_abs="1354.549750" electricity_abs="0"
            CO_normed="122303.929413" CO2_normed="8323077.580241" HC_normed="760.627187" PMx_normed="183.122197" NOx_normed="3579.577904" fuel_normed="3577.680923" electricity_normed="0"
            traveltime="0.02" CO_perVeh="2.786905" CO2_perVeh="189.655588" HC_perVeh="0.017332" PMx_perVeh="0.004173" NOx_perVeh="0.081567" fuel_perVeh="0.081524" electricity_perVeh="0"/>
        <edge id=":1110673414_0" sampledSeconds="0.00" CO_abs="0" CO2_abs="0" HC_abs="0" PMx_abs="0" NOx_abs="0" fuel_abs="0" electricity_abs="0"
            CO_normed="0" CO2_normed="0" HC_normed="0" PMx_normed="0" NOx_normed="0" fuel_normed="0" electricity_normed="0"/>
        <edge id=":1110673414_1" sampledSeconds="14.37" CO_abs="1139.139248" CO2_abs="43603.179401" HC_abs="6.199944" PMx_abs="0.807238" NOx_abs="18.416312" fuel_abs="18.743450" electricity_abs="0"
            CO_normed="96.625935" CO2_normed="3698.580284" HC_normed="0.525902" PMx_normed="0.068473" NOx_normed="1.562139" fuel_normed="1.589888" electricity_normed="0"
            traveltime="1.57" CO_perVeh="124.412523" CO2_perVeh="4762.175980" HC_perVeh="0.677135" PMx_perVeh="0.088164" NOx_perVeh="2.011361" fuel_perVeh="2.047089" electricity_perVeh="0"/>
        <edge id=":1110673417_0" sampledSeconds="29.73" CO_abs="476.228802" CO2_abs="60556.972045" HC_abs="3.542381" PMx_abs="0.815823" NOx_abs="22.502266" fuel_abs="26.030910" electricity_abs="0"
            CO_normed="1302.753563" CO2_normed="165657.370337" HC_normed="9.690404" PMx_normed="2.231734" NOx_normed="61.556351" fuel_normed="71.209177" electricity_normed="0"
            traveltime="0.02" CO_perVeh="0.353463" CO2_perVeh="44.946195" HC_perVeh="0.002629" PMx_perVeh="0.000606" NOx_perVeh="0.016701" fuel_perVeh="0.019320" electricity_perVeh="0"/>
        <edge id=":1110673446_0" sampledSeconds="342.99" CO_abs="3231.967012" CO2_abs="261713.268428" HC_abs="20.904000" PMx_abs="4.797297" NOx_abs="107.024508" fuel_abs="112.498502" electricity_abs="0"
            CO_normed="8251.830668" CO2_normed="668204.089603" HC_normed="53.371915" PMx_normed="12.248419" NOx_normed="273.254064" fuel_normed="287.230219" electricity_normed="0"
            traveltime="0.02" CO_perVeh="0.215487" CO2_perVeh="17.449348" HC_perVeh="0.001394" PMx_perVeh="0.000320" NOx_perVeh="0.007136" fuel_perVeh="0.007501" electricity_perVeh="0"/>
        <edge id=":1110673451_0" sampledSeconds="37.68" CO_abs="286.048710" CO2_abs="21964.609281" HC_abs="1.805523" PMx_abs="0.309318" NOx_abs="8.466238" fuel_abs="9.441723" electricity_abs="0"
            CO_normed="811.485701" CO2_normed="62310.948316" HC_normed="5.122052" PMx_normed="0.877499" NOx_normed="24.017697" fuel_normed="26.785029" electricity_normed="0"
            traveltime="0.03" CO_perVeh="0.205135" CO2_perVeh="15.751513" HC_perVeh="0.001295" PMx_perVeh="0.000222" NOx_perVeh="0.006071" fuel_perVeh="0.006771" electricity_perVeh="0"/>
        <edge id=":1110673464_0" sampledSeconds="322.91" CO_abs="670.822084" CO2_abs="55185.739614" HC_abs="4.323958" PMx_abs="0.790273" NOx_abs="21.250569" fuel_abs="23.722131" electricity_abs="0"
            CO_normed="36.389601" CO2_normed="2993.620978" HC_normed="0.234559" PMx_normed="0.042869" NOx_normed="1.152764" fuel_normed="1.286837" electricity_normed="0"
            traveltime="1.17" CO_perVeh="2.424933" CO2_perVeh="199.489168" HC_perVeh="0.015631" PMx_perVeh="0.002857" NOx_perVeh="0.076818" fuel_perVeh="0.085752" electricity_perVeh="0"/>
        <edge id=":1110673464_1" sampledSeconds="709.54" CO_abs="15242.050358" CO2_abs="2012348.862362" HC_abs="117.144925" PMx_abs="35.359131" NOx_abs="750.756848" fuel_abs="865.016721" electricity_abs="0"
            CO_normed="810.184731" CO2_normed="106965.551471" HC_normed="6.226789" PMx_normed="1.879500" NOx_normed="39.906162" fuel_normed="45.979597" electricity_normed="0"
            traveltime="0.70" CO_perVeh="15.044218" CO2_perVeh="1986.229881" HC_perVeh="0.115624" PMx_perVeh="0.034900" NOx_perVeh="0.741013" fuel_perVeh="0.853789" electricity_perVeh="0"/>
        <edge id=":1110673479_0" sampledSeconds="133.03" CO_abs="6959.416632" CO2_abs="482184.550169" HC_abs="43.040597" PMx_abs="8.553153" NOx_abs="197.954243" fuel_abs="207.270009" electricity_abs="0"
            CO_normed="17768.723315" CO2_normed="1231109.489793" HC_normed="109.890885" PMx_normed="21.837837" NOx_normed="505.415089" fuel_normed="529.200023" electricity_normed="0"
            traveltime="0.03" CO_perVeh="1.466066" CO2_perVeh="101.576691" HC_perVeh="0.009067" PMx_perVeh="0.001802" NOx_perVeh="0.041701" fuel_perVeh="0.043663" electricity_perVeh="0"/>
        <edge id=":1110673511_0" sampledSeconds="11.80" CO_abs="267.255129" CO2_abs="29696.126950" HC_abs="1.894365" PMx_abs="0.420336" NOx_abs="11.249807" fuel_abs="12.765113" electricity_abs="0"
            CO_normed="682.353521" CO2_normed="75819.898595" HC_normed="4.836676" PMx_normed="1.073199" NOx_normed="28.722911" fuel_normed="32.591777" electricity_normed="0"
            traveltime="0.02" CO_perVeh="0.529218" CO2_perVeh="58.804212" HC_perVeh="0.003751" PMx_perVeh="0.000832" NOx_perVeh="0.022277" fuel_perVeh="0.025277" electricity_perVeh="0"/>
        <edge id=":1110673517_0" sampledSeconds="17.33" CO_abs="587.163788" CO2_abs="43623.052068" HC_abs="3.692608" PMx_abs="0.721085" NOx_abs="17.507448" fuel_abs="18.751689" electricity_abs="0"
            CO_normed="1499.141585" CO2_normed="111378.005280" HC_normed="9.427934" PMx_normed="1.841069" NOx_normed="44.699866" fuel_normed="47.876653" electricity_normed="0"
            traveltime="0.03" CO_perVeh="0.942730" CO2_perVeh="70.039688" HC_perVeh="0.005929" PMx_perVeh="0.001158" NOx_perVeh="0.028109" fuel_perVeh="0.030107" electricity_perVeh="0"/>
        <edge id=":1110673534_0" sampledSeconds="515.14" CO_abs="3099.796227" CO2_abs="270414.055627" HC_abs="20.271707" PMx_abs="3.605058" NOx_abs="102.338371" fuel_abs="116.240385" electricity_abs="0"
            CO_normed="153.379328" CO2_normed="13380.210570" HC_normed="1.003053" PMx_normed="0.178380" NOx_normed="5.063749" fuel_normed="5.751627" electricity_normed="0"
            traveltime="1.44" CO_perVeh="8.656805" CO2_perVeh="755.185726" HC_perVeh="0.056613" PMx_perVeh="0.010068" NOx_perVeh="0.285801" fuel_perVeh="0.324625" electricity_perVeh="0"/>
        <edge id=":1110673534_1" sampledSeconds="151.83" CO_abs="2335.741829" CO2_abs="297618.916853" HC_abs="17.350379" PMx_abs="3.980870" NOx_abs="110.468784" fuel_abs="127.933955" electricity_abs="0"
            CO_normed="112.379325" CO2_normed="14319.310658" HC_normed="0.834777" PMx_normed="0.191531" NOx_normed="5.314974" fuel_normed="6.155274" electricity_normed="0"
            traveltime="1.22" CO_perVeh="18.739422" CO2_perVeh="2387.766669" HC_perVeh="0.139200" PMx_perVeh="0.031938" NOx_perVeh="0.886280" fuel_perVeh="1.026401" electricity_perVeh="0"/>
        <edge id=":1110673549_0" sampledSeconds="60.91" CO_abs="66.238162" CO2_abs="4634.995752" HC_abs="0.405564" PMx_abs="0.054981" NOx_abs="1.721998" fuel_abs="1.992423" electricity_abs="0"
            CO_normed="3.174945" CO2_normed="222.165802" HC_normed="0.019440" PMx_normed="0.002635" NOx_normed="0.082539" fuel_normed="0.095501" electricity_normed="0"
            traveltime="1.27" CO_perVeh="1.380016" CO2_perVeh="96.566188" HC_perVeh="0.008450" PMx_perVeh="0.001145" NOx_perVeh="0.035876" fuel_perVeh="0.041510" electricity_perVeh="0"/>
        <edge id=":1110673549_1" sampledSeconds="638.39" CO_abs="13943.305524" CO2_abs="1853115.209108" HC_abs="107.764829" PMx_abs="32.542073" NOx_abs="691.043866" fuel_abs="796.569485" electricity_abs="0"
            CO_normed="646.487815" CO2_normed="85920.544444" HC_normed="4.996566" PMx_normed="1.508828" NOx_normed="32.040569" fuel_normed="36.933313" electricity_normed="0"
            traveltime="0.80" CO_perVeh="17.551878" CO2_perVeh="2332.707459" HC_perVeh="0.135655" PMx_perVeh="0.040964" NOx_perVeh="0.869888" fuel_perVeh="1.002724" electricity_perVeh="0"/>
        <edge id=":1110673556_0" sampledSeconds="418.69" CO_abs="51687.756328" CO2_abs="2590075.525400" HC_abs="296.949296" PMx_abs="52.317930" NOx_abs="1116.085098" fuel_abs="1113.361266" electricity_abs="0"
            CO_normed="1837.151827" CO2_normed="92059.751113" HC_normed="10.554549" PMx_normed="1.859550" NOx_normed="39.669313" fuel_normed="39.572499" electricity_normed="0"
            traveltime="2.60" CO_perVeh="320.852388" CO2_perVeh="16077.925905" HC_perVeh="1.843316" PMx_perVeh="0.324764" NOx_perVeh="6.928112" fuel_perVeh="6.911204" electricity_perVeh="0"/>
        <edge id=":1110673556_2" sampledSeconds="250.61" CO_abs="24561.379978" CO2_abs="1055236.551312" HC_abs="136.613419" PMx_abs="20.337263" NOx_abs="449.936044" fuel_abs="453.604811" electricity_abs="0"
            CO_normed="912.807952" CO2_normed="39217.190423" HC_normed="5.077150" PMx_normed="0.755821" NOx_normed="16.721585" fuel_normed="16.857932" electricity_normed="0"
            traveltime="3.04" CO_perVeh="297.924832" CO2_perVeh="12799.817154" HC_perVeh="1.657095" PMx_perVeh="0.246687" NOx_perVeh="5.457638" fuel_perVeh="5.502139" electricity_perVeh="0"/>
        <edge id=":1110673556_3" sampledSeconds="410.40" CO_abs="35408.169829" CO2_abs="1245456.341018" HC_abs="190.159837" PMx_abs="23.546257" NOx_abs="529.780206" fuel_abs="535.378854" electricity_abs="0"
            CO_normed="2993.504565" CO2_normed="105294.322194" HC_normed="16.076638" PMx_normed="1.990666" NOx_normed="44.789083" fuel_normed="45.262408" electricity_normed="0"
            traveltime="1.75" CO_perVeh="150.840262" CO2_perVeh="5305.695313" HC_perVeh="0.810089" PMx_perVeh="0.100308" NOx_perVeh="2.256886" fuel_perVeh="2.280736" electricity_perVeh="0"/>
        <edge id=":1110673556_4" sampledSeconds="205.44" CO_abs="21072.619453" CO2_abs="845713.487880" HC_abs="115.784226" PMx_abs="16.435840" NOx_abs="362.022545" fuel_abs="363.539985" electricity_abs="0"
            CO_normed="1088.383668" CO2_normed="43680.414289" HC_normed="5.980161" PMx_normed="0.848898" NOx_normed="18.698170" fuel_normed="18.776545" electricity_normed="0"
            traveltime="2.39" CO_perVeh="245.546434" CO2_perVeh="9854.585547" HC_perVeh="1.349163" PMx_perVeh="0.191517" NOx_perVeh="4.218429" fuel_perVeh="4.236111" electricity_perVeh="0"/>
        <edge id=":1110673556_5" sampledSeconds="23.64" CO_abs="1500.751379" CO2_abs="62199.844919" HC_abs="8.269362" PMx_abs="1.081951" NOx_abs="25.791474" fuel_abs="26.737495" electricity_abs="0"
            CO_normed="108.036813" CO2_normed="4477.672407" HC_normed="0.595299" PMx_normed="0.077888" NOx_normed="1.856689" fuel_normed="1.924792" electricity_normed="0"
            traveltime="1.63" CO_perVeh="103.755651" CO2_perVeh="4300.236192" HC_perVeh="0.571709" PMx_perVeh="0.074802" NOx_perVeh="1.783114" fuel_perVeh="1.848518" electricity_perVeh="0"/>
        <edge id=":1110673556_6" sampledSeconds="486.25" CO_abs="57130.809587" CO2_abs="2794723.991721" HC_abs="326.513064" PMx_abs="56.205253" NOx_abs="1202.568667" fuel_abs="1201.332327" electricity_abs="0"
            CO_normed="2081.815844" CO2_normed="101838.232789" HC_normed="11.897960" PMx_normed="2.048089" NOx_normed="43.820953" fuel_normed="43.775901" electricity_normed="0"
            traveltime="2.61" CO_perVeh="306.580892" CO2_perVeh="14997.318972" HC_perVeh="1.752166" PMx_perVeh="0.301614" NOx_perVeh="6.453341" fuel_perVeh="6.446706" electricity_perVeh="0"/>
        <edge id=":1110673561_0" sampledSeconds="100.46" CO_abs="10286.242512" CO2_abs="727791.553160" HC_abs="64.390148" PMx_abs="14.850480" NOx_abs="308.799667" fuel_abs="312.842808" electricity_abs="0"
            CO_normed="470.939872" CO2_normed="33320.822467" HC_normed="2.948004" PMx_normed="0.679906" NOx_normed="14.137920" fuel_normed="14.323029" electricity_normed="0"
            traveltime="1.19" CO_perVeh="121.387645" CO2_perVeh="8588.646722" HC_perVeh="0.759866" PMx_perVeh="0.175250" NOx_perVeh="3.644136" fuel_perVeh="3.691849" electricity_perVeh="0"/>
        <edge id=":1110673561_1" sampledSeconds="1348.72" CO_abs="124332.787468" CO2_abs="8601986.553552" HC_abs="774.190543" PMx_abs="179.800569" NOx_abs="3678.427703" fuel_abs="3697.578633" electricity_abs="0"
            CO_normed="5549.745014" CO2_normed="383960.119932" HC_normed="34.556935" PMx_normed="8.025617" NOx_normed="164.191089" fuel_normed="165.045914" electricity_normed="0"
            traveltime="1.20" CO_perVeh="110.239897" CO2_perVeh="7626.967384" HC_perVeh="0.686437" PMx_perVeh="0.159421" NOx_perVeh="3.261485" fuel_perVeh="3.278465" electricity_perVeh="0"/>
        <edge id=":1110673562_0" sampledSeconds="103.90" CO_abs="2379.348021" CO2_abs="188875.317569" HC_abs="15.142156" PMx_abs="2.550309" NOx_abs="72.019211" fuel_abs="81.190185" electricity_abs="0"
            CO_normed="6749.923464" CO2_normed="535816.503743" HC_normed="42.956471" PMx_normed="7.234920" NOx_normed="204.309818" fuel_normed="230.326766" electricity_normed="0"
            traveltime="0.03" CO_perVeh="0.606507" CO2_perVeh="48.145178" HC_perVeh="0.003860" PMx_perVeh="0.000650" NOx_perVeh="0.018358" fuel_perVeh="0.020696" electricity_perVeh="0"/>
        <edge id=":1110673564_0" sampledSeconds="28.84" CO_abs="364.323336" CO2_abs="46225.662662" HC_abs="2.704205" PMx_abs="0.612406" NOx_abs="17.111499" fuel_abs="19.870496" electricity_abs="0"
            CO_normed="2790.561721" CO2_normed="354068.905494" HC_normed="20.713059" PMx_normed="4.690771" NOx_normed="131.066803" fuel_normed="152.199541" electricity_normed="0"
            traveltime="7.928280e-03" CO_perVeh="0.100158" CO2_perVeh="12.708086" HC_perVeh="0.000743" PMx_perVeh="0.000168" NOx_perVeh="0.004704" fuel_perVeh="0.005463" electricity_perVeh="0"/>
        <edge id=":1110673588_0" sampledSeconds="11.75" CO_abs="249.877784" CO2_abs="26383.757128" HC_abs="1.749559" PMx_abs="0.388716" NOx_abs="10.101821" fuel_abs="11.341253" electricity_abs="0"
            CO_normed="765.582997" CO2_normed="80835.340989" HC_normed="5.360350" PMx_normed="1.190958" NOx_normed="30.950261" fuel_normed="34.747667" electricity_normed="0"
            traveltime="0.02" CO_perVeh="0.416482" CO2_perVeh="43.974903" HC_perVeh="0.002916" PMx_perVeh="0.000648" NOx_perVeh="0.016837" fuel_perVeh="0.018903" electricity_perVeh="0"/>
        <edge id=":1110673601_0" sampledSeconds="29.78" CO_abs="466.180155" CO2_abs="47241.733179" HC_abs="3.214173" PMx_abs="0.707756" NOx_abs="18.197672" fuel_abs="20.307201" electricity_abs="0"
            CO_normed="1275.264861" CO2_normed="129232.704745" HC_normed="8.792570" PMx_normed="1.936111" NOx_normed="49.780865" fuel_normed="55.551614" electricity_normed="0"
            traveltime="0.02" CO_perVeh="0.346005" CO2_perVeh="35.063447" HC_perVeh="0.002386" PMx_perVeh="0.000525" NOx_perVeh="0.013507" fuel_perVeh="0.015072" electricity_perVeh="0"/>
        <edge id=":1110673617_0" sampledSeconds="238.84" CO_abs="5674.469788" CO2_abs="695000.596056" HC_abs="42.451248" PMx_abs="12.462759" NOx_abs="262.813567" fuel_abs="298.748755" electricity_abs="0"
            CO_normed="14488.007968" CO2_normed="1774469.606952" HC_normed="108.386164" PMx_normed="31.819811" NOx_normed="671.013362" fuel_normed="762.762778" electricity_normed="0"
            traveltime="0.01" CO_perVeh="0.347524" CO2_perVeh="42.564171" HC_perVeh="0.002600" PMx_perVeh="0.000763" NOx_perVeh="0.016096" fuel_perVeh="0.018296" electricity_perVeh="0"/>
        <edge id=":1110673621_0" sampledSeconds="25.90" CO_abs="495.689097" CO2_abs="52758.957704" HC_abs="3.481737" PMx_abs="0.769469" NOx_abs="20.134732" fuel_abs="22.678838" electricity_abs="0"
            CO_normed="1518.707022" CO2_normed="161644.466158" HC_normed="10.667451" PMx_normed="2.357521" NOx_normed="61.689391" fuel_normed="69.484098" electricity_normed="0"
            traveltime="0.02" CO_perVeh="0.375522" CO2_perVeh="39.968907" HC_perVeh="0.002638" PMx_perVeh="0.000583" NOx_perVeh="0.015254" fuel_perVeh="0.017181" electricity_perVeh="0"/>
        <edge id=":1110673630_0" sampledSeconds="54.06" CO_abs="209.083869" CO2_abs="24928.061541" HC_abs="1.515802" PMx_abs="0.282442" NOx_abs="8.994717" fuel_abs="10.715618" electricity_abs="0"
            CO_normed="11.422921" CO2_normed="1361.899741" HC_normed="0.082813" PMx_normed="0.015431" NOx_normed="0.491410" fuel_normed="0.585428" electricity_normed="0"
            traveltime="1.26" CO_perVeh="4.880387" CO2_perVeh="581.865049" HC_perVeh="0.035381" PMx_perVeh="0.006593" NOx_perVeh="0.209953" fuel_perVeh="0.250121" electricity_perVeh="0"/>
        <edge id=":1110673630_1" sampledSeconds="7.38" CO_abs="27.422535" CO2_abs="2935.670177" HC_abs="0.189072" PMx_abs="0.023189" NOx_abs="1.004516" fuel_abs="1.261949" electricity_abs="0"
            CO_normed="1.826478" CO2_normed="195.530299" HC_normed="0.012593" PMx_normed="0.001544" NOx_normed="0.066906" fuel_normed="0.084052" electricity_normed="0"
            traveltime="1.04" CO_perVeh="3.881343" CO2_perVeh="415.510240" HC_perVeh="0.026761" PMx_perVeh="0.003282" NOx_perVeh="0.142178" fuel_perVeh="0.178614" electricity_perVeh="0"/>
        <edge id=":1110673650_0" sampledSeconds="143.04" CO_abs="2270.455208" CO2_abs="273503.877876" HC_abs="16.613656" PMx_abs="3.820945" NOx_abs="102.744369" fuel_abs="117.567761" electricity_abs="0"
            CO_normed="5796.906915" CO2_normed="698307.773300" HC_normed="42.417846" PMx_normed="9.755605" NOx_normed="262.326048" fuel_normed="300.173006" electricity_normed="0"
            traveltime="0.02" CO_perVeh="0.365362" CO2_perVeh="44.012270" HC_perVeh="0.002673" PMx_perVeh="0.000615" NOx_perVeh="0.016534" fuel_perVeh="0.018919" electricity_perVeh="0"/>
        <edge id=":1110673655_0" sampledSeconds="44.91" CO_abs="787.340101" CO2_abs="86885.222065" HC_abs="5.581606" PMx_abs="1.225693" NOx_abs="32.883469" fuel_abs="37.348308" electricity_abs="0"
            CO_normed="2010.230045" CO2_normed="221834.609528" HC_normed="14.250910" PMx_normed="3.129428" NOx_normed="83.957794" fuel_normed="95.357381" electricity_normed="0"
            traveltime="0.02" CO_perVeh="0.421375" CO2_perVeh="46.499985" HC_perVeh="0.002987" PMx_perVeh="0.000656" NOx_perVeh="0.017599" fuel_perVeh="0.019988" electricity_perVeh="0"/>
        <edge id=":1110673663_0" sampledSeconds="109.05" CO_abs="1434.626020" CO2_abs="185828.775502" HC_abs="10.796005" PMx_abs="2.432600" NOx_abs="68.654944" fuel_abs="79.880111" electricity_abs="0"
            CO_normed="67.085622" CO2_normed="8689.678536" HC_normed="0.504840" PMx_normed="0.113753" NOx_normed="3.210425" fuel_normed="3.735334" electricity_normed="0"
            traveltime="1.28" CO_perVeh="16.850359" CO2_perVeh="2182.646634" HC_perVeh="0.126804" PMx_perVeh="0.028572" NOx_perVeh="0.806385" fuel_perVeh="0.938230" electricity_perVeh="0"/>
        <edge id=":1110673663_1" sampledSeconds="153.87" CO_abs="2372.145266" CO2_abs="293855.750211" HC_abs="17.564775" PMx_abs="4.074420" NOx_abs="110.066397" fuel_abs="126.316178" electricity_abs="0"
            CO_normed="111.061267" CO2_normed="13758.007345" HC_normed="0.822364" PMx_normed="0.190760" NOx_normed="5.153189" fuel_normed="5.913986" electricity_normed="0"
            traveltime="1.25" CO_perVeh="19.235098" CO2_perVeh="2382.798496" HC_perVeh="0.142428" PMx_perVeh="0.033038" NOx_perVeh="0.892499" fuel_perVeh="1.024264" electricity_perVeh="0"/>
        <edge id=":1110673666_0" sampledSeconds="157.52" CO_abs="3402.764991" CO2_abs="264031.592508" HC_abs="21.567386" PMx_abs="3.845749" NOx_abs="102.545235" fuel_abs="113.496588" electricity_abs="0"