<?xml version="1.0" encoding="UTF-8"?>

<!-- generated on Tue Nov 10 01:23:04 2020 by Eclipse SUMO sumo Version 1.7.0
<configuration xmlns:xsi="http://www.w3.org/2001/XMLSchema-instance" xsi:noNamespaceSchemaLocation="http://sumo.dlr.de/xsd/sumoConfiguration.xsd">

    <input>
        <net-file value="../dataSets/Porto/6AM7AM_Routing_SaoBento/Porto.net.xml"/>
        <route-files value="../results/Porto/6AM7AM_Routing_SaoBento/cost_co-cost_nox/solution4/Porto.rou.xml"/>
        <additional-files value="moreOutputInfo.xml"/>
    </input>

    <output>
        <emission-output.precision value="6"/>
        <tripinfo-output value="../results/Porto/6AM7AM_Routing_SaoBento/cost_co-cost_nox/solution4/Porto-tripinfo"/>
    </output>

    <processing>
        <collision.action value="warn"/>
        <time-to-teleport value="-1"/>
    </processing>

    <emissions>
        <device.emissions.probability value="1"/>
    </emissions>

    <gui_only>
        <quit-on-end value="true"/>
        <start value="true"/>
    </gui_only>

</configuration>
-->

<meandata xmlns:xsi="http://www.w3.org/2001/XMLSchema-instance" xsi:noNamespaceSchemaLocation="http://sumo.dlr.de/xsd/meandata_file.xsd">
    <interval begin="0.00" end="4698.00" id="emissions-detector">
        <edge id=":1092997347_0" sampledSeconds="274.30" CO_abs="35147.095367" CO2_abs="1376631.893907" HC_abs="192.567906" PMx_abs="28.154412" NOx_abs="598.183675" fuel_abs="591.760167" electricity_abs="0"
            CO_normed="61210.545745" CO2_normed="2397478.045815" HC_normed="335.367304" PMx_normed="49.032414" NOx_normed="1041.768852" fuel_normed="1030.581969" electricity_normed="0"
            traveltime="0.08" CO_perVeh="9.869285" CO2_perVeh="386.557469" HC_perVeh="0.054073" PMx_perVeh="0.007906" NOx_perVeh="0.167970" fuel_perVeh="0.166166" electricity_perVeh="0"/>
        <edge id=":1103427051_0" sampledSeconds="10.94" CO_abs="894.633402" CO2_abs="50628.742359" HC_abs="5.277328" PMx_abs="1.000889" NOx_abs="21.650298" fuel_abs="21.763040" electricity_abs="0"
            CO_normed="2363.940816" CO2_normed="133779.210884" HC_normed="13.944586" PMx_normed="2.644706" NOx_normed="57.207817" fuel_normed="57.505721" electricity_normed="0"
            traveltime="0.03" CO_perVeh="2.451282" CO2_perVeh="138.721989" HC_perVeh="0.014460" PMx_perVeh="0.002742" NOx_perVeh="0.059321" fuel_perVeh="0.059630" electricity_perVeh="0"/>
        <edge id=":1105984386_0" sampledSeconds="22.74" CO_abs="492.155070" CO2_abs="40729.352759" HC_abs="3.163988" PMx_abs="0.514703" NOx_abs="15.290594" fuel_abs="17.508009" electricity_abs="0"
            CO_normed="38.839374" CO2_normed="3214.236045" HC_normed="0.249692" PMx_normed="0.040619" NOx_normed="1.206687" fuel_normed="1.381679" electricity_normed="0"
            traveltime="0.95" CO_perVeh="20.655367" CO2_perVeh="1709.379388" HC_perVeh="0.132790" PMx_perVeh="0.021602" NOx_perVeh="0.641734" fuel_perVeh="0.734798" electricity_perVeh="0"/>
        <edge id=":1105984390_0" sampledSeconds="23.89" CO_abs="16.135737" CO2_abs="1689.921046" HC_abs="0.110998" PMx_abs="0.016332" NOx_abs="0.597489" fuel_abs="0.726438" electricity_abs="0"
            CO_normed="0.984439" CO2_normed="103.101804" HC_normed="0.006772" PMx_normed="0.000996" NOx_normed="0.036453" fuel_normed="0.044320" electricity_normed="0"
            traveltime="1.08" CO_perVeh="0.731748" CO2_perVeh="76.637090" HC_perVeh="0.005034" PMx_perVeh="0.000741" NOx_perVeh="0.027096" fuel_perVeh="0.032944" electricity_perVeh="0"/>
        <edge id=":1105984390_1" sampledSeconds="645.74" CO_abs="14412.138831" CO2_abs="1857369.371464" HC_abs="109.897481" PMx_abs="32.909351" NOx_abs="695.433129" fuel_abs="798.397961" electricity_abs="0"
            CO_normed="841.110780" CO2_normed="108398.442423" HC_normed="6.413757" PMx_normed="1.920632" NOx_normed="40.586363" fuel_normed="46.595522" electricity_normed="0"
            traveltime="0.64" CO_perVeh="14.197422" CO2_perVeh="1829.697602" HC_perVeh="0.108260" PMx_perVeh="0.032419" NOx_perVeh="0.685072" fuel_perVeh="0.786503" electricity_perVeh="0"/>
        <edge id=":1105984395_0" sampledSeconds="8.98" CO_abs="90.559793" CO2_abs="7523.620473" HC_abs="0.581534" PMx_abs="0.088165" NOx_abs="2.779723" fuel_abs="3.234130" electricity_abs="0"
            CO_normed="75.428780" CO2_normed="6266.550452" HC_normed="0.484370" PMx_normed="0.073434" NOx_normed="2.315278" fuel_normed="2.693762" electricity_normed="0"
            traveltime="0.09" CO_perVeh="0.918375" CO2_perVeh="76.297738" HC_perVeh="0.005897" PMx_perVeh="0.000894" NOx_perVeh="0.028189" fuel_perVeh="0.032798" electricity_perVeh="0"/>
        <edge id=":1105984398_0" sampledSeconds="23.21" CO_abs="1496.205273" CO2_abs="107478.068038" HC_abs="9.336028" PMx_abs="1.856479" NOx_abs="43.739182" fuel_abs="46.200147" electricity_abs="0"
            CO_normed="94.831882" CO2_normed="6812.131747" HC_normed="0.591732" PMx_normed="0.117667" NOx_normed="2.772259" fuel_normed="2.928239" electricity_normed="0"
            traveltime="1.10" CO_perVeh="70.738604" CO2_perVeh="5081.420736" HC_perVeh="0.441395" PMx_perVeh="0.087772" NOx_perVeh="2.067931" fuel_perVeh="2.184282" electricity_perVeh="0"/>
        <edge id=":1105984398_1" sampledSeconds="456.28" CO_abs="8546.201233" CO2_abs="963374.489703" HC_abs="61.065195" PMx_abs="14.076880" NOx_abs="366.642185" fuel_abs="414.113426" electricity_abs="0"
            CO_normed="524.324516" CO2_normed="59104.723761" HC_normed="3.746457" PMx_normed="0.863641" NOx_normed="22.494145" fuel_normed="25.406589" electricity_normed="0"
            traveltime="0.96" CO_perVeh="17.904951" CO2_perVeh="2018.343902" HC_perVeh="0.127936" PMx_perVeh="0.029492" NOx_perVeh="0.768144" fuel_perVeh="0.867600" electricity_perVeh="0"/>
        <edge id=":1106006327_0" sampledSeconds="368.08" CO_abs="49708.511528" CO2_abs="1618486.119832" HC_abs="264.445789" PMx_abs="33.768235" NOx_abs="708.516009" fuel_abs="695.729892" electricity_abs="0"
            CO_normed="4299.188875" CO2_normed="139979.599200" HC_normed="22.871383" PMx_normed="2.920547" NOx_normed="61.278120" fuel_normed="60.172275" electricity_normed="0"
            traveltime="2.08" CO_perVeh="281.389906" CO2_perVeh="9161.925069" HC_perVeh="1.496975" PMx_perVeh="0.191155" NOx_perVeh="4.010767" fuel_perVeh="3.938387" electricity_perVeh="0"/>
        <edge id=":1106006327_1" sampledSeconds="162.98" CO_abs="21975.900414" CO2_abs="728458.380811" HC_abs="117.224578" PMx_abs="15.180663" NOx_abs="318.697635" fuel_abs="313.138168" electricity_abs="0"
            CO_normed="1657.457720" CO2_normed="54941.501555" HC_normed="8.841266" PMx_normed="1.144950" NOx_normed="24.036688" fuel_normed="23.617384" electricity_normed="0"
            traveltime="2.31" CO_perVeh="311.976230" CO2_perVeh="10341.405585" HC_perVeh="1.664154" PMx_perVeh="0.215509" NOx_perVeh="4.524324" fuel_perVeh="4.445400" electricity_perVeh="0"/>
        <edge id=":1106006327_2" sampledSeconds="0.00" CO_abs="0" CO2_abs="0" HC_abs="0" PMx_abs="0" NOx_abs="0" fuel_abs="0" electricity_abs="0"
            CO_normed="0" CO2_normed="0" HC_normed="0" PMx_normed="0" NOx_normed="0" fuel_normed="0" electricity_normed="0"/>
        <edge id=":1106006327_3" sampledSeconds="0.00" CO_abs="0" CO2_abs="0" HC_abs="0" PMx_abs="0" NOx_abs="0" fuel_abs="0" electricity_abs="0"
            CO_normed="0" CO2_normed="0" HC_normed="0" PMx_normed="0" NOx_normed="0" fuel_normed="0" electricity_normed="0"/>
        <edge id=":1107381198_0" sampledSeconds="0.00" CO_abs="0" CO2_abs="0" HC_abs="0" PMx_abs="0" NOx_abs="0" fuel_abs="0" electricity_abs="0"
            CO_normed="0" CO2_normed="0" HC_normed="0" PMx_normed="0" NOx_normed="0" fuel_normed="0" electricity_normed="0"/>
        <edge id=":1107381198_1" sampledSeconds="36.52" CO_abs="1155.350040" CO2_abs="48657.271669" HC_abs="6.383988" PMx_abs="0.844383" NOx_abs="20.175361" fuel_abs="20.916012" electricity_abs="0"
            CO_normed="96.545878" CO2_normed="4066.004978" HC_normed="0.533473" PMx_normed="0.070560" NOx_normed="1.685937" fuel_normed="1.747829" electricity_normed="0"
            traveltime="1.50" CO_perVeh="47.568965" CO2_perVeh="2003.354801" HC_perVeh="0.262846" PMx_perVeh="0.034766" NOx_perVeh="0.830676" fuel_perVeh="0.861170" electricity_perVeh="0"/>
        <edge id=":1110338277_0" sampledSeconds="95.93" CO_abs="1734.167691" CO2_abs="210608.839309" HC_abs="12.736153" PMx_abs="2.893557" NOx_abs="78.845113" fuel_abs="90.531902" electricity_abs="0"
            CO_normed="4745.943325" CO2_normed="576378.870579" HC_normed="34.855373" PMx_normed="7.918876" NOx_normed="215.777539" fuel_normed="247.761090" electricity_normed="0"
            traveltime="0.02" CO_perVeh="0.390827" CO2_perVeh="47.464585" HC_perVeh="0.002870" PMx_perVeh="0.000652" NOx_perVeh="0.017769" fuel_perVeh="0.020403" electricity_perVeh="0"/>
        <edge id=":1110338293_0" sampledSeconds="124.45" CO_abs="6223.054473" CO2_abs="424671.268097" HC_abs="38.308338" PMx_abs="7.424895" NOx_abs="173.751970" fuel_abs="182.547803" electricity_abs="0"
            CO_normed="15895.413724" CO2_normed="1084728.654142" HC_normed="97.850161" PMx_normed="18.965250" NOx_normed="443.810906" fuel_normed="466.277914" electricity_normed="0"
            traveltime="0.03" CO_perVeh="1.427361" CO2_perVeh="97.405390" HC_perVeh="0.008787" PMx_perVeh="0.001703" NOx_perVeh="0.039853" fuel_perVeh="0.041870" electricity_perVeh="0"/>
        <edge id=":1110338295_0" sampledSeconds="0.00" CO_abs="0" CO2_abs="0" HC_abs="0" PMx_abs="0" NOx_abs="0" fuel_abs="0" electricity_abs="0"
            CO_normed="0" CO2_normed="0" HC_normed="0" PMx_normed="0" NOx_normed="0" fuel_normed="0" electricity_normed="0"/>
        <edge id=":1110673403_0" sampledSeconds="143.53" CO_abs="2108.278968" CO2_abs="263704.609135" HC_abs="15.606452" PMx_abs="3.579551" NOx_abs="98.313406" fuel_abs="113.355562" electricity_abs="0"
            CO_normed="5385.131465" CO2_normed="673574.991404" HC_normed="39.863223" PMx_normed="9.143170" NOx_normed="251.119811" fuel_normed="289.541666" electricity_normed="0"
            traveltime="0.02" CO_perVeh="0.338498" CO2_perVeh="42.339514" HC_perVeh="0.002506" PMx_perVeh="0.000575" NOx_perVeh="0.015785" fuel_perVeh="0.018200" electricity_perVeh="0"/>
        <edge id=":1110673412_0" sampledSeconds="251.55" CO_abs="44875.706437" CO2_abs="3057276.269873" HC_abs="279.157653" PMx_abs="67.258579" NOx_abs="1314.390434" fuel_abs="1314.172427" electricity_abs="0"
            CO_normed="118577.636245" CO2_normed="8078415.298910" HC_normed="737.634172" PMx_normed="177.721177" NOx_normed="3473.088742" fuel_normed="3472.512689" electricity_normed="0"
            traveltime="0.02" CO_perVeh="2.767735" CO2_perVeh="188.559249" HC_perVeh="0.017217" PMx_perVeh="0.004148" NOx_perVeh="0.081066" fuel_perVeh="0.081052" electricity_perVeh="0"/>
        <edge id=":1110673414_0" sampledSeconds="0.00" CO_abs="0" CO2_abs="0" HC_abs="0" PMx_abs="0" NOx_abs="0" fuel_abs="0" electricity_abs="0"
            CO_normed="0" CO2_normed="0" HC_normed="0" PMx_normed="0" NOx_normed="0" fuel_normed="0" electricity_normed="0"/>
        <edge id=":1110673414_1" sampledSeconds="131.94" CO_abs="9504.232964" CO2_abs="359834.150784" HC_abs="51.634592" PMx_abs="6.673868" NOx_abs="152.113444" fuel_abs="154.679916" electricity_abs="0"
            CO_normed="806.526815" CO2_normed="30535.435376" HC_normed="4.381699" PMx_normed="0.566343" NOx_normed="12.908309" fuel_normed="13.126099" electricity_normed="0"
            traveltime="1.57" CO_perVeh="113.238189" CO2_perVeh="4287.244203" HC_perVeh="0.615200" PMx_perVeh="0.079516" NOx_perVeh="1.812356" fuel_perVeh="1.842934" electricity_perVeh="0"/>
        <edge id=":1110673417_0" sampledSeconds="29.85" CO_abs="493.340893" CO2_abs="60512.951778" HC_abs="3.630898" PMx_abs="0.803029" NOx_abs="22.507236" fuel_abs="26.012014" electricity_abs="0"
            CO_normed="1350.139281" CO2_normed="165607.421396" HC_normed="9.936777" PMx_normed="2.197670" NOx_normed="61.596158" fuel_normed="71.187778" electricity_normed="0"
            traveltime="0.02" CO_perVeh="0.366164" CO2_perVeh="44.913523" HC_perVeh="0.002695" PMx_perVeh="0.000596" NOx_perVeh="0.016705" fuel_perVeh="0.019306" electricity_perVeh="0"/>
        <edge id=":1110673446_0" sampledSeconds="333.51" CO_abs="3069.754070" CO2_abs="247637.117754" HC_abs="19.859461" PMx_abs="4.571422" NOx_abs="101.464815" fuel_abs="106.447778" electricity_abs="0"
            CO_normed="7841.006564" CO2_normed="632534.144966" HC_normed="50.726593" PMx_normed="11.676684" NOx_normed="259.169386" fuel_normed="271.897263" electricity_normed="0"
            traveltime="0.02" CO_perVeh="0.209835" CO2_perVeh="16.927355" HC_perVeh="0.001358" PMx_perVeh="0.000312" NOx_perVeh="0.006936" fuel_perVeh="0.007276" electricity_perVeh="0"/>
        <edge id=":1110673451_0" sampledSeconds="37.16" CO_abs="341.460972" CO2_abs="26105.613425" HC_abs="2.153803" PMx_abs="0.374500" NOx_abs="10.116689" fuel_abs="11.221767" electricity_abs="0"
            CO_normed="969.095990" CO2_normed="74090.005463" HC_normed="6.112681" PMx_normed="1.062862" NOx_normed="28.712044" fuel_normed="31.848353" electricity_normed="0"
            traveltime="0.03" CO_perVeh="0.244872" CO2_perVeh="18.721157" HC_perVeh="0.001545" PMx_perVeh="0.000269" NOx_perVeh="0.007255" fuel_perVeh="0.008047" electricity_perVeh="0"/>
        <edge id=":1110673464_0" sampledSeconds="323.96" CO_abs="834.728929" CO2_abs="61185.307405" HC_abs="5.191009" PMx_abs="0.908232" NOx_abs="23.915448" fuel_abs="26.301114" electricity_abs="0"
            CO_normed="45.300214" CO2_normed="3320.488175" HC_normed="0.281713" PMx_normed="0.049289" NOx_normed="1.297876" fuel_normed="1.427345" electricity_normed="0"
            traveltime="1.17" CO_perVeh="3.017435" CO2_perVeh="221.176814" HC_perVeh="0.018765" PMx_perVeh="0.003283" NOx_perVeh="0.086451" fuel_perVeh="0.095075" electricity_perVeh="0"/>
        <edge id=":1110673464_1" sampledSeconds="709.29" CO_abs="16119.914326" CO2_abs="2040408.210268" HC_abs="122.190343" PMx_abs="36.324174" NOx_abs="766.984451" fuel_abs="877.077783" electricity_abs="0"
            CO_normed="857.211990" CO2_normed="108503.205802" HC_normed="6.497741" PMx_normed="1.931618" NOx_normed="40.786089" fuel_normed="46.640545" electricity_normed="0"
            traveltime="0.70" CO_perVeh="15.915209" CO2_perVeh="2014.497304" HC_perVeh="0.120639" PMx_perVeh="0.035863" NOx_perVeh="0.757245" fuel_perVeh="0.865940" electricity_perVeh="0"/>
        <edge id=":1110673479_0" sampledSeconds="133.51" CO_abs="7142.903377" CO2_abs="493045.566495" HC_abs="44.117038" PMx_abs="8.674680" NOx_abs="201.966635" fuel_abs="211.938814" electricity_abs="0"
            CO_normed="18244.963927" CO2_normed="1259375.648774" HC_normed="112.687198" PMx_normed="22.157549" NOx_normed="515.879016" fuel_normed="541.350738" electricity_normed="0"
            traveltime="0.03" CO_perVeh="1.504725" CO2_perVeh="103.865021" HC_perVeh="0.009294" PMx_perVeh="0.001827" NOx_perVeh="0.042546" fuel_perVeh="0.044647" electricity_perVeh="0"/>
        <edge id=":1110673511_0" sampledSeconds="11.70" CO_abs="130.086931" CO2_abs="18821.977840" HC_abs="1.015131" PMx_abs="0.234688" NOx_abs="6.849370" fuel_abs="8.090797" electricity_abs="0"
            CO_normed="332.278239" CO2_normed="48076.571750" HC_normed="2.592926" PMx_normed="0.599459" NOx_normed="17.495199" fuel_normed="20.666148" electricity_normed="0"
            traveltime="0.02" CO_perVeh="0.257598" CO2_perVeh="37.271243" HC_perVeh="0.002010" PMx_perVeh="0.000465" NOx_perVeh="0.013563" fuel_perVeh="0.016021" electricity_perVeh="0"/>
        <edge id=":1110673517_0" sampledSeconds="17.13" CO_abs="739.478776" CO2_abs="52363.641642" HC_abs="4.599470" PMx_abs="0.920917" NOx_abs="21.405259" fuel_abs="22.508837" electricity_abs="0"
            CO_normed="1888.834678" CO2_normed="133751.319648" HC_normed="11.748326" PMx_normed="2.352279" NOx_normed="54.674990" fuel_normed="57.493838" electricity_normed="0"
            traveltime="0.03" CO_perVeh="1.187282" CO2_perVeh="84.073281" HC_perVeh="0.007385" PMx_perVeh="0.001479" NOx_perVeh="0.034368" fuel_perVeh="0.036139" electricity_perVeh="0"/>
        <edge id=":1110673534_0" sampledSeconds="475.50" CO_abs="3118.290912" CO2_abs="261768.078861" HC_abs="20.198001" PMx_abs="3.629885" NOx_abs="100.119918" fuel_abs="112.523693" electricity_abs="0"
            CO_normed="154.360139" CO2_normed="12957.917712" HC_normed="0.999832" PMx_normed="0.179685" NOx_normed="4.956088" fuel_normed="5.570094" electricity_normed="0"
            traveltime="1.43" CO_perVeh="9.394161" CO2_perVeh="788.602306" HC_perVeh="0.060848" PMx_perVeh="0.010935" NOx_perVeh="0.301621" fuel_perVeh="0.338989" electricity_perVeh="0"/>
        <edge id=":1110673534_1" sampledSeconds="184.57" CO_abs="2902.314319" CO2_abs="365466.212413" HC_abs="21.534975" PMx_abs="4.953346" NOx_abs="136.115504" fuel_abs="157.098614" electricity_abs="0"
            CO_normed="139.698219" CO2_normed="17591.126726" HC_normed="1.036551" PMx_normed="0.238421" NOx_normed="6.551700" fuel_normed="7.561688" electricity_normed="0"
            traveltime="1.23" CO_perVeh="19.270406" CO2_perVeh="2426.574624" HC_perVeh="0.142985" PMx_perVeh="0.032889" NOx_perVeh="0.903762" fuel_perVeh="1.043083" electricity_perVeh="0"/>
        <edge id=":1110673549_0" sampledSeconds="59.33" CO_abs="18.173786" CO2_abs="4092.728864" HC_abs="0.175311" PMx_abs="0.041443" NOx_abs="1.414590" fuel_abs="1.759304" electricity_abs="0"
            CO_normed="0.871481" CO2_normed="196.257240" HC_normed="0.008407" PMx_normed="0.001987" NOx_normed="0.067833" fuel_normed="0.084363" electricity_normed="0"
            traveltime="1.24" CO_perVeh="0.378635" CO2_perVeh="85.268520" HC_perVeh="0.003652" PMx_perVeh="0.000863" NOx_perVeh="0.029472" fuel_perVeh="0.036654" electricity_perVeh="0"/>
        <edge id=":1110673549_1" sampledSeconds="638.69" CO_abs="12849.301664" CO2_abs="1780883.333822" HC_abs="101.097614" PMx_abs="30.893636" NOx_abs="660.351614" fuel_abs="765.520565" electricity_abs="0"
            CO_normed="596.017444" CO2_normed="82606.631870" HC_normed="4.689433" PMx_normed="1.433008" NOx_normed="30.630542" fuel_normed="35.508825" electricity_normed="0"
            traveltime="0.80" CO_perVeh="16.183344" CO2_perVeh="2242.973833" HC_perVeh="0.127330" PMx_perVeh="0.038910" NOx_perVeh="0.831695" fuel_perVeh="0.964152" electricity_perVeh="0"/>
        <edge id=":1110673556_0" sampledSeconds="416.70" CO_abs="50911.316031" CO2_abs="2557163.129669" HC_abs="292.612257" PMx_abs="51.516405" NOx_abs="1100.766685" fuel_abs="1099.213786" electricity_abs="0"
            CO_normed="1810.324952" CO2_normed="90928.630012" HC_normed="10.404824" PMx_normed="1.831841" NOx_normed="39.141502" fuel_normed="39.086284" electricity_normed="0"
            traveltime="2.59" CO_perVeh="316.032625" CO2_perVeh="15873.621801" HC_perVeh="1.816394" PMx_perVeh="0.319789" NOx_perVeh="6.833023" fuel_perVeh="6.823383" electricity_perVeh="0"/>
        <edge id=":1110673556_2" sampledSeconds="246.54" CO_abs="23763.921605" CO2_abs="1032542.188208" HC_abs="132.457455" PMx_abs="19.894684" NOx_abs="440.172261" fuel_abs="443.849178" electricity_abs="0"
            CO_normed="883.546900" CO2_normed="38390.105172" HC_normed="4.924792" PMx_normed="0.739688" NOx_normed="16.365684" fuel_normed="16.502393" electricity_normed="0"
            traveltime="2.99" CO_perVeh="288.251815" CO2_perVeh="12524.538878" HC_perVeh="1.606684" PMx_perVeh="0.241319" NOx_perVeh="5.339205" fuel_perVeh="5.383805" electricity_perVeh="0"/>
        <edge id=":1110673556_3" sampledSeconds="363.77" CO_abs="32020.811649" CO2_abs="1136442.184292" HC_abs="172.271696" PMx_abs="21.790513" NOx_abs="485.341158" fuel_abs="488.516708" electricity_abs="0"
            CO_normed="2708.280400" CO2_normed="96118.865654" HC_normed="14.570526" PMx_normed="1.843014" NOx_normed="41.049551" fuel_normed="41.318135" electricity_normed="0"
            traveltime="1.75" CO_perVeh="154.464238" CO2_perVeh="5482.049554" HC_perVeh="0.831016" PMx_perVeh="0.105115" NOx_perVeh="2.341223" fuel_perVeh="2.356541" electricity_perVeh="0"/>
        <edge id=":1110673556_4" sampledSeconds="183.53" CO_abs="18689.675459" CO2_abs="749564.111452" HC_abs="102.701063" PMx_abs="14.679575" NOx_abs="321.538572" fuel_abs="322.208879" electricity_abs="0"
            CO_normed="965.717491" CO2_normed="38730.858359" HC_normed="5.306685" PMx_normed="0.758511" NOx_normed="16.614276" fuel_normed="16.648911" electricity_normed="0"
            traveltime="2.40" CO_perVeh="244.063160" CO2_perVeh="9788.344698" HC_perVeh="1.341144" PMx_perVeh="0.191696" NOx_perVeh="4.198881" fuel_perVeh="4.207634" electricity_perVeh="0"/>
        <edge id=":1110673556_5" sampledSeconds="25.30" CO_abs="2019.774164" CO2_abs="79086.861999" HC_abs="11.038413" PMx_abs="1.477632" NOx_abs="33.476057" fuel_abs="33.996559" electricity_abs="0"
            CO_normed="145.462375" CO2_normed="5695.766860" HC_normed="0.794977" PMx_normed="0.106418" NOx_normed="2.410916" fuel_normed="2.448403" electricity_normed="0"
            traveltime="1.75" CO_perVeh="139.638708" CO2_perVeh="5467.733669" HC_perVeh="0.763150" PMx_perVeh="0.102157" NOx_perVeh="2.314394" fuel_perVeh="2.350379" electricity_perVeh="0"/>
        <edge id=":1110673556_6" sampledSeconds="309.62" CO_abs="37586.236799" CO2_abs="1924031.845121" HC_abs="216.938282" PMx_abs="38.881456" NOx_abs="828.535054" fuel_abs="827.057290" electricity_abs="0"
            CO_normed="1370.205234" CO2_normed="70140.528273" HC_normed="7.908479" PMx_normed="1.417422" NOx_normed="30.204223" fuel_normed="30.150351" electricity_normed="0"
            traveltime="2.45" CO_perVeh="297.652760" CO2_perVeh="15236.784469" HC_perVeh="1.717977" PMx_perVeh="0.307910" NOx_perVeh="6.561331" fuel_perVeh="6.549628" electricity_perVeh="0"/>
        <edge id=":1110673561_0" sampledSeconds="98.69" CO_abs="10784.422483" CO2_abs="754431.082539" HC_abs="67.332438" PMx_abs="15.586085" NOx_abs="321.380024" fuel_abs="324.293676" electricity_abs="0"
            CO_normed="493.958474" CO2_normed="34555.176881" HC_normed="3.084025" PMx_normed="0.713889" NOx_normed="14.720156" fuel_normed="14.853610" electricity_normed="0"
            traveltime="1.16" CO_perVeh="127.266653" CO2_perVeh="8903.019025" HC_perVeh="0.794588" PMx_perVeh="0.183931" NOx_perVeh="3.792596" fuel_perVeh="3.826980" electricity_perVeh="0"/>
        <edge id=":1110673561_1" sampledSeconds="1316.04" CO_abs="121680.939607" CO2_abs="8413959.974018" HC_abs="757.701884" PMx_abs="176.125661" NOx_abs="3599.357807" fuel_abs="3616.754800" electricity_abs="0"
            CO_normed="5433.688771" CO2_normed="375727.209050" HC_normed="33.835342" PMx_normed="7.864930" NOx_normed="160.730104" fuel_normed="161.506971" electricity_normed="0"
            traveltime="1.19" CO_perVeh="110.293456" CO2_perVeh="7626.541430" HC_perVeh="0.686793" PMx_perVeh="0.159643" NOx_perVeh="3.262513" fuel_perVeh="3.278282" electricity_perVeh="0"/>
        <edge id=":1110673562_0" sampledSeconds="104.25" CO_abs="2425.636988" CO2_abs="192009.576341" HC_abs="15.418485" PMx_abs="2.563075" NOx_abs="73.024841" fuel_abs="82.537532" electricity_abs="0"
            CO_normed="6884.169116" CO2_normed="544939.907312" HC_normed="43.759003" PMx_normed="7.274230" NOx_normed="207.250862" fuel_normed="234.248708" electricity_normed="0"
            traveltime="0.03" CO_perVeh="0.618306" CO2_perVeh="48.944115" HC_perVeh="0.003930" PMx_perVeh="0.000653" NOx_perVeh="0.018614" fuel_perVeh="0.021039" electricity_perVeh="0"/>
        <edge id=":1110673564_0" sampledSeconds="28.48" CO_abs="563.213797" CO2_abs="64875.561968" HC_abs="4.065923" PMx_abs="0.909661" NOx_abs="24.464930" fuel_abs="27.887274" electricity_abs="0"
            CO_normed="4315.814539" CO2_normed="497130.743053" HC_normed="31.156499" PMx_normed="6.970579" NOx_normed="187.470730" fuel_normed="213.695586" electricity_normed="0"
            traveltime="7.828725e-03" CO_perVeh="0.154835" CO2_perVeh="17.835206" HC_perVeh="0.001118" PMx_perVeh="0.000250" NOx_perVeh="0.006726" fuel_perVeh="0.007667" electricity_perVeh="0"/>
        <edge id=":1110673588_0" sampledSeconds="11.50" CO_abs="193.036522" CO2_abs="23403.177476" HC_abs="1.416183" PMx_abs="0.321666" NOx_abs="8.756282" fuel_abs="10.060045" electricity_abs="0"
            CO_normed="591.682825" CO2_normed="71733.877321" HC_normed="4.340792" PMx_normed="0.985950" NOx_normed="26.839180" fuel_normed="30.835385" electricity_normed="0"
            traveltime="0.02" CO_perVeh="0.321728" CO2_perVeh="39.005296" HC_perVeh="0.002360" PMx_perVeh="0.000536" NOx_perVeh="0.014594" fuel_perVeh="0.016767" electricity_perVeh="0"/>
        <edge id=":1110673601_0" sampledSeconds="29.71" CO_abs="540.835407" CO2_abs="59530.038094" HC_abs="3.818354" PMx_abs="0.858436" NOx_abs="22.625924" fuel_abs="25.589435" electricity_abs="0"
            CO_normed="1480.118792" CO2_normed="162917.455102" HC_normed="10.449792" PMx_normed="2.349304" NOx_normed="61.920975" fuel_normed="70.031295" electricity_normed="0"
            traveltime="0.02" CO_perVeh="0.401415" CO2_perVeh="44.183991" HC_perVeh="0.002834" PMx_perVeh="0.000637" NOx_perVeh="0.016793" fuel_perVeh="0.018993" electricity_perVeh="0"/>
        <edge id=":1110673617_0" sampledSeconds="238.63" CO_abs="5667.788880" CO2_abs="712247.367105" HC_abs="42.831452" PMx_abs="12.697260" NOx_abs="268.133409" fuel_abs="306.162410" electricity_abs="0"
            CO_normed="14477.110805" CO2_normed="1819278.076897" HC_normed="109.403454" PMx_normed="32.432337" NOx_normed="684.887379" fuel_normed="782.024036" electricity_normed="0"
            traveltime="0.01" CO_perVeh="0.347114" CO2_perVeh="43.620335" HC_perVeh="0.002623" PMx_perVeh="0.000778" NOx_perVeh="0.016421" fuel_perVeh="0.018750" electricity_perVeh="0"/>
        <edge id=":1110673621_0" sampledSeconds="25.76" CO_abs="571.395263" CO2_abs="59586.345494" HC_abs="3.988180" PMx_abs="0.902751" NOx_abs="22.962488" fuel_abs="25.613599" electricity_abs="0"
            CO_normed="1751.403104" CO2_normed="182640.139444" HC_normed="12.224308" PMx_normed="2.767054" NOx_normed="70.383106" fuel_normed="78.509117" electricity_normed="0"
            traveltime="0.02" CO_perVeh="0.432875" CO2_perVeh="45.141171" HC_perVeh="0.003021" PMx_perVeh="0.000684" NOx_perVeh="0.017396" fuel_perVeh="0.019404" electricity_perVeh="0"/>
        <edge id=":1110673630_0" sampledSeconds="54.38" CO_abs="141.492540" CO2_abs="13563.521053" HC_abs="0.950680" PMx_abs="0.160188" NOx_abs="4.985666" fuel_abs="5.830446" electricity_abs="0"
            CO_normed="7.733481" CO2_normed="741.334003" HC_normed="0.051961" PMx_normed="0.008755" NOx_normed="0.272499" fuel_normed="0.318672" electricity_normed="0"
            traveltime="1.27" CO_perVeh="3.302686" CO2_perVeh="316.596572" HC_perVeh="0.022191" PMx_perVeh="0.003739" NOx_perVeh="0.116374" fuel_perVeh="0.136093" electricity_perVeh="0"/>
        <edge id=":1110673630_1" sampledSeconds="7.36" CO_abs="46.299433" CO2_abs="4364.025360" HC_abs="0.309611" PMx_abs="0.052959" NOx_abs="1.616244" fuel_abs="1.875928" electricity_abs="0"
            CO_normed="3.085086" CO2_normed="290.789629" HC_normed="0.020630" PMx_normed="0.003529" NOx_normed="0.107696" fuel_normed="0.124999" electricity_normed="0"
            traveltime="1.04" CO_perVeh="6.553151" CO2_perVeh="617.677436" HC_perVeh="0.043822" PMx_perVeh="0.007496" NOx_perVeh="0.228761" fuel_perVeh="0.265516" electricity_perVeh="0"/>
        <edge id=":1110673650_0" sampledSeconds="143.56" CO_abs="2166.949622" CO2_abs="267586.416495" HC_abs="15.989421" PMx_abs="3.680800" NOx_abs="100.064927" fuel_abs="115.024142" electricity_abs="0"
            CO_normed="5534.992648" CO2_normed="683490.208161" HC_normed="40.841433" PMx_normed="9.401789" NOx_normed="255.593684" fuel_normed="293.803685" electricity_normed="0"
            traveltime="0.02" CO_perVeh="0.347918" CO2_perVeh="42.962764" HC_perVeh="0.002567" PMx_perVeh="0.000591" NOx_perVeh="0.016066" fuel_perVeh="0.018468" electricity_perVeh="0"/>
        <edge id=":1110673655_0" sampledSeconds="45.09" CO_abs="845.845961" CO2_abs="88773.192113" HC_abs="5.901035" PMx_abs="1.285813" NOx_abs="33.882318" fuel_abs="38.159845" electricity_abs="0"
            CO_normed="2160.526081" CO2_normed="226751.448566" HC_normed="15.072886" PMx_normed="3.284326" NOx_normed="86.544873" fuel_normed="97.470868" electricity_normed="0"
            traveltime="0.02" CO_perVeh="0.452687" CO2_perVeh="47.510405" HC_perVeh="0.003158" PMx_perVeh="0.000688" NOx_perVeh="0.018133" fuel_perVeh="0.020423" electricity_perVeh="0"/>
        <edge id=":1110673663_0" sampledSeconds="108.20" CO_abs="1625.704366" CO2_abs="213120.242916" HC_abs="12.218584" PMx_abs="2.788356" NOx_abs="78.646128" fuel_abs="91.611565" electricity_abs="0"
            CO_normed="76.053142" CO2_normed="9970.117886" HC_normed="0.571606" PMx_normed="0.130444" NOx_normed="3.679196" fuel_normed="4.285741" electricity_normed="0"
            traveltime="1.27" CO_perVeh="19.094665" CO2_perVeh="2503.197794" HC_perVeh="0.143513" PMx_perVeh="0.032751" NOx_perVeh="0.923736" fuel_perVeh="1.076021" electricity_perVeh="0"/>
        <edge id=":1110673663_1" sampledSeconds="153.27" CO_abs="2405.501466" CO2_abs="335581.759300" HC_abs="18.520857" PMx_abs="4.355594" NOx_abs="123.213284" fuel_abs="144.252658" electricity_abs="0"
            CO_normed="112.670913" CO2_normed="15718.262433" HC_normed="0.867496" PMx_normed="0.204011" NOx_normed="5.771168" fuel_normed="6.756628" electricity_normed="0"
            traveltime="1.24" CO_perVeh="19.488354" CO2_perVeh="2718.741282" HC_perVeh="0.150048" PMx_perVeh="0.035287" NOx_perVeh="0.998222" fuel_perVeh="1.168674" electricity_perVeh="0"/>
        <edge id=":1110673666_0" sampledSeconds="191.67" CO_abs="4054.581847" CO2_abs="321786.051619" HC_abs="25.806976" PMx_abs="4.373372" NOx_abs="122.828979" fuel_abs="138.323325" electricity_abs="0"