<?xml version="1.0" encoding="UTF-8"?>

<!-- generated on Tue Nov 10 15:12:17 2020 by Eclipse SUMO sumo Version 1.7.0
<configuration xmlns:xsi="http://www.w3.org/2001/XMLSchema-instance" xsi:noNamespaceSchemaLocation="http://sumo.dlr.de/xsd/sumoConfiguration.xsd">

    <input>
        <net-file value="../dataSets/Porto/8AM9AM_Routing_SaoBento/Porto.net.xml"/>
        <route-files value="../results/Porto/8AM9AM_Routing_SaoBento/cost_nox-length/solution5/Porto.rou.xml"/>
        <additional-files value="moreOutputInfo.xml"/>
    </input>

    <output>
        <emission-output.precision value="6"/>
        <tripinfo-output value="../results/Porto/8AM9AM_Routing_SaoBento/cost_nox-length/solution5/Porto-tripinfo"/>
    </output>

    <processing>
        <collision.action value="warn"/>
        <time-to-teleport value="-1"/>
    </processing>

    <emissions>
        <device.emissions.probability value="1"/>
    </emissions>

    <gui_only>
        <quit-on-end value="true"/>
        <start value="true"/>
    </gui_only>

</configuration>
-->

<meandata xmlns:xsi="http://www.w3.org/2001/XMLSchema-instance" xsi:noNamespaceSchemaLocation="http://sumo.dlr.de/xsd/meandata_file.xsd">
    <interval begin="0.00" end="8471.00" id="emissions-detector">
        <edge id=":1092997347_0" sampledSeconds="591.97" CO_abs="72506.944015" CO2_abs="3113750.856195" HC_abs="403.861935" PMx_abs="63.154597" NOx_abs="1348.221618" fuel_abs="1338.474581" electricity_abs="0"
            CO_normed="70031.712059" CO2_normed="3007454.063141" HC_normed="390.074952" PMx_normed="60.998634" NOx_normed="1302.196216" fuel_normed="1292.781922" electricity_normed="0"
            traveltime="0.07" CO_perVeh="8.296371" CO2_perVeh="356.280814" HC_perVeh="0.046211" PMx_perVeh="0.007226" NOx_perVeh="0.154266" fuel_perVeh="0.153151" electricity_perVeh="0"/>
        <edge id=":1103427051_0" sampledSeconds="19.45" CO_abs="1609.082277" CO2_abs="89771.309330" HC_abs="9.461096" PMx_abs="1.779561" NOx_abs="38.437722" fuel_abs="38.588695" electricity_abs="0"
            CO_normed="2358.023194" CO2_normed="131555.006569" HC_normed="13.864726" PMx_normed="2.607851" NOx_normed="56.328407" fuel_normed="56.549649" electricity_normed="0"
            traveltime="0.03" CO_perVeh="2.502327" CO2_perVeh="139.605747" HC_perVeh="0.014713" PMx_perVeh="0.002767" NOx_perVeh="0.059776" fuel_perVeh="0.060010" electricity_perVeh="0"/>
        <edge id=":1105984386_0" sampledSeconds="10.51" CO_abs="255.790212" CO2_abs="17657.723679" HC_abs="1.570887" PMx_abs="0.264872" NOx_abs="6.947992" fuel_abs="7.590355" electricity_abs="0"
            CO_normed="11.195217" CO2_normed="772.828813" HC_normed="0.068753" PMx_normed="0.011593" NOx_normed="0.304094" fuel_normed="0.332208" electricity_normed="0"
            traveltime="1.01" CO_perVeh="24.537868" CO2_perVeh="1693.899397" HC_perVeh="0.150695" PMx_perVeh="0.025409" NOx_perVeh="0.666519" fuel_perVeh="0.728140" electricity_perVeh="0"/>
        <edge id=":1105984390_0" sampledSeconds="10.88" CO_abs="51.461147" CO2_abs="4410.986046" HC_abs="0.335230" PMx_abs="0.060155" NOx_abs="1.682019" fuel_abs="1.896108" electricity_abs="0"
            CO_normed="1.741236" CO2_normed="149.249836" HC_normed="0.011343" PMx_normed="0.002035" NOx_normed="0.056913" fuel_normed="0.064157" electricity_normed="0"
            traveltime="1.13" CO_perVeh="5.334258" CO2_perVeh="457.225260" HC_perVeh="0.034749" PMx_perVeh="0.006235" NOx_perVeh="0.174351" fuel_perVeh="0.196543" electricity_perVeh="0"/>
        <edge id=":1105984390_1" sampledSeconds="2399.06" CO_abs="65751.672779" CO2_abs="7656133.217701" HC_abs="482.586567" PMx_abs="139.164195" NOx_abs="2923.548383" fuel_abs="3291.017388" electricity_abs="0"
            CO_normed="2128.187554" CO2_normed="247806.431959" HC_normed="15.619903" PMx_normed="4.504334" NOx_normed="94.626631" fuel_normed="106.520518" electricity_normed="0"
            traveltime="0.65" CO_perVeh="17.762354" CO2_perVeh="2068.250746" HC_perVeh="0.130367" PMx_perVeh="0.037594" NOx_perVeh="0.789776" fuel_perVeh="0.889045" electricity_perVeh="0"/>
        <edge id=":1105984395_0" sampledSeconds="4.09" CO_abs="96.774512" CO2_abs="7358.023387" HC_abs="0.607443" PMx_abs="0.095120" NOx_abs="2.784754" fuel_abs="3.162939" electricity_abs="0"
            CO_normed="44.703444" CO2_normed="3398.921666" HC_normed="0.280599" PMx_normed="0.043939" NOx_normed="1.286373" fuel_normed="1.461069" electricity_normed="0"
            traveltime="0.09" CO_perVeh="2.243199" CO2_perVeh="170.556350" HC_perVeh="0.014080" PMx_perVeh="0.002205" NOx_perVeh="0.064550" fuel_perVeh="0.073316" electricity_perVeh="0"/>
        <edge id=":1105984398_0" sampledSeconds="10.59" CO_abs="747.119626" CO2_abs="49758.027066" HC_abs="4.578850" PMx_abs="0.919023" NOx_abs="20.704202" fuel_abs="21.388760" electricity_abs="0"
            CO_normed="26.262234" CO2_normed="1749.059848" HC_normed="0.160953" PMx_normed="0.032305" NOx_normed="0.727780" fuel_normed="0.751843" electricity_normed="0"
            traveltime="1.13" CO_perVeh="79.771381" CO2_perVeh="5312.759025" HC_perVeh="0.488893" PMx_perVeh="0.098126" NOx_perVeh="2.210627" fuel_perVeh="2.283719" electricity_perVeh="0"/>
        <edge id=":1105984398_1" sampledSeconds="645.16" CO_abs="11142.851352" CO2_abs="1353694.023454" HC_abs="81.613463" PMx_abs="18.889197" NOx_abs="508.111651" fuel_abs="581.895809" electricity_abs="0"
            CO_normed="379.141844" CO2_normed="46060.207717" HC_normed="2.776944" PMx_normed="0.642716" NOx_normed="17.288787" fuel_normed="19.799335" electricity_normed="0"
            traveltime="0.95" CO_perVeh="16.484906" CO2_perVeh="2002.675857" HC_perVeh="0.120740" PMx_perVeh="0.027945" NOx_perVeh="0.751708" fuel_perVeh="0.860866" electricity_perVeh="0"/>
        <edge id=":1106006327_0" sampledSeconds="65.97" CO_abs="9004.280803" CO2_abs="298098.466664" HC_abs="48.026873" PMx_abs="6.240945" NOx_abs="130.629395" fuel_abs="128.141817" electricity_abs="0"
            CO_normed="431.899924" CO2_normed="14298.610610" HC_normed="2.303660" PMx_normed="0.299354" NOx_normed="6.265778" fuel_normed="6.146459" electricity_normed="0"
            traveltime="2.05" CO_perVeh="279.129239" CO2_perVeh="9240.937737" HC_perVeh="1.488815" PMx_perVeh="0.193467" NOx_perVeh="4.049461" fuel_perVeh="3.972347" electricity_perVeh="0"/>
        <edge id=":1106006327_1" sampledSeconds="683.04" CO_abs="92619.815418" CO2_abs="3096370.275818" HC_abs="494.719590" PMx_abs="64.643743" NOx_abs="1355.410187" fuel_abs="1331.017828" electricity_abs="0"
            CO_normed="3874.164188" CO2_normed="129517.066947" HC_normed="20.693465" PMx_normed="2.703962" NOx_normed="56.695013" fuel_normed="55.674713" electricity_normed="0"
            traveltime="2.29" CO_perVeh="310.902302" CO2_perVeh="10393.765550" HC_perVeh="1.660654" PMx_perVeh="0.216993" NOx_perVeh="4.549784" fuel_perVeh="4.467905" electricity_perVeh="0"/>
        <edge id=":1106006327_2" sampledSeconds="0.00" CO_abs="0" CO2_abs="0" HC_abs="0" PMx_abs="0" NOx_abs="0" fuel_abs="0" electricity_abs="0"
            CO_normed="0" CO2_normed="0" HC_normed="0" PMx_normed="0" NOx_normed="0" fuel_normed="0" electricity_normed="0"/>
        <edge id=":1106006327_3" sampledSeconds="0.00" CO_abs="0" CO2_abs="0" HC_abs="0" PMx_abs="0" NOx_abs="0" fuel_abs="0" electricity_abs="0"
            CO_normed="0" CO2_normed="0" HC_normed="0" PMx_normed="0" NOx_normed="0" fuel_normed="0" electricity_normed="0"/>
        <edge id=":1107381198_0" sampledSeconds="0.00" CO_abs="0" CO2_abs="0" HC_abs="0" PMx_abs="0" NOx_abs="0" fuel_abs="0" electricity_abs="0"
            CO_normed="0" CO2_normed="0" HC_normed="0" PMx_normed="0" NOx_normed="0" fuel_normed="0" electricity_normed="0"/>
        <edge id=":1107381198_1" sampledSeconds="103.75" CO_abs="4976.141474" CO2_abs="195260.736712" HC_abs="27.153583" PMx_abs="3.383777" NOx_abs="80.996282" fuel_abs="83.935862" electricity_abs="0"
            CO_normed="230.616938" CO2_normed="9049.267096" HC_normed="1.258420" PMx_normed="0.156820" NOx_normed="3.753735" fuel_normed="3.889968" electricity_normed="0"
            traveltime="1.55" CO_perVeh="74.502379" CO2_perVeh="2923.427631" HC_perVeh="0.406541" PMx_perVeh="0.050662" NOx_perVeh="1.212670" fuel_perVeh="1.256681" electricity_perVeh="0"/>
        <edge id=":1110338277_0" sampledSeconds="160.53" CO_abs="2530.490380" CO2_abs="312340.908146" HC_abs="18.637619" PMx_abs="4.256683" NOx_abs="116.587656" fuel_abs="134.262268" electricity_abs="0"
            CO_normed="3840.736196" CO2_normed="474065.833568" HC_normed="28.287868" PMx_normed="6.460723" NOx_normed="176.954804" fuel_normed="203.781037" electricity_normed="0"
            traveltime="0.02" CO_perVeh="0.342735" CO2_perVeh="42.304122" HC_perVeh="0.002524" PMx_perVeh="0.000577" NOx_perVeh="0.015791" fuel_perVeh="0.018185" electricity_perVeh="0"/>
        <edge id=":1110338293_0" sampledSeconds="6560.87" CO_abs="620318.482432" CO2_abs="10848503.653948" HC_abs="3078.366296" PMx_abs="259.086165" NOx_abs="4904.596130" fuel_abs="4663.589212" electricity_abs="0"
            CO_normed="878741.800164" CO2_normed="15367966.455834" HC_normed="4360.806935" PMx_normed="367.020892" NOx_normed="6947.840109" fuel_normed="6606.430238" electricity_normed="0"
            traveltime="0.44" CO_perVeh="41.452688" CO2_perVeh="724.949604" HC_perVeh="0.205711" PMx_perVeh="0.017313" NOx_perVeh="0.327749" fuel_perVeh="0.311644" electricity_perVeh="0"/>
        <edge id=":1110338295_0" sampledSeconds="0.00" CO_abs="0" CO2_abs="0" HC_abs="0" PMx_abs="0" NOx_abs="0" fuel_abs="0" electricity_abs="0"
            CO_normed="0" CO2_normed="0" HC_normed="0" PMx_normed="0" NOx_normed="0" fuel_normed="0" electricity_normed="0"/>
        <edge id=":1110673403_0" sampledSeconds="200.55" CO_abs="3184.927699" CO2_abs="387198.343219" HC_abs="23.390183" PMx_abs="5.400570" NOx_abs="145.378302" fuel_abs="166.440198" electricity_abs="0"
            CO_normed="4511.761586" CO2_normed="548504.322822" HC_normed="33.134482" PMx_normed="7.650436" NOx_normed="205.942583" fuel_normed="235.778820" electricity_normed="0"
            traveltime="0.02" CO_perVeh="0.368100" CO2_perVeh="44.750743" HC_perVeh="0.002703" PMx_perVeh="0.000624" NOx_perVeh="0.016802" fuel_perVeh="0.019236" electricity_perVeh="0"/>
        <edge id=":1110673412_0" sampledSeconds="940.23" CO_abs="167234.803220" CO2_abs="11412171.440702" HC_abs="1040.769461" PMx_abs="250.785094" NOx_abs="4904.177630" fuel_abs="4905.530422" electricity_abs="0"
            CO_normed="245073.574179" CO2_normed="16723921.039541" HC_normed="1525.191448" PMx_normed="367.512014" NOx_normed="7186.807513" fuel_normed="7188.789957" electricity_normed="0"
            traveltime="0.02" CO_perVeh="2.762018" CO2_perVeh="188.481226" HC_perVeh="0.017189" PMx_perVeh="0.004142" NOx_perVeh="0.080996" fuel_perVeh="0.081019" electricity_perVeh="0"/>
        <edge id=":1110673414_0" sampledSeconds="0.00" CO_abs="0" CO2_abs="0" HC_abs="0" PMx_abs="0" NOx_abs="0" fuel_abs="0" electricity_abs="0"
            CO_normed="0" CO2_normed="0" HC_normed="0" PMx_normed="0" NOx_normed="0" fuel_normed="0" electricity_normed="0"/>
        <edge id=":1110673414_1" sampledSeconds="6.87" CO_abs="393.144405" CO2_abs="16339.125760" HC_abs="2.168954" PMx_abs="0.292797" NOx_abs="6.834262" fuel_abs="7.023593" electricity_abs="0"
            CO_normed="18.502575" CO2_normed="768.969092" HC_normed="0.102078" PMx_normed="0.013780" NOx_normed="0.321641" fuel_normed="0.330552" electricity_normed="0"
            traveltime="1.50" CO_perVeh="85.875520" CO2_perVeh="3568.996265" HC_perVeh="0.473770" PMx_perVeh="0.063956" NOx_perVeh="1.492825" fuel_perVeh="1.534181" electricity_perVeh="0"/>
        <edge id=":1110673417_0" sampledSeconds="29.03" CO_abs="364.893308" CO2_abs="49193.811635" HC_abs="2.747316" PMx_abs="0.634461" NOx_abs="18.062956" fuel_abs="21.146386" electricity_abs="0"
            CO_normed="553.828992" CO2_normed="74665.548800" HC_normed="4.169830" PMx_normed="0.962974" NOx_normed="27.415654" fuel_normed="32.095632" electricity_normed="0"
            traveltime="0.02" CO_perVeh="0.278249" CO2_perVeh="37.512643" HC_perVeh="0.002095" PMx_perVeh="0.000484" NOx_perVeh="0.013774" fuel_perVeh="0.016125" electricity_perVeh="0"/>
        <edge id=":1110673446_0" sampledSeconds="1313.37" CO_abs="15015.395779" CO2_abs="1208125.872955" HC_abs="97.018567" PMx_abs="22.148473" NOx_abs="494.475458" fuel_abs="519.317825" electricity_abs="0"
            CO_normed="21270.776691" CO2_normed="1711428.458913" HC_normed="137.436290" PMx_normed="31.375479" NOx_normed="700.472848" fuel_normed="735.664490" electricity_normed="0"
            traveltime="0.02" CO_perVeh="0.260625" CO2_perVeh="20.969638" HC_perVeh="0.001684" PMx_perVeh="0.000384" NOx_perVeh="0.008583" fuel_perVeh="0.009014" electricity_perVeh="0"/>
        <edge id=":1110673451_0" sampledSeconds="36.40" CO_abs="321.833998" CO2_abs="23205.719793" HC_abs="1.997533" PMx_abs="0.334535" NOx_abs="9.011404" fuel_abs="9.975230" electricity_abs="0"
            CO_normed="506.565927" CO2_normed="36525.746339" HC_normed="3.144112" PMx_normed="0.526558" NOx_normed="14.183929" fuel_normed="15.700988" electricity_normed="0"
            traveltime="0.03" CO_perVeh="0.237121" CO2_perVeh="17.097485" HC_perVeh="0.001472" PMx_perVeh="0.000246" NOx_perVeh="0.006639" fuel_perVeh="0.007350" electricity_perVeh="0"/>
        <edge id=":1110673464_0" sampledSeconds="1027.90" CO_abs="3641.109488" CO2_abs="279776.796888" HC_abs="22.998942" PMx_abs="3.998691" NOx_abs="108.171608" fuel_abs="120.264966" electricity_abs="0"
            CO_normed="109.588974" CO2_normed="8420.634479" HC_normed="0.692215" PMx_normed="0.120351" NOx_normed="3.255715" fuel_normed="3.619697" electricity_normed="0"
            traveltime="1.22" CO_perVeh="4.317846" CO2_perVeh="331.776125" HC_perVeh="0.027274" PMx_perVeh="0.004742" NOx_perVeh="0.128276" fuel_perVeh="0.142617" electricity_perVeh="0"/>
        <edge id=":1110673464_1" sampledSeconds="2610.69" CO_abs="63554.081754" CO2_abs="7719298.426812" HC_abs="473.543860" PMx_abs="138.009140" NOx_abs="2929.853534" fuel_abs="3318.170625" electricity_abs="0"
            CO_normed="1874.335309" CO2_normed="227657.346328" HC_normed="13.965743" PMx_normed="4.070162" NOx_normed="86.407163" fuel_normed="97.859401" electricity_normed="0"
            traveltime="0.72" CO_perVeh="17.522810" CO2_perVeh="2128.325917" HC_perVeh="0.130563" PMx_perVeh="0.038051" NOx_perVeh="0.807804" fuel_perVeh="0.914869" electricity_perVeh="0"/>
        <edge id=":1110673479_0" sampledSeconds="135.02" CO_abs="6358.121885" CO2_abs="441540.907194" HC_abs="39.297203" PMx_abs="7.623148" NOx_abs="179.888024" fuel_abs="189.799396" electricity_abs="0"
            CO_normed="9006.901501" CO2_normed="625485.879627" HC_normed="55.668332" PMx_normed="10.798935" NOx_normed="254.828980" fuel_normed="268.869408" electricity_normed="0"
            traveltime="0.03" CO_perVeh="1.344164" CO2_perVeh="93.345740" HC_perVeh="0.008308" PMx_perVeh="0.001612" NOx_perVeh="0.038030" fuel_perVeh="0.040125" electricity_perVeh="0"/>
        <edge id=":1110673511_0" sampledSeconds="63.89" CO_abs="1293.623803" CO2_abs="139665.601312" HC_abs="9.060836" PMx_abs="1.910947" NOx_abs="52.544081" fuel_abs="60.036479" electricity_abs="0"
            CO_normed="1832.544638" CO2_normed="197849.984151" HC_normed="12.835560" PMx_normed="2.707043" NOx_normed="74.433830" fuel_normed="85.047544" electricity_normed="0"
            traveltime="0.02" CO_perVeh="0.495800" CO2_perVeh="53.528816" HC_perVeh="0.003473" PMx_perVeh="0.000732" NOx_perVeh="0.020138" fuel_perVeh="0.023010" electricity_perVeh="0"/>
        <edge id=":1110673517_0" sampledSeconds="181.86" CO_abs="8668.538456" CO2_abs="613545.386768" HC_abs="53.885073" PMx_abs="10.669624" NOx_abs="250.158698" fuel_abs="263.736479" electricity_abs="0"
            CO_normed="12279.832543" CO2_normed="869147.047718" HC_normed="76.333476" PMx_normed="15.114566" NOx_normed="354.374262" fuel_normed="373.608517" electricity_normed="0"
            traveltime="0.03" CO_perVeh="1.327223" CO2_perVeh="93.938765" HC_perVeh="0.008250" PMx_perVeh="0.001634" NOx_perVeh="0.038301" fuel_perVeh="0.040380" electricity_perVeh="0"/>
        <edge id=":1110673534_0" sampledSeconds="658.82" CO_abs="4191.199354" CO2_abs="365439.901271" HC_abs="27.425897" PMx_abs="4.859411" NOx_abs="138.280511" fuel_abs="157.088284" electricity_abs="0"
            CO_normed="115.062864" CO2_normed="10032.584530" HC_normed="0.752935" PMx_normed="0.133408" NOx_normed="3.796277" fuel_normed="4.312615" electricity_normed="0"
            traveltime="1.45" CO_perVeh="9.215823" CO2_perVeh="803.547945" HC_perVeh="0.060305" PMx_perVeh="0.010685" NOx_perVeh="0.304058" fuel_perVeh="0.345414" electricity_perVeh="0"/>
        <edge id=":1110673534_1" sampledSeconds="264.90" CO_abs="3819.225325" CO2_abs="493528.260880" HC_abs="28.671766" PMx_abs="6.607172" NOx_abs="183.091007" fuel_abs="212.147194" electricity_abs="0"
            CO_normed="101.953006" CO2_normed="13174.580101" HC_normed="0.765384" PMx_normed="0.176376" NOx_normed="4.887556" fuel_normed="5.663202" electricity_normed="0"
            traveltime="1.23" CO_perVeh="17.720247" CO2_perVeh="2289.847318" HC_perVeh="0.133030" PMx_perVeh="0.030656" NOx_perVeh="0.849496" fuel_perVeh="0.984310" electricity_perVeh="0"/>
        <edge id=":1110673549_0" sampledSeconds="642.20" CO_abs="1313.833441" CO2_abs="131453.777241" HC_abs="8.930412" PMx_abs="1.868126" NOx_abs="49.540246" fuel_abs="56.506558" electricity_abs="0"
            CO_normed="34.940680" CO2_normed="3495.941155" HC_normed="0.237499" PMx_normed="0.049682" NOx_normed="1.317496" fuel_normed="1.502761" electricity_normed="0"
            traveltime="1.28" CO_perVeh="2.610274" CO2_perVeh="261.167311" HC_perVeh="0.017743" PMx_perVeh="0.003712" NOx_perVeh="0.098425" fuel_perVeh="0.112265" electricity_perVeh="0"/>
        <edge id=":1110673549_1" sampledSeconds="3199.59" CO_abs="67867.717519" CO2_abs="9004825.230016" HC_abs="523.428675" PMx_abs="157.761969" NOx_abs="3360.722661" fuel_abs="3870.762588" electricity_abs="0"
            CO_normed="1745.906652" CO2_normed="231650.405243" HC_normed="13.465277" PMx_normed="4.058449" NOx_normed="86.455067" fuel_normed="99.575916" electricity_normed="0"
            traveltime="0.81" CO_perVeh="17.118804" CO2_perVeh="2271.357371" HC_perVeh="0.132029" PMx_perVeh="0.039794" NOx_perVeh="0.847701" fuel_perVeh="0.976353" electricity_perVeh="0"/>
        <edge id=":1110673556_0" sampledSeconds="464.04" CO_abs="57780.193481" CO2_abs="2784137.193365" HC_abs="329.280569" PMx_abs="56.527271" NOx_abs="1202.447504" fuel_abs="1196.781337" electricity_abs="0"
            CO_normed="1139.461186" CO2_normed="54904.909071" HC_normed="6.493617" PMx_normed="1.114753" NOx_normed="23.713009" fuel_normed="23.601269" electricity_normed="0"
            traveltime="2.74" CO_perVeh="340.608685" CO2_perVeh="16412.221057" HC_perVeh="1.941077" PMx_perVeh="0.333223" NOx_perVeh="7.088312" fuel_perVeh="7.054911" electricity_perVeh="0"/>
        <edge id=":1110673556_2" sampledSeconds="175.84" CO_abs="17886.674952" CO2_abs="765762.094325" HC_abs="99.446287" PMx_abs="14.882586" NOx_abs="327.317667" fuel_abs="329.170958" electricity_abs="0"
            CO_normed="368.824228" CO2_normed="15790.056789" HC_normed="2.050588" PMx_normed="0.306880" NOx_normed="6.749308" fuel_normed="6.787523" electricity_normed="0"
            traveltime="3.04" CO_perVeh="309.286169" CO2_perVeh="13241.120850" HC_perVeh="1.719568" PMx_perVeh="0.257341" NOx_perVeh="5.659790" fuel_perVeh="5.691836" electricity_perVeh="0"/>
        <edge id=":1110673556_3" sampledSeconds="191.07" CO_abs="20869.806292" CO2_abs="710629.496160" HC_abs="111.669178" PMx_abs="14.222554" NOx_abs="307.312191" fuel_abs="305.474557" electricity_abs="0"
            CO_normed="978.944429" CO2_normed="33333.648474" HC_normed="5.238090" PMx_normed="0.667140" NOx_normed="14.415158" fuel_normed="14.328960" electricity_normed="0"
            traveltime="1.90" CO_perVeh="207.447880" CO2_perVeh="7063.725490" HC_perVeh="1.110002" PMx_perVeh="0.141374" NOx_perVeh="3.054713" fuel_perVeh="3.036446" electricity_perVeh="0"/>
        <edge id=":1110673556_4" sampledSeconds="30.28" CO_abs="3506.348621" CO2_abs="135880.263394" HC_abs="19.159150" PMx_abs="2.696411" NOx_abs="58.535104" fuel_abs="58.409762" electricity_abs="0"
            CO_normed="100.480494" CO2_normed="3893.884345" HC_normed="0.549039" PMx_normed="0.077270" NOx_normed="1.677425" fuel_normed="1.673833" electricity_normed="0"
            traveltime="2.55" CO_perVeh="295.080865" CO2_perVeh="11435.162332" HC_perVeh="1.612361" PMx_perVeh="0.226920" NOx_perVeh="4.926090" fuel_perVeh="4.915542" electricity_perVeh="0"/>
        <edge id=":1110673556_5" sampledSeconds="22.41" CO_abs="1076.708720" CO2_abs="48629.508484" HC_abs="6.024319" PMx_abs="0.824288" NOx_abs="20.006430" fuel_abs="20.904044" electricity_abs="0"
            CO_normed="43.005542" CO2_normed="1942.343654" HC_normed="0.240621" PMx_normed="0.032923" NOx_normed="0.799090" fuel_normed="0.834942" electricity_normed="0"
            traveltime="1.55" CO_perVeh="74.439121" CO2_perVeh="3362.040093" HC_perVeh="0.416496" PMx_perVeh="0.056988" NOx_perVeh="1.383161" fuel_perVeh="1.445218" electricity_perVeh="0"/>
        <edge id=":1110673556_6" sampledSeconds="563.09" CO_abs="67392.096791" CO2_abs="3192126.835376" HC_abs="382.610212" PMx_abs="64.342077" NOx_abs="1376.324065" fuel_abs="1372.160233" electricity_abs="0"
            CO_normed="1362.523735" CO2_normed="64537.961931" HC_normed="7.735558" PMx_normed="1.300859" NOx_normed="27.826322" fuel_normed="27.742139" electricity_normed="0"
            traveltime="2.73" CO_perVeh="327.203530" CO2_perVeh="15498.481549" HC_perVeh="1.857657" PMx_perVeh="0.312395" NOx_perVeh="6.682358" fuel_perVeh="6.662141" electricity_perVeh="0"/>
        <edge id=":1110673561_0" sampledSeconds="106.32" CO_abs="9722.854656" CO2_abs="683122.534616" HC_abs="60.677582" PMx_abs="13.820494" NOx_abs="289.478653" fuel_abs="293.641922" electricity_abs="0"
            CO_normed="246.982210" CO2_normed="17352.837106" HC_normed="1.541346" PMx_normed="0.351071" NOx_normed="7.353404" fuel_normed="7.459160" electricity_normed="0"
            traveltime="1.25" CO_perVeh="114.739122" CO2_perVeh="8061.508947" HC_perVeh="0.716054" PMx_perVeh="0.163095" NOx_perVeh="3.416129" fuel_perVeh="3.465260" electricity_perVeh="0"/>
        <edge id=":1110673561_1" sampledSeconds="5191.27" CO_abs="485462.116438" CO2_abs="33670332.904881" HC_abs="3025.033267" PMx_abs="702.972313" NOx_abs="14389.734260" fuel_abs="14473.250783" electricity_abs="0"
            CO_normed="12022.807136" CO2_normed="833869.224864" HC_normed="74.917054" PMx_normed="17.409599" NOx_normed="356.371782" fuel_normed="358.440127" electricity_normed="0"
            traveltime="1.19" CO_perVeh="111.463735" CO2_perVeh="7730.821726" HC_perVeh="0.694558" PMx_perVeh="0.161405" NOx_perVeh="3.303931" fuel_perVeh="3.323107" electricity_perVeh="0"/>
        <edge id=":1110673562_0" sampledSeconds="300.59" CO_abs="6859.252694" CO2_abs="521804.891231" HC_abs="43.133533" PMx_abs="7.135025" NOx_abs="199.904966" fuel_abs="224.303786" electricity_abs="0"
            CO_normed="10796.447006" CO2_normed="821319.625752" HC_normed="67.892075" PMx_normed="11.230513" NOx_normed="314.649928" fuel_normed="353.053611" electricity_normed="0"
            traveltime="0.03" CO_perVeh="0.614873" CO2_perVeh="46.775339" HC_perVeh="0.003867" PMx_perVeh="0.000640" NOx_perVeh="0.017920" fuel_perVeh="0.020107" electricity_perVeh="0"/>
        <edge id=":1110673564_0" sampledSeconds="27.91" CO_abs="443.461451" CO2_abs="52806.634521" HC_abs="3.200882" PMx_abs="0.710810" NOx_abs="19.681638" fuel_abs="22.699380" electricity_abs="0"
            CO_normed="1884.619555" CO2_normed="224417.287539" HC_normed="13.603086" PMx_normed="3.020797" NOx_normed="83.642896" fuel_normed="96.467675" electricity_normed="0"
            traveltime="7.883383e-03" CO_perVeh="0.125257" CO2_perVeh="14.915336" HC_perVeh="0.000904" PMx_perVeh="0.000201" NOx_perVeh="0.005559" fuel_perVeh="0.006411" electricity_perVeh="0"/>
        <edge id=":1110673588_0" sampledSeconds="63.24" CO_abs="1115.252000" CO2_abs="112928.670691" HC_abs="7.687809" PMx_abs="1.627832" NOx_abs="43.138655" fuel_abs="48.543302" electricity_abs="0"
            CO_normed="1895.836242" CO2_normed="191969.408328" HC_normed="13.068640" PMx_normed="2.767180" NOx_normed="73.332148" fuel_normed="82.519603" electricity_normed="0"
            traveltime="0.02" CO_perVeh="0.359762" CO2_perVeh="36.428928" HC_perVeh="0.002480" PMx_perVeh="0.000525" NOx_perVeh="0.013916" fuel_perVeh="0.015659" electricity_perVeh="0"/>
        <edge id=":1110673601_0" sampledSeconds="29.02" CO_abs="521.349367" CO2_abs="56114.283133" HC_abs="3.654759" PMx_abs="0.822037" NOx_abs="21.396876" fuel_abs="24.121139" electricity_abs="0"
            CO_normed="791.295394" CO2_normed="85169.325295" HC_normed="5.547132" PMx_normed="1.247675" NOx_normed="32.475822" fuel_normed="36.610664" electricity_normed="0"
            traveltime="0.02" CO_perVeh="0.397554" CO2_perVeh="42.789834" HC_perVeh="0.002787" PMx_perVeh="0.000627" NOx_perVeh="0.016316" fuel_perVeh="0.018394" electricity_perVeh="0"/>
        <edge id=":1110673617_0" sampledSeconds="856.44" CO_abs="32631.865314" CO2_abs="3299023.700246" HC_abs="227.699022" PMx_abs="62.214984" NOx_abs="1294.098795" fuel_abs="1418.095839" electricity_abs="0"
            CO_normed="46226.228754" CO2_normed="4673389.730014" HC_normed="322.557935" PMx_normed="88.133610" NOx_normed="1833.217511" fuel_normed="2008.871452" electricity_normed="0"
            traveltime="0.02" CO_perVeh="0.578101" CO2_perVeh="58.444954" HC_perVeh="0.004034" PMx_perVeh="0.001102" NOx_perVeh="0.022926" fuel_perVeh="0.025123" electricity_perVeh="0"/>
        <edge id=":1110673621_0" sampledSeconds="26.67" CO_abs="620.314610" CO2_abs="62413.973996" HC_abs="4.257937" PMx_abs="0.926913" NOx_abs="24.007122" fuel_abs="26.829112" electricity_abs="0"
            CO_normed="1054.483578" CO2_normed="106098.598222" HC_normed="7.238141" PMx_normed="1.575675" NOx_normed="40.810124" fuel_normed="45.607273" electricity_normed="0"
            traveltime="0.02" CO_perVeh="0.469942" CO2_perVeh="47.284017" HC_perVeh="0.003226" PMx_perVeh="0.000702" NOx_perVeh="0.018187" fuel_perVeh="0.020325" electricity_perVeh="0"/>
        <edge id=":1110673630_0" sampledSeconds="285.29" CO_abs="1470.013105" CO2_abs="131883.633950" HC_abs="9.722461" PMx_abs="1.835162" NOx_abs="50.344407" fuel_abs="56.691451" electricity_abs="0"
            CO_normed="44.559572" CO2_normed="3997.704699" HC_normed="0.294711" PMx_normed="0.055628" NOx_normed="1.526058" fuel_normed="1.718452" electricity_normed="0"
            traveltime="1.28" CO_perVeh="6.614498" CO2_perVeh="593.425984" HC_perVeh="0.043747" PMx_perVeh="0.008258" NOx_perVeh="0.226531" fuel_perVeh="0.255090" electricity_perVeh="0"/>
        <edge id=":1110673630_1" sampledSeconds="338.25" CO_abs="1364.737214" CO2_abs="118731.101237" HC_abs="8.895622" PMx_abs="1.433379" NOx_abs="44.038529" fuel_abs="51.038064" electricity_abs="0"
            CO_normed="50.433489" CO2_normed="4387.675234" HC_normed="0.328735" PMx_normed="0.052970" NOx_normed="1.627432" fuel_normed="1.886098" electricity_normed="0"
            traveltime="1.08" CO_perVeh="4.350514" CO2_perVeh="378.491383" HC_perVeh="0.028357" PMx_perVeh="0.004569" NOx_perVeh="0.140386" fuel_perVeh="0.162699" electricity_perVeh="0"/>
        <edge id=":1110673650_0" sampledSeconds="200.23" CO_abs="3026.941806" CO2_abs="384468.482947" HC_abs="22.581186" PMx_abs="5.207504" NOx_abs="143.140530" fuel_abs="165.266889" electricity_abs="0"
            CO_normed="4287.959116" CO2_normed="544637.208755" HC_normed="31.988458" PMx_normed="7.376939" NOx_normed="202.772560" fuel_normed="234.116712" electricity_normed="0"
            traveltime="0.02" CO_perVeh="0.349842" CO2_perVeh="44.435293" HC_perVeh="0.002610" PMx_perVeh="0.000602" NOx_perVeh="0.016544" fuel_perVeh="0.019101" electricity_perVeh="0"/>
        <edge id=":1110673655_0" sampledSeconds="20.68" CO_abs="323.747617" CO2_abs="42010.260771" HC_abs="2.421096" PMx_abs="0.532602" NOx_abs="15.425604" fuel_abs="18.058497" electricity_abs="0"
            CO_normed="458.620163" CO2_normed="59511.643165" HC_normed="3.429719" PMx_normed="0.754483" NOx_normed="21.851877" fuel_normed="25.581627" electricity_normed="0"
            traveltime="0.02" CO_perVeh="0.369857" CO2_perVeh="47.993483" HC_perVeh="0.002766" PMx_perVeh="0.000608" NOx_perVeh="0.017623" fuel_perVeh="0.020630" electricity_perVeh="0"/>
        <edge id=":1110673663_0" sampledSeconds="112.88" CO_abs="1700.446422" CO2_abs="197002.355050" HC_abs="12.172211" PMx_abs="2.598013" NOx_abs="73.233625" fuel_abs="84.683246" electricity_abs="0"
            CO_normed="44.118107" CO2_normed="5111.229004" HC_normed="0.315808" PMx_normed="0.067405" NOx_normed="1.900047" fuel_normed="2.197108" electricity_normed="0"
            traveltime="1.33" CO_perVeh="19.972545" CO2_perVeh="2313.885597" HC_perVeh="0.142968" PMx_perVeh="0.030515" NOx_perVeh="0.860163" fuel_perVeh="0.994645" electricity_perVeh="0"/>
        <edge id=":1110673663_1" sampledSeconds="170.38" CO_abs="2450.895323" CO2_abs="312634.731654" HC_abs="18.388065" PMx_abs="4.287667" NOx_abs="116.703232" fuel_abs="134.388495" electricity_abs="0"
            CO_normed="63.666252" CO2_normed="8121.228748" HC_normed="0.477662" PMx_normed="0.111380" NOx_normed="3.031569" fuel_normed="3.490974" electricity_normed="0"
            traveltime="1.27" CO_perVeh="18.317666" CO2_perVeh="2336.590416" HC_perVeh="0.137430" PMx_perVeh="0.032045" NOx_perVeh="0.872224" fuel_perVeh="1.004402" electricity_perVeh="0"/>