<?xml version="1.0" encoding="UTF-8"?>

<!-- generated on Tue Nov 10 02:47:05 2020 by Eclipse SUMO sumo Version 1.7.0
<configuration xmlns:xsi="http://www.w3.org/2001/XMLSchema-instance" xsi:noNamespaceSchemaLocation="http://sumo.dlr.de/xsd/sumoConfiguration.xsd">

    <input>
        <net-file value="../dataSets/Porto/6AM7AM_Routing_SaoBento/Porto.net.xml"/>
        <route-files value="../results/Porto/6AM7AM_Routing_SaoBento/cost_hc-cost_nox/solution4/Porto.rou.xml"/>
        <additional-files value="moreOutputInfo.xml"/>
    </input>

    <output>
        <emission-output.precision value="6"/>
        <tripinfo-output value="../results/Porto/6AM7AM_Routing_SaoBento/cost_hc-cost_nox/solution4/Porto-tripinfo"/>
    </output>

    <processing>
        <collision.action value="warn"/>
        <time-to-teleport value="-1"/>
    </processing>

    <emissions>
        <device.emissions.probability value="1"/>
    </emissions>

    <gui_only>
        <quit-on-end value="true"/>
        <start value="true"/>
    </gui_only>

</configuration>
-->

<meandata xmlns:xsi="http://www.w3.org/2001/XMLSchema-instance" xsi:noNamespaceSchemaLocation="http://sumo.dlr.de/xsd/meandata_file.xsd">
    <interval begin="0.00" end="4789.00" id="emissions-detector">
        <edge id=":1092997347_0" sampledSeconds="269.74" CO_abs="34745.604918" CO2_abs="1371901.601990" HC_abs="190.647433" PMx_abs="28.105880" NOx_abs="596.334708" fuel_abs="589.726497" electricity_abs="0"
            CO_normed="59361.499699" CO2_normed="2343839.939617" HC_normed="325.713643" PMx_normed="48.017791" NOx_normed="1018.814398" fuel_normed="1007.524530" electricity_normed="0"
            traveltime="0.08" CO_perVeh="9.753899" CO2_perVeh="385.124670" HC_perVeh="0.053519" PMx_perVeh="0.007890" NOx_perVeh="0.167405" fuel_perVeh="0.165550" electricity_perVeh="0"/>
        <edge id=":1103427051_0" sampledSeconds="11.06" CO_abs="866.252503" CO2_abs="47985.186329" HC_abs="5.085865" PMx_abs="0.956013" NOx_abs="20.584071" fuel_abs="20.626696" electricity_abs="0"
            CO_normed="2245.454030" CO2_normed="124384.668015" HC_normed="13.183310" PMx_normed="2.478128" NOx_normed="53.356942" fuel_normed="53.467432" electricity_normed="0"
            traveltime="0.03" CO_perVeh="2.373519" CO2_perVeh="131.478685" HC_perVeh="0.013935" PMx_perVeh="0.002619" NOx_perVeh="0.056400" fuel_perVeh="0.056517" electricity_perVeh="0"/>
        <edge id=":1105984386_0" sampledSeconds="23.01" CO_abs="443.599354" CO2_abs="35308.909484" HC_abs="2.823702" PMx_abs="0.469230" NOx_abs="13.422953" fuel_abs="15.177942" electricity_abs="0"
            CO_normed="34.342297" CO2_normed="2733.523038" HC_normed="0.218604" PMx_normed="0.036327" NOx_normed="1.039170" fuel_normed="1.175036" electricity_normed="0"
            traveltime="0.97" CO_perVeh="18.617521" CO2_perVeh="1481.887583" HC_perVeh="0.118509" PMx_perVeh="0.019693" NOx_perVeh="0.563351" fuel_perVeh="0.637006" electricity_perVeh="0"/>
        <edge id=":1105984390_0" sampledSeconds="23.97" CO_abs="69.677680" CO2_abs="5088.225489" HC_abs="0.434121" PMx_abs="0.074378" NOx_abs="1.985433" fuel_abs="2.187226" electricity_abs="0"
            CO_normed="4.170246" CO2_normed="304.533009" HC_normed="0.025982" PMx_normed="0.004452" NOx_normed="0.118829" fuel_normed="0.130907" electricity_normed="0"
            traveltime="1.09" CO_perVeh="3.159849" CO2_perVeh="230.748527" HC_perVeh="0.019687" PMx_perVeh="0.003373" NOx_perVeh="0.090038" fuel_perVeh="0.099190" electricity_perVeh="0"/>
        <edge id=":1105984390_1" sampledSeconds="645.03" CO_abs="14083.244024" CO2_abs="1869155.041062" HC_abs="108.944143" PMx_abs="32.848678" NOx_abs="697.513529" fuel_abs="803.464250" electricity_abs="0"
            CO_normed="806.298111" CO2_normed="107013.424994" HC_normed="6.237303" PMx_normed="1.880662" NOx_normed="39.934254" fuel_normed="46.000176" electricity_normed="0"
            traveltime="0.64" CO_perVeh="13.879050" CO2_perVeh="1842.054022" HC_perVeh="0.107365" PMx_perVeh="0.032372" NOx_perVeh="0.687400" fuel_perVeh="0.791815" electricity_perVeh="0"/>
        <edge id=":1105984395_0" sampledSeconds="8.88" CO_abs="169.624682" CO2_abs="15267.088598" HC_abs="1.116621" PMx_abs="0.180159" NOx_abs="5.630431" fuel_abs="6.562753" electricity_abs="0"
            CO_normed="138.598613" CO2_normed="12474.583727" HC_normed="0.912380" PMx_normed="0.147206" NOx_normed="4.600568" fuel_normed="5.362359" electricity_normed="0"
            traveltime="0.09" CO_perVeh="1.720180" CO2_perVeh="154.824973" HC_perVeh="0.011324" PMx_perVeh="0.001827" NOx_perVeh="0.057099" fuel_perVeh="0.066553" electricity_perVeh="0"/>
        <edge id=":1105984398_0" sampledSeconds="23.56" CO_abs="1356.179485" CO2_abs="96375.642636" HC_abs="8.435993" PMx_abs="1.659304" NOx_abs="39.206573" fuel_abs="41.427716" electricity_abs="0"
            CO_normed="84.323482" CO2_normed="5992.370396" HC_normed="0.524527" PMx_normed="0.103171" NOx_normed="2.437756" fuel_normed="2.575861" electricity_normed="0"
            traveltime="1.11" CO_perVeh="63.829312" CO2_perVeh="4535.971144" HC_perVeh="0.397045" PMx_perVeh="0.078096" NOx_perVeh="1.845278" fuel_perVeh="1.949818" electricity_perVeh="0"/>
        <edge id=":1105984398_1" sampledSeconds="454.08" CO_abs="8046.227111" CO2_abs="953272.530237" HC_abs="58.477186" PMx_abs="13.565070" NOx_abs="359.720669" fuel_abs="409.771301" electricity_abs="0"
            CO_normed="484.269940" CO2_normed="57373.626759" HC_normed="3.519506" PMx_normed="0.816427" NOx_normed="21.650135" fuel_normed="24.662481" electricity_normed="0"
            traveltime="0.96" CO_perVeh="16.952201" CO2_perVeh="2008.403138" HC_perVeh="0.123203" PMx_perVeh="0.028580" NOx_perVeh="0.757878" fuel_perVeh="0.863327" electricity_perVeh="0"/>
        <edge id=":1106006327_0" sampledSeconds="528.58" CO_abs="71257.570947" CO2_abs="2307242.949329" HC_abs="378.766381" PMx_abs="48.117058" NOx_abs="1009.870320" fuel_abs="991.802445" electricity_abs="0"
            CO_normed="6045.816419" CO2_normed="195756.985831" HC_normed="32.136263" PMx_normed="4.082470" NOx_normed="85.681991" fuel_normed="84.149030" electricity_normed="0"
            traveltime="2.10" CO_perVeh="282.854285" CO2_perVeh="9158.515318" HC_perVeh="1.503499" PMx_perVeh="0.190999" NOx_perVeh="4.008643" fuel_perVeh="3.936923" electricity_perVeh="0"/>
        <edge id=":1106006327_1" sampledSeconds="160.56" CO_abs="21803.668986" CO2_abs="732227.221238" HC_abs="116.544246" PMx_abs="15.292534" NOx_abs="320.563286" fuel_abs="314.757962" electricity_abs="0"
            CO_normed="1613.219771" CO2_normed="54176.360452" HC_normed="8.622929" PMx_normed="1.131471" NOx_normed="23.717982" fuel_normed="23.288455" electricity_normed="0"
            traveltime="2.28" CO_perVeh="309.531183" CO2_perVeh="10394.909132" HC_perVeh="1.654496" PMx_perVeh="0.217097" NOx_perVeh="4.550809" fuel_perVeh="4.468395" electricity_perVeh="0"/>
        <edge id=":1106006327_2" sampledSeconds="0.00" CO_abs="0" CO2_abs="0" HC_abs="0" PMx_abs="0" NOx_abs="0" fuel_abs="0" electricity_abs="0"
            CO_normed="0" CO2_normed="0" HC_normed="0" PMx_normed="0" NOx_normed="0" fuel_normed="0" electricity_normed="0"/>
        <edge id=":1106006327_3" sampledSeconds="0.00" CO_abs="0" CO2_abs="0" HC_abs="0" PMx_abs="0" NOx_abs="0" fuel_abs="0" electricity_abs="0"
            CO_normed="0" CO2_normed="0" HC_normed="0" PMx_normed="0" NOx_normed="0" fuel_normed="0" electricity_normed="0"/>
        <edge id=":1107381198_0" sampledSeconds="0.00" CO_abs="0" CO2_abs="0" HC_abs="0" PMx_abs="0" NOx_abs="0" fuel_abs="0" electricity_abs="0"
            CO_normed="0" CO2_normed="0" HC_normed="0" PMx_normed="0" NOx_normed="0" fuel_normed="0" electricity_normed="0"/>
        <edge id=":1107381198_1" sampledSeconds="35.95" CO_abs="1251.983823" CO2_abs="52827.476279" HC_abs="6.922694" PMx_abs="0.928938" NOx_abs="21.982972" fuel_abs="22.708612" electricity_abs="0"
            CO_normed="102.633005" CO2_normed="4330.601198" HC_normed="0.567497" PMx_normed="0.076151" NOx_normed="1.802083" fuel_normed="1.861568" electricity_normed="0"
            traveltime="1.48" CO_perVeh="51.547646" CO2_perVeh="2175.053688" HC_perVeh="0.285027" PMx_perVeh="0.038247" NOx_perVeh="0.905100" fuel_perVeh="0.934977" electricity_perVeh="0"/>
        <edge id=":1110338277_0" sampledSeconds="96.69" CO_abs="1302.716465" CO2_abs="165431.120913" HC_abs="9.718089" PMx_abs="2.161852" NOx_abs="61.199910" fuel_abs="71.112018" electricity_abs="0"
            CO_normed="3497.434054" CO2_normed="444136.887574" HC_normed="26.090386" PMx_normed="5.803975" NOx_normed="164.304863" fuel_normed="190.916136" electricity_normed="0"
            traveltime="0.02" CO_perVeh="0.293591" CO2_perVeh="37.282953" HC_perVeh="0.002190" PMx_perVeh="0.000487" NOx_perVeh="0.013793" fuel_perVeh="0.016026" electricity_perVeh="0"/>
        <edge id=":1110338293_0" sampledSeconds="123.43" CO_abs="6343.362250" CO2_abs="435066.429259" HC_abs="39.120309" PMx_abs="7.701608" NOx_abs="178.568408" fuel_abs="187.016066" electricity_abs="0"
            CO_normed="15894.831281" CO2_normed="1090164.366487" HC_normed="98.025414" PMx_normed="19.298244" NOx_normed="447.446418" fuel_normed="468.614072" electricity_normed="0"
            traveltime="0.03" CO_perVeh="1.454955" CO2_perVeh="99.789693" HC_perVeh="0.008973" PMx_perVeh="0.001766" NOx_perVeh="0.040958" fuel_perVeh="0.042895" electricity_perVeh="0"/>
        <edge id=":1110338295_0" sampledSeconds="0.00" CO_abs="0" CO2_abs="0" HC_abs="0" PMx_abs="0" NOx_abs="0" fuel_abs="0" electricity_abs="0"
            CO_normed="0" CO2_normed="0" HC_normed="0" PMx_normed="0" NOx_normed="0" fuel_normed="0" electricity_normed="0"/>
        <edge id=":1110673403_0" sampledSeconds="143.66" CO_abs="2274.925734" CO2_abs="275086.412107" HC_abs="16.683042" PMx_abs="3.873182" NOx_abs="103.509794" fuel_abs="118.247975" electricity_abs="0"
            CO_normed="5700.377700" CO2_normed="689295.666168" HC_normed="41.803404" PMx_normed="9.705197" NOx_normed="259.368872" fuel_normed="296.298957" electricity_normed="0"
            traveltime="0.02" CO_perVeh="0.365254" CO2_perVeh="44.166938" HC_perVeh="0.002679" PMx_perVeh="0.000622" NOx_perVeh="0.016619" fuel_perVeh="0.018985" electricity_perVeh="0"/>
        <edge id=":1110673412_0" sampledSeconds="252.36" CO_abs="45016.632654" CO2_abs="3066183.716003" HC_abs="280.034587" PMx_abs="67.446025" NOx_abs="1318.271956" fuel_abs="1318.001314" electricity_abs="0"
            CO_normed="116689.739815" CO2_normed="7947999.638260" HC_normed="725.890881" PMx_normed="174.830026" NOx_normed="3417.155005" fuel_normed="3416.453460" electricity_normed="0"
            traveltime="0.02" CO_perVeh="2.771300" CO2_perVeh="188.759477" HC_perVeh="0.017239" PMx_perVeh="0.004152" NOx_perVeh="0.081155" fuel_perVeh="0.081138" electricity_perVeh="0"/>
        <edge id=":1110673414_0" sampledSeconds="0.00" CO_abs="0" CO2_abs="0" HC_abs="0" PMx_abs="0" NOx_abs="0" fuel_abs="0" electricity_abs="0"
            CO_normed="0" CO2_normed="0" HC_normed="0" PMx_normed="0" NOx_normed="0" fuel_normed="0" electricity_normed="0"/>
        <edge id=":1110673414_1" sampledSeconds="131.06" CO_abs="9163.296889" CO2_abs="354291.428021" HC_abs="49.950174" PMx_abs="6.523045" NOx_abs="149.455037" fuel_abs="152.297204" electricity_abs="0"
            CO_normed="762.819298" CO2_normed="29493.788272" HC_normed="4.158215" PMx_normed="0.543026" NOx_normed="12.441721" fuel_normed="12.678324" electricity_normed="0"
            traveltime="1.56" CO_perVeh="109.176106" CO2_perVeh="4221.205430" HC_perVeh="0.595131" PMx_perVeh="0.077719" NOx_perVeh="1.780682" fuel_perVeh="1.814545" electricity_perVeh="0"/>
        <edge id=":1110673417_0" sampledSeconds="30.12" CO_abs="626.845397" CO2_abs="63767.147521" HC_abs="4.314222" PMx_abs="0.935159" NOx_abs="24.432363" fuel_abs="27.410797" electricity_abs="0"
            CO_normed="1682.906832" CO2_normed="171197.186318" HC_normed="11.582496" PMx_normed="2.510643" NOx_normed="65.594149" fuel_normed="73.590422" electricity_normed="0"
            traveltime="0.02" CO_perVeh="0.465253" CO2_perVeh="47.328830" HC_perVeh="0.003202" PMx_perVeh="0.000694" NOx_perVeh="0.018134" fuel_perVeh="0.020345" electricity_perVeh="0"/>
        <edge id=":1110673446_0" sampledSeconds="334.79" CO_abs="2943.734579" CO2_abs="249417.439374" HC_abs="19.289120" PMx_abs="4.418175" NOx_abs="100.849673" fuel_abs="107.213227" electricity_abs="0"
            CO_normed="7376.240331" CO2_normed="624975.834723" HC_normed="48.333564" PMx_normed="11.070807" NOx_normed="252.703294" fuel_normed="268.648721" electricity_normed="0"
            traveltime="0.02" CO_perVeh="0.200817" CO2_perVeh="17.014868" HC_perVeh="0.001316" PMx_perVeh="0.000301" NOx_perVeh="0.006880" fuel_perVeh="0.007314" electricity_perVeh="0"/>
        <edge id=":1110673451_0" sampledSeconds="37.53" CO_abs="452.426881" CO2_abs="32771.730173" HC_abs="2.808625" PMx_abs="0.458694" NOx_abs="12.657462" fuel_abs="14.087301" electricity_abs="0"
            CO_normed="1259.627984" CO2_normed="91241.679330" HC_normed="7.819656" PMx_normed="1.277076" NOx_normed="35.240375" fuel_normed="39.221274" electricity_normed="0"
            traveltime="0.03" CO_perVeh="0.324450" CO2_perVeh="23.501639" HC_perVeh="0.002014" PMx_perVeh="0.000329" NOx_perVeh="0.009077" fuel_perVeh="0.010102" electricity_perVeh="0"/>
        <edge id=":1110673464_0" sampledSeconds="321.60" CO_abs="716.195380" CO2_abs="60190.333768" HC_abs="4.631352" PMx_abs="0.895956" NOx_abs="23.361653" fuel_abs="25.873340" electricity_abs="0"
            CO_normed="38.128918" CO2_normed="3204.422102" HC_normed="0.246565" PMx_normed="0.047699" NOx_normed="1.243731" fuel_normed="1.377449" electricity_normed="0"
            traveltime="1.16" CO_perVeh="2.588952" CO2_perVeh="217.580115" HC_perVeh="0.016742" PMx_perVeh="0.003239" NOx_perVeh="0.084449" fuel_perVeh="0.093529" electricity_perVeh="0"/>
        <edge id=":1110673464_1" sampledSeconds="708.64" CO_abs="16348.690692" CO2_abs="2148723.052981" HC_abs="125.807473" PMx_abs="37.840221" NOx_abs="802.920222" fuel_abs="923.637676" electricity_abs="0"
            CO_normed="852.857868" CO2_normed="112091.873027" HC_normed="6.562965" PMx_normed="1.974001" NOx_normed="41.885729" fuel_normed="48.183165" electricity_normed="0"
            traveltime="0.70" CO_perVeh="16.134352" CO2_perVeh="2120.552321" HC_perVeh="0.124158" PMx_perVeh="0.037344" NOx_perVeh="0.792394" fuel_perVeh="0.911528" electricity_perVeh="0"/>
        <edge id=":1110673479_0" sampledSeconds="133.17" CO_abs="7124.542136" CO2_abs="487872.331790" HC_abs="43.925073" PMx_abs="8.666409" NOx_abs="200.446084" fuel_abs="209.714981" electricity_abs="0"
            CO_normed="17852.266784" CO2_normed="1222482.351529" HC_normed="110.064913" PMx_normed="21.715789" NOx_normed="502.266238" fuel_normed="525.491704" electricity_normed="0"
            traveltime="0.03" CO_perVeh="1.500852" CO2_perVeh="102.774875" HC_perVeh="0.009253" PMx_perVeh="0.001826" NOx_perVeh="0.042226" fuel_perVeh="0.044178" electricity_perVeh="0"/>
        <edge id=":1110673511_0" sampledSeconds="11.80" CO_abs="207.909830" CO2_abs="25844.917992" HC_abs="1.523782" PMx_abs="0.348931" NOx_abs="9.614495" fuel_abs="11.109650" electricity_abs="0"
            CO_normed="520.968462" CO2_normed="64760.704930" HC_normed="3.818205" PMx_normed="0.874332" NOx_normed="24.091446" fuel_normed="27.837920" electricity_normed="0"
            traveltime="0.02" CO_perVeh="0.411703" CO2_perVeh="51.178055" HC_perVeh="0.003017" PMx_perVeh="0.000691" NOx_perVeh="0.019039" fuel_perVeh="0.021999" electricity_perVeh="0"/>
        <edge id=":1110673517_0" sampledSeconds="17.17" CO_abs="637.217588" CO2_abs="50316.156387" HC_abs="4.069712" PMx_abs="0.784971" NOx_abs="19.849131" fuel_abs="21.628811" electricity_abs="0"
            CO_normed="1596.703082" CO2_normed="126079.322749" HC_normed="10.197650" PMx_normed="1.966936" NOx_normed="49.736807" fuel_normed="54.196226" electricity_normed="0"
            traveltime="0.03" CO_perVeh="1.023095" CO2_perVeh="80.785908" HC_perVeh="0.006534" PMx_perVeh="0.001260" NOx_perVeh="0.031869" fuel_perVeh="0.034726" electricity_perVeh="0"/>
        <edge id=":1110673534_0" sampledSeconds="473.96" CO_abs="2362.019527" CO2_abs="219848.840659" HC_abs="15.742213" PMx_abs="2.720498" NOx_abs="81.702834" fuel_abs="94.504588" electricity_abs="0"
            CO_normed="114.701789" CO2_normed="10676.057081" HC_normed="0.764456" PMx_normed="0.132110" NOx_normed="3.967563" fuel_normed="4.589228" electricity_normed="0"
            traveltime="1.43" CO_perVeh="7.115818" CO2_perVeh="662.316442" HC_perVeh="0.047425" PMx_perVeh="0.008196" NOx_perVeh="0.246138" fuel_perVeh="0.284704" electricity_perVeh="0"/>
        <edge id=":1110673534_1" sampledSeconds="185.42" CO_abs="2695.413862" CO2_abs="338272.386363" HC_abs="20.029010" PMx_abs="4.586751" NOx_abs="126.063727" fuel_abs="145.409137" electricity_abs="0"
            CO_normed="127.274107" CO2_normed="15972.803448" HC_normed="0.945745" PMx_normed="0.216581" NOx_normed="5.952573" fuel_normed="6.866039" electricity_normed="0"
            traveltime="1.23" CO_perVeh="17.896580" CO2_perVeh="2246.007203" HC_perVeh="0.132985" PMx_perVeh="0.030454" NOx_perVeh="0.837018" fuel_perVeh="0.965464" electricity_perVeh="0"/>
        <edge id=":1110673549_0" sampledSeconds="60.15" CO_abs="97.127144" CO2_abs="11659.052789" HC_abs="0.715978" PMx_abs="0.179787" NOx_abs="4.460492" fuel_abs="5.011712" electricity_abs="0"
            CO_normed="4.569004" CO2_normed="548.458987" HC_normed="0.033681" PMx_normed="0.008457" NOx_normed="0.209828" fuel_normed="0.235758" electricity_normed="0"
            traveltime="1.25" CO_perVeh="2.023561" CO2_perVeh="242.906434" HC_perVeh="0.014917" PMx_perVeh="0.003746" NOx_perVeh="0.092931" fuel_perVeh="0.104415" electricity_perVeh="0"/>
        <edge id=":1110673549_1" sampledSeconds="638.56" CO_abs="13635.575619" CO2_abs="1853624.976173" HC_abs="106.439052" PMx_abs="32.312882" NOx_abs="689.445379" fuel_abs="796.788752" electricity_abs="0"
            CO_normed="620.470441" CO2_normed="84346.971422" HC_normed="4.843381" PMx_normed="1.470359" NOx_normed="31.372381" fuel_normed="36.256912" electricity_normed="0"
            traveltime="0.80" CO_perVeh="17.171625" CO2_perVeh="2334.316719" HC_perVeh="0.134041" PMx_perVeh="0.040692" NOx_perVeh="0.868236" fuel_perVeh="1.003416" electricity_perVeh="0"/>
        <edge id=":1110673556_0" sampledSeconds="415.65" CO_abs="51380.645120" CO2_abs="2586073.227689" HC_abs="295.481040" PMx_abs="52.321847" NOx_abs="1114.773189" fuel_abs="1111.640542" electricity_abs="0"
            CO_normed="1792.296852" CO2_normed="90209.278123" HC_normed="10.307184" PMx_normed="1.825129" NOx_normed="38.886325" fuel_normed="38.777050" electricity_normed="0"
            traveltime="2.58" CO_perVeh="318.945991" CO2_perVeh="16053.081593" HC_perVeh="1.834202" PMx_perVeh="0.324789" NOx_perVeh="6.919968" fuel_perVeh="6.900522" electricity_perVeh="0"/>
        <edge id=":1110673556_2" sampledSeconds="248.13" CO_abs="24370.241796" CO2_abs="1053580.801576" HC_abs="135.684622" PMx_abs="20.174884" NOx_abs="448.325826" fuel_abs="452.893144" electricity_abs="0"
            CO_normed="888.872582" CO2_normed="38427.976835" HC_normed="4.948918" PMx_normed="0.735852" NOx_normed="16.352096" fuel_normed="16.518683" electricity_normed="0"
            traveltime="3.01" CO_perVeh="295.606363" CO2_perVeh="12779.733227" HC_perVeh="1.645828" PMx_perVeh="0.244717" NOx_perVeh="5.438106" fuel_perVeh="5.493507" electricity_perVeh="0"/>
        <edge id=":1110673556_3" sampledSeconds="368.38" CO_abs="33285.882590" CO2_abs="1181609.910896" HC_abs="179.080247" PMx_abs="22.635113" NOx_abs="504.484761" fuel_abs="507.932759" electricity_abs="0"
            CO_normed="2761.782943" CO2_normed="98040.065124" HC_normed="14.858575" PMx_normed="1.878072" NOx_normed="41.857908" fuel_normed="42.143994" electricity_normed="0"
            traveltime="1.75" CO_perVeh="158.239721" CO2_perVeh="5617.325081" HC_perVeh="0.851340" PMx_perVeh="0.107606" NOx_perVeh="2.398300" fuel_perVeh="2.414692" electricity_perVeh="0"/>
        <edge id=":1110673556_4" sampledSeconds="179.24" CO_abs="18497.580483" CO2_abs="738210.386091" HC_abs="101.560844" PMx_abs="14.478161" NOx_abs="316.817899" fuel_abs="317.328392" electricity_abs="0"
            CO_normed="937.629879" CO2_normed="37419.386582" HC_normed="5.148051" PMx_normed="0.733888" NOx_normed="16.059286" fuel_normed="16.085162" electricity_normed="0"
            traveltime="2.42" CO_perVeh="250.181598" CO2_perVeh="9984.368183" HC_perVeh="1.373620" PMx_perVeh="0.195819" NOx_perVeh="4.284993" fuel_perVeh="4.291898" electricity_perVeh="0"/>
        <edge id=":1110673556_5" sampledSeconds="25.46" CO_abs="1857.112674" CO2_abs="72485.903320" HC_abs="10.149938" PMx_abs="1.385289" NOx_abs="30.875842" fuel_abs="31.159006" electricity_abs="0"
            CO_normed="131.206179" CO2_normed="5121.174699" HC_normed="0.717100" PMx_normed="0.097872" NOx_normed="2.181398" fuel_normed="2.201403" electricity_normed="0"
            traveltime="1.76" CO_perVeh="128.392975" CO2_perVeh="5011.371094" HC_perVeh="0.701724" PMx_perVeh="0.095773" NOx_perVeh="2.134626" fuel_perVeh="2.154203" electricity_perVeh="0"/>
        <edge id=":1110673556_6" sampledSeconds="312.24" CO_abs="38182.388448" CO2_abs="1931447.520147" HC_abs="219.840004" PMx_abs="39.172992" NOx_abs="832.833526" fuel_abs="830.245115" electricity_abs="0"
            CO_normed="1365.488490" CO2_normed="69072.927716" HC_normed="7.861975" PMx_normed="1.400915" NOx_normed="29.784009" fuel_normed="29.691441" electricity_normed="0"
            traveltime="2.47" CO_perVeh="302.373802" CO2_perVeh="15295.510650" HC_perVeh="1.740956" PMx_perVeh="0.310219" NOx_perVeh="6.595372" fuel_perVeh="6.574873" electricity_perVeh="0"/>
        <edge id=":1110673561_0" sampledSeconds="100.68" CO_abs="9575.646127" CO2_abs="676879.525233" HC_abs="59.921750" PMx_abs="13.829808" NOx_abs="287.299586" fuel_abs="290.958140" electricity_abs="0"
            CO_normed="430.258849" CO2_normed="30413.969087" HC_normed="2.692441" PMx_normed="0.621409" NOx_normed="12.909123" fuel_normed="13.073511" electricity_normed="0"
            traveltime="1.19" CO_perVeh="113.001918" CO2_perVeh="7987.835377" HC_perVeh="0.707135" PMx_perVeh="0.163205" NOx_perVeh="3.390414" fuel_perVeh="3.433588" electricity_perVeh="0"/>
        <edge id=":1110673561_1" sampledSeconds="1318.29" CO_abs="120054.109129" CO2_abs="8304147.241047" HC_abs="747.534628" PMx_abs="173.594813" NOx_abs="3551.102743" fuel_abs="3569.551901" electricity_abs="0"
            CO_normed="5259.172424" CO2_normed="363777.154276" HC_normed="32.747013" PMx_normed="7.604613" NOx_normed="155.562036" fuel_normed="156.370232" electricity_normed="0"
            traveltime="1.20" CO_perVeh="109.020156" CO2_perVeh="7540.928258" HC_perVeh="0.678830" PMx_perVeh="0.157640" NOx_perVeh="3.224727" fuel_perVeh="3.241481" electricity_perVeh="0"/>
        <edge id=":1110673562_0" sampledSeconds="104.29" CO_abs="2175.068478" CO2_abs="172141.854309" HC_abs="13.830360" PMx_abs="2.326212" NOx_abs="65.658283" fuel_abs="73.997119" electricity_abs="0"
            CO_normed="6055.734610" CO2_normed="479270.144941" HC_normed="38.505908" PMx_normed="6.476543" NOx_normed="182.803043" fuel_normed="206.019681" electricity_normed="0"
            traveltime="0.03" CO_perVeh="0.554435" CO2_perVeh="43.879742" HC_perVeh="0.003525" PMx_perVeh="0.000593" NOx_perVeh="0.016737" fuel_perVeh="0.018862" electricity_perVeh="0"/>
        <edge id=":1110673564_0" sampledSeconds="28.65" CO_abs="626.676434" CO2_abs="67169.289823" HC_abs="4.401651" PMx_abs="0.969504" NOx_abs="25.570155" fuel_abs="28.873238" electricity_abs="0"
            CO_normed="4710.868996" CO2_normed="504926.797586" HC_normed="33.088212" PMx_normed="7.287982" NOx_normed="192.216658" fuel_normed="217.046683" electricity_normed="0"
            traveltime="7.875192e-03" CO_perVeh="0.172282" CO2_perVeh="18.465784" HC_perVeh="0.001210" PMx_perVeh="0.000267" NOx_perVeh="0.007030" fuel_perVeh="0.007938" electricity_perVeh="0"/>
        <edge id=":1110673588_0" sampledSeconds="11.73" CO_abs="190.986476" CO2_abs="22862.537001" HC_abs="1.398820" PMx_abs="0.318294" NOx_abs="8.587327" fuel_abs="9.827642" electricity_abs="0"
            CO_normed="574.275477" CO2_normed="68745.151977" HC_normed="4.206099" PMx_normed="0.957076" NOx_normed="25.821155" fuel_normed="29.550645" electricity_normed="0"
            traveltime="0.02" CO_perVeh="0.318311" CO2_perVeh="38.104228" HC_perVeh="0.002331" PMx_perVeh="0.000530" NOx_perVeh="0.014312" fuel_perVeh="0.016379" electricity_perVeh="0"/>
        <edge id=":1110673601_0" sampledSeconds="30.05" CO_abs="383.772846" CO2_abs="46658.605530" HC_abs="2.816308" PMx_abs="0.633318" NOx_abs="17.421211" fuel_abs="20.056587" electricity_abs="0"
            CO_normed="1030.324139" CO2_normed="125265.474383" HC_normed="7.561010" PMx_normed="1.700285" NOx_normed="46.771143" fuel_normed="53.846400" electricity_normed="0"
            traveltime="0.02" CO_perVeh="0.284841" CO2_perVeh="34.630642" HC_perVeh="0.002090" PMx_perVeh="0.000470" NOx_perVeh="0.012930" fuel_perVeh="0.014886" electricity_perVeh="0"/>
        <edge id=":1110673617_0" sampledSeconds="238.63" CO_abs="5963.051015" CO2_abs="728204.874920" HC_abs="44.649595" PMx_abs="13.110234" NOx_abs="275.369298" fuel_abs="313.021730" electricity_abs="0"
            CO_normed="14941.869321" CO2_normed="1824693.777205" HC_normed="111.880380" PMx_normed="32.850869" NOx_normed="690.004504" fuel_normed="784.351799" electricity_normed="0"
            traveltime="0.01" CO_perVeh="0.365301" CO2_perVeh="44.610417" HC_perVeh="0.002735" PMx_perVeh="0.000803" NOx_perVeh="0.016869" fuel_perVeh="0.019176" electricity_perVeh="0"/>
        <edge id=":1110673621_0" sampledSeconds="25.78" CO_abs="516.199141" CO2_abs="55019.930440" HC_abs="3.610016" PMx_abs="0.830178" NOx_abs="21.139521" fuel_abs="23.650690" electricity_abs="0"
            CO_normed="1552.154443" CO2_normed="165438.922183" HC_normed="10.854924" PMx_normed="2.496255" NOx_normed="63.564230" fuel_normed="71.115043" electricity_normed="0"
            traveltime="0.02" CO_perVeh="0.391060" CO2_perVeh="41.681765" HC_perVeh="0.002735" PMx_perVeh="0.000629" NOx_perVeh="0.016015" fuel_perVeh="0.017917" electricity_perVeh="0"/>
        <edge id=":1110673630_0" sampledSeconds="54.21" CO_abs="239.352337" CO2_abs="19596.133363" HC_abs="1.539417" PMx_abs="0.276118" NOx_abs="7.537733" fuel_abs="8.423596" electricity_abs="0"
            CO_normed="12.833565" CO2_normed="1050.703155" HC_normed="0.082540" PMx_normed="0.014805" NOx_normed="0.404157" fuel_normed="0.451655" electricity_normed="0"
            traveltime="1.27" CO_perVeh="5.586907" CO2_perVeh="457.408414" HC_perVeh="0.035933" PMx_perVeh="0.006445" NOx_perVeh="0.175944" fuel_perVeh="0.196622" electricity_perVeh="0"/>
        <edge id=":1110673630_1" sampledSeconds="7.52" CO_abs="20.124967" CO2_abs="1961.936272" HC_abs="0.137469" PMx_abs="0.030662" NOx_abs="0.765941" fuel_abs="0.843351" electricity_abs="0"
            CO_normed="1.315513" CO2_normed="128.246263" HC_normed="0.008986" PMx_normed="0.002004" NOx_normed="0.050067" fuel_normed="0.055127" electricity_normed="0"
            traveltime="1.06" CO_perVeh="2.848457" CO2_perVeh="277.689442" HC_perVeh="0.019457" PMx_perVeh="0.004340" NOx_perVeh="0.108410" fuel_perVeh="0.119367" electricity_perVeh="0"/>
        <edge id=":1110673650_0" sampledSeconds="143.17" CO_abs="2055.671862" CO2_abs="267802.812892" HC_abs="15.463497" PMx_abs="3.556568" NOx_abs="99.210802" fuel_abs="115.117271" electricity_abs="0"
            CO_normed="5150.983994" CO2_normed="671044.843329" HC_normed="38.747538" PMx_normed="8.911844" NOx_normed="248.596705" fuel_normed="288.454218" electricity_normed="0"
            traveltime="0.02" CO_perVeh="0.330962" CO2_perVeh="43.116074" HC_perVeh="0.002490" PMx_perVeh="0.000573" NOx_perVeh="0.015973" fuel_perVeh="0.018534" electricity_perVeh="0"/>
        <edge id=":1110673655_0" sampledSeconds="44.88" CO_abs="940.737585" CO2_abs="97395.633041" HC_abs="6.543529" PMx_abs="1.452813" NOx_abs="37.438764" fuel_abs="41.866216" electricity_abs="0"
            CO_normed="2357.245986" CO2_normed="244048.360094" HC_normed="16.396397" PMx_normed="3.640375" NOx_normed="93.811895" fuel_normed="104.905949" electricity_normed="0"
            traveltime="0.02" CO_perVeh="0.503472" CO2_perVeh="52.125038" HC_perVeh="0.003502" PMx_perVeh="0.000778" NOx_perVeh="0.020037" fuel_perVeh="0.022406" electricity_perVeh="0"/>
        <edge id=":1110673663_0" sampledSeconds="108.66" CO_abs="2053.790719" CO2_abs="235244.128869" HC_abs="14.757629" PMx_abs="3.355481" NOx_abs="88.956056" fuel_abs="101.121478" electricity_abs="0"
            CO_normed="94.254035" CO2_normed="10795.992137" HC_normed="0.677268" PMx_normed="0.153992" NOx_normed="4.082435" fuel_normed="4.640739" electricity_normed="0"
            traveltime="1.28" CO_perVeh="24.122741" CO2_perVeh="2763.053271" HC_perVeh="0.173335" PMx_perVeh="0.039412" NOx_perVeh="1.044831" fuel_perVeh="1.187719" electricity_perVeh="0"/>
        <edge id=":1110673663_1" sampledSeconds="153.85" CO_abs="3082.204296" CO2_abs="340394.465474" HC_abs="21.912844" PMx_abs="5.070265" NOx_abs="130.120985" fuel_abs="146.320918" electricity_abs="0"
            CO_normed="141.623651" CO2_normed="15640.724078" HC_normed="1.006869" PMx_normed="0.232973" NOx_normed="5.978906" fuel_normed="6.723274" electricity_normed="0"
            traveltime="1.24" CO_perVeh="24.935865" CO2_perVeh="2753.883109" HC_perVeh="0.177281" PMx_perVeh="0.041020" NOx_perVeh="1.052714" fuel_perVeh="1.183776" electricity_perVeh="0"/>
        <edge id=":1110673666_0" sampledSeconds="192.63" CO_abs="3989.162219" CO2_abs="320926.598548" HC_abs="25.460224" PMx_abs="4.192884" NOx_abs="121.366732" fuel_abs="137.954096" electricity_abs="0"