<?xml version="1.0" encoding="UTF-8"?>

<!-- generated on Tue Nov 10 07:05:52 2020 by Eclipse SUMO sumo Version 1.7.0
<configuration xmlns:xsi="http://www.w3.org/2001/XMLSchema-instance" xsi:noNamespaceSchemaLocation="http://sumo.dlr.de/xsd/sumoConfiguration.xsd">

    <input>
        <net-file value="../dataSets/Porto/8AM9AM_Routing_SaoBento/Porto.net.xml"/>
        <route-files value="../results/Porto/8AM9AM_Routing_SaoBento/cost_co-length/solution20/Porto.rou.xml"/>
        <additional-files value="moreOutputInfo.xml"/>
    </input>

    <output>
        <emission-output.precision value="6"/>
        <tripinfo-output value="../results/Porto/8AM9AM_Routing_SaoBento/cost_co-length/solution20/Porto-tripinfo"/>
    </output>

    <processing>
        <collision.action value="warn"/>
        <time-to-teleport value="-1"/>
    </processing>

    <emissions>
        <device.emissions.probability value="1"/>
    </emissions>

    <gui_only>
        <quit-on-end value="true"/>
        <start value="true"/>
    </gui_only>

</configuration>
-->

<meandata xmlns:xsi="http://www.w3.org/2001/XMLSchema-instance" xsi:noNamespaceSchemaLocation="http://sumo.dlr.de/xsd/meandata_file.xsd">
    <interval begin="0.00" end="8561.00" id="emissions-detector">
        <edge id=":1092997347_0" sampledSeconds="601.58" CO_abs="72511.279015" CO2_abs="3075762.424964" HC_abs="402.925854" PMx_abs="62.248638" NOx_abs="1331.117123" fuel_abs="1322.145848" electricity_abs="0"
            CO_normed="69299.626332" CO2_normed="2939531.471969" HC_normed="385.079555" PMx_normed="59.491536" NOx_normed="1272.159593" fuel_normed="1263.585672" electricity_normed="0"
            traveltime="0.07" CO_perVeh="8.302418" CO2_perVeh="352.169569" HC_perVeh="0.046134" PMx_perVeh="0.007127" NOx_perVeh="0.152411" fuel_perVeh="0.151383" electricity_perVeh="0"/>
        <edge id=":1103427051_0" sampledSeconds="19.22" CO_abs="1496.888921" CO2_abs="85675.170636" HC_abs="8.848970" PMx_abs="1.669201" NOx_abs="36.458110" fuel_abs="36.827963" electricity_abs="0"
            CO_normed="2170.548927" CO2_normed="124232.431068" HC_normed="12.831361" PMx_normed="2.420409" NOx_normed="52.865721" fuel_normed="53.402022" electricity_normed="0"
            traveltime="0.03" CO_perVeh="2.327852" CO2_perVeh="133.235733" HC_perVeh="0.013761" PMx_perVeh="0.002596" NOx_perVeh="0.056697" fuel_perVeh="0.057272" electricity_perVeh="0"/>
        <edge id=":1105984386_0" sampledSeconds="10.66" CO_abs="153.895558" CO2_abs="12265.111187" HC_abs="0.971256" PMx_abs="0.117553" NOx_abs="4.365672" fuel_abs="5.272369" electricity_abs="0"
            CO_normed="6.664765" CO2_normed="531.165994" HC_normed="0.042062" PMx_normed="0.005091" NOx_normed="0.189064" fuel_normed="0.228331" electricity_normed="0"
            traveltime="1.02" CO_perVeh="14.763148" CO2_perVeh="1176.587924" HC_perVeh="0.093172" PMx_perVeh="0.011277" NOx_perVeh="0.418797" fuel_perVeh="0.505777" electricity_perVeh="0"/>
        <edge id=":1105984390_0" sampledSeconds="10.87" CO_abs="22.635906" CO2_abs="1659.204685" HC_abs="0.140335" PMx_abs="0.019892" NOx_abs="0.619237" fuel_abs="0.713233" electricity_abs="0"
            CO_normed="0.757855" CO2_normed="55.550546" HC_normed="0.004698" PMx_normed="0.000666" NOx_normed="0.020732" fuel_normed="0.023879" electricity_normed="0"
            traveltime="1.13" CO_perVeh="2.346348" CO2_perVeh="171.986555" HC_perVeh="0.014547" PMx_perVeh="0.002062" NOx_perVeh="0.064188" fuel_perVeh="0.073931" electricity_perVeh="0"/>
        <edge id=":1105984390_1" sampledSeconds="2397.89" CO_abs="61563.147050" CO2_abs="7345797.417748" HC_abs="455.764970" PMx_abs="132.547300" NOx_abs="2792.771278" fuel_abs="3157.619146" electricity_abs="0"
            CO_normed="1971.669372" CO2_normed="235262.238424" HC_normed="14.596684" PMx_normed="4.245063" NOx_normed="89.443472" fuel_normed="101.128374" electricity_normed="0"
            traveltime="0.65" CO_perVeh="16.623550" CO2_perVeh="1983.544316" HC_perVeh="0.123068" PMx_perVeh="0.035791" NOx_perVeh="0.754116" fuel_perVeh="0.852634" electricity_perVeh="0"/>
        <edge id=":1105984395_0" sampledSeconds="4.19" CO_abs="74.663518" CO2_abs="5551.996544" HC_abs="0.466079" PMx_abs="0.073468" NOx_abs="2.113665" fuel_abs="2.386594" electricity_abs="0"
            CO_normed="34.127040" CO2_normed="2537.694646" HC_normed="0.213034" PMx_normed="0.033581" NOx_normed="0.966110" fuel_normed="1.090859" electricity_normed="0"
            traveltime="0.10" CO_perVeh="1.730674" CO2_perVeh="128.693294" HC_perVeh="0.010804" PMx_perVeh="0.001703" NOx_perVeh="0.048994" fuel_perVeh="0.055320" electricity_perVeh="0"/>
        <edge id=":1105984398_0" sampledSeconds="10.56" CO_abs="768.730396" CO2_abs="51906.071901" HC_abs="4.720086" PMx_abs="0.914428" NOx_abs="21.295885" fuel_abs="22.312169" electricity_abs="0"
            CO_normed="26.737805" CO2_normed="1805.385154" HC_normed="0.164173" PMx_normed="0.031805" NOx_normed="0.740709" fuel_normed="0.776057" electricity_normed="0"
            traveltime="1.14" CO_perVeh="82.839375" CO2_perVeh="5593.464985" HC_perVeh="0.508643" PMx_perVeh="0.098540" NOx_perVeh="2.294872" fuel_perVeh="2.404388" electricity_perVeh="0"/>
        <edge id=":1105984398_1" sampledSeconds="648.08" CO_abs="12041.561639" CO2_abs="1413544.986005" HC_abs="87.104658" PMx_abs="20.203647" NOx_abs="534.063605" fuel_abs="607.622773" electricity_abs="0"
            CO_normed="405.413661" CO2_normed="47591.040473" HC_normed="2.932628" PMx_normed="0.680214" NOx_normed="17.980781" fuel_normed="20.457361" electricity_normed="0"
            traveltime="0.95" CO_perVeh="17.721932" CO2_perVeh="2080.357099" HC_perVeh="0.128195" PMx_perVeh="0.029734" NOx_perVeh="0.785998" fuel_perVeh="0.894257" electricity_perVeh="0"/>
        <edge id=":1106006327_0" sampledSeconds="257.80" CO_abs="34897.711920" CO2_abs="1141607.185929" HC_abs="185.787857" PMx_abs="23.836020" NOx_abs="499.863742" fuel_abs="490.736352" electricity_abs="0"
            CO_normed="1656.308517" CO2_normed="54182.741533" HC_normed="8.817828" PMx_normed="1.131301" NOx_normed="23.724437" fuel_normed="23.291235" electricity_normed="0"
            traveltime="2.07" CO_perVeh="280.470721" CO2_perVeh="9175.025324" HC_perVeh="1.493165" PMx_perVeh="0.191569" NOx_perVeh="4.017374" fuel_perVeh="3.944017" electricity_perVeh="0"/>
        <edge id=":1106006327_1" sampledSeconds="685.89" CO_abs="92649.202942" CO2_abs="3085022.079126" HC_abs="494.556875" PMx_abs="64.319728" NOx_abs="1349.945221" fuel_abs="1326.140089" electricity_abs="0"
            CO_normed="3834.652229" CO2_normed="127685.791325" HC_normed="20.469184" PMx_normed="2.662125" NOx_normed="55.872801" fuel_normed="54.887532" electricity_normed="0"
            traveltime="2.30" CO_perVeh="311.000949" CO2_perVeh="10355.672400" HC_perVeh="1.660108" PMx_perVeh="0.215906" NOx_perVeh="4.531439" fuel_perVeh="4.451531" electricity_perVeh="0"/>
        <edge id=":1106006327_2" sampledSeconds="0.00" CO_abs="0" CO2_abs="0" HC_abs="0" PMx_abs="0" NOx_abs="0" fuel_abs="0" electricity_abs="0"
            CO_normed="0" CO2_normed="0" HC_normed="0" PMx_normed="0" NOx_normed="0" fuel_normed="0" electricity_normed="0"/>
        <edge id=":1106006327_3" sampledSeconds="0.00" CO_abs="0" CO2_abs="0" HC_abs="0" PMx_abs="0" NOx_abs="0" fuel_abs="0" electricity_abs="0"
            CO_normed="0" CO2_normed="0" HC_normed="0" PMx_normed="0" NOx_normed="0" fuel_normed="0" electricity_normed="0"/>
        <edge id=":1107381198_0" sampledSeconds="0.00" CO_abs="0" CO2_abs="0" HC_abs="0" PMx_abs="0" NOx_abs="0" fuel_abs="0" electricity_abs="0"
            CO_normed="0" CO2_normed="0" HC_normed="0" PMx_normed="0" NOx_normed="0" fuel_normed="0" electricity_normed="0"/>
        <edge id=":1107381198_1" sampledSeconds="104.19" CO_abs="4507.736036" CO2_abs="181231.379759" HC_abs="24.729073" PMx_abs="3.284507" NOx_abs="76.094964" fuel_abs="77.904812" electricity_abs="0"
            CO_normed="206.712693" CO2_normed="8310.785338" HC_normed="1.134009" PMx_normed="0.150619" NOx_normed="3.489511" fuel_normed="3.572506" electricity_normed="0"
            traveltime="1.56" CO_perVeh="67.489452" CO2_perVeh="2713.381257" HC_perVeh="0.370242" PMx_perVeh="0.049175" NOx_perVeh="1.139288" fuel_perVeh="1.166384" electricity_perVeh="0"/>
        <edge id=":1110338277_0" sampledSeconds="159.87" CO_abs="2592.279774" CO2_abs="305423.310670" HC_abs="18.785875" PMx_abs="4.277357" NOx_abs="114.945035" fuel_abs="131.288589" electricity_abs="0"
            CO_normed="3893.156335" CO2_normed="458693.042540" HC_normed="28.213138" PMx_normed="6.423851" NOx_normed="172.627583" fuel_normed="197.172778" electricity_normed="0"
            traveltime="0.02" CO_perVeh="0.351687" CO2_perVeh="41.435929" HC_perVeh="0.002549" PMx_perVeh="0.000580" NOx_perVeh="0.015594" fuel_perVeh="0.017812" electricity_perVeh="0"/>
        <edge id=":1110338293_0" sampledSeconds="6680.04" CO_abs="639328.217607" CO2_abs="11183899.975855" HC_abs="3172.806392" PMx_abs="267.252686" NOx_abs="5057.305046" fuel_abs="4807.770059" electricity_abs="0"
            CO_normed="896149.820265" CO2_normed="15676533.081446" HC_normed="4447.339879" PMx_normed="374.609535" NOx_normed="7088.851834" fuel_normed="6739.077293" electricity_normed="0"
            traveltime="0.45" CO_perVeh="42.722053" CO2_perVeh="747.345663" HC_perVeh="0.212018" PMx_perVeh="0.017859" NOx_perVeh="0.337946" fuel_perVeh="0.321271" electricity_perVeh="0"/>
        <edge id=":1110338295_0" sampledSeconds="0.00" CO_abs="0" CO2_abs="0" HC_abs="0" PMx_abs="0" NOx_abs="0" fuel_abs="0" electricity_abs="0"
            CO_normed="0" CO2_normed="0" HC_normed="0" PMx_normed="0" NOx_normed="0" fuel_normed="0" electricity_normed="0"/>
        <edge id=":1110673403_0" sampledSeconds="200.54" CO_abs="3173.834595" CO2_abs="390231.578635" HC_abs="23.390075" PMx_abs="5.320136" NOx_abs="145.738628" fuel_abs="167.744214" electricity_abs="0"
            CO_normed="4448.781117" CO2_normed="546989.714242" HC_normed="32.785995" PMx_normed="7.457264" NOx_normed="204.282622" fuel_normed="235.127972" electricity_normed="0"
            traveltime="0.02" CO_perVeh="0.366818" CO2_perVeh="45.101311" HC_perVeh="0.002703" PMx_perVeh="0.000615" NOx_perVeh="0.016844" fuel_perVeh="0.019387" electricity_perVeh="0"/>
        <edge id=":1110673412_0" sampledSeconds="943.26" CO_abs="166821.151375" CO2_abs="11390671.672572" HC_abs="1038.363152" PMx_abs="250.211564" NOx_abs="4894.166997" fuel_abs="4896.288817" electricity_abs="0"
            CO_normed="241897.355268" CO2_normed="16516930.434834" HC_normed="1505.668186" PMx_normed="362.816795" NOx_normed="7096.738291" fuel_normed="7099.815015" electricity_normed="0"
            traveltime="0.02" CO_perVeh="2.750923" CO2_perVeh="187.835030" HC_perVeh="0.017123" PMx_perVeh="0.004126" NOx_perVeh="0.080706" fuel_perVeh="0.080741" electricity_perVeh="0"/>
        <edge id=":1110673414_0" sampledSeconds="0.00" CO_abs="0" CO2_abs="0" HC_abs="0" PMx_abs="0" NOx_abs="0" fuel_abs="0" electricity_abs="0"
            CO_normed="0" CO2_normed="0" HC_normed="0" PMx_normed="0" NOx_normed="0" fuel_normed="0" electricity_normed="0"/>
        <edge id=":1110673414_1" sampledSeconds="7.00" CO_abs="370.819738" CO2_abs="15233.217366" HC_abs="2.041263" PMx_abs="0.271642" NOx_abs="6.363704" fuel_abs="6.548209" electricity_abs="0"
            CO_normed="17.268440" CO2_normed="709.384823" HC_normed="0.095058" PMx_normed="0.012650" NOx_normed="0.296347" fuel_normed="0.304939" electricity_normed="0"
            traveltime="1.53" CO_perVeh="80.999086" CO2_perVeh="3327.429918" HC_perVeh="0.445878" PMx_perVeh="0.059336" NOx_perVeh="1.390040" fuel_perVeh="1.430342" electricity_perVeh="0"/>
        <edge id=":1110673417_0" sampledSeconds="29.14" CO_abs="438.359695" CO2_abs="54325.296553" HC_abs="3.233144" PMx_abs="0.707794" NOx_abs="20.099833" fuel_abs="23.352215" electricity_abs="0"
            CO_normed="658.340524" CO2_normed="81587.209267" HC_normed="4.855624" PMx_normed="1.062985" NOx_normed="30.186476" fuel_normed="35.070992" electricity_normed="0"
            traveltime="0.02" CO_perVeh="0.334270" CO2_perVeh="41.425646" HC_perVeh="0.002465" PMx_perVeh="0.000540" NOx_perVeh="0.015327" fuel_perVeh="0.017807" electricity_perVeh="0"/>
        <edge id=":1110673446_0" sampledSeconds="1313.84" CO_abs="13450.965210" CO2_abs="1081168.190486" HC_abs="86.891492" PMx_abs="19.961640" NOx_abs="443.153727" fuel_abs="464.744368" electricity_abs="0"
            CO_normed="18854.290681" CO2_normed="1515479.299828" HC_normed="121.796275" PMx_normed="27.980338" NOx_normed="621.170976" fuel_normed="651.434694" electricity_normed="0"
            traveltime="0.02" CO_perVeh="0.233327" CO2_perVeh="18.754452" HC_perVeh="0.001507" PMx_perVeh="0.000346" NOx_perVeh="0.007687" fuel_perVeh="0.008062" electricity_perVeh="0"/>
        <edge id=":1110673451_0" sampledSeconds="36.61" CO_abs="405.435808" CO2_abs="27003.844824" HC_abs="2.472108" PMx_abs="0.433281" NOx_abs="10.818944" fuel_abs="11.607850" electricity_abs="0"
            CO_normed="631.446183" CO2_normed="42057.150370" HC_normed="3.850186" PMx_normed="0.674814" NOx_normed="16.849970" fuel_normed="18.078651" electricity_normed="0"
            traveltime="0.03" CO_perVeh="0.298717" CO2_perVeh="19.895863" HC_perVeh="0.001821" PMx_perVeh="0.000319" NOx_perVeh="0.007971" fuel_perVeh="0.008552" electricity_perVeh="0"/>
        <edge id=":1110673464_0" sampledSeconds="1035.10" CO_abs="3941.501163" CO2_abs="275851.831301" HC_abs="24.298675" PMx_abs="4.141627" NOx_abs="108.317030" fuel_abs="118.577736" electricity_abs="0"
            CO_normed="117.382935" CO2_normed="8215.219628" HC_normed="0.723646" PMx_normed="0.123343" NOx_normed="3.225819" fuel_normed="3.531396" electricity_normed="0"
            traveltime="1.23" CO_perVeh="4.674069" CO2_perVeh="327.121712" HC_perVeh="0.028815" PMx_perVeh="0.004911" NOx_perVeh="0.128449" fuel_perVeh="0.140617" electricity_perVeh="0"/>
        <edge id=":1110673464_1" sampledSeconds="2603.68" CO_abs="63847.828055" CO2_abs="7783144.168113" HC_abs="476.022723" PMx_abs="138.910475" NOx_abs="2952.070436" fuel_abs="3345.615117" electricity_abs="0"
            CO_normed="1863.202898" CO2_normed="227127.174329" HC_normed="13.891262" PMx_normed="4.053676" NOx_normed="86.147115" fuel_normed="97.631509" electricity_normed="0"
            traveltime="0.72" CO_perVeh="17.601788" CO2_perVeh="2145.683883" HC_perVeh="0.131232" PMx_perVeh="0.038295" NOx_perVeh="0.813837" fuel_perVeh="0.922331" electricity_perVeh="0"/>
        <edge id=":1110673479_0" sampledSeconds="135.22" CO_abs="6179.837191" CO2_abs="430585.627445" HC_abs="38.229080" PMx_abs="7.383846" NOx_abs="175.069316" fuel_abs="185.090258" electricity_abs="0"
            CO_normed="8662.311213" CO2_normed="603554.202703" HC_normed="53.585908" PMx_normed="10.349977" NOx_normed="245.395606" fuel_normed="259.442015" electricity_normed="0"
            traveltime="0.03" CO_perVeh="1.306473" CO2_perVeh="91.029695" HC_perVeh="0.008082" PMx_perVeh="0.001561" NOx_perVeh="0.037011" fuel_perVeh="0.039130" electricity_perVeh="0"/>
        <edge id=":1110673511_0" sampledSeconds="63.31" CO_abs="1309.436984" CO2_abs="137294.156735" HC_abs="9.132909" PMx_abs="1.971100" NOx_abs="52.308273" fuel_abs="59.016984" electricity_abs="0"
            CO_normed="1835.444902" CO2_normed="192445.962015" HC_normed="12.801648" PMx_normed="2.762902" NOx_normed="73.320790" fuel_normed="82.724426" electricity_normed="0"
            traveltime="0.02" CO_perVeh="0.501860" CO2_perVeh="52.619926" HC_perVeh="0.003500" PMx_perVeh="0.000755" NOx_perVeh="0.020048" fuel_perVeh="0.022619" electricity_perVeh="0"/>
        <edge id=":1110673517_0" sampledSeconds="183.01" CO_abs="8206.126718" CO2_abs="580658.381518" HC_abs="51.003798" PMx_abs="10.085481" NOx_abs="236.717134" fuel_abs="249.599801" electricity_abs="0"
            CO_normed="11502.572202" CO2_normed="813911.993718" HC_normed="71.492299" PMx_normed="14.136873" NOx_normed="331.807687" fuel_normed="349.865391" electricity_normed="0"
            traveltime="0.03" CO_perVeh="1.256424" CO2_perVeh="88.903498" HC_perVeh="0.007809" PMx_perVeh="0.001544" NOx_perVeh="0.036243" fuel_perVeh="0.038216" electricity_perVeh="0"/>
        <edge id=":1110673534_0" sampledSeconds="658.79" CO_abs="4200.410360" CO2_abs="346035.286179" HC_abs="27.017898" PMx_abs="4.684154" NOx_abs="131.672490" fuel_abs="148.747049" electricity_abs="0"
            CO_normed="114.103448" CO2_normed="9399.990932" HC_normed="0.733937" PMx_normed="0.127244" NOx_normed="3.576861" fuel_normed="4.040689" electricity_normed="0"
            traveltime="1.45" CO_perVeh="9.236089" CO2_perVeh="760.881043" HC_perVeh="0.059408" PMx_perVeh="0.010300" NOx_perVeh="0.289529" fuel_perVeh="0.327073" electricity_perVeh="0"/>
        <edge id=":1110673534_1" sampledSeconds="264.94" CO_abs="4499.616468" CO2_abs="555384.036492" HC_abs="33.175216" PMx_abs="7.577365" NOx_abs="207.322437" fuel_abs="238.736323" electricity_abs="0"
            CO_normed="118.853079" CO2_normed="14669.939842" HC_normed="0.876292" PMx_normed="0.200149" NOx_normed="5.476225" fuel_normed="6.305992" electricity_normed="0"
            traveltime="1.23" CO_perVeh="20.877092" CO2_perVeh="2576.842599" HC_perVeh="0.153925" PMx_perVeh="0.035157" NOx_perVeh="0.961924" fuel_perVeh="1.107677" electricity_perVeh="0"/>
        <edge id=":1110673549_0" sampledSeconds="653.73" CO_abs="1631.965732" CO2_abs="148370.980017" HC_abs="10.783159" PMx_abs="2.121259" NOx_abs="56.596353" fuel_abs="63.778619" electricity_abs="0"
            CO_normed="42.944966" CO2_normed="3904.363050" HC_normed="0.283757" PMx_normed="0.055821" NOx_normed="1.489326" fuel_normed="1.678326" electricity_normed="0"
            traveltime="1.30" CO_perVeh="3.242327" CO2_perVeh="294.777759" HC_perVeh="0.021424" PMx_perVeh="0.004214" NOx_perVeh="0.112443" fuel_perVeh="0.126713" electricity_perVeh="0"/>
        <edge id=":1110673549_1" sampledSeconds="3201.35" CO_abs="68172.140315" CO2_abs="9073257.591974" HC_abs="526.776433" PMx_abs="158.845824" NOx_abs="3385.897505" fuel_abs="3900.178554" electricity_abs="0"
            CO_normed="1735.301291" CO2_normed="230957.038204" HC_normed="13.408935" PMx_normed="4.043373" NOx_normed="86.187001" fuel_normed="99.277870" electricity_normed="0"
            traveltime="0.81" CO_perVeh="17.193766" CO2_perVeh="2288.375635" HC_perVeh="0.132859" PMx_perVeh="0.040063" NOx_perVeh="0.853961" fuel_perVeh="0.983668" electricity_perVeh="0"/>
        <edge id=":1110673556_0" sampledSeconds="471.02" CO_abs="58190.254658" CO2_abs="2780851.747919" HC_abs="331.004786" PMx_abs="56.217789" NOx_abs="1199.686908" fuel_abs="1195.369821" electricity_abs="0"
            CO_normed="1135.483916" CO2_normed="54263.595377" HC_normed="6.458996" PMx_normed="1.096995" NOx_normed="23.409851" fuel_normed="23.325610" electricity_normed="0"
            traveltime="2.78" CO_perVeh="343.025956" CO2_perVeh="16392.853672" HC_perVeh="1.951241" PMx_perVeh="0.331398" NOx_perVeh="7.072039" fuel_perVeh="7.046590" electricity_perVeh="0"/>
        <edge id=":1110673556_2" sampledSeconds="173.89" CO_abs="17840.728046" CO2_abs="770116.306624" HC_abs="99.361962" PMx_abs="15.055141" NOx_abs="329.676462" fuel_abs="331.042409" electricity_abs="0"
            CO_normed="364.009388" CO2_normed="15712.899446" HC_normed="2.027310" PMx_normed="0.307174" NOx_normed="6.726482" fuel_normed="6.754351" electricity_normed="0"
            traveltime="3.01" CO_perVeh="308.491682" CO2_perVeh="13316.411403" HC_perVeh="1.718110" PMx_perVeh="0.260325" NOx_perVeh="5.700577" fuel_perVeh="5.724196" electricity_perVeh="0"/>
        <edge id=":1110673556_3" sampledSeconds="351.95" CO_abs="35130.403780" CO2_abs="1221378.922012" HC_abs="188.520179" PMx_abs="24.104636" NOx_abs="526.002063" fuel_abs="525.027608" electricity_abs="0"
            CO_normed="1630.545595" CO2_normed="56689.186772" HC_normed="8.749992" PMx_normed="1.118795" NOx_normed="24.413905" fuel_normed="24.368677" electricity_normed="0"
            traveltime="1.82" CO_perVeh="181.473803" CO2_perVeh="6309.300594" HC_perVeh="0.973842" PMx_perVeh="0.124518" NOx_perVeh="2.717179" fuel_perVeh="2.712145" electricity_perVeh="0"/>
        <edge id=":1110673556_4" sampledSeconds="74.42" CO_abs="8351.571688" CO2_abs="319308.837286" HC_abs="45.522415" PMx_abs="6.305007" NOx_abs="137.369888" fuel_abs="137.258877" electricity_abs="0"
            CO_normed="236.812742" CO2_normed="9054.152208" HC_normed="1.290809" PMx_normed="0.178781" NOx_normed="3.895188" fuel_normed="3.892040" electricity_normed="0"
            traveltime="2.56" CO_perVeh="287.523930" CO2_perVeh="10993.012482" HC_perVeh="1.567224" PMx_perVeh="0.217066" NOx_perVeh="4.729305" fuel_perVeh="4.725483" electricity_perVeh="0"/>
        <edge id=":1110673556_5" sampledSeconds="21.64" CO_abs="1332.730200" CO2_abs="62387.945390" HC_abs="7.523261" PMx_abs="1.131494" NOx_abs="26.139644" fuel_abs="26.818138" electricity_abs="0"
            CO_normed="52.671855" CO2_normed="2465.681968" HC_normed="0.297333" PMx_normed="0.044719" NOx_normed="1.033085" fuel_normed="1.059900" electricity_normed="0"
            traveltime="1.50" CO_perVeh="92.139372" CO2_perVeh="4313.240669" HC_perVeh="0.520127" PMx_perVeh="0.078227" NOx_perVeh="1.807185" fuel_perVeh="1.854093" electricity_perVeh="0"/>
        <edge id=":1110673556_6" sampledSeconds="554.46" CO_abs="65054.159846" CO2_abs="3116501.102023" HC_abs="370.174573" PMx_abs="62.686683" NOx_abs="1342.319949" fuel_abs="1339.651554" electricity_abs="0"
            CO_normed="1301.428654" CO2_normed="62346.571592" HC_normed="7.405457" PMx_normed="1.254067" NOx_normed="26.853527" fuel_normed="26.800145" electricity_normed="0"
            traveltime="2.69" CO_perVeh="315.852820" CO2_perVeh="15131.325411" HC_perVeh="1.797282" PMx_perVeh="0.304358" NOx_perVeh="6.517270" fuel_perVeh="6.504315" electricity_perVeh="0"/>
        <edge id=":1110673561_0" sampledSeconds="106.47" CO_abs="9799.875188" CO2_abs="692015.756587" HC_abs="61.279144" PMx_abs="13.969875" NOx_abs="292.912405" fuel_abs="297.464722" electricity_abs="0"
            CO_normed="246.321663" CO2_normed="17393.943131" HC_normed="1.540263" PMx_normed="0.351135" NOx_normed="7.362407" fuel_normed="7.476830" electricity_normed="0"
            traveltime="1.26" CO_perVeh="115.648039" CO2_perVeh="8166.457598" HC_perVeh="0.723153" PMx_perVeh="0.164858" NOx_perVeh="3.456651" fuel_perVeh="3.510372" electricity_perVeh="0"/>
        <edge id=":1110673561_1" sampledSeconds="5192.48" CO_abs="481985.733121" CO2_abs="33401401.507557" HC_abs="3002.798400" PMx_abs="698.091094" NOx_abs="14279.547599" fuel_abs="14357.649373" electricity_abs="0"
            CO_normed="11811.223930" CO2_normed="818512.677206" HC_normed="73.584594" PMx_normed="17.106959" NOx_normed="349.925159" fuel_normed="351.839070" electricity_normed="0"
            traveltime="1.19" CO_perVeh="110.706526" CO2_perVeh="7671.914094" HC_perVeh="0.689708" PMx_perVeh="0.160343" NOx_perVeh="3.279846" fuel_perVeh="3.297785" electricity_perVeh="0"/>
        <edge id=":1110673562_0" sampledSeconds="301.02" CO_abs="6738.617460" CO2_abs="512443.325407" HC_abs="42.405209" PMx_abs="7.165343" NOx_abs="197.351094" fuel_abs="220.279370" electricity_abs="0"
            CO_normed="10495.062820" CO2_normed="798105.089603" HC_normed="66.044012" PMx_normed="11.159667" NOx_normed="307.364551" fuel_normed="343.074204" electricity_normed="0"
            traveltime="0.03" CO_perVeh="0.604060" CO2_perVeh="45.936238" HC_perVeh="0.003801" PMx_perVeh="0.000642" NOx_perVeh="0.017691" fuel_perVeh="0.019746" electricity_perVeh="0"/>
        <edge id=":1110673564_0" sampledSeconds="27.74" CO_abs="420.669734" CO2_abs="51958.516135" HC_abs="3.106419" PMx_abs="0.700309" NOx_abs="19.347423" fuel_abs="22.334802" electricity_abs="0"
            CO_normed="1768.965122" CO2_normed="218491.599214" HC_normed="13.062853" PMx_normed="2.944880" NOx_normed="81.358163" fuel_normed="93.920438" electricity_normed="0"
            traveltime="7.836019e-03" CO_perVeh="0.118816" CO2_perVeh="14.675474" HC_perVeh="0.000877" PMx_perVeh="0.000198" NOx_perVeh="0.005465" fuel_perVeh="0.006308" electricity_perVeh="0"/>
        <edge id=":1110673588_0" sampledSeconds="63.12" CO_abs="1101.204181" CO2_abs="123631.661264" HC_abs="7.858830" PMx_abs="1.706939" NOx_abs="46.532563" fuel_abs="53.144103" electricity_abs="0"
            CO_normed="1852.276627" CO2_normed="207954.201869" HC_normed="13.218918" PMx_normed="2.871151" NOx_normed="78.269934" fuel_normed="89.390851" electricity_normed="0"
            traveltime="0.02" CO_perVeh="0.355227" CO2_perVeh="39.881181" HC_perVeh="0.002535" PMx_perVeh="0.000551" NOx_perVeh="0.015011" fuel_perVeh="0.017143" electricity_perVeh="0"/>
        <edge id=":1110673601_0" sampledSeconds="29.19" CO_abs="382.513029" CO2_abs="46683.474486" HC_abs="2.804323" PMx_abs="0.601460" NOx_abs="17.250906" fuel_abs="20.067322" electricity_abs="0"
            CO_normed="574.468481" CO2_normed="70110.512852" HC_normed="4.211608" PMx_normed="0.903289" NOx_normed="25.907880" fuel_normed="30.137651" electricity_normed="0"
            traveltime="0.02" CO_perVeh="0.291685" CO2_perVeh="35.598500" HC_perVeh="0.002138" PMx_perVeh="0.000459" NOx_perVeh="0.013155" fuel_perVeh="0.015302" electricity_perVeh="0"/>
        <edge id=":1110673617_0" sampledSeconds="851.91" CO_abs="30264.100455" CO2_abs="3130036.892608" HC_abs="212.883587" PMx_abs="58.641594" NOx_abs="1222.729701" fuel_abs="1345.456592" electricity_abs="0"
            CO_normed="42421.353284" CO2_normed="4387389.640380" HC_normed="298.400075" PMx_normed="82.198239" NOx_normed="1713.906835" fuel_normed="1885.933782" electricity_normed="0"
            traveltime="0.02" CO_perVeh="0.536886" CO2_perVeh="55.526986" HC_perVeh="0.003777" PMx_perVeh="0.001040" NOx_perVeh="0.021691" fuel_perVeh="0.023868" electricity_perVeh="0"/>
        <edge id=":1110673621_0" sampledSeconds="26.80" CO_abs="604.845180" CO2_abs="59416.678091" HC_abs="4.138356" PMx_abs="0.905777" NOx_abs="23.015040" fuel_abs="25.540680" electricity_abs="0"
            CO_normed="1017.377712" CO2_normed="99941.614824" HC_normed="6.960907" PMx_normed="1.523559" NOx_normed="38.712367" fuel_normed="42.960612" electricity_normed="0"
            traveltime="0.02" CO_perVeh="0.458216" CO2_perVeh="45.012635" HC_perVeh="0.003135" PMx_perVeh="0.000686" NOx_perVeh="0.017436" fuel_perVeh="0.019349" electricity_perVeh="0"/>
        <edge id=":1110673630_0" sampledSeconds="284.81" CO_abs="1259.786166" CO2_abs="118260.424786" HC_abs="8.439223" PMx_abs="1.564696" NOx_abs="44.573892" fuel_abs="50.835462" electricity_abs="0"
            CO_normed="37.785644" CO2_normed="3547.067268" HC_normed="0.253124" PMx_normed="0.046931" NOx_normed="1.336936" fuel_normed="1.524743" electricity_normed="0"
            traveltime="1.28" CO_perVeh="5.668557" CO2_perVeh="532.126745" HC_perVeh="0.037973" PMx_perVeh="0.007041" NOx_perVeh="0.200565" fuel_perVeh="0.228740" electricity_perVeh="0"/>
        <edge id=":1110673630_1" sampledSeconds="338.93" CO_abs="1632.501190" CO2_abs="135387.636024" HC_abs="10.502802" PMx_abs="1.738850" NOx_abs="50.958592" fuel_abs="58.197984" electricity_abs="0"
            CO_normed="59.694411" CO2_normed="4950.615173" HC_normed="0.384048" PMx_normed="0.063583" NOx_normed="1.863364" fuel_normed="2.128081" electricity_normed="0"
            traveltime="1.08" CO_perVeh="5.204092" CO2_perVeh="431.589138" HC_perVeh="0.033481" PMx_perVeh="0.005543" NOx_perVeh="0.162446" fuel_perVeh="0.185524" electricity_perVeh="0"/>
        <edge id=":1110673650_0" sampledSeconds="200.12" CO_abs="3093.417720" CO2_abs="376445.596995" HC_abs="22.651486" PMx_abs="5.208762" NOx_abs="141.005380" fuel_abs="161.818103" electricity_abs="0"
            CO_normed="4336.060347" CO2_normed="527665.829219" HC_normed="31.750710" PMx_normed="7.301150" NOx_normed="197.648004" fuel_normed="226.821310" electricity_normed="0"
            traveltime="0.02" CO_perVeh="0.357524" CO2_perVeh="43.507986" HC_perVeh="0.002618" PMx_perVeh="0.000602" NOx_perVeh="0.016297" fuel_perVeh="0.018702" electricity_perVeh="0"/>
        <edge id=":1110673655_0" sampledSeconds="20.78" CO_abs="317.670221" CO2_abs="38352.841246" HC_abs="2.304950" PMx_abs="0.512820" NOx_abs="14.262335" fuel_abs="16.486297" electricity_abs="0"
            CO_normed="445.280067" CO2_normed="53759.384997" HC_normed="3.230860" PMx_normed="0.718823" NOx_normed="19.991592" fuel_normed="23.108931" electricity_normed="0"
            traveltime="0.02" CO_perVeh="0.362913" CO2_perVeh="43.815127" HC_perVeh="0.002633" PMx_perVeh="0.000586" NOx_perVeh="0.016294" fuel_perVeh="0.018834" electricity_perVeh="0"/>
        <edge id=":1110673663_0" sampledSeconds="112.04" CO_abs="1860.459459" CO2_abs="213423.672738" HC_abs="13.339022" PMx_abs="2.898680" NOx_abs="79.942477" fuel_abs="91.741989" electricity_abs="0"
            CO_normed="47.762199" CO2_normed="5479.068065" HC_normed="0.342443" PMx_normed="0.074416" NOx_normed="2.052304" fuel_normed="2.355224" electricity_normed="0"
            traveltime="1.32" CO_perVeh="21.851974" CO2_perVeh="2506.761720" HC_perVeh="0.156673" PMx_perVeh="0.034046" NOx_perVeh="0.938962" fuel_perVeh="1.077553" electricity_perVeh="0"/>
        <edge id=":1110673663_1" sampledSeconds="170.15" CO_abs="2314.181087" CO2_abs="316173.408901" HC_abs="17.727362" PMx_abs="4.065247" NOx_abs="116.113978" fuel_abs="135.909899" electricity_abs="0"
            CO_normed="59.482888" CO2_normed="8126.808873" HC_normed="0.455658" PMx_normed="0.104492" NOx_normed="2.984552" fuel_normed="3.493380" electricity_normed="0"
            traveltime="1.27" CO_perVeh="17.312643" CO2_perVeh="2365.327964" HC_perVeh="0.132620" PMx_perVeh="0.030413" NOx_perVeh="0.868661" fuel_perVeh="1.016757" electricity_perVeh="0"/>