<?xml version="1.0" encoding="UTF-8"?>

<!-- generated on Wed Sep 30 01:45:16 2020 by Eclipse SUMO Version 1.1.0
<configuration xmlns:xsi="http://www.w3.org/2001/XMLSchema-instance" xsi:noNamespaceSchemaLocation="http://sumo.dlr.de/xsd/sumoConfiguration.xsd">

    <input>
        <net-file value="../dataSets/Angeja_Estarreja/angeja_estarreja.net.xml"/>
        <route-files value="../results/angeja_estarreja/cost_co2-ttime/solution5/angeja_estarreja.rou.xml"/>
        <additional-files value="moreOutputInfo.xml"/>
    </input>

    <output>
        <emission-output.precision value="6"/>
        <tripinfo-output value="../results/angeja_estarreja/cost_co2-ttime/solution5/angeja_estarreja-tripinfo"/>
    </output>

    <processing>
        <collision.action value="warn"/>
        <time-to-teleport value="-1"/>
    </processing>

    <emissions>
        <device.emissions.probability value="1"/>
    </emissions>

    <gui_only>
        <quit-on-end value="true"/>
        <start value="true"/>
    </gui_only>

</configuration>
-->

<meandata xmlns:xsi="http://www.w3.org/2001/XMLSchema-instance" xsi:noNamespaceSchemaLocation="http://sumo.dlr.de/xsd/meandata_file.xsd">
    <interval begin="0.00" end="19078.00" id="emissions-detector">
        <edge id=":10_0" sampledSeconds="407.70" CO_abs="40630.478139" CO2_abs="2252961.203464" HC_abs="238.501980" PMx_abs="44.305229" NOx_abs="961.862023" fuel_abs="968.448680" electricity_abs="0"
            CO_normed="438.360870" CO2_normed="24307.123075" HC_normed="2.573190" PMx_normed="0.478008" NOx_normed="10.377497" fuel_normed="10.448560" electricity_normed="0"
            traveltime="1.89" CO_perVeh="187.956798" CO2_perVeh="10422.209968" HC_perVeh="1.103311" PMx_perVeh="0.204956" NOx_perVeh="4.449579" fuel_perVeh="4.480049" electricity_perVeh="0"/>
        <edge id=":10_1" sampledSeconds="0.00" CO_abs="0" CO2_abs="0" HC_abs="0" PMx_abs="0" NOx_abs="0" fuel_abs="0" electricity_abs="0"
            CO_normed="0" CO2_normed="0" HC_normed="0" PMx_normed="0" NOx_normed="0" fuel_normed="0" electricity_normed="0"/>
        <edge id=":100_0" sampledSeconds="0.00" CO_abs="0" CO2_abs="0" HC_abs="0" PMx_abs="0" NOx_abs="0" fuel_abs="0" electricity_abs="0"
            CO_normed="0" CO2_normed="0" HC_normed="0" PMx_normed="0" NOx_normed="0" fuel_normed="0" electricity_normed="0"/>
        <edge id=":100_1" sampledSeconds="911.71" CO_abs="20575.730225" CO2_abs="2640357.970815" HC_abs="157.870147" PMx_abs="47.535367" NOx_abs="983.318846" fuel_abs="1134.969034" electricity_abs="0"
            CO_normed="131.347099" CO2_normed="16854.972087" HC_normed="1.007779" PMx_normed="0.303446" NOx_normed="6.277108" fuel_normed="7.245181" electricity_normed="0"
            traveltime="1.37" CO_perVeh="30.937438" CO2_perVeh="3970.012743" HC_perVeh="0.237372" PMx_perVeh="0.071474" NOx_perVeh="1.478507" fuel_perVeh="1.706527" electricity_perVeh="0"/>
        <edge id=":101_0" sampledSeconds="438.30" CO_abs="10841.035086" CO2_abs="1325508.997233" HC_abs="81.624912" PMx_abs="24.193740" NOx_abs="497.564660" fuel_abs="569.775396" electricity_abs="0"
            CO_normed="250.390790" CO2_normed="30614.719153" HC_normed="1.885256" PMx_normed="0.558793" NOx_normed="11.492040" fuel_normed="13.159861" electricity_normed="0"
            traveltime="0.38" CO_perVeh="9.365246" CO2_perVeh="1145.067641" HC_perVeh="0.070513" PMx_perVeh="0.020900" NOx_perVeh="0.429831" fuel_perVeh="0.492212" electricity_perVeh="0"/>
        <edge id=":102_0" sampledSeconds="341.34" CO_abs="7945.150286" CO2_abs="992361.426918" HC_abs="60.322562" PMx_abs="18.005692" NOx_abs="371.134535" fuel_abs="426.570655" electricity_abs="0"
            CO_normed="185.091619" CO2_normed="23118.226390" HC_normed="1.405285" PMx_normed="0.419464" NOx_normed="8.646015" fuel_normed="9.937465" electricity_normed="0"
            traveltime="0.38" CO_perVeh="8.740361" CO2_perVeh="1091.684500" HC_perVeh="0.066360" PMx_perVeh="0.019808" NOx_perVeh="0.408280" fuel_perVeh="0.469265" electricity_perVeh="0"/>
        <edge id=":103_0" sampledSeconds="434.48" CO_abs="10382.388694" CO2_abs="1331107.180298" HC_abs="79.618018" PMx_abs="23.966305" NOx_abs="495.836129" fuel_abs="572.182041" electricity_abs="0"
            CO_normed="243.372251" CO2_normed="31202.313934" HC_normed="1.866316" PMx_normed="0.561791" NOx_normed="11.622832" fuel_normed="13.412446" electricity_normed="0"
            traveltime="0.37" CO_perVeh="8.920149" CO2_perVeh="1143.636100" HC_perVeh="0.068405" PMx_perVeh="0.020591" NOx_perVeh="0.426003" fuel_perVeh="0.491597" electricity_perVeh="0"/>
        <edge id=":104_0" sampledSeconds="340.79" CO_abs="8086.726022" CO2_abs="1014864.870847" HC_abs="61.457589" PMx_abs="18.380199" NOx_abs="379.214538" fuel_abs="436.243874" electricity_abs="0"
            CO_normed="188.622660" CO2_normed="23671.694894" HC_normed="1.433497" PMx_normed="0.428718" NOx_normed="8.845169" fuel_normed="10.175376" electricity_normed="0"
            traveltime="0.37" CO_perVeh="8.892044" CO2_perVeh="1115.930367" HC_perVeh="0.067578" PMx_perVeh="0.020211" NOx_perVeh="0.416979" fuel_perVeh="0.479687" electricity_perVeh="0"/>
        <edge id=":105_0" sampledSeconds="168.50" CO_abs="3970.840478" CO2_abs="506401.707422" HC_abs="30.394939" PMx_abs="9.135151" NOx_abs="188.732585" fuel_abs="217.678906" electricity_abs="0"
            CO_normed="3405.880577" CO2_normed="434352.311258" HC_normed="26.070434" PMx_normed="7.835428" NOx_normed="161.880249" fuel_normed="186.708170" electricity_normed="0"
            traveltime="0.01" CO_perVeh="0.240125" CO2_perVeh="30.623186" HC_perVeh="0.001838" PMx_perVeh="0.000552" NOx_perVeh="0.011413" fuel_perVeh="0.013164" electricity_perVeh="0"/>
        <edge id=":106_0" sampledSeconds="134.36" CO_abs="3440.378374" CO2_abs="418093.271753" HC_abs="25.828211" PMx_abs="7.643427" NOx_abs="157.053910" fuel_abs="179.719075" electricity_abs="0"
            CO_normed="2094.180790" CO2_normed="254496.105683" HC_normed="15.721801" PMx_normed="4.652604" NOx_normed="95.599741" fuel_normed="109.396175" electricity_normed="0"
            traveltime="0.01" CO_perVeh="0.367845" CO2_perVeh="44.702544" HC_perVeh="0.002762" PMx_perVeh="0.000817" NOx_perVeh="0.016792" fuel_perVeh="0.019216" electricity_perVeh="0"/>
        <edge id=":107_0" sampledSeconds="438.31" CO_abs="10690.341846" CO2_abs="1323942.465207" HC_abs="80.841174" PMx_abs="24.066380" NOx_abs="495.919980" fuel_abs="569.102083" electricity_abs="0"
            CO_normed="246.910292" CO2_normed="30578.537627" HC_normed="1.867154" PMx_normed="0.555851" NOx_normed="11.454053" fuel_normed="13.144309" electricity_normed="0"
            traveltime="0.38" CO_perVeh="9.235078" CO2_perVeh="1143.715672" HC_perVeh="0.069836" PMx_perVeh="0.020790" NOx_perVeh="0.428411" fuel_perVeh="0.491631" electricity_perVeh="0"/>
        <edge id=":108_0" sampledSeconds="94.02" CO_abs="8233.291883" CO2_abs="601429.818481" HC_abs="51.934070" PMx_abs="12.061166" NOx_abs="253.464663" fuel_abs="258.526062" electricity_abs="0"
            CO_normed="129.144983" CO2_normed="9433.850406" HC_normed="0.814622" PMx_normed="0.189188" NOx_normed="3.975772" fuel_normed="4.055163" electricity_normed="0"
            traveltime="0.85" CO_perVeh="74.611138" CO2_perVeh="5450.233494" HC_perVeh="0.470633" PMx_perVeh="0.109300" NOx_perVeh="2.296929" fuel_perVeh="2.342796" electricity_perVeh="0"/>
        <edge id=":108_1" sampledSeconds="402.95" CO_abs="9632.912851" CO2_abs="1156706.198048" HC_abs="72.017333" PMx_abs="21.214693" NOx_abs="435.690663" fuel_abs="497.214736" electricity_abs="0"
            CO_normed="140.908625" CO2_normed="16920.103244" HC_normed="1.053457" PMx_normed="0.310325" NOx_normed="6.373210" fuel_normed="7.273173" electricity_normed="0"
            traveltime="0.60" CO_perVeh="14.309931" CO2_perVeh="1718.315709" HC_perVeh="0.106984" PMx_perVeh="0.031515" NOx_perVeh="0.647229" fuel_perVeh="0.738625" electricity_perVeh="0"/>
        <edge id=":109_0" sampledSeconds="306.98" CO_abs="157.323629" CO2_abs="26741.991828" HC_abs="1.322805" PMx_abs="0.345130" NOx_abs="9.633333" fuel_abs="11.495263" electricity_abs="0"
            CO_normed="2.365483" CO2_normed="402.086676" HC_normed="0.019889" PMx_normed="0.005189" NOx_normed="0.144845" fuel_normed="0.172840" electricity_normed="0"
            traveltime="0.85" CO_perVeh="0.437271" CO2_perVeh="74.327730" HC_perVeh="0.003677" PMx_perVeh="0.000959" NOx_perVeh="0.026775" fuel_perVeh="0.031950" electricity_perVeh="0"/>
        <edge id=":109_1" sampledSeconds="523.81" CO_abs="13010.722179" CO2_abs="1636013.900519" HC_abs="99.054356" PMx_abs="29.629092" NOx_abs="611.214309" fuel_abs="703.247369" electricity_abs="0"
            CO_normed="127.604501" CO2_normed="16045.438046" HC_normed="0.971490" PMx_normed="0.290592" NOx_normed="5.994571" fuel_normed="6.897198" electricity_normed="0"
            traveltime="0.89" CO_perVeh="22.154161" CO2_perVeh="2785.742064" HC_perVeh="0.168666" PMx_perVeh="0.050451" NOx_perVeh="1.040752" fuel_perVeh="1.197463" electricity_perVeh="0"/>
        <edge id=":11_0" sampledSeconds="292.80" CO_abs="17512.614713" CO2_abs="1260411.201615" HC_abs="109.531076" PMx_abs="22.743112" NOx_abs="518.515723" fuel_abs="541.794522" electricity_abs="0"
            CO_normed="181.074703" CO2_normed="13032.239173" HC_normed="1.132515" PMx_normed="0.235156" NOx_normed="5.361283" fuel_normed="5.601978" electricity_normed="0"
            traveltime="1.59" CO_perVeh="95.177254" CO2_perVeh="6850.060878" HC_perVeh="0.595278" PMx_perVeh="0.123604" NOx_perVeh="2.818020" fuel_perVeh="2.944535" electricity_perVeh="0"/>
        <edge id=":11_1" sampledSeconds="50.79" CO_abs="1192.608566" CO2_abs="102579.021655" HC_abs="7.777387" PMx_abs="1.396864" NOx_abs="39.061596" fuel_abs="44.094659" electricity_abs="0"
            CO_normed="12.642925" CO2_normed="1087.447268" HC_normed="0.082449" PMx_normed="0.014808" NOx_normed="0.414095" fuel_normed="0.467451" electricity_normed="0"
            traveltime="1.67" CO_perVeh="39.224746" CO2_perVeh="3373.811134" HC_perVeh="0.255797" PMx_perVeh="0.045943" NOx_perVeh="1.284731" fuel_perVeh="1.450268" electricity_perVeh="0"/>
        <edge id=":110_0" sampledSeconds="95.01" CO_abs="0" CO2_abs="0" HC_abs="0" PMx_abs="0" NOx_abs="0" fuel_abs="0" electricity_abs="0"
            CO_normed="0" CO2_normed="0" HC_normed="0" PMx_normed="0" NOx_normed="0" fuel_normed="0" electricity_normed="0"
            traveltime="0.93" CO_perVeh="0" CO2_perVeh="0" HC_perVeh="0" PMx_perVeh="0" NOx_perVeh="0" fuel_perVeh="0" electricity_perVeh="0"/>
        <edge id=":110_1" sampledSeconds="443.89" CO_abs="10991.003987" CO2_abs="1354560.131529" HC_abs="82.931330" PMx_abs="24.652545" NOx_abs="507.777946" fuel_abs="582.263187" electricity_abs="0"
            CO_normed="141.087873" CO2_normed="17388.039197" HC_normed="1.064562" PMx_normed="0.316457" NOx_normed="6.518177" fuel_normed="7.474319" electricity_normed="0"
            traveltime="0.68" CO_perVeh="16.883792" CO2_perVeh="2080.802760" HC_perVeh="0.127395" PMx_perVeh="0.037870" NOx_perVeh="0.780021" fuel_perVeh="0.894442" electricity_perVeh="0"/>
        <edge id=":111_0" sampledSeconds="341.15" CO_abs="7786.683458" CO2_abs="994813.341654" HC_abs="59.653090" PMx_abs="17.929618" NOx_abs="370.884733" fuel_abs="427.624694" electricity_abs="0"
            CO_normed="179.845725" CO2_normed="22976.781846" HC_normed="1.377782" PMx_normed="0.414113" NOx_normed="8.566167" fuel_normed="9.876666" electricity_normed="0"
            traveltime="0.38" CO_perVeh="8.653663" CO2_perVeh="1105.577109" HC_perVeh="0.066295" PMx_perVeh="0.019926" NOx_perVeh="0.412180" fuel_perVeh="0.475237" electricity_perVeh="0"/>
        <edge id=":114_0" sampledSeconds="107.21" CO_abs="10658.096234" CO2_abs="763630.548901" HC_abs="66.926631" PMx_abs="15.536979" NOx_abs="323.525924" fuel_abs="328.248249" electricity_abs="0"
            CO_normed="141.631857" CO2_normed="10147.629583" HC_normed="0.889365" PMx_normed="0.206466" NOx_normed="4.299227" fuel_normed="4.361981" electricity_normed="0"
            traveltime="0.99" CO_perVeh="98.599281" CO2_perVeh="7064.434538" HC_perVeh="0.619146" PMx_perVeh="0.143734" NOx_perVeh="2.992976" fuel_perVeh="3.036663" electricity_perVeh="0"/>
        <edge id=":114_1" sampledSeconds="416.27" CO_abs="10174.122300" CO2_abs="1275927.728509" HC_abs="77.325414" PMx_abs="23.102205" NOx_abs="477.186336" fuel_abs="548.462800" electricity_abs="0"
            CO_normed="134.348982" CO2_normed="16848.587712" HC_normed="1.021080" PMx_normed="0.305064" NOx_normed="6.301231" fuel_normed="7.242435" electricity_normed="0"
            traveltime="0.66" CO_perVeh="16.212203" CO2_perVeh="2033.158175" HC_perVeh="0.123216" PMx_perVeh="0.036813" NOx_perVeh="0.760384" fuel_perVeh="0.873961" electricity_perVeh="0"/>
        <edge id=":115_0" sampledSeconds="80.10" CO_abs="144.390457" CO2_abs="16959.948328" HC_abs="1.042924" PMx_abs="0.227609" NOx_abs="6.339110" fuel_abs="7.290379" electricity_abs="0"
            CO_normed="3.263035" CO2_normed="383.272541" HC_normed="0.023569" PMx_normed="0.005144" NOx_normed="0.143256" fuel_normed="0.164753" electricity_normed="0"
            traveltime="0.63" CO_perVeh="1.136236" CO2_perVeh="133.461096" HC_perVeh="0.008207" PMx_perVeh="0.001791" NOx_perVeh="0.049884" fuel_perVeh="0.057369" electricity_perVeh="0"/>
        <edge id=":115_1" sampledSeconds="72.43" CO_abs="968.699599" CO2_abs="152405.532067" HC_abs="7.801482" PMx_abs="2.245199" NOx_abs="56.349634" fuel_abs="65.512409" electricity_abs="0"
            CO_normed="19.550018" CO2_normed="3075.804846" HC_normed="0.157447" PMx_normed="0.045312" NOx_normed="1.137232" fuel_normed="1.322153" electricity_normed="0"
            traveltime="0.59" CO_perVeh="7.930428" CO2_perVeh="1247.694357" HC_perVeh="0.063868" PMx_perVeh="0.018381" NOx_perVeh="0.461316" fuel_perVeh="0.536329" electricity_perVeh="0"/>
        <edge id=":116_0" sampledSeconds="74.83" CO_abs="119.964321" CO2_abs="16117.738151" HC_abs="0.909217" PMx_abs="0.213995" NOx_abs="5.963819" fuel_abs="6.928341" electricity_abs="0"
            CO_normed="3.026357" CO2_normed="406.604475" HC_normed="0.022937" PMx_normed="0.005398" NOx_normed="0.150450" fuel_normed="0.174782" electricity_normed="0"
            traveltime="0.57" CO_perVeh="0.905821" CO2_perVeh="121.701020" HC_perVeh="0.006865" PMx_perVeh="0.001616" NOx_perVeh="0.045031" fuel_perVeh="0.052314" electricity_perVeh="0"/>
        <edge id=":117_0" sampledSeconds="238.43" CO_abs="13608.538371" CO2_abs="1123991.374301" HC_abs="88.666752" PMx_abs="20.669871" NOx_abs="459.308626" fuel_abs="483.151982" electricity_abs="0"
            CO_normed="307.535081" CO2_normed="25400.727725" HC_normed="2.003752" PMx_normed="0.467112" NOx_normed="10.379771" fuel_normed="10.918600" electricity_normed="0"
            traveltime="0.60" CO_perVeh="34.492065" CO2_perVeh="2848.857271" HC_perVeh="0.224734" PMx_perVeh="0.052390" NOx_perVeh="1.164159" fuel_perVeh="1.224592" electricity_perVeh="0"/>
        <edge id=":117_1" sampledSeconds="75.81" CO_abs="4910.066019" CO2_abs="400675.298442" HC_abs="31.906650" PMx_abs="7.436354" NOx_abs="164.252158" fuel_abs="172.231748" electricity_abs="0"
            CO_normed="104.573891" CO2_normed="8533.525754" HC_normed="0.679543" PMx_normed="0.158378" NOx_normed="3.498219" fuel_normed="3.668167" electricity_normed="0"
            traveltime="0.64" CO_perVeh="41.511861" CO2_perVeh="3387.485466" HC_perVeh="0.269753" PMx_perVeh="0.062870" NOx_perVeh="1.388660" fuel_perVeh="1.456123" electricity_perVeh="0"/>
        <edge id=":118_0" sampledSeconds="897.74" CO_abs="12925.078684" CO2_abs="2046690.470409" HC_abs="104.853186" PMx_abs="30.160721" NOx_abs="756.985670" fuel_abs="879.781848" electricity_abs="0"
            CO_normed="39.217716" CO2_normed="6210.138227" HC_normed="0.318149" PMx_normed="0.091515" NOx_normed="2.296872" fuel_normed="2.669464" electricity_normed="0"
            traveltime="3.92" CO_perVeh="56.375245" CO2_perVeh="8927.038603" HC_perVeh="0.457338" PMx_perVeh="0.131552" NOx_perVeh="3.301740" fuel_perVeh="3.837340" electricity_perVeh="0"/>
        <edge id=":118_4" sampledSeconds="282.82" CO_abs="3620.619619" CO2_abs="589331.410915" HC_abs="29.511998" PMx_abs="8.495639" NOx_abs="216.522749" fuel_abs="253.327737" electricity_abs="0"
            CO_normed="11.007047" CO2_normed="1791.626594" HC_normed="0.089719" PMx_normed="0.025828" NOx_normed="0.658251" fuel_normed="0.770142" electricity_normed="0"
            traveltime="3.92" CO_perVeh="50.197648" CO2_perVeh="8170.714969" HC_perVeh="0.409166" PMx_perVeh="0.117787" NOx_perVeh="3.001954" fuel_perVeh="3.512232" electricity_perVeh="0"/>
        <edge id=":118_5" sampledSeconds="238.75" CO_abs="3840.154557" CO2_abs="556056.804304" HC_abs="29.960536" PMx_abs="8.499799" NOx_abs="208.198117" fuel_abs="239.024008" electricity_abs="0"
            CO_normed="11.790326" CO2_normed="1707.246613" HC_normed="0.091987" PMx_normed="0.026097" NOx_normed="0.639225" fuel_normed="0.733869" electricity_normed="0"
            traveltime="3.82" CO_perVeh="61.459593" CO2_perVeh="8899.387839" HC_perVeh="0.479502" PMx_perVeh="0.136035" NOx_perVeh="3.332098" fuel_perVeh="3.825450" electricity_perVeh="0"/>
        <edge id=":119_0" sampledSeconds="139.28" CO_abs="2174.970184" CO2_abs="326532.725541" HC_abs="17.278451" PMx_abs="4.914269" NOx_abs="121.683045" fuel_abs="140.361917" electricity_abs="0"
            CO_normed="46.638040" CO2_normed="7001.864427" HC_normed="0.370503" PMx_normed="0.105377" NOx_normed="2.609258" fuel_normed="3.009791" electricity_normed="0"
            traveltime="0.56" CO_perVeh="8.719301" CO2_perVeh="1309.046506" HC_perVeh="0.069268" PMx_perVeh="0.019701" NOx_perVeh="0.487819" fuel_perVeh="0.562701" electricity_perVeh="0"/>
        <edge id=":12_0" sampledSeconds="601.81" CO_abs="53249.871673" CO2_abs="3013921.943899" HC_abs="313.986729" PMx_abs="58.787028" NOx_abs="1282.659192" fuel_abs="1295.552042" electricity_abs="0"
            CO_normed="498.917521" CO2_normed="28238.536862" HC_normed="2.941856" PMx_normed="0.550797" NOx_normed="12.017703" fuel_normed="12.138501" electricity_normed="0"
            traveltime="2.13" CO_perVeh="188.242746" CO2_perVeh="10654.465898" HC_perVeh="1.109969" PMx_perVeh="0.207817" NOx_perVeh="4.534307" fuel_perVeh="4.579885" electricity_perVeh="0"/>
        <edge id=":12_1" sampledSeconds="56.17" CO_abs="949.112490" CO2_abs="87109.339585" HC_abs="6.294333" PMx_abs="1.065150" NOx_abs="32.320009" fuel_abs="37.444993" electricity_abs="0"
            CO_normed="8.883760" CO2_normed="815.349576" HC_normed="0.058915" PMx_normed="0.009970" NOx_normed="0.302518" fuel_normed="0.350488" electricity_normed="0"
            traveltime="1.89" CO_perVeh="32.005399" CO2_perVeh="2937.448625" HC_perVeh="0.212254" PMx_perVeh="0.035918" NOx_perVeh="1.089876" fuel_perVeh="1.262697" electricity_perVeh="0"/>
        <edge id=":120_0" sampledSeconds="39.11" CO_abs="536.951656" CO2_abs="87302.129936" HC_abs="4.385254" PMx_abs="1.267708" NOx_abs="32.127087" fuel_abs="37.527347" electricity_abs="0"
            CO_normed="422.176058" CO2_normed="68640.945017" HC_normed="3.447888" PMx_normed="0.996730" NOx_normed="25.259792" fuel_normed="29.505724" electricity_normed="0"
            traveltime="0.02" CO_perVeh="0.206605" CO2_perVeh="33.591558" HC_perVeh="0.001687" PMx_perVeh="0.000488" NOx_perVeh="0.012362" fuel_perVeh="0.014440" electricity_perVeh="0"/>
        <edge id=":121_0" sampledSeconds="377.22" CO_abs="53619.607745" CO2_abs="1422708.956463" HC_abs="277.546190" PMx_abs="30.713702" NOx_abs="629.167306" fuel_abs="611.579168" electricity_abs="0"
            CO_normed="30660.508198" CO2_normed="813526.645520" HC_normed="158.705138" PMx_normed="17.562562" NOx_normed="359.767446" fuel_normed="349.710281" electricity_normed="0"
            traveltime="0.12" CO_perVeh="16.566746" CO2_perVeh="439.571612" HC_perVeh="0.085753" PMx_perVeh="0.009490" NOx_perVeh="0.194393" fuel_perVeh="0.188958" electricity_perVeh="0"/>
        <edge id=":122_0" sampledSeconds="134.90" CO_abs="1061.471980" CO2_abs="108123.248081" HC_abs="7.342429" PMx_abs="1.911498" NOx_abs="42.764249" fuel_abs="46.477180" electricity_abs="0"
            CO_normed="23.372080" CO2_normed="2380.717794" HC_normed="0.161670" PMx_normed="0.042088" NOx_normed="0.941607" fuel_normed="1.023360" electricity_normed="0"
            traveltime="0.54" CO_perVeh="4.241229" CO2_perVeh="432.018414" HC_perVeh="0.029337" PMx_perVeh="0.007638" NOx_perVeh="0.170869" fuel_perVeh="0.185705" electricity_perVeh="0"/>
        <edge id=":123_0" sampledSeconds="313.81" CO_abs="40165.593029" CO2_abs="2456263.395355" HC_abs="241.869193" PMx_abs="50.388161" NOx_abs="1053.624642" fuel_abs="1055.833493" electricity_abs="0"
            CO_normed="153.177208" CO2_normed="9367.310186" HC_normed="0.922403" PMx_normed="0.192162" NOx_normed="4.018148" fuel_normed="4.026571" electricity_normed="0"
            traveltime="4.27" CO_perVeh="546.977507" CO2_perVeh="33449.545414" HC_perVeh="3.293789" PMx_perVeh="0.686189" NOx_perVeh="14.348325" fuel_perVeh="14.378405" electricity_perVeh="0"/>
        <edge id=":123_1" sampledSeconds="0.00" CO_abs="0" CO2_abs="0" HC_abs="0" PMx_abs="0" NOx_abs="0" fuel_abs="0" electricity_abs="0"
            CO_normed="0" CO2_normed="0" HC_normed="0" PMx_normed="0" NOx_normed="0" fuel_normed="0" electricity_normed="0"/>
        <edge id=":123_2" sampledSeconds="256.00" CO_abs="34254.755067" CO2_abs="2144666.008796" HC_abs="207.581561" PMx_abs="44.346021" NOx_abs="921.141236" fuel_abs="921.891137" electricity_abs="0"
            CO_normed="131.888163" CO2_normed="8257.424708" HC_normed="0.799234" PMx_normed="0.170742" NOx_normed="3.546592" fuel_normed="3.549479" electricity_normed="0"
            traveltime="4.02" CO_perVeh="538.416444" CO2_perVeh="33709.873092" HC_perVeh="3.262768" PMx_perVeh="0.697031" NOx_perVeh="14.478503" fuel_perVeh="14.490290" electricity_perVeh="0"/>
        <edge id=":123_3" sampledSeconds="469.61" CO_abs="21855.791549" CO2_abs="2084794.903597" HC_abs="148.882500" PMx_abs="38.750388" NOx_abs="834.557086" fuel_abs="896.155486" electricity_abs="0"
            CO_normed="86.099511" CO2_normed="8212.917865" HC_normed="0.586513" PMx_normed="0.152655" NOx_normed="3.287685" fuel_normed="3.530348" electricity_normed="0"
            traveltime="2.81" CO_perVeh="130.815766" CO2_perVeh="12478.342066" HC_perVeh="0.891122" PMx_perVeh="0.231937" NOx_perVeh="4.995162" fuel_perVeh="5.363854" electricity_perVeh="0"/>
        <edge id=":123_5" sampledSeconds="0.00" CO_abs="0" CO2_abs="0" HC_abs="0" PMx_abs="0" NOx_abs="0" fuel_abs="0" electricity_abs="0"
            CO_normed="0" CO2_normed="0" HC_normed="0" PMx_normed="0" NOx_normed="0" fuel_normed="0" electricity_normed="0"/>
        <edge id=":123_6" sampledSeconds="194.98" CO_abs="8818.964790" CO2_abs="895576.255335" HC_abs="61.378255" PMx_abs="16.205811" NOx_abs="354.761590" fuel_abs="384.966493" electricity_abs="0"
            CO_normed="33.557775" CO2_normed="3407.831544" HC_normed="0.233555" PMx_normed="0.061666" NOx_normed="1.349933" fuel_normed="1.464868" electricity_normed="0"
            traveltime="2.92" CO_perVeh="131.935676" CO2_perVeh="13398.223240" HC_perVeh="0.918246" PMx_perVeh="0.242446" NOx_perVeh="5.307393" fuel_perVeh="5.759272" electricity_perVeh="0"/>
        <edge id=":124_0" sampledSeconds="118.36" CO_abs="4464.414306" CO2_abs="410787.035711" HC_abs="29.978434" PMx_abs="7.748820" NOx_abs="165.312104" fuel_abs="176.577998" electricity_abs="0"
            CO_normed="104.519929" CO2_normed="9617.259695" HC_normed="0.701849" PMx_normed="0.181414" NOx_normed="3.870252" fuel_normed="4.134007" electricity_normed="0"
            traveltime="0.46" CO_perVeh="17.352967" CO2_perVeh="1596.709750" HC_perVeh="0.116525" PMx_perVeh="0.030119" NOx_perVeh="0.642560" fuel_perVeh="0.686350" electricity_perVeh="0"/>
        <edge id=":125_0" sampledSeconds="141.43" CO_abs="5380.452603" CO2_abs="547661.693246" HC_abs="37.349359" PMx_abs="10.142688" NOx_abs="215.726047" fuel_abs="235.414115" electricity_abs="0"
            CO_normed="338.428720" CO2_normed="34447.742525" HC_normed="2.349263" PMx_normed="0.637972" NOx_normed="13.569098" fuel_normed="14.807471" electricity_normed="0"
            traveltime="0.16" CO_perVeh="6.162000" CO2_perVeh="627.213239" HC_perVeh="0.042775" PMx_perVeh="0.011616" NOx_perVeh="0.247062" fuel_perVeh="0.269610" electricity_perVeh="0"/>
        <edge id=":125_3" sampledSeconds="0.00" CO_abs="0" CO2_abs="0" HC_abs="0" PMx_abs="0" NOx_abs="0" fuel_abs="0" electricity_abs="0"
            CO_normed="0" CO2_normed="0" HC_normed="0" PMx_normed="0" NOx_normed="0" fuel_normed="0" electricity_normed="0"/>
        <edge id=":126_0" sampledSeconds="27.62" CO_abs="128.574271" CO2_abs="10184.063666" HC_abs="0.819883" PMx_abs="0.148763" NOx_abs="3.957032" fuel_abs="4.377718" electricity_abs="0"
            CO_normed="4.234178" CO2_normed="335.379212" HC_normed="0.027000" PMx_normed="0.004899" NOx_normed="0.130312" fuel_normed="0.144166" electricity_normed="0"
            traveltime="0.57" CO_perVeh="2.645544" CO2_perVeh="209.547302" HC_perVeh="0.016870" PMx_perVeh="0.003061" NOx_perVeh="0.081420" fuel_perVeh="0.090076" electricity_perVeh="0"/>
        <edge id=":126_1" sampledSeconds="80.91" CO_abs="1283.491237" CO2_abs="203907.335278" HC_abs="10.420901" PMx_abs="3.238193" NOx_abs="75.027457" fuel_abs="87.650581" electricity_abs="0"
            CO_normed="37.607693" CO2_normed="5974.707355" HC_normed="0.305344" PMx_normed="0.094883" NOx_normed="2.198386" fuel_normed="2.568258" electricity_normed="0"
            traveltime="0.35" CO_perVeh="5.553887" CO2_perVeh="882.342074" HC_perVeh="0.045093" PMx_perVeh="0.014012" NOx_perVeh="0.324657" fuel_perVeh="0.379279" electricity_perVeh="0"/>
        <edge id=":127_0" sampledSeconds="234.79" CO_abs="5117.044462" CO2_abs="674700.686102" HC_abs="38.772278" PMx_abs="11.402855" NOx_abs="254.286164" fuel_abs="290.023016" electricity_abs="0"
            CO_normed="118.331042" CO2_normed="15602.372754" HC_normed="0.896604" PMx_normed="0.263690" NOx_normed="5.880337" fuel_normed="6.706748" electricity_normed="0"
            traveltime="0.44" CO_perVeh="9.568997" CO2_perVeh="1261.706580" HC_perVeh="0.072505" PMx_perVeh="0.021324" NOx_perVeh="0.475521" fuel_perVeh="0.542350" electricity_perVeh="0"/>
        <edge id=":128_0" sampledSeconds="228.98" CO_abs="270.764400" CO2_abs="42423.971795" HC_abs="2.190590" PMx_abs="0.611004" NOx_abs="15.613276" fuel_abs="18.236216" electricity_abs="0"
            CO_normed="4.184519" CO2_normed="655.639813" HC_normed="0.033854" PMx_normed="0.009443" NOx_normed="0.241295" fuel_normed="0.281831" electricity_normed="0"
            traveltime="0.75" CO_perVeh="0.890097" CO2_perVeh="139.462365" HC_perVeh="0.007201" PMx_perVeh="0.002009" NOx_perVeh="0.051326" fuel_perVeh="0.059949" electricity_perVeh="0"/>
        <edge id=":128_1" sampledSeconds="142.29" CO_abs="215.588614" CO2_abs="26065.346622" HC_abs="1.574770" PMx_abs="0.365643" NOx_abs="9.810301" fuel_abs="11.204386" electricity_abs="0"
            CO_normed="3.441740" CO2_normed="416.117216" HC_normed="0.025140" PMx_normed="0.005837" NOx_normed="0.156615" fuel_normed="0.178871" electricity_normed="0"
            traveltime="0.85" CO_perVeh="1.292331" CO2_perVeh="156.246937" HC_perVeh="0.009440" PMx_perVeh="0.002192" NOx_perVeh="0.058807" fuel_perVeh="0.067164" electricity_perVeh="0"/>
        <edge id=":129_0" sampledSeconds="105.19" CO_abs="5383.434876" CO2_abs="483891.344095" HC_abs="35.981019" PMx_abs="9.089588" NOx_abs="195.961763" fuel_abs="208.002133" electricity_abs="0"
            CO_normed="125.413446" CO2_normed="11272.817884" HC_normed="0.838220" PMx_normed="0.211753" NOx_normed="4.565160" fuel_normed="4.845654" electricity_normed="0"
            traveltime="0.50" CO_perVeh="25.514656" CO2_perVeh="2293.390999" HC_perVeh="0.170531" PMx_perVeh="0.043080" NOx_perVeh="0.928756" fuel_perVeh="0.985821" electricity_perVeh="0"/>
        <edge id=":13_0" sampledSeconds="59.60" CO_abs="5414.990078" CO2_abs="381083.592988" HC_abs="33.771681" PMx_abs="7.439153" NOx_abs="160.181555" fuel_abs="163.810095" electricity_abs="0"
            CO_normed="38.284127" CO2_normed="2694.271355" HC_normed="0.238767" PMx_normed="0.052595" NOx_normed="1.132488" fuel_normed="1.158142" electricity_normed="0"
            traveltime="2.11" CO_perVeh="191.536903" CO2_perVeh="13479.539197" HC_perVeh="1.194559" PMx_perVeh="0.263135" NOx_perVeh="5.665879" fuel_perVeh="5.794226" electricity_perVeh="0"/>
        <edge id=":13_1" sampledSeconds="541.99" CO_abs="12751.383408" CO2_abs="959615.124576" HC_abs="80.037976" PMx_abs="13.585386" NOx_abs="370.817627" fuel_abs="412.500900" electricity_abs="0"
            CO_normed="127.041902" CO2_normed="9560.635609" HC_normed="0.797418" PMx_normed="0.135351" NOx_normed="3.694452" fuel_normed="4.109742" electricity_normed="0"
            traveltime="1.89" CO_perVeh="44.518112" CO2_perVeh="3350.244600" HC_perVeh="0.279432" PMx_perVeh="0.047430" NOx_perVeh="1.294613" fuel_perVeh="1.440139" electricity_perVeh="0"/>
        <edge id=":132_0" sampledSeconds="40.93" CO_abs="656.684303" CO2_abs="94567.983511" HC_abs="5.120393" PMx_abs="1.433199" NOx_abs="35.420145" fuel_abs="40.650571" electricity_abs="0"
            CO_normed="1239.156877" CO2_normed="178448.862899" HC_normed="9.662132" PMx_normed="2.704432" NOx_normed="66.837468" fuel_normed="76.707231" electricity_normed="0"
            traveltime="6.344813e-03" CO_perVeh="0.101805" CO2_perVeh="14.660697" HC_perVeh="0.000794" PMx_perVeh="0.000222" NOx_perVeh="0.005491" fuel_perVeh="0.006302" electricity_perVeh="0"/>
        <edge id=":133_0" sampledSeconds="44.90" CO_abs="651.563657" CO2_abs="86728.749206" HC_abs="4.917779" PMx_abs="1.175583" NOx_abs="32.214037" fuel_abs="37.281028" electricity_abs="0"