<?xml version="1.0" encoding="UTF-8"?>

<!-- generated on Mon Nov  9 22:39:34 2020 by Eclipse SUMO sumo Version 1.7.0
<configuration xmlns:xsi="http://www.w3.org/2001/XMLSchema-instance" xsi:noNamespaceSchemaLocation="http://sumo.dlr.de/xsd/sumoConfiguration.xsd">

    <input>
        <net-file value="../dataSets/Porto/6AM7AM_Routing_SaoBento/Porto.net.xml"/>
        <route-files value="../results/Porto/6AM7AM_Routing_SaoBento/cost_co-length/solution10/Porto.rou.xml"/>
        <additional-files value="moreOutputInfo.xml"/>
    </input>

    <output>
        <emission-output.precision value="6"/>
        <tripinfo-output value="../results/Porto/6AM7AM_Routing_SaoBento/cost_co-length/solution10/Porto-tripinfo"/>
    </output>

    <processing>
        <collision.action value="warn"/>
        <time-to-teleport value="-1"/>
    </processing>

    <emissions>
        <device.emissions.probability value="1"/>
    </emissions>

    <gui_only>
        <quit-on-end value="true"/>
        <start value="true"/>
    </gui_only>

</configuration>
-->

<meandata xmlns:xsi="http://www.w3.org/2001/XMLSchema-instance" xsi:noNamespaceSchemaLocation="http://sumo.dlr.de/xsd/meandata_file.xsd">
    <interval begin="0.00" end="4700.00" id="emissions-detector">
        <edge id=":1092997347_0" sampledSeconds="264.80" CO_abs="34115.274163" CO2_abs="1361607.721847" HC_abs="187.532680" PMx_abs="27.824080" NOx_abs="591.323208" fuel_abs="585.301363" electricity_abs="0"
            CO_normed="59388.291579" CO2_normed="2370303.577684" HC_normed="326.459211" PMx_normed="48.436502" NOx_normed="1029.382760" fuel_normed="1018.899858" electricity_normed="0"
            traveltime="0.07" CO_perVeh="9.576950" CO2_perVeh="382.234938" HC_perVeh="0.052645" PMx_perVeh="0.007811" NOx_perVeh="0.165998" fuel_perVeh="0.164308" electricity_perVeh="0"/>
        <edge id=":1103427051_0" sampledSeconds="10.95" CO_abs="862.202906" CO2_abs="48222.325992" HC_abs="5.071233" PMx_abs="0.949358" NOx_abs="20.605099" fuel_abs="20.728643" electricity_abs="0"
            CO_normed="2277.278401" CO2_normed="127366.378261" HC_normed="13.394305" PMx_normed="2.507476" NOx_normed="54.422859" fuel_normed="54.749166" electricity_normed="0"
            traveltime="0.03" CO_perVeh="2.362423" CO2_perVeh="132.128444" HC_perVeh="0.013895" PMx_perVeh="0.002601" NOx_perVeh="0.056458" fuel_perVeh="0.056796" electricity_perVeh="0"/>
        <edge id=":1105984386_0" sampledSeconds="23.06" CO_abs="374.616418" CO2_abs="30274.759058" HC_abs="2.394904" PMx_abs="0.400659" NOx_abs="11.494393" fuel_abs="13.013953" electricity_abs="0"
            CO_normed="29.551003" CO2_normed="2388.174784" HC_normed="0.188918" PMx_normed="0.031605" NOx_normed="0.906716" fuel_normed="1.026584" electricity_normed="0"
            traveltime="0.97" CO_perVeh="15.722361" CO2_perVeh="1270.608188" HC_perVeh="0.100512" PMx_perVeh="0.016815" NOx_perVeh="0.482411" fuel_perVeh="0.546186" electricity_perVeh="0"/>
        <edge id=":1105984390_0" sampledSeconds="23.52" CO_abs="30.110687" CO2_abs="2582.900455" HC_abs="0.195660" PMx_abs="0.032491" NOx_abs="0.967683" fuel_abs="1.110291" electricity_abs="0"
            CO_normed="1.836266" CO2_normed="157.515274" HC_normed="0.011932" PMx_normed="0.001981" NOx_normed="0.059013" fuel_normed="0.067710" electricity_normed="0"
            traveltime="1.07" CO_perVeh="1.365505" CO2_perVeh="117.133267" HC_perVeh="0.008873" PMx_perVeh="0.001473" NOx_perVeh="0.043884" fuel_perVeh="0.050351" electricity_perVeh="0"/>
        <edge id=":1105984390_1" sampledSeconds="645.31" CO_abs="15926.186769" CO2_abs="1950832.949059" HC_abs="119.327503" PMx_abs="35.082340" NOx_abs="737.080312" fuel_abs="838.573263" electricity_abs="0"
            CO_normed="929.077026" CO2_normed="113804.647739" HC_normed="6.961142" PMx_normed="2.046579" NOx_normed="42.998641" fuel_normed="48.919378" electricity_normed="0"
            traveltime="0.64" CO_perVeh="15.697476" CO2_perVeh="1922.817678" HC_perVeh="0.117614" PMx_perVeh="0.034579" NOx_perVeh="0.726495" fuel_perVeh="0.826531" electricity_perVeh="0"/>
        <edge id=":1105984395_0" sampledSeconds="8.91" CO_abs="293.469139" CO2_abs="21184.526723" HC_abs="1.824058" PMx_abs="0.316952" NOx_abs="8.315287" fuel_abs="9.106379" electricity_abs="0"
            CO_normed="244.331383" CO2_normed="17637.441305" HC_normed="1.518642" PMx_normed="0.263882" NOx_normed="6.922996" fuel_normed="7.581629" electricity_normed="0"
            traveltime="0.09" CO_perVeh="2.976098" CO2_perVeh="214.834266" HC_perVeh="0.018498" PMx_perVeh="0.003214" NOx_perVeh="0.084326" fuel_perVeh="0.092349" electricity_perVeh="0"/>
        <edge id=":1105984398_0" sampledSeconds="24.40" CO_abs="1443.881935" CO2_abs="99131.390125" HC_abs="8.912651" PMx_abs="1.784162" NOx_abs="40.879088" fuel_abs="42.612211" electricity_abs="0"
            CO_normed="91.476602" CO2_normed="6280.432298" HC_normed="0.564658" PMx_normed="0.113035" NOx_normed="2.589879" fuel_normed="2.699681" electricity_normed="0"
            traveltime="1.12" CO_perVeh="66.346693" CO2_perVeh="4555.109223" HC_perVeh="0.409538" PMx_perVeh="0.081983" NOx_perVeh="1.878403" fuel_perVeh="1.958040" electricity_perVeh="0"/>
        <edge id=":1105984398_1" sampledSeconds="454.44" CO_abs="7885.305181" CO2_abs="909338.423969" HC_abs="56.794135" PMx_abs="13.084026" NOx_abs="344.474155" fuel_abs="390.885824" electricity_abs="0"
            CO_normed="483.571515" CO2_normed="55765.775621" HC_normed="3.482938" PMx_normed="0.802386" NOx_normed="21.125104" fuel_normed="23.971330" electricity_normed="0"
            traveltime="0.96" CO_perVeh="16.586289" CO2_perVeh="1912.741383" HC_perVeh="0.119463" PMx_perVeh="0.027522" NOx_perVeh="0.724582" fuel_perVeh="0.822206" electricity_perVeh="0"/>
        <edge id=":1106006327_0" sampledSeconds="286.51" CO_abs="38840.122874" CO2_abs="1271144.774364" HC_abs="206.793300" PMx_abs="26.555527" NOx_abs="556.673005" fuel_abs="546.419920" electricity_abs="0"
            CO_normed="3357.774419" CO2_normed="109891.964548" HC_normed="17.877525" PMx_normed="2.295757" NOx_normed="48.125038" fuel_normed="47.238646" electricity_normed="0"
            traveltime="2.07" CO_perVeh="280.940067" CO2_perVeh="9194.499715" HC_perVeh="1.495786" PMx_perVeh="0.192083" NOx_perVeh="4.026551" fuel_perVeh="3.952388" electricity_perVeh="0"/>
        <edge id=":1106006327_1" sampledSeconds="161.89" CO_abs="21822.834288" CO2_abs="727176.073048" HC_abs="116.499233" PMx_abs="15.147815" NOx_abs="318.128444" fuel_abs="312.586858" electricity_abs="0"
            CO_normed="1645.212838" CO2_normed="54821.449635" HC_normed="8.782820" PMx_normed="1.141986" NOx_normed="23.983548" fuel_normed="23.565771" electricity_normed="0"
            traveltime="2.30" CO_perVeh="309.803259" CO2_perVeh="10323.201574" HC_perVeh="1.653857" PMx_perVeh="0.215043" NOx_perVeh="4.516243" fuel_perVeh="4.437573" electricity_perVeh="0"/>
        <edge id=":1106006327_2" sampledSeconds="0.00" CO_abs="0" CO2_abs="0" HC_abs="0" PMx_abs="0" NOx_abs="0" fuel_abs="0" electricity_abs="0"
            CO_normed="0" CO2_normed="0" HC_normed="0" PMx_normed="0" NOx_normed="0" fuel_normed="0" electricity_normed="0"/>
        <edge id=":1106006327_3" sampledSeconds="0.00" CO_abs="0" CO2_abs="0" HC_abs="0" PMx_abs="0" NOx_abs="0" fuel_abs="0" electricity_abs="0"
            CO_normed="0" CO2_normed="0" HC_normed="0" PMx_normed="0" NOx_normed="0" fuel_normed="0" electricity_normed="0"/>
        <edge id=":1107381198_0" sampledSeconds="0.00" CO_abs="0" CO2_abs="0" HC_abs="0" PMx_abs="0" NOx_abs="0" fuel_abs="0" electricity_abs="0"
            CO_normed="0" CO2_normed="0" HC_normed="0" PMx_normed="0" NOx_normed="0" fuel_normed="0" electricity_normed="0"/>
        <edge id=":1107381198_1" sampledSeconds="34.67" CO_abs="1593.287021" CO2_abs="67712.929645" HC_abs="8.824649" PMx_abs="1.206577" NOx_abs="28.270201" fuel_abs="29.107295" electricity_abs="0"
            CO_normed="133.085066" CO2_normed="5655.967580" HC_normed="0.737111" PMx_normed="0.100784" NOx_normed="2.361371" fuel_normed="2.431292" electricity_normed="0"
            traveltime="1.43" CO_perVeh="65.600045" CO2_perVeh="2787.929081" HC_perVeh="0.363335" PMx_perVeh="0.049678" NOx_perVeh="1.163963" fuel_perVeh="1.198428" electricity_perVeh="0"/>
        <edge id=":1110338277_0" sampledSeconds="96.78" CO_abs="1604.467318" CO2_abs="183477.940167" HC_abs="11.522295" PMx_abs="2.634465" NOx_abs="69.539036" fuel_abs="78.869358" electricity_abs="0"
            CO_normed="4389.120324" CO2_normed="501915.337843" HC_normed="31.519956" PMx_normed="7.206742" NOx_normed="190.228365" fuel_normed="215.752044" electricity_normed="0"
            traveltime="0.02" CO_perVeh="0.361599" CO2_perVeh="41.350461" HC_perVeh="0.002597" PMx_perVeh="0.000594" NOx_perVeh="0.015672" fuel_perVeh="0.017775" electricity_perVeh="0"/>
        <edge id=":1110338293_0" sampledSeconds="123.41" CO_abs="6106.078268" CO2_abs="424722.995317" HC_abs="37.770348" PMx_abs="7.363954" NOx_abs="173.243064" fuel_abs="182.570046" electricity_abs="0"
            CO_normed="15589.987068" CO2_normed="1084399.136981" HC_normed="96.434932" PMx_normed="18.801584" NOx_normed="442.322717" fuel_normed="466.136287" electricity_normed="0"
            traveltime="0.03" CO_perVeh="1.400530" CO2_perVeh="97.417255" HC_perVeh="0.008663" PMx_perVeh="0.001689" NOx_perVeh="0.039736" fuel_perVeh="0.041875" electricity_perVeh="0"/>
        <edge id=":1110338295_0" sampledSeconds="0.00" CO_abs="0" CO2_abs="0" HC_abs="0" PMx_abs="0" NOx_abs="0" fuel_abs="0" electricity_abs="0"
            CO_normed="0" CO2_normed="0" HC_normed="0" PMx_normed="0" NOx_normed="0" fuel_normed="0" electricity_normed="0"/>
        <edge id=":1110673403_0" sampledSeconds="143.55" CO_abs="2209.921420" CO2_abs="269245.118373" HC_abs="16.216616" PMx_abs="3.693436" NOx_abs="100.760377" fuel_abs="115.737175" electricity_abs="0"
            CO_normed="5642.352561" CO2_normed="687434.344782" HC_normed="41.404127" PMx_normed="9.430050" NOx_normed="257.260537" fuel_normed="295.499169" electricity_normed="0"
            traveltime="0.02" CO_perVeh="0.354817" CO2_perVeh="43.229080" HC_perVeh="0.002604" PMx_perVeh="0.000593" NOx_perVeh="0.016178" fuel_perVeh="0.018582" electricity_perVeh="0"/>
        <edge id=":1110673412_0" sampledSeconds="252.75" CO_abs="44861.930381" CO2_abs="3062849.318553" HC_abs="279.237954" PMx_abs="67.297895" NOx_abs="1316.314542" fuel_abs="1316.568049" electricity_abs="0"
            CO_normed="118490.791908" CO2_normed="8089697.393096" HC_normed="737.532381" PMx_normed="177.749392" NOx_normed="3476.692846" fuel_normed="3477.362418" electricity_normed="0"
            traveltime="0.02" CO_perVeh="2.757632" CO2_perVeh="188.271225" HC_perVeh="0.017165" PMx_perVeh="0.004137" NOx_perVeh="0.080913" fuel_perVeh="0.080929" electricity_perVeh="0"/>
        <edge id=":1110673414_0" sampledSeconds="0.00" CO_abs="0" CO2_abs="0" HC_abs="0" PMx_abs="0" NOx_abs="0" fuel_abs="0" electricity_abs="0"
            CO_normed="0" CO2_normed="0" HC_normed="0" PMx_normed="0" NOx_normed="0" fuel_normed="0" electricity_normed="0"/>
        <edge id=":1110673414_1" sampledSeconds="134.11" CO_abs="9185.924638" CO2_abs="346433.035793" HC_abs="49.870905" PMx_abs="6.414973" NOx_abs="146.377967" fuel_abs="148.919300" electricity_abs="0"
            CO_normed="779.183542" CO2_normed="29385.710253" HC_normed="4.230232" PMx_normed="0.544141" NOx_normed="12.416312" fuel_normed="12.631877" electricity_normed="0"
            traveltime="1.60" CO_perVeh="109.445705" CO2_perVeh="4127.576611" HC_perVeh="0.594187" PMx_perVeh="0.076431" NOx_perVeh="1.744020" fuel_perVeh="1.774299" electricity_perVeh="0"/>
        <edge id=":1110673417_0" sampledSeconds="29.64" CO_abs="429.869483" CO2_abs="52968.442862" HC_abs="3.174685" PMx_abs="0.719717" NOx_abs="19.765685" fuel_abs="22.768919" electricity_abs="0"
            CO_normed="1175.934757" CO2_normed="144898.475915" HC_normed="8.684548" PMx_normed="1.968830" NOx_normed="54.070264" fuel_normed="62.285797" electricity_normed="0"
            traveltime="0.02" CO_perVeh="0.319055" CO2_perVeh="39.313887" HC_perVeh="0.002356" PMx_perVeh="0.000534" NOx_perVeh="0.014670" fuel_perVeh="0.016899" electricity_perVeh="0"/>
        <edge id=":1110673446_0" sampledSeconds="334.44" CO_abs="3031.398219" CO2_abs="235579.350043" HC_abs="19.405642" PMx_abs="4.462230" NOx_abs="97.431035" fuel_abs="101.264602" electricity_abs="0"
            CO_normed="7739.740135" CO2_normed="601479.191598" HC_normed="49.546320" PMx_normed="11.392928" NOx_normed="248.760089" fuel_normed="258.547920" electricity_normed="0"
            traveltime="0.02" CO_perVeh="0.206755" CO2_perVeh="16.067549" HC_perVeh="0.001324" PMx_perVeh="0.000304" NOx_perVeh="0.006645" fuel_perVeh="0.006907" electricity_perVeh="0"/>
        <edge id=":1110673451_0" sampledSeconds="37.38" CO_abs="546.269374" CO2_abs="39679.257628" HC_abs="3.401773" PMx_abs="0.595410" NOx_abs="15.564261" fuel_abs="17.056520" electricity_abs="0"
            CO_normed="1549.700351" CO2_normed="112565.269867" HC_normed="9.650419" PMx_normed="1.689106" NOx_normed="44.153933" fuel_normed="48.387290" electricity_normed="0"
            traveltime="0.03" CO_perVeh="0.391747" CO2_perVeh="28.455245" HC_perVeh="0.002440" PMx_perVeh="0.000427" NOx_perVeh="0.011162" fuel_perVeh="0.012232" electricity_perVeh="0"/>
        <edge id=":1110673464_0" sampledSeconds="323.12" CO_abs="529.526713" CO2_abs="42294.660398" HC_abs="3.372978" PMx_abs="0.554289" NOx_abs="16.000170" fuel_abs="18.180861" electricity_abs="0"
            CO_normed="28.724853" CO2_normed="2294.327910" HC_normed="0.182972" PMx_normed="0.030068" NOx_normed="0.867950" fuel_normed="0.986244" electricity_normed="0"
            traveltime="1.17" CO_perVeh="1.914169" CO2_perVeh="152.889617" HC_perVeh="0.012193" PMx_perVeh="0.002004" NOx_perVeh="0.057839" fuel_perVeh="0.065721" electricity_perVeh="0"/>
        <edge id=":1110673464_1" sampledSeconds="710.32" CO_abs="17016.699622" CO2_abs="2147866.153059" HC_abs="128.900560" PMx_abs="38.246138" NOx_abs="808.155968" fuel_abs="923.268983" electricity_abs="0"
            CO_normed="904.515461" CO2_normed="114168.915662" HC_normed="6.851655" PMx_normed="2.032957" NOx_normed="42.957188" fuel_normed="49.075972" electricity_normed="0"
            traveltime="0.70" CO_perVeh="16.787176" CO2_perVeh="2118.895401" HC_perVeh="0.127162" PMx_perVeh="0.037730" NOx_perVeh="0.797255" fuel_perVeh="0.910816" electricity_perVeh="0"/>
        <edge id=":1110673479_0" sampledSeconds="134.44" CO_abs="6548.883999" CO2_abs="455499.362880" HC_abs="40.511444" PMx_abs="7.910738" NOx_abs="185.891142" fuel_abs="195.799454" electricity_abs="0"
            CO_normed="16720.554891" CO2_normed="1162977.096715" HC_normed="103.433473" PMx_normed="20.197630" NOx_normed="474.615682" fuel_normed="499.913501" electricity_normed="0"
            traveltime="0.03" CO_perVeh="1.379584" CO2_perVeh="95.955206" HC_perVeh="0.008534" PMx_perVeh="0.001666" NOx_perVeh="0.039160" fuel_perVeh="0.041247" electricity_perVeh="0"/>
        <edge id=":1110673511_0" sampledSeconds="11.77" CO_abs="204.921243" CO2_abs="24408.390348" HC_abs="1.497038" PMx_abs="0.335609" NOx_abs="9.152048" fuel_abs="10.492145" electricity_abs="0"
            CO_normed="523.203172" CO2_normed="62319.294507" HC_normed="3.822225" PMx_normed="0.856874" NOx_normed="23.366932" fuel_normed="26.788455" electricity_normed="0"
            traveltime="0.02" CO_perVeh="0.405785" CO2_perVeh="48.333446" HC_perVeh="0.002964" PMx_perVeh="0.000665" NOx_perVeh="0.018123" fuel_perVeh="0.020777" electricity_perVeh="0"/>
        <edge id=":1110673517_0" sampledSeconds="17.20" CO_abs="652.713953" CO2_abs="45878.335718" HC_abs="4.060543" PMx_abs="0.852559" NOx_abs="19.042593" fuel_abs="19.721023" electricity_abs="0"
            CO_normed="1666.503709" CO2_normed="117136.176301" HC_normed="10.367345" PMx_normed="2.176747" NOx_normed="48.619387" fuel_normed="50.351549" electricity_normed="0"
            traveltime="0.03" CO_perVeh="1.047975" CO2_perVeh="73.660694" HC_perVeh="0.006519" PMx_perVeh="0.001369" NOx_perVeh="0.030574" fuel_perVeh="0.031663" electricity_perVeh="0"/>
        <edge id=":1110673534_0" sampledSeconds="475.68" CO_abs="2480.960519" CO2_abs="225027.233561" HC_abs="16.407487" PMx_abs="2.831309" NOx_abs="83.986344" fuel_abs="96.730557" electricity_abs="0"
            CO_normed="122.759056" CO2_normed="11134.449954" HC_normed="0.811850" PMx_normed="0.140094" NOx_normed="4.155683" fuel_normed="4.786272" electricity_normed="0"
            traveltime="1.43" CO_perVeh="7.474146" CO2_perVeh="677.917467" HC_perVeh="0.049429" PMx_perVeh="0.008530" NOx_perVeh="0.253017" fuel_perVeh="0.291411" electricity_perVeh="0"/>
        <edge id=":1110673534_1" sampledSeconds="184.15" CO_abs="2747.463037" CO2_abs="350600.902943" HC_abs="20.435179" PMx_abs="4.724529" NOx_abs="130.296758" fuel_abs="150.708652" electricity_abs="0"
            CO_normed="132.188428" CO2_normed="16868.427919" HC_normed="0.983196" PMx_normed="0.227311" NOx_normed="6.268956" fuel_normed="7.251031" electricity_normed="0"
            traveltime="1.22" CO_perVeh="18.242168" CO2_perVeh="2327.864127" HC_perVeh="0.135682" PMx_perVeh="0.031369" NOx_perVeh="0.865124" fuel_perVeh="1.000651" electricity_perVeh="0"/>
        <edge id=":1110673549_0" sampledSeconds="58.74" CO_abs="91.756524" CO2_abs="8749.925058" HC_abs="0.619968" PMx_abs="0.124661" NOx_abs="3.327660" fuel_abs="3.761233" electricity_abs="0"
            CO_normed="4.398097" CO2_normed="419.403646" HC_normed="0.029716" PMx_normed="0.005975" NOx_normed="0.159502" fuel_normed="0.180284" electricity_normed="0"
            traveltime="1.22" CO_perVeh="1.911669" CO2_perVeh="182.297235" HC_perVeh="0.012917" PMx_perVeh="0.002597" NOx_perVeh="0.069329" fuel_perVeh="0.078362" electricity_perVeh="0"/>
        <edge id=":1110673549_1" sampledSeconds="638.61" CO_abs="13725.577104" CO2_abs="1843298.085238" HC_abs="106.733239" PMx_abs="32.268870" NOx_abs="686.974424" fuel_abs="792.349598" electricity_abs="0"
            CO_normed="636.392736" CO2_normed="85465.368951" HC_normed="4.948736" PMx_normed="1.496161" NOx_normed="31.851887" fuel_normed="36.737656" electricity_normed="0"
            traveltime="0.80" CO_perVeh="17.277806" CO2_perVeh="2320.350349" HC_perVeh="0.134356" PMx_perVeh="0.040620" NOx_perVeh="0.864766" fuel_perVeh="0.997413" electricity_perVeh="0"/>
        <edge id=":1110673556_0" sampledSeconds="416.39" CO_abs="50845.717107" CO2_abs="2561838.029807" HC_abs="292.407598" PMx_abs="51.492563" NOx_abs="1101.961371" fuel_abs="1101.223373" electricity_abs="0"
            CO_normed="1807.223000" CO2_normed="91056.098211" HC_normed="10.393122" PMx_normed="1.830214" NOx_normed="39.167309" fuel_normed="39.141079" electricity_normed="0"
            traveltime="2.58" CO_perVeh="315.625419" CO2_perVeh="15902.641302" HC_perVeh="1.815124" PMx_perVeh="0.319641" NOx_perVeh="6.840439" fuel_perVeh="6.835858" electricity_perVeh="0"/>
        <edge id=":1110673556_2" sampledSeconds="250.51" CO_abs="24467.167136" CO2_abs="1050218.389980" HC_abs="136.061086" PMx_abs="20.215793" NOx_abs="447.640364" fuel_abs="451.447757" electricity_abs="0"
            CO_normed="909.306592" CO2_normed="39030.693672" HC_normed="5.056623" PMx_normed="0.751307" NOx_normed="16.636267" fuel_normed="16.777767" electricity_normed="0"
            traveltime="3.04" CO_perVeh="296.782049" CO2_perVeh="12738.947819" HC_perVeh="1.650395" PMx_perVeh="0.245214" NOx_perVeh="5.429792" fuel_perVeh="5.475975" electricity_perVeh="0"/>
        <edge id=":1110673556_3" sampledSeconds="405.05" CO_abs="34853.292542" CO2_abs="1244941.006056" HC_abs="187.690930" PMx_abs="23.806948" NOx_abs="531.242698" fuel_abs="535.156461" electricity_abs="0"
            CO_normed="2946.593705" CO2_normed="105250.754352" HC_normed="15.867910" PMx_normed="2.012705" NOx_normed="44.912726" fuel_normed="45.243607" electricity_normed="0"
            traveltime="1.74" CO_perVeh="149.446896" CO2_perVeh="5338.163363" HC_perVeh="0.804797" PMx_perVeh="0.102081" NOx_perVeh="2.277907" fuel_perVeh="2.294689" electricity_perVeh="0"/>
        <edge id=":1110673556_4" sampledSeconds="207.90" CO_abs="21780.350330" CO2_abs="878939.268587" HC_abs="119.817525" PMx_abs="17.224145" NOx_abs="377.140835" fuel_abs="377.822164" electricity_abs="0"
            CO_normed="1124.937392" CO2_normed="45396.498858" HC_normed="6.188478" PMx_normed="0.889613" NOx_normed="19.479018" fuel_normed="19.514208" electricity_normed="0"
            traveltime="2.39" CO_perVeh="249.947841" CO2_perVeh="10086.567426" HC_perVeh="1.375007" PMx_perVeh="0.197662" NOx_perVeh="4.328008" fuel_perVeh="4.335827" electricity_perVeh="0"/>
        <edge id=":1110673556_5" sampledSeconds="24.59" CO_abs="2075.983519" CO2_abs="82988.686947" HC_abs="11.397413" PMx_abs="1.606212" NOx_abs="35.478549" fuel_abs="35.673690" electricity_abs="0"
            CO_normed="149.446902" CO2_normed="5974.229583" HC_normed="0.820482" PMx_normed="0.115629" NOx_normed="2.554047" fuel_normed="2.568095" electricity_normed="0"
            traveltime="1.70" CO_perVeh="143.524786" CO2_perVeh="5737.489468" HC_perVeh="0.787969" PMx_perVeh="0.111047" NOx_perVeh="2.452838" fuel_perVeh="2.466329" electricity_perVeh="0"/>
        <edge id=":1110673556_6" sampledSeconds="306.76" CO_abs="36667.647431" CO2_abs="1883074.056595" HC_abs="211.757809" PMx_abs="37.888440" NOx_abs="809.476111" fuel_abs="809.451513" electricity_abs="0"
            CO_normed="1336.149268" CO2_normed="68618.201548" HC_normed="7.716340" PMx_normed="1.380634" NOx_normed="29.496872" fuel_normed="29.495976" electricity_normed="0"
            traveltime="2.43" CO_perVeh="290.378271" CO2_perVeh="14912.431732" HC_perVeh="1.676952" PMx_perVeh="0.300046" NOx_perVeh="6.410400" fuel_perVeh="6.410205" electricity_perVeh="0"/>
        <edge id=":1110673561_0" sampledSeconds="99.76" CO_abs="10163.581157" CO2_abs="719324.289650" HC_abs="63.616791" PMx_abs="14.719188" NOx_abs="305.350930" fuel_abs="309.203079" electricity_abs="0"
            CO_normed="465.324009" CO2_normed="32933.161765" HC_normed="2.912597" PMx_normed="0.673895" NOx_normed="13.980025" fuel_normed="14.156390" electricity_normed="0"
            traveltime="1.18" CO_perVeh="119.940122" CO2_perVeh="8488.724794" HC_perVeh="0.750740" PMx_perVeh="0.173701" NOx_perVeh="3.603437" fuel_perVeh="3.648896" electricity_perVeh="0"/>
        <edge id=":1110673561_1" sampledSeconds="1317.89" CO_abs="120268.354462" CO2_abs="8296743.543846" HC_abs="748.452967" PMx_abs="173.938978" NOx_abs="3551.600740" fuel_abs="3566.368884" electricity_abs="0"
            CO_normed="5368.324109" CO2_normed="370335.227370" HC_normed="33.408107" PMx_normed="7.763978" NOx_normed="158.530014" fuel_normed="159.189208" electricity_normed="0"
            traveltime="1.20" CO_perVeh="109.054076" CO2_perVeh="7523.123610" HC_perVeh="0.678664" PMx_perVeh="0.157720" NOx_perVeh="3.220436" fuel_perVeh="3.233827" electricity_perVeh="0"/>
        <edge id=":1110673562_0" sampledSeconds="104.85" CO_abs="1852.599438" CO2_abs="145703.039591" HC_abs="11.757825" PMx_abs="1.965468" NOx_abs="55.560593" fuel_abs="62.632110" electricity_abs="0"
            CO_normed="5255.601242" CO2_normed="413341.956286" HC_normed="33.355531" PMx_normed="5.575795" NOx_normed="157.618703" fuel_normed="177.679746" electricity_normed="0"
            traveltime="0.03" CO_perVeh="0.472236" CO2_perVeh="37.140368" HC_perVeh="0.002997" PMx_perVeh="0.000501" NOx_perVeh="0.014163" fuel_perVeh="0.015965" electricity_perVeh="0"/>
        <edge id=":1110673564_0" sampledSeconds="28.60" CO_abs="585.219250" CO2_abs="61419.466286" HC_abs="4.080683" PMx_abs="0.911068" NOx_abs="23.559464" fuel_abs="26.401602" electricity_abs="0"
            CO_normed="4482.530425" CO2_normed="470446.975811" HC_normed="31.256299" PMx_normed="6.978390" NOx_normed="180.455468" fuel_normed="202.225037" electricity_normed="0"
            traveltime="7.863119e-03" CO_perVeh="0.160885" CO2_perVeh="16.885077" HC_perVeh="0.001122" PMx_perVeh="0.000250" NOx_perVeh="0.006477" fuel_perVeh="0.007258" electricity_perVeh="0"/>
        <edge id=":1110673588_0" sampledSeconds="11.74" CO_abs="239.685006" CO2_abs="28241.763111" HC_abs="1.742716" PMx_abs="0.400695" NOx_abs="10.651639" fuel_abs="12.139936" electricity_abs="0"
            CO_normed="734.354062" CO2_normed="86527.955064" HC_normed="5.339386" PMx_normed="1.227662" NOx_normed="32.634809" fuel_normed="37.194697" electricity_normed="0"
            traveltime="0.02" CO_perVeh="0.399475" CO2_perVeh="47.069605" HC_perVeh="0.002905" PMx_perVeh="0.000668" NOx_perVeh="0.017753" fuel_perVeh="0.020233" electricity_perVeh="0"/>
        <edge id=":1110673601_0" sampledSeconds="29.78" CO_abs="510.220568" CO2_abs="61807.664489" HC_abs="3.751947" PMx_abs="0.859652" NOx_abs="23.206924" fuel_abs="26.568508" electricity_abs="0"
            CO_normed="1395.740155" CO2_normed="169078.717446" HC_normed="10.263686" PMx_normed="2.351630" NOx_normed="63.483986" fuel_normed="72.679808" electricity_normed="0"
            traveltime="0.02" CO_perVeh="0.378693" CO2_perVeh="45.874476" HC_perVeh="0.002785" PMx_perVeh="0.000638" NOx_perVeh="0.017224" fuel_perVeh="0.019720" electricity_perVeh="0"/>
        <edge id=":1110673617_0" sampledSeconds="237.97" CO_abs="6286.021387" CO2_abs="777839.585440" HC_abs="47.320823" PMx_abs="13.952604" NOx_abs="293.563111" fuel_abs="334.357440" electricity_abs="0"
            CO_normed="16049.416307" CO2_normed="1985973.409635" HC_normed="120.819123" PMx_normed="35.623669" NOx_normed="749.522837" fuel_normed="853.678571" electricity_normed="0"
            traveltime="0.01" CO_perVeh="0.385306" CO2_perVeh="47.678246" HC_perVeh="0.002901" PMx_perVeh="0.000855" NOx_perVeh="0.017994" fuel_perVeh="0.020495" electricity_perVeh="0"/>
        <edge id=":1110673621_0" sampledSeconds="25.61" CO_abs="369.574571" CO2_abs="49471.175110" HC_abs="2.807453" PMx_abs="0.634741" NOx_abs="18.170905" fuel_abs="21.265624" electricity_abs="0"
            CO_normed="1132.313578" CO2_normed="151571.259913" HC_normed="8.601558" PMx_normed="1.944739" NOx_normed="55.672561" fuel_normed="65.154251" electricity_normed="0"
            traveltime="0.02" CO_perVeh="0.279981" CO2_perVeh="37.478163" HC_perVeh="0.002127" PMx_perVeh="0.000481" NOx_perVeh="0.013766" fuel_perVeh="0.016110" electricity_perVeh="0"/>
        <edge id=":1110673630_0" sampledSeconds="53.91" CO_abs="237.016741" CO2_abs="22200.120353" HC_abs="1.572011" PMx_abs="0.259739" NOx_abs="8.154193" fuel_abs="9.543001" electricity_abs="0"
            CO_normed="12.948983" CO2_normed="1212.863588" HC_normed="0.085884" PMx_normed="0.014190" NOx_normed="0.445490" fuel_normed="0.521365" electricity_normed="0"
            traveltime="1.26" CO_perVeh="5.532390" CO2_perVeh="518.190076" HC_perVeh="0.036694" PMx_perVeh="0.006063" NOx_perVeh="0.190333" fuel_perVeh="0.222751" electricity_perVeh="0"/>
        <edge id=":1110673630_1" sampledSeconds="7.05" CO_abs="0" CO2_abs="0" HC_abs="0" PMx_abs="0" NOx_abs="0" fuel_abs="0" electricity_abs="0"
            CO_normed="0" CO2_normed="0" HC_normed="0" PMx_normed="0" NOx_normed="0" fuel_normed="0" electricity_normed="0"
            traveltime="1.00" CO_perVeh="0" CO2_perVeh="0" HC_perVeh="0" PMx_perVeh="0" NOx_perVeh="0" fuel_perVeh="0" electricity_perVeh="0"/>
        <edge id=":1110673650_0" sampledSeconds="143.16" CO_abs="2378.359908" CO2_abs="297407.671534" HC_abs="17.632601" PMx_abs="4.084140" NOx_abs="111.128860" fuel_abs="127.843034" electricity_abs="0"
            CO_normed="6072.408276" CO2_normed="759338.735832" HC_normed="45.019408" PMx_normed="10.427591" NOx_normed="283.733260" fuel_normed="326.407747" electricity_normed="0"
            traveltime="0.02" CO_perVeh="0.382245" CO2_perVeh="47.798745" HC_perVeh="0.002834" PMx_perVeh="0.000656" NOx_perVeh="0.017860" fuel_perVeh="0.020547" electricity_perVeh="0"/>
        <edge id=":1110673655_0" sampledSeconds="44.67" CO_abs="649.684647" CO2_abs="84828.720774" HC_abs="4.907984" PMx_abs="1.096500" NOx_abs="31.266885" fuel_abs="36.464378" electricity_abs="0"
            CO_normed="1658.769312" CO2_normed="216583.967933" HC_normed="12.531022" PMx_normed="2.799573" NOx_normed="79.830345" fuel_normed="93.100539" electricity_normed="0"
            traveltime="0.02" CO_perVeh="0.347704" CO2_perVeh="45.399369" HC_perVeh="0.002627" PMx_perVeh="0.000587" NOx_perVeh="0.016734" fuel_perVeh="0.019515" electricity_perVeh="0"/>
        <edge id=":1110673663_0" sampledSeconds="108.58" CO_abs="1954.690558" CO2_abs="220039.344687" HC_abs="13.981952" PMx_abs="3.176208" NOx_abs="83.519207" fuel_abs="94.585553" electricity_abs="0"
            CO_normed="91.404749" CO2_normed="10289.424582" HC_normed="0.653821" PMx_normed="0.148525" NOx_normed="3.905504" fuel_normed="4.422986" electricity_normed="0"
            traveltime="1.28" CO_perVeh="22.958763" CO2_perVeh="2584.465908" HC_perVeh="0.164225" PMx_perVeh="0.037306" NOx_perVeh="0.980972" fuel_perVeh="1.110952" electricity_perVeh="0"/>
        <edge id=":1110673663_1" sampledSeconds="153.98" CO_abs="2203.111664" CO2_abs="287325.979569" HC_abs="16.540887" PMx_abs="3.875145" NOx_abs="106.680912" fuel_abs="123.509379" electricity_abs="0"
            CO_normed="103.147297" CO2_normed="13452.290569" HC_normed="0.774426" PMx_normed="0.181430" NOx_normed="4.994685" fuel_normed="5.782575" electricity_normed="0"
            traveltime="1.25" CO_perVeh="17.851504" CO2_perVeh="2328.161965" HC_perVeh="0.134028" PMx_perVeh="0.031400" NOx_perVeh="0.864420" fuel_perVeh="1.000779" electricity_perVeh="0"/>
        <edge id=":1110673666_0" sampledSeconds="191.61" CO_abs="4419.312238" CO2_abs="355090.092755" HC_abs="28.238810" PMx_abs="4.879532" NOx_abs="135.874949" fuel_abs="152.639311" electricity_abs="0"