<?xml version="1.0" encoding="UTF-8"?>

<!-- generated on Mon Nov  9 23:43:14 2020 by Eclipse SUMO sumo Version 1.7.0
<configuration xmlns:xsi="http://www.w3.org/2001/XMLSchema-instance" xsi:noNamespaceSchemaLocation="http://sumo.dlr.de/xsd/sumoConfiguration.xsd">

    <input>
        <net-file value="../dataSets/Porto/6AM7AM_Routing_SaoBento/Porto.net.xml"/>
        <route-files value="../results/Porto/6AM7AM_Routing_SaoBento/cost_PMx-length/solution15/Porto.rou.xml"/>
        <additional-files value="moreOutputInfo.xml"/>
    </input>

    <output>
        <emission-output.precision value="6"/>
        <tripinfo-output value="../results/Porto/6AM7AM_Routing_SaoBento/cost_PMx-length/solution15/Porto-tripinfo"/>
    </output>

    <processing>
        <collision.action value="warn"/>
        <time-to-teleport value="-1"/>
    </processing>

    <emissions>
        <device.emissions.probability value="1"/>
    </emissions>

    <gui_only>
        <quit-on-end value="true"/>
        <start value="true"/>
    </gui_only>

</configuration>
-->

<meandata xmlns:xsi="http://www.w3.org/2001/XMLSchema-instance" xsi:noNamespaceSchemaLocation="http://sumo.dlr.de/xsd/meandata_file.xsd">
    <interval begin="0.00" end="4788.00" id="emissions-detector">
        <edge id=":1092997347_0" sampledSeconds="302.97" CO_abs="39047.761466" CO2_abs="1547227.607794" HC_abs="214.377817" PMx_abs="31.646365" NOx_abs="672.127509" fuel_abs="665.092214" electricity_abs="0"
            CO_normed="66725.498062" CO2_normed="2643929.610038" HC_normed="366.332565" PMx_normed="54.077862" NOx_normed="1148.543248" fuel_normed="1136.521214" electricity_normed="0"
            traveltime="0.08" CO_perVeh="9.679564" CO2_perVeh="383.542815" HC_perVeh="0.053142" PMx_perVeh="0.007845" NOx_perVeh="0.166614" fuel_perVeh="0.164870" electricity_perVeh="0"/>
        <edge id=":1103427051_0" sampledSeconds="11.05" CO_abs="881.018006" CO2_abs="49055.222935" HC_abs="5.178525" PMx_abs="0.976177" NOx_abs="21.031796" fuel_abs="21.086655" electricity_abs="0"
            CO_normed="2284.205358" CO2_normed="127184.918161" HC_normed="13.426304" PMx_normed="2.530922" NOx_normed="54.528899" fuel_normed="54.671131" electricity_normed="0"
            traveltime="0.03" CO_perVeh="2.413976" CO2_perVeh="134.410569" HC_perVeh="0.014189" PMx_perVeh="0.002675" NOx_perVeh="0.057627" fuel_perVeh="0.057777" electricity_perVeh="0"/>
        <edge id=":1105984386_0" sampledSeconds="22.87" CO_abs="500.489055" CO2_abs="39153.423888" HC_abs="3.170616" PMx_abs="0.524472" NOx_abs="14.923753" fuel_abs="16.830551" electricity_abs="0"
            CO_normed="38.754641" CO2_normed="3031.788319" HC_normed="0.245512" PMx_normed="0.040612" NOx_normed="1.155599" fuel_normed="1.303249" electricity_normed="0"
            traveltime="0.96" CO_perVeh="21.005138" CO2_perVeh="1643.238874" HC_perVeh="0.133068" PMx_perVeh="0.022012" NOx_perVeh="0.626338" fuel_perVeh="0.706365" electricity_perVeh="0"/>
        <edge id=":1105984390_0" sampledSeconds="23.32" CO_abs="1.527774" CO2_abs="128.312948" HC_abs="0.009891" PMx_abs="0.001754" NOx_abs="0.049016" fuel_abs="0.055157" electricity_abs="0"
            CO_normed="0.091457" CO2_normed="7.681202" HC_normed="0.000592" PMx_normed="0.000105" NOx_normed="0.002934" fuel_normed="0.003302" electricity_normed="0"
            traveltime="1.06" CO_perVeh="0.069284" CO2_perVeh="5.818929" HC_perVeh="0.000449" PMx_perVeh="0.000080" NOx_perVeh="0.002223" fuel_perVeh="0.002501" electricity_perVeh="0"/>
        <edge id=":1105984390_1" sampledSeconds="645.67" CO_abs="15332.979121" CO2_abs="1974326.532096" HC_abs="116.912892" PMx_abs="34.951904" NOx_abs="739.924347" fuel_abs="848.672458" electricity_abs="0"
            CO_normed="878.031663" CO2_normed="113058.342663" HC_normed="6.694930" PMx_normed="2.001495" NOx_normed="42.371218" fuel_normed="48.598598" electricity_normed="0"
            traveltime="0.64" CO_perVeh="15.097589" CO2_perVeh="1944.016876" HC_perVeh="0.115118" PMx_perVeh="0.034415" NOx_perVeh="0.728565" fuel_perVeh="0.835644" electricity_perVeh="0"/>
        <edge id=":1105984395_0" sampledSeconds="9.09" CO_abs="108.583435" CO2_abs="8272.569915" HC_abs="0.680792" PMx_abs="0.101051" NOx_abs="3.094255" fuel_abs="3.556077" electricity_abs="0"
            CO_normed="88.740957" CO2_normed="6760.844978" HC_normed="0.556385" PMx_normed="0.082585" NOx_normed="2.528812" fuel_normed="2.906241" electricity_normed="0"
            traveltime="0.09" CO_perVeh="1.101155" CO2_perVeh="83.892905" HC_perVeh="0.006904" PMx_perVeh="0.001025" NOx_perVeh="0.031379" fuel_perVeh="0.036063" electricity_perVeh="0"/>
        <edge id=":1105984398_0" sampledSeconds="23.68" CO_abs="1451.911037" CO2_abs="101346.245452" HC_abs="8.996050" PMx_abs="1.790480" NOx_abs="41.553598" fuel_abs="43.564312" electricity_abs="0"
            CO_normed="90.294660" CO2_normed="6302.744793" HC_normed="0.559466" PMx_normed="0.111350" NOx_normed="2.584227" fuel_normed="2.709274" electricity_normed="0"
            traveltime="1.10" CO_perVeh="67.662565" CO2_perVeh="4722.980093" HC_perVeh="0.419238" PMx_perVeh="0.083441" NOx_perVeh="1.936498" fuel_perVeh="2.030202" electricity_perVeh="0"/>
        <edge id=":1105984398_1" sampledSeconds="450.47" CO_abs="7869.171280" CO2_abs="931380.409656" HC_abs="57.173255" PMx_abs="13.294306" NOx_abs="351.734232" fuel_abs="400.360753" electricity_abs="0"
            CO_normed="473.712581" CO2_normed="56067.735973" HC_normed="3.441746" PMx_normed="0.800298" NOx_normed="21.173885" fuel_normed="24.101131" electricity_normed="0"
            traveltime="0.95" CO_perVeh="16.654145" CO2_perVeh="1971.153526" HC_perVeh="0.121000" PMx_perVeh="0.028136" NOx_perVeh="0.744403" fuel_perVeh="0.847315" electricity_perVeh="0"/>
        <edge id=":1106006327_0" sampledSeconds="38.11" CO_abs="5079.638619" CO2_abs="165415.126214" HC_abs="27.020213" PMx_abs="3.432829" NOx_abs="72.304194" fuel_abs="71.106134" electricity_abs="0"
            CO_normed="431.069657" CO2_normed="14037.502861" HC_normed="2.292997" PMx_normed="0.291318" NOx_normed="6.135898" fuel_normed="6.034228" electricity_normed="0"
            traveltime="2.07" CO_perVeh="275.566974" CO2_perVeh="8973.659186" HC_perVeh="1.465828" PMx_perVeh="0.186229" NOx_perVeh="3.922454" fuel_perVeh="3.857460" electricity_perVeh="0"/>
        <edge id=":1106006327_1" sampledSeconds="160.59" CO_abs="21745.771718" CO2_abs="729518.912249" HC_abs="116.212748" PMx_abs="15.219614" NOx_abs="319.282938" fuel_abs="313.593801" electricity_abs="0"
            CO_normed="1609.272077" CO2_normed="53987.250033" HC_normed="8.600197" PMx_normed="1.126311" NOx_normed="23.628185" fuel_normed="23.207167" electricity_normed="0"
            traveltime="2.28" CO_perVeh="308.709256" CO2_perVeh="10356.461196" HC_perVeh="1.649790" PMx_perVeh="0.216062" NOx_perVeh="4.532633" fuel_perVeh="4.451868" electricity_perVeh="0"/>
        <edge id=":1106006327_2" sampledSeconds="0.00" CO_abs="0" CO2_abs="0" HC_abs="0" PMx_abs="0" NOx_abs="0" fuel_abs="0" electricity_abs="0"
            CO_normed="0" CO2_normed="0" HC_normed="0" PMx_normed="0" NOx_normed="0" fuel_normed="0" electricity_normed="0"/>
        <edge id=":1106006327_3" sampledSeconds="0.00" CO_abs="0" CO2_abs="0" HC_abs="0" PMx_abs="0" NOx_abs="0" fuel_abs="0" electricity_abs="0"
            CO_normed="0" CO2_normed="0" HC_normed="0" PMx_normed="0" NOx_normed="0" fuel_normed="0" electricity_normed="0"/>
        <edge id=":1107381198_0" sampledSeconds="0.00" CO_abs="0" CO2_abs="0" HC_abs="0" PMx_abs="0" NOx_abs="0" fuel_abs="0" electricity_abs="0"
            CO_normed="0" CO2_normed="0" HC_normed="0" PMx_normed="0" NOx_normed="0" fuel_normed="0" electricity_normed="0"/>
        <edge id=":1107381198_1" sampledSeconds="36.33" CO_abs="1311.577630" CO2_abs="53583.868411" HC_abs="7.207208" PMx_abs="0.926539" NOx_abs="22.198721" fuel_abs="23.033817" electricity_abs="0"
            CO_normed="107.540741" CO2_normed="4393.524849" HC_normed="0.590944" PMx_normed="0.075970" NOx_normed="1.820149" fuel_normed="1.888622" electricity_normed="0"
            traveltime="1.50" CO_perVeh="54.001288" CO2_perVeh="2206.196450" HC_perVeh="0.296741" PMx_perVeh="0.038148" NOx_perVeh="0.913983" fuel_perVeh="0.948366" electricity_perVeh="0"/>
        <edge id=":1110338277_0" sampledSeconds="96.85" CO_abs="1377.143254" CO2_abs="174958.568051" HC_abs="10.284228" PMx_abs="2.354266" NOx_abs="65.094909" fuel_abs="75.207377" electricity_abs="0"
            CO_normed="3698.021628" CO2_normed="469813.555453" HC_normed="27.616078" PMx_normed="6.321874" NOx_normed="174.798360" fuel_normed="201.953213" electricity_normed="0"
            traveltime="0.02" CO_perVeh="0.310366" CO2_perVeh="39.430329" HC_perVeh="0.002318" PMx_perVeh="0.000531" NOx_perVeh="0.014670" fuel_perVeh="0.016949" electricity_perVeh="0"/>
        <edge id=":1110338293_0" sampledSeconds="123.41" CO_abs="6604.396415" CO2_abs="452667.789062" HC_abs="40.715680" PMx_abs="7.976300" NOx_abs="185.561143" fuel_abs="194.582182" electricity_abs="0"
            CO_normed="16552.371967" CO2_normed="1134505.736997" HC_normed="102.044312" PMx_normed="19.990728" NOx_normed="465.065521" fuel_normed="487.674641" electricity_normed="0"
            traveltime="0.03" CO_perVeh="1.514828" CO2_perVeh="103.826856" HC_perVeh="0.009339" PMx_perVeh="0.001829" NOx_perVeh="0.042562" fuel_perVeh="0.044631" electricity_perVeh="0"/>
        <edge id=":1110338295_0" sampledSeconds="0.00" CO_abs="0" CO2_abs="0" HC_abs="0" PMx_abs="0" NOx_abs="0" fuel_abs="0" electricity_abs="0"
            CO_normed="0" CO2_normed="0" HC_normed="0" PMx_normed="0" NOx_normed="0" fuel_normed="0" electricity_normed="0"/>
        <edge id=":1110673403_0" sampledSeconds="143.86" CO_abs="2000.065506" CO2_abs="256867.708172" HC_abs="14.947712" PMx_abs="3.433877" NOx_abs="95.336177" fuel_abs="110.416708" electricity_abs="0"
            CO_normed="5012.695504" CO2_normed="643778.717223" HC_normed="37.462938" PMx_normed="8.606207" NOx_normed="238.937787" fuel_normed="276.733605" electricity_normed="0"
            traveltime="0.02" CO_perVeh="0.321125" CO2_perVeh="41.242034" HC_perVeh="0.002400" PMx_perVeh="0.000551" NOx_perVeh="0.015307" fuel_perVeh="0.017728" electricity_perVeh="0"/>
        <edge id=":1110673412_0" sampledSeconds="253.22" CO_abs="45239.392124" CO2_abs="3081719.404224" HC_abs="281.418860" PMx_abs="67.750155" NOx_abs="1324.767721" fuel_abs="1324.679387" electricity_abs="0"
            CO_normed="117291.657050" CO2_normed="7989938.823499" HC_normed="729.631476" PMx_normed="175.655055" NOx_normed="3434.710193" fuel_normed="3434.481170" electricity_normed="0"
            traveltime="0.02" CO_perVeh="2.780752" CO2_perVeh="189.425542" HC_perVeh="0.017298" PMx_perVeh="0.004164" NOx_perVeh="0.081430" fuel_perVeh="0.081425" electricity_perVeh="0"/>
        <edge id=":1110673414_0" sampledSeconds="0.00" CO_abs="0" CO2_abs="0" HC_abs="0" PMx_abs="0" NOx_abs="0" fuel_abs="0" electricity_abs="0"
            CO_normed="0" CO2_normed="0" HC_normed="0" PMx_normed="0" NOx_normed="0" fuel_normed="0" electricity_normed="0"/>
        <edge id=":1110673414_1" sampledSeconds="233.52" CO_abs="14272.581271" CO2_abs="534208.512305" HC_abs="77.354712" PMx_abs="9.718275" NOx_abs="224.652745" fuel_abs="229.637682" electricity_abs="0"
            CO_normed="1188.401341" CO2_normed="44480.679465" HC_normed="6.440912" PMx_normed="0.809189" NOx_normed="18.705630" fuel_normed="19.120699" electricity_normed="0"
            traveltime="1.61" CO_perVeh="98.450393" CO2_perVeh="3684.900211" HC_perVeh="0.533583" PMx_perVeh="0.067035" NOx_perVeh="1.549625" fuel_perVeh="1.584011" electricity_perVeh="0"/>
        <edge id=":1110673417_0" sampledSeconds="29.55" CO_abs="618.547048" CO2_abs="65906.595108" HC_abs="4.323752" PMx_abs="0.967378" NOx_abs="25.193040" fuel_abs="28.330435" electricity_abs="0"
            CO_normed="1660.974887" CO2_normed="176977.967529" HC_normed="11.610506" PMx_normed="2.597685" NOx_normed="67.650484" fuel_normed="76.075281" electricity_normed="0"
            traveltime="0.02" CO_perVeh="0.459094" CO2_perVeh="48.916757" HC_perVeh="0.003209" PMx_perVeh="0.000718" NOx_perVeh="0.018699" fuel_perVeh="0.021027" electricity_perVeh="0"/>
        <edge id=":1110673446_0" sampledSeconds="334.16" CO_abs="3622.043028" CO2_abs="290029.625420" HC_abs="23.366026" PMx_abs="5.347017" NOx_abs="118.860850" fuel_abs="124.670387" electricity_abs="0"
            CO_normed="9077.802075" CO2_normed="726891.291779" HC_normed="58.561470" PMx_normed="13.401046" NOx_normed="297.896867" fuel_normed="312.457109" electricity_normed="0"
            traveltime="0.02" CO_perVeh="0.247110" CO2_perVeh="19.786973" HC_perVeh="0.001594" PMx_perVeh="0.000365" NOx_perVeh="0.008109" fuel_perVeh="0.008506" electricity_perVeh="0"/>
        <edge id=":1110673451_0" sampledSeconds="37.24" CO_abs="346.309589" CO2_abs="27133.782513" HC_abs="2.193967" PMx_abs="0.358500" NOx_abs="10.305512" fuel_abs="11.663777" electricity_abs="0"
            CO_normed="964.382036" CO2_normed="75560.519389" HC_normed="6.109627" PMx_normed="0.998328" NOx_normed="28.698167" fuel_normed="32.480582" electricity_normed="0"
            traveltime="0.03" CO_perVeh="0.248350" CO2_perVeh="19.458489" HC_perVeh="0.001573" PMx_perVeh="0.000257" NOx_perVeh="0.007390" fuel_perVeh="0.008364" electricity_perVeh="0"/>
        <edge id=":1110673464_0" sampledSeconds="321.33" CO_abs="548.800702" CO2_abs="42843.680044" HC_abs="3.478271" PMx_abs="0.592402" NOx_abs="16.443497" fuel_abs="18.416824" electricity_abs="0"
            CO_normed="29.223237" CO2_normed="2281.394707" HC_normed="0.185215" PMx_normed="0.031545" NOx_normed="0.875604" fuel_normed="0.980682" electricity_normed="0"
            traveltime="1.16" CO_perVeh="1.983842" CO2_perVeh="154.874251" HC_perVeh="0.012573" PMx_perVeh="0.002141" NOx_perVeh="0.059441" fuel_perVeh="0.066574" electricity_perVeh="0"/>
        <edge id=":1110673464_1" sampledSeconds="708.91" CO_abs="14967.309843" CO2_abs="2010090.871523" HC_abs="116.162340" PMx_abs="35.186918" NOx_abs="748.775448" fuel_abs="864.046189" electricity_abs="0"
            CO_normed="780.958808" CO2_normed="104881.784868" HC_normed="6.061076" PMx_normed="1.835970" NOx_normed="39.069331" fuel_normed="45.083885" electricity_normed="0"
            traveltime="0.70" CO_perVeh="14.781709" CO2_perVeh="1985.164890" HC_perVeh="0.114722" PMx_perVeh="0.034751" NOx_perVeh="0.739490" fuel_perVeh="0.853332" electricity_perVeh="0"/>
        <edge id=":1110673479_0" sampledSeconds="133.33" CO_abs="6646.823593" CO2_abs="464539.774398" HC_abs="41.165451" PMx_abs="8.036472" NOx_abs="189.318657" fuel_abs="199.685562" electricity_abs="0"
            CO_normed="16658.705747" CO2_normed="1164260.086211" HC_normed="103.171556" PMx_normed="20.141533" NOx_normed="474.482851" fuel_normed="500.465069" electricity_normed="0"
            traveltime="0.03" CO_perVeh="1.400229" CO2_perVeh="97.860595" HC_perVeh="0.008672" PMx_perVeh="0.001693" NOx_perVeh="0.039882" fuel_perVeh="0.042066" electricity_perVeh="0"/>
        <edge id=":1110673511_0" sampledSeconds="11.79" CO_abs="199.820003" CO2_abs="19819.481046" HC_abs="1.371810" PMx_abs="0.302695" NOx_abs="7.677947" fuel_abs="8.519542" electricity_abs="0"
            CO_normed="500.802011" CO2_normed="49672.884827" HC_normed="3.438121" PMx_normed="0.758634" NOx_normed="19.242974" fuel_normed="21.352236" electricity_normed="0"
            traveltime="0.02" CO_perVeh="0.395683" CO2_perVeh="39.246497" HC_perVeh="0.002716" PMx_perVeh="0.000599" NOx_perVeh="0.015204" fuel_perVeh="0.016870" electricity_perVeh="0"/>
        <edge id=":1110673517_0" sampledSeconds="17.25" CO_abs="699.397225" CO2_abs="50909.273259" HC_abs="4.378391" PMx_abs="0.867343" NOx_abs="20.599317" fuel_abs="21.883697" electricity_abs="0"
            CO_normed="1752.875251" CO2_normed="127592.163557" HC_normed="10.973410" PMx_normed="2.173791" NOx_normed="51.627362" fuel_normed="54.846359" electricity_normed="0"
            traveltime="0.03" CO_perVeh="1.122928" CO2_perVeh="81.738196" HC_perVeh="0.007030" PMx_perVeh="0.001393" NOx_perVeh="0.033074" fuel_perVeh="0.035136" electricity_perVeh="0"/>
        <edge id=":1110673534_0" sampledSeconds="476.71" CO_abs="2892.573145" CO2_abs="252914.100897" HC_abs="18.944424" PMx_abs="3.378614" NOx_abs="95.771880" fuel_abs="108.717827" electricity_abs="0"
            CO_normed="140.495286" CO2_normed="12284.300912" HC_normed="0.920150" PMx_normed="0.164103" NOx_normed="4.651740" fuel_normed="5.280538" electricity_normed="0"
            traveltime="1.44" CO_perVeh="8.714164" CO2_perVeh="761.928819" HC_perVeh="0.057072" PMx_perVeh="0.010178" NOx_perVeh="0.288522" fuel_perVeh="0.327523" electricity_perVeh="0"/>
        <edge id=":1110673534_1" sampledSeconds="184.91" CO_abs="3011.002651" CO2_abs="371880.481929" HC_abs="22.188261" PMx_abs="5.039964" NOx_abs="138.633486" fuel_abs="159.855880" electricity_abs="0"
            CO_normed="142.205513" CO2_normed="17563.403575" HC_normed="1.047921" PMx_normed="0.238031" NOx_normed="6.547469" fuel_normed="7.549773" electricity_normed="0"
            traveltime="1.23" CO_perVeh="19.992039" CO2_perVeh="2469.160637" HC_perVeh="0.147323" PMx_perVeh="0.033464" NOx_perVeh="0.920479" fuel_perVeh="1.061389" electricity_perVeh="0"/>
        <edge id=":1110673549_0" sampledSeconds="61.30" CO_abs="49.340988" CO2_abs="3167.935663" HC_abs="0.296390" PMx_abs="0.042154" NOx_abs="1.212463" fuel_abs="1.361781" electricity_abs="0"
            CO_normed="2.321557" CO2_normed="149.055476" HC_normed="0.013946" PMx_normed="0.001983" NOx_normed="0.057048" fuel_normed="0.064074" electricity_normed="0"
            traveltime="1.28" CO_perVeh="1.027977" CO2_perVeh="66.001241" HC_perVeh="0.006175" PMx_perVeh="0.000878" NOx_perVeh="0.025261" fuel_perVeh="0.028372" electricity_perVeh="0"/>
        <edge id=":1110673549_1" sampledSeconds="638.54" CO_abs="14793.060889" CO2_abs="1944382.507070" HC_abs="113.613525" PMx_abs="34.136976" NOx_abs="726.741515" fuel_abs="835.801064" electricity_abs="0"
            CO_normed="673.281003" CO2_normed="88495.262387" HC_normed="5.170926" PMx_normed="1.553686" NOx_normed="33.076404" fuel_normed="38.040064" electricity_normed="0"
            traveltime="0.80" CO_perVeh="18.621541" CO2_perVeh="2447.593401" HC_perVeh="0.143017" PMx_perVeh="0.042972" NOx_perVeh="0.914824" fuel_perVeh="1.052108" electricity_perVeh="0"/>
        <edge id=":1110673556_0" sampledSeconds="414.26" CO_abs="51307.491715" CO2_abs="2581773.823738" HC_abs="295.063355" PMx_abs="52.321366" NOx_abs="1113.387393" fuel_abs="1109.792303" electricity_abs="0"
            CO_normed="1790.118860" CO2_normed="90078.112581" HC_normed="10.294763" PMx_normed="1.825493" NOx_normed="38.846096" fuel_normed="38.720664" electricity_normed="0"
            traveltime="2.57" CO_perVeh="318.491890" CO2_perVeh="16026.392989" HC_perVeh="1.831609" PMx_perVeh="0.324786" NOx_perVeh="6.911366" fuel_perVeh="6.889049" electricity_perVeh="0"/>
        <edge id=":1110673556_2" sampledSeconds="248.35" CO_abs="24269.168894" CO2_abs="1042930.277376" HC_abs="135.013241" PMx_abs="20.197361" NOx_abs="445.293040" fuel_abs="448.314676" electricity_abs="0"
            CO_normed="885.370956" CO2_normed="38047.457705" HC_normed="4.925459" PMx_normed="0.736826" NOx_normed="16.244871" fuel_normed="16.355104" electricity_normed="0"
            traveltime="3.01" CO_perVeh="294.380368" CO2_perVeh="12650.544409" HC_perVeh="1.637685" PMx_perVeh="0.244990" NOx_perVeh="5.401319" fuel_perVeh="5.437971" electricity_perVeh="0"/>
        <edge id=":1110673556_3" sampledSeconds="384.69" CO_abs="32868.333021" CO2_abs="1169202.805872" HC_abs="176.914086" PMx_abs="22.511408" NOx_abs="499.925829" fuel_abs="502.599147" electricity_abs="0"
            CO_normed="2727.707765" CO2_normed="97030.888967" HC_normed="14.681911" PMx_normed="1.868198" NOx_normed="41.488309" fuel_normed="41.710165" electricity_normed="0"
            traveltime="1.75" CO_perVeh="149.744095" CO2_perVeh="5326.744620" HC_perVeh="0.805999" PMx_perVeh="0.102559" NOx_perVeh="2.277601" fuel_perVeh="2.289780" electricity_perVeh="0"/>
        <edge id=":1110673556_4" sampledSeconds="159.52" CO_abs="16931.307829" CO2_abs="681808.448197" HC_abs="93.120566" PMx_abs="13.431611" NOx_abs="293.010863" fuel_abs="293.083134" electricity_abs="0"
            CO_normed="858.415822" CO2_normed="34567.628522" HC_normed="4.721205" PMx_normed="0.680982" NOx_normed="14.855625" fuel_normed="14.859289" electricity_normed="0"
            traveltime="2.42" CO_perVeh="256.477319" CO2_perVeh="10328.109588" HC_perVeh="1.410601" PMx_perVeh="0.203464" NOx_perVeh="4.438561" fuel_perVeh="4.439656" electricity_perVeh="0"/>
        <edge id=":1110673556_5" sampledSeconds="25.64" CO_abs="2182.564446" CO2_abs="85162.933713" HC_abs="11.929094" PMx_abs="1.633920" NOx_abs="36.328959" fuel_abs="36.608381" electricity_abs="0"
            CO_normed="154.231757" CO2_normed="6018.071521" HC_normed="0.842974" PMx_normed="0.115462" NOx_normed="2.567200" fuel_normed="2.586945" electricity_normed="0"
            traveltime="1.77" CO_perVeh="150.893344" CO2_perVeh="5887.807763" HC_perVeh="0.824727" PMx_perVeh="0.112962" NOx_perVeh="2.511632" fuel_perVeh="2.530950" electricity_perVeh="0"/>
        <edge id=":1110673556_6" sampledSeconds="309.61" CO_abs="36596.796497" CO2_abs="1875688.489530" HC_abs="211.234465" PMx_abs="37.650436" NOx_abs="806.092052" fuel_abs="806.276940" electricity_abs="0"
            CO_normed="1309.057485" CO2_normed="67092.868572" HC_normed="7.555800" PMx_normed="1.346746" NOx_normed="28.833694" fuel_normed="28.840307" electricity_normed="0"
            traveltime="2.45" CO_perVeh="289.817189" CO2_perVeh="14853.943982" HC_perVeh="1.672807" PMx_perVeh="0.298161" NOx_perVeh="6.383601" fuel_perVeh="6.385065" electricity_perVeh="0"/>
        <edge id=":1110673561_0" sampledSeconds="103.07" CO_abs="8745.997397" CO2_abs="634852.722453" HC_abs="55.095819" PMx_abs="12.692112" NOx_abs="267.379803" fuel_abs="272.893083" electricity_abs="0"
            CO_normed="393.062636" CO2_normed="28531.552542" HC_normed="2.476116" PMx_normed="0.570409" NOx_normed="12.016584" fuel_normed="12.264362" electricity_normed="0"
            traveltime="1.22" CO_perVeh="103.212043" CO2_perVeh="7491.935271" HC_perVeh="0.650189" PMx_perVeh="0.149780" NOx_perVeh="3.155365" fuel_perVeh="3.220428" electricity_perVeh="0"/>
        <edge id=":1110673561_1" sampledSeconds="1316.02" CO_abs="123805.180993" CO2_abs="8545683.856064" HC_abs="770.543113" PMx_abs="179.015612" NOx_abs="3656.792437" fuel_abs="3673.376487" electricity_abs="0"
            CO_normed="5424.627171" CO2_normed="374436.259182" HC_normed="33.761989" PMx_normed="7.843718" NOx_normed="160.225408" fuel_normed="160.952052" electricity_normed="0"
            traveltime="1.19" CO_perVeh="112.203091" CO2_perVeh="7744.846660" HC_perVeh="0.698334" PMx_perVeh="0.162240" NOx_perVeh="3.314105" fuel_perVeh="3.329135" electricity_perVeh="0"/>
        <edge id=":1110673562_0" sampledSeconds="104.07" CO_abs="2020.098957" CO2_abs="170008.362640" HC_abs="13.059514" PMx_abs="2.182670" NOx_abs="63.942256" fuel_abs="73.080096" electricity_abs="0"
            CO_normed="5625.449616" CO2_normed="473429.024338" HC_normed="36.367345" PMx_normed="6.078168" NOx_normed="178.062534" fuel_normed="203.509039" electricity_normed="0"
            traveltime="0.03" CO_perVeh="0.514932" CO2_perVeh="43.335906" HC_perVeh="0.003329" PMx_perVeh="0.000556" NOx_perVeh="0.016299" fuel_perVeh="0.018628" electricity_perVeh="0"/>
        <edge id=":1110673564_0" sampledSeconds="28.64" CO_abs="558.519840" CO2_abs="64005.114623" HC_abs="3.996458" PMx_abs="0.889482" NOx_abs="24.084240" fuel_abs="27.513115" electricity_abs="0"
            CO_normed="4199.397293" CO2_normed="481241.463329" HC_normed="30.048559" PMx_normed="6.687833" NOx_normed="181.084513" fuel_normed="206.865527" electricity_normed="0"
            traveltime="7.874139e-03" CO_perVeh="0.153545" CO2_perVeh="17.595908" HC_perVeh="0.001099" PMx_perVeh="0.000245" NOx_perVeh="0.006621" fuel_perVeh="0.007564" electricity_perVeh="0"/>
        <edge id=":1110673588_0" sampledSeconds="11.69" CO_abs="201.720531" CO2_abs="21904.862522" HC_abs="1.426743" PMx_abs="0.316432" NOx_abs="8.327986" fuel_abs="9.415974" electricity_abs="0"
            CO_normed="606.678289" CO2_normed="65879.285781" HC_normed="4.290955" PMx_normed="0.951674" NOx_normed="25.046576" fuel_normed="28.318717" electricity_normed="0"
            traveltime="0.02" CO_perVeh="0.336201" CO2_perVeh="36.508104" HC_perVeh="0.002378" PMx_perVeh="0.000527" NOx_perVeh="0.013880" fuel_perVeh="0.015693" electricity_perVeh="0"/>
        <edge id=":1110673601_0" sampledSeconds="29.66" CO_abs="588.703045" CO2_abs="65066.372340" HC_abs="4.175843" PMx_abs="0.946577" NOx_abs="24.766265" fuel_abs="27.969260" electricity_abs="0"
            CO_normed="1580.835243" CO2_normed="174721.730237" HC_normed="11.213326" PMx_normed="2.541828" NOx_normed="66.504471" fuel_normed="75.105423" electricity_normed="0"
            traveltime="0.02" CO_perVeh="0.436943" CO2_perVeh="48.293133" HC_perVeh="0.003099" PMx_perVeh="0.000703" NOx_perVeh="0.018382" fuel_perVeh="0.020759" electricity_perVeh="0"/>
        <edge id=":1110673617_0" sampledSeconds="238.06" CO_abs="5838.867670" CO2_abs="724492.182433" HC_abs="43.875285" PMx_abs="12.961704" NOx_abs="273.145283" fuel_abs="311.425869" electricity_abs="0"
            CO_normed="14633.753559" CO2_normed="1815769.880784" HC_normed="109.963120" PMx_normed="32.485473" NOx_normed="684.574643" fuel_normed="780.515962" electricity_normed="0"
            traveltime="0.01" CO_perVeh="0.357893" CO2_perVeh="44.407743" HC_perVeh="0.002689" PMx_perVeh="0.000794" NOx_perVeh="0.016742" fuel_perVeh="0.019089" electricity_perVeh="0"/>
        <edge id=":1110673621_0" sampledSeconds="25.80" CO_abs="488.164084" CO2_abs="53358.278005" HC_abs="3.447731" PMx_abs="0.767208" NOx_abs="20.258359" fuel_abs="22.936467" electricity_abs="0"
            CO_normed="1468.162657" CO2_normed="160476.024076" HC_normed="10.369117" PMx_normed="2.307393" NOx_normed="60.927395" fuel_normed="68.981855" electricity_normed="0"
            traveltime="0.02" CO_perVeh="0.369821" CO2_perVeh="40.422938" HC_perVeh="0.002612" PMx_perVeh="0.000581" NOx_perVeh="0.015347" fuel_perVeh="0.017376" electricity_perVeh="0"/>
        <edge id=":1110673630_0" sampledSeconds="53.64" CO_abs="189.026842" CO2_abs="15789.191656" HC_abs="1.219886" PMx_abs="0.205903" NOx_abs="5.963903" fuel_abs="6.787166" electricity_abs="0"
            CO_normed="10.137336" CO2_normed="846.759820" HC_normed="0.065421" PMx_normed="0.011042" NOx_normed="0.319839" fuel_normed="0.363989" electricity_normed="0"
            traveltime="1.25" CO_perVeh="4.412221" CO2_perVeh="368.547661" HC_perVeh="0.028474" PMx_perVeh="0.004806" NOx_perVeh="0.139208" fuel_perVeh="0.158424" electricity_perVeh="0"/>
        <edge id=":1110673630_1" sampledSeconds="7.42" CO_abs="56.494968" CO2_abs="4616.923836" HC_abs="0.364197" PMx_abs="0.070322" NOx_abs="1.808394" fuel_abs="1.984624" electricity_abs="0"
            CO_normed="3.693689" CO2_normed="301.858374" HC_normed="0.023811" PMx_normed="0.004598" NOx_normed="0.118234" fuel_normed="0.129756" electricity_normed="0"
            traveltime="1.05" CO_perVeh="7.996211" CO2_perVeh="653.472297" HC_perVeh="0.051548" PMx_perVeh="0.009953" NOx_perVeh="0.255957" fuel_perVeh="0.280901" electricity_perVeh="0"/>
        <edge id=":1110673650_0" sampledSeconds="143.02" CO_abs="2167.101080" CO2_abs="271276.821223" HC_abs="16.092155" PMx_abs="3.737968" NOx_abs="101.445942" fuel_abs="116.610464" electricity_abs="0"
            CO_normed="5431.331027" CO2_normed="679891.782514" HC_normed="40.331217" PMx_normed="9.368342" NOx_normed="254.250481" fuel_normed="292.256802" electricity_normed="0"
            traveltime="0.02" CO_perVeh="0.349357" CO2_perVeh="43.732371" HC_perVeh="0.002594" PMx_perVeh="0.000603" NOx_perVeh="0.016354" fuel_perVeh="0.018799" electricity_perVeh="0"/>
        <edge id=":1110673655_0" sampledSeconds="44.96" CO_abs="680.400307" CO2_abs="83229.758413" HC_abs="5.012262" PMx_abs="1.102116" NOx_abs="30.936130" fuel_abs="35.777037" electricity_abs="0"
            CO_normed="1705.263928" CO2_normed="208595.885747" HC_normed="12.562061" PMx_normed="2.762195" NOx_normed="77.534161" fuel_normed="89.666759" electricity_normed="0"
            traveltime="0.02" CO_perVeh="0.364143" CO2_perVeh="44.543622" HC_perVeh="0.002683" PMx_perVeh="0.000590" NOx_perVeh="0.016557" fuel_perVeh="0.019147" electricity_perVeh="0"/>
        <edge id=":1110673663_0" sampledSeconds="108.26" CO_abs="1671.425971" CO2_abs="211738.613689" HC_abs="12.486058" PMx_abs="2.840814" NOx_abs="78.681644" fuel_abs="91.017606" electricity_abs="0"
            CO_normed="76.722299" CO2_normed="9719.289694" HC_normed="0.573139" PMx_normed="0.130400" NOx_normed="3.611669" fuel_normed="4.177918" electricity_normed="0"
            traveltime="1.27" CO_perVeh="19.631687" CO2_perVeh="2486.969907" HC_perVeh="0.146655" PMx_perVeh="0.033367" NOx_perVeh="0.924153" fuel_perVeh="1.069045" electricity_perVeh="0"/>
        <edge id=":1110673663_1" sampledSeconds="154.59" CO_abs="2275.960134" CO2_abs="309745.326227" HC_abs="17.419962" PMx_abs="4.085601" NOx_abs="114.338499" fuel_abs="133.146589" electricity_abs="0"
            CO_normed="104.599525" CO2_normed="14235.404812" HC_normed="0.800594" PMx_normed="0.187768" NOx_normed="5.254816" fuel_normed="6.119206" electricity_normed="0"
            traveltime="1.25" CO_perVeh="18.396908" CO2_perVeh="2503.715387" HC_perVeh="0.140808" PMx_perVeh="0.033024" NOx_perVeh="0.924214" fuel_perVeh="1.076243" electricity_perVeh="0"/>
        <edge id=":1110673666_0" sampledSeconds="191.11" CO_abs="4257.139701" CO2_abs="349798.888679" HC_abs="27.364173" PMx_abs="4.689920" NOx_abs="132.962762" fuel_abs="150.364940" electricity_abs="0"