<?xml version="1.0" encoding="UTF-8"?>

<!-- generated on Sun Nov  1 00:20:33 2020 by Eclipse SUMO sumo Version 1.7.0
<configuration xmlns:xsi="http://www.w3.org/2001/XMLSchema-instance" xsi:noNamespaceSchemaLocation="http://sumo.dlr.de/xsd/sumoConfiguration.xsd">

    <input>
        <net-file value="../dataSets/Porto/8AM9AM_Routing_SaoBento/Porto.net.xml"/>
        <route-files value="../results/Porto/8AM9AM_Routing_SaoBento_fewerv/cost_co-ttime/solution9/Porto.rou.xml"/>
        <additional-files value="moreOutputInfo.xml"/>
    </input>

    <output>
        <emission-output.precision value="6"/>
        <tripinfo-output value="../results/Porto/8AM9AM_Routing_SaoBento_fewerv/cost_co-ttime/solution9/Porto-tripinfo"/>
    </output>

    <processing>
        <collision.action value="warn"/>
        <time-to-teleport value="-1"/>
    </processing>

    <emissions>
        <device.emissions.probability value="1"/>
    </emissions>

    <gui_only>
        <quit-on-end value="true"/>
        <start value="true"/>
    </gui_only>

</configuration>
-->

<meandata xmlns:xsi="http://www.w3.org/2001/XMLSchema-instance" xsi:noNamespaceSchemaLocation="http://sumo.dlr.de/xsd/meandata_file.xsd">
    <interval begin="0.00" end="8561.00" id="emissions-detector">
        <edge id=":1092997347_0" sampledSeconds="585.47" CO_abs="71122.139055" CO2_abs="3061596.110024" HC_abs="396.305900" PMx_abs="61.977348" NOx_abs="1324.735634" fuel_abs="1316.055432" electricity_abs="0"
            CO_normed="67972.013836" CO2_normed="2925992.608151" HC_normed="378.752812" PMx_normed="59.232261" NOx_normed="1266.060752" fuel_normed="1257.765011" electricity_normed="0"
            traveltime="0.07" CO_perVeh="8.153893" CO2_perVeh="351.000770" HC_perVeh="0.045435" PMx_perVeh="0.007105" NOx_perVeh="0.151876" fuel_perVeh="0.150881" electricity_perVeh="0"/>
        <edge id=":1103427051_0" sampledSeconds="19.67" CO_abs="1571.406587" CO2_abs="87222.717114" HC_abs="9.224680" PMx_abs="1.708182" NOx_abs="37.211939" fuel_abs="37.493208" electricity_abs="0"
            CO_normed="2278.602529" CO2_normed="126476.435483" HC_normed="13.376155" PMx_normed="2.476933" NOx_normed="53.958803" fuel_normed="54.366654" electricity_normed="0"
            traveltime="0.03" CO_perVeh="2.443736" CO2_perVeh="135.642364" HC_perVeh="0.014346" PMx_perVeh="0.002656" NOx_perVeh="0.057869" fuel_perVeh="0.058307" electricity_perVeh="0"/>
        <edge id=":1105984386_0" sampledSeconds="10.54" CO_abs="181.516594" CO2_abs="12744.030251" HC_abs="1.114618" PMx_abs="0.164150" NOx_abs="4.835120" fuel_abs="5.478192" electricity_abs="0"
            CO_normed="7.860951" CO2_normed="551.906574" HC_normed="0.048271" PMx_normed="0.007109" NOx_normed="0.209395" fuel_normed="0.237244" electricity_normed="0"
            traveltime="1.01" CO_perVeh="17.412825" CO2_perVeh="1222.530466" HC_perVeh="0.106925" PMx_perVeh="0.015747" NOx_perVeh="0.463831" fuel_perVeh="0.525521" electricity_perVeh="0"/>
        <edge id=":1105984390_0" sampledSeconds="11.04" CO_abs="55.150469" CO2_abs="3600.732837" HC_abs="0.330305" PMx_abs="0.035585" NOx_abs="1.297538" fuel_abs="1.547843" electricity_abs="0"
            CO_normed="1.846450" CO2_normed="120.553345" HC_normed="0.011059" PMx_normed="0.001191" NOx_normed="0.043442" fuel_normed="0.051822" electricity_normed="0"
            traveltime="1.14" CO_perVeh="5.716678" CO2_perVeh="373.237637" HC_perVeh="0.034238" PMx_perVeh="0.003689" NOx_perVeh="0.134498" fuel_perVeh="0.160443" electricity_perVeh="0"/>
        <edge id=":1105984390_1" sampledSeconds="2401.50" CO_abs="63238.131138" CO2_abs="7426519.624279" HC_abs="465.675263" PMx_abs="134.593154" NOx_abs="2832.555904" fuel_abs="3192.317365" electricity_abs="0"
            CO_normed="2025.313719" CO2_normed="237847.510780" HC_normed="14.914079" PMx_normed="4.310585" NOx_normed="90.717645" fuel_normed="102.239646" electricity_normed="0"
            traveltime="0.65" CO_perVeh="17.080184" CO2_perVeh="2005.851881" HC_perVeh="0.125776" PMx_perVeh="0.036353" NOx_perVeh="0.765054" fuel_perVeh="0.862223" electricity_perVeh="0"/>
        <edge id=":1105984395_0" sampledSeconds="4.18" CO_abs="71.751381" CO2_abs="4932.903489" HC_abs="0.437576" PMx_abs="0.060305" NOx_abs="1.849611" fuel_abs="2.120481" electricity_abs="0"
            CO_normed="32.795967" CO2_normed="2254.720924" HC_normed="0.200006" PMx_normed="0.027564" NOx_normed="0.845416" fuel_normed="0.969225" electricity_normed="0"
            traveltime="0.10" CO_perVeh="1.663171" CO2_perVeh="114.342938" HC_perVeh="0.010143" PMx_perVeh="0.001398" NOx_perVeh="0.042873" fuel_perVeh="0.049152" electricity_perVeh="0"/>
        <edge id=":1105984398_0" sampledSeconds="10.79" CO_abs="673.397778" CO2_abs="45535.033698" HC_abs="4.138068" PMx_abs="0.811470" NOx_abs="18.744381" fuel_abs="19.573521" electricity_abs="0"
            CO_normed="23.421968" CO2_normed="1583.789156" HC_normed="0.143929" PMx_normed="0.028224" NOx_normed="0.651963" fuel_normed="0.680802" electricity_normed="0"
            traveltime="1.16" CO_perVeh="72.132492" CO2_perVeh="4877.585803" HC_perVeh="0.443258" PMx_perVeh="0.086922" NOx_perVeh="2.007846" fuel_perVeh="2.096661" electricity_perVeh="0"/>
        <edge id=":1105984398_1" sampledSeconds="644.68" CO_abs="12464.575737" CO2_abs="1437609.039184" HC_abs="89.832599" PMx_abs="20.952363" NOx_abs="546.016527" fuel_abs="617.966462" electricity_abs="0"
            CO_normed="419.655642" CO2_normed="48401.225745" HC_normed="3.024472" PMx_normed="0.705421" NOx_normed="18.383210" fuel_normed="20.805611" electricity_normed="0"
            traveltime="0.95" CO_perVeh="18.398872" CO2_perVeh="2122.044500" HC_perVeh="0.132601" PMx_perVeh="0.030928" NOx_perVeh="0.805971" fuel_perVeh="0.912176" electricity_perVeh="0"/>
        <edge id=":1106006327_0" sampledSeconds="66.43" CO_abs="8924.167592" CO2_abs="292385.845012" HC_abs="47.517406" PMx_abs="6.085587" NOx_abs="127.915056" fuel_abs="125.686298" electricity_abs="0"
            CO_normed="423.557132" CO2_normed="13877.160956" HC_normed="2.255262" PMx_normed="0.288833" NOx_normed="6.071080" fuel_normed="5.965299" electricity_normed="0"
            traveltime="2.06" CO_perVeh="276.645761" CO2_perVeh="9063.848665" HC_perVeh="1.473021" PMx_perVeh="0.188651" NOx_perVeh="3.965317" fuel_perVeh="3.896227" electricity_perVeh="0"/>
        <edge id=":1106006327_1" sampledSeconds="686.91" CO_abs="92639.380929" CO2_abs="3079212.075856" HC_abs="494.363777" PMx_abs="64.164150" NOx_abs="1347.168060" fuel_abs="1323.642773" electricity_abs="0"
            CO_normed="3834.245707" CO2_normed="127445.321453" HC_normed="20.461192" PMx_normed="2.655686" NOx_normed="55.757857" fuel_normed="54.784170" electricity_normed="0"
            traveltime="2.31" CO_perVeh="310.967979" CO2_perVeh="10336.169626" HC_perVeh="1.659460" PMx_perVeh="0.215384" NOx_perVeh="4.522117" fuel_perVeh="4.443148" electricity_perVeh="0"/>
        <edge id=":1106006327_2" sampledSeconds="0.00" CO_abs="0" CO2_abs="0" HC_abs="0" PMx_abs="0" NOx_abs="0" fuel_abs="0" electricity_abs="0"
            CO_normed="0" CO2_normed="0" HC_normed="0" PMx_normed="0" NOx_normed="0" fuel_normed="0" electricity_normed="0"/>
        <edge id=":1106006327_3" sampledSeconds="0.00" CO_abs="0" CO2_abs="0" HC_abs="0" PMx_abs="0" NOx_abs="0" fuel_abs="0" electricity_abs="0"
            CO_normed="0" CO2_normed="0" HC_normed="0" PMx_normed="0" NOx_normed="0" fuel_normed="0" electricity_normed="0"/>
        <edge id=":1107381198_0" sampledSeconds="0.00" CO_abs="0" CO2_abs="0" HC_abs="0" PMx_abs="0" NOx_abs="0" fuel_abs="0" electricity_abs="0"
            CO_normed="0" CO2_normed="0" HC_normed="0" PMx_normed="0" NOx_normed="0" fuel_normed="0" electricity_normed="0"/>
        <edge id=":1107381198_1" sampledSeconds="104.13" CO_abs="4816.954577" CO2_abs="189917.937131" HC_abs="26.313762" PMx_abs="3.328599" NOx_abs="79.015123" fuel_abs="81.639101" electricity_abs="0"
            CO_normed="220.892626" CO2_normed="8709.127577" HC_normed="1.206679" PMx_normed="0.152641" NOx_normed="3.623422" fuel_normed="3.743750" electricity_normed="0"
            traveltime="1.56" CO_perVeh="72.119046" CO2_perVeh="2843.435677" HC_perVeh="0.393967" PMx_perVeh="0.049836" NOx_perVeh="1.183008" fuel_perVeh="1.222294" electricity_perVeh="0"/>
        <edge id=":1110338277_0" sampledSeconds="161.05" CO_abs="2614.876434" CO2_abs="314525.301644" HC_abs="19.114330" PMx_abs="4.326776" NOx_abs="117.890626" fuel_abs="135.201227" electricity_abs="0"
            CO_normed="3927.092614" CO2_normed="472362.660369" HC_normed="28.706422" PMx_normed="6.498070" NOx_normed="177.051352" fuel_normed="203.048883" electricity_normed="0"
            traveltime="0.02" CO_perVeh="0.354180" CO2_perVeh="42.601887" HC_perVeh="0.002589" PMx_perVeh="0.000586" NOx_perVeh="0.015968" fuel_perVeh="0.018313" electricity_perVeh="0"/>
        <edge id=":1110338293_0" sampledSeconds="6546.22" CO_abs="621020.708031" CO2_abs="10849298.852279" HC_abs="3081.577422" PMx_abs="259.188033" NOx_abs="4905.554355" fuel_abs="4663.931484" electricity_abs="0"
            CO_normed="870488.085080" CO2_normed="15207520.876925" HC_normed="4319.463738" PMx_normed="363.305267" NOx_normed="6876.142069" fuel_normed="6537.457984" electricity_normed="0"
            traveltime="0.44" CO_perVeh="41.511488" CO2_perVeh="725.210173" HC_perVeh="0.205985" PMx_perVeh="0.017325" NOx_perVeh="0.327907" fuel_perVeh="0.311756" electricity_perVeh="0"/>
        <edge id=":1110338295_0" sampledSeconds="0.00" CO_abs="0" CO2_abs="0" HC_abs="0" PMx_abs="0" NOx_abs="0" fuel_abs="0" electricity_abs="0"
            CO_normed="0" CO2_normed="0" HC_normed="0" PMx_normed="0" NOx_normed="0" fuel_normed="0" electricity_normed="0"/>
        <edge id=":1110673403_0" sampledSeconds="200.87" CO_abs="3259.113139" CO2_abs="393379.848762" HC_abs="23.860881" PMx_abs="5.488156" NOx_abs="147.727906" fuel_abs="169.097381" electricity_abs="0"
            CO_normed="4568.316513" CO2_normed="551402.661505" HC_normed="33.445927" PMx_normed="7.692777" NOx_normed="207.071004" fuel_normed="237.024713" electricity_normed="0"
            traveltime="0.02" CO_perVeh="0.376675" CO2_perVeh="45.465277" HC_perVeh="0.002758" PMx_perVeh="0.000634" NOx_perVeh="0.017074" fuel_perVeh="0.019544" electricity_perVeh="0"/>
        <edge id=":1110673412_0" sampledSeconds="957.76" CO_abs="168808.782391" CO2_abs="11535394.969591" HC_abs="1050.899715" PMx_abs="253.260327" NOx_abs="4955.472096" fuel_abs="4958.498319" electricity_abs="0"
            CO_normed="244779.499900" CO2_normed="16726785.015660" HC_normed="1523.846704" PMx_normed="367.237624" NOx_normed="7185.633142" fuel_normed="7190.021286" electricity_normed="0"
            traveltime="0.02" CO_perVeh="2.744193" CO2_perVeh="187.521940" HC_perVeh="0.017084" PMx_perVeh="0.004117" NOx_perVeh="0.080557" fuel_perVeh="0.080606" electricity_perVeh="0"/>
        <edge id=":1110673414_0" sampledSeconds="0.00" CO_abs="0" CO2_abs="0" HC_abs="0" PMx_abs="0" NOx_abs="0" fuel_abs="0" electricity_abs="0"
            CO_normed="0" CO2_normed="0" HC_normed="0" PMx_normed="0" NOx_normed="0" fuel_normed="0" electricity_normed="0"/>
        <edge id=":1110673414_1" sampledSeconds="54.99" CO_abs="3500.412521" CO2_abs="132404.187410" HC_abs="19.019747" PMx_abs="2.485222" NOx_abs="56.164438" fuel_abs="56.915813" electricity_abs="0"
            CO_normed="163.008211" CO2_normed="6165.836065" HC_normed="0.885717" PMx_normed="0.115733" NOx_normed="2.615482" fuel_normed="2.650472" electricity_normed="0"
            traveltime="1.57" CO_perVeh="99.730943" CO2_perVeh="3772.353797" HC_perVeh="0.541895" PMx_perVeh="0.070807" NOx_perVeh="1.600192" fuel_perVeh="1.621600" electricity_perVeh="0"/>
        <edge id=":1110673417_0" sampledSeconds="28.71" CO_abs="497.772823" CO2_abs="59710.115047" HC_abs="3.639856" PMx_abs="0.815531" NOx_abs="22.327837" fuel_abs="25.666885" electricity_abs="0"
            CO_normed="747.568777" CO2_normed="89674.276274" HC_normed="5.466434" PMx_normed="1.224786" NOx_normed="33.532554" fuel_normed="38.547227" electricity_normed="0"
            traveltime="0.02" CO_perVeh="0.379576" CO2_perVeh="45.531829" HC_perVeh="0.002776" PMx_perVeh="0.000622" NOx_perVeh="0.017026" fuel_perVeh="0.019572" electricity_perVeh="0"/>
        <edge id=":1110673446_0" sampledSeconds="1328.84" CO_abs="14540.039773" CO2_abs="1172478.389294" HC_abs="93.994826" PMx_abs="21.474548" NOx_abs="479.572502" fuel_abs="503.994629" electricity_abs="0"
            CO_normed="20380.852385" CO2_normed="1643469.299325" HC_normed="131.753055" PMx_normed="30.100990" NOx_normed="672.219370" fuel_normed="706.451997" electricity_normed="0"
            traveltime="0.02" CO_perVeh="0.249409" CO2_perVeh="20.111826" HC_perVeh="0.001612" PMx_perVeh="0.000368" NOx_perVeh="0.008226" fuel_perVeh="0.008645" electricity_perVeh="0"/>
        <edge id=":1110673451_0" sampledSeconds="36.26" CO_abs="302.125614" CO2_abs="21743.037741" HC_abs="1.875921" PMx_abs="0.323201" NOx_abs="8.519441" fuel_abs="9.346465" electricity_abs="0"
            CO_normed="470.545674" CO2_normed="33863.703993" HC_normed="2.921655" PMx_normed="0.503369" NOx_normed="13.268608" fuel_normed="14.556656" electricity_normed="0"
            traveltime="0.03" CO_perVeh="0.222600" CO2_perVeh="16.019812" HC_perVeh="0.001382" PMx_perVeh="0.000238" NOx_perVeh="0.006277" fuel_perVeh="0.006886" electricity_perVeh="0"/>
        <edge id=":1110673464_0" sampledSeconds="1022.93" CO_abs="3397.555651" CO2_abs="244103.541639" HC_abs="21.085303" PMx_abs="3.618679" NOx_abs="95.511573" fuel_abs="104.930406" electricity_abs="0"
            CO_normed="101.183544" CO2_normed="7269.715039" HC_normed="0.627947" PMx_normed="0.107769" NOx_normed="2.844457" fuel_normed="3.124961" electricity_normed="0"
            traveltime="1.21" CO_perVeh="4.029026" CO2_perVeh="289.472637" HC_perVeh="0.025004" PMx_perVeh="0.004291" NOx_perVeh="0.113263" fuel_perVeh="0.124433" electricity_perVeh="0"/>
        <edge id=":1110673464_1" sampledSeconds="2605.32" CO_abs="64016.234855" CO2_abs="7782572.110496" HC_abs="477.134290" PMx_abs="139.144741" NOx_abs="2952.964143" fuel_abs="3345.369098" electricity_abs="0"
            CO_normed="1868.117334" CO2_normed="227110.480583" HC_normed="13.923700" PMx_normed="4.060512" NOx_normed="86.173195" fuel_normed="97.624329" electricity_normed="0"
            traveltime="0.72" CO_perVeh="17.646230" CO2_perVeh="2145.284833" HC_perVeh="0.131523" PMx_perVeh="0.038356" NOx_perVeh="0.813992" fuel_perVeh="0.922159" electricity_perVeh="0"/>
        <edge id=":1110673479_0" sampledSeconds="134.95" CO_abs="6140.781720" CO2_abs="425852.876001" HC_abs="37.958967" PMx_abs="7.405944" NOx_abs="173.839905" fuel_abs="183.055715" electricity_abs="0"
            CO_normed="8607.566948" CO2_normed="596920.279409" HC_normed="53.207290" PMx_normed="10.380952" NOx_normed="243.672335" fuel_normed="256.590186" electricity_normed="0"
            traveltime="0.03" CO_perVeh="1.298217" CO2_perVeh="90.029148" HC_perVeh="0.008025" PMx_perVeh="0.001566" NOx_perVeh="0.036751" fuel_perVeh="0.038700" electricity_perVeh="0"/>
        <edge id=":1110673511_0" sampledSeconds="63.34" CO_abs="817.492412" CO2_abs="100760.696529" HC_abs="6.019150" PMx_abs="1.308390" NOx_abs="37.288630" fuel_abs="43.312894" electricity_abs="0"
            CO_normed="1145.883536" CO2_normed="141236.813264" HC_normed="8.437075" PMx_normed="1.833977" NOx_normed="52.267674" fuel_normed="60.711918" electricity_normed="0"
            traveltime="0.02" CO_perVeh="0.313316" CO2_perVeh="38.617961" HC_perVeh="0.002307" PMx_perVeh="0.000501" NOx_perVeh="0.014291" fuel_perVeh="0.016600" electricity_perVeh="0"/>
        <edge id=":1110673517_0" sampledSeconds="182.78" CO_abs="8140.935785" CO2_abs="575363.317893" HC_abs="50.598630" PMx_abs="10.077747" NOx_abs="235.097446" fuel_abs="247.323563" electricity_abs="0"
            CO_normed="11411.193718" CO2_normed="806489.874397" HC_normed="70.924374" PMx_normed="14.126033" NOx_normed="329.537362" fuel_normed="346.674777" electricity_normed="0"
            traveltime="0.03" CO_perVeh="1.246443" CO2_perVeh="88.092781" HC_perVeh="0.007747" PMx_perVeh="0.001543" NOx_perVeh="0.035995" fuel_perVeh="0.037867" electricity_perVeh="0"/>
        <edge id=":1110673534_0" sampledSeconds="735.16" CO_abs="6147.863130" CO2_abs="505200.027656" HC_abs="39.580830" PMx_abs="7.141587" NOx_abs="194.335897" fuel_abs="217.165290" electricity_abs="0"
            CO_normed="167.005678" CO2_normed="13723.674632" HC_normed="1.075207" PMx_normed="0.194000" NOx_normed="5.279102" fuel_normed="5.899259" electricity_normed="0"
            traveltime="1.45" CO_perVeh="12.124603" CO2_perVeh="996.338044" HC_perVeh="0.078060" PMx_perVeh="0.014084" NOx_perVeh="0.383263" fuel_perVeh="0.428286" electricity_perVeh="0"/>
        <edge id=":1110673534_1" sampledSeconds="200.14" CO_abs="2775.118777" CO2_abs="373270.110283" HC_abs="21.123897" PMx_abs="4.935891" NOx_abs="137.764903" fuel_abs="160.453258" electricity_abs="0"
            CO_normed="73.302117" CO2_normed="9859.574102" HC_normed="0.557968" PMx_normed="0.130377" NOx_normed="3.638929" fuel_normed="4.238220" electricity_normed="0"
            traveltime="1.22" CO_perVeh="16.963428" CO2_perVeh="2281.682738" HC_perVeh="0.129124" PMx_perVeh="0.030172" NOx_perVeh="0.842114" fuel_perVeh="0.980800" electricity_perVeh="0"/>
        <edge id=":1110673549_0" sampledSeconds="652.62" CO_abs="1440.019925" CO2_abs="139700.203453" HC_abs="9.695988" PMx_abs="1.855235" NOx_abs="52.168432" fuel_abs="60.051563" electricity_abs="0"
            CO_normed="37.893937" CO2_normed="3676.192692" HC_normed="0.255149" PMx_normed="0.048820" NOx_normed="1.372806" fuel_normed="1.580249" electricity_normed="0"
            traveltime="1.30" CO_perVeh="2.860978" CO2_perVeh="277.551146" HC_perVeh="0.019264" PMx_perVeh="0.003686" NOx_perVeh="0.103646" fuel_perVeh="0.119308" electricity_perVeh="0"/>
        <edge id=":1110673549_1" sampledSeconds="3200.28" CO_abs="69090.854210" CO2_abs="9101161.875584" HC_abs="531.309052" PMx_abs="159.654722" NOx_abs="3402.283831" fuel_abs="3912.172984" electricity_abs="0"
            CO_normed="1758.686877" CO2_normed="231667.333335" HC_normed="13.524312" PMx_normed="4.063963" NOx_normed="86.604110" fuel_normed="99.583185" electricity_normed="0"
            traveltime="0.81" CO_perVeh="17.426144" CO2_perVeh="2295.501407" HC_perVeh="0.134007" PMx_perVeh="0.040268" NOx_perVeh="0.858126" fuel_perVeh="0.986731" electricity_perVeh="0"/>
        <edge id=":1110673556_0" sampledSeconds="468.60" CO_abs="57282.814720" CO2_abs="2743690.684996" HC_abs="325.975553" PMx_abs="55.365685" NOx_abs="1182.955540" fuel_abs="1179.395910" electricity_abs="0"
            CO_normed="1117.776768" CO2_normed="53538.460395" HC_normed="6.360859" PMx_normed="1.080367" NOx_normed="23.083367" fuel_normed="23.013907" electricity_normed="0"
            traveltime="2.76" CO_perVeh="337.676685" CO2_perVeh="16173.792779" HC_perVeh="1.921595" PMx_perVeh="0.326375" NOx_perVeh="6.973409" fuel_perVeh="6.952425" electricity_perVeh="0"/>
        <edge id=":1110673556_2" sampledSeconds="168.81" CO_abs="16115.104387" CO2_abs="707775.664679" HC_abs="90.013402" PMx_abs="13.668347" NOx_abs="301.900869" fuel_abs="304.244659" electricity_abs="0"
            CO_normed="328.801004" CO2_normed="14440.945808" HC_normed="1.836569" PMx_normed="0.278879" NOx_normed="6.159768" fuel_normed="6.207589" electricity_normed="0"
            traveltime="2.92" CO_perVeh="278.653183" CO2_perVeh="12238.452622" HC_perVeh="1.556460" PMx_perVeh="0.236345" NOx_perVeh="5.220297" fuel_perVeh="5.260825" electricity_perVeh="0"/>
        <edge id=":1110673556_3" sampledSeconds="352.24" CO_abs="35966.184289" CO2_abs="1249349.500727" HC_abs="192.995542" PMx_abs="24.741606" NOx_abs="538.577307" fuel_abs="537.051070" electricity_abs="0"
            CO_normed="1669.337584" CO2_normed="57987.415628" HC_normed="8.957712" PMx_normed="1.148359" NOx_normed="24.997574" fuel_normed="24.926735" electricity_normed="0"
            traveltime="1.83" CO_perVeh="187.265744" CO2_perVeh="6505.009297" HC_perVeh="1.004873" PMx_perVeh="0.128823" NOx_perVeh="2.804220" fuel_perVeh="2.796273" electricity_perVeh="0"/>
        <edge id=":1110673556_4" sampledSeconds="79.05" CO_abs="9518.006878" CO2_abs="364362.124548" HC_abs="51.915751" PMx_abs="7.320645" NOx_abs="157.567727" fuel_abs="156.625391" electricity_abs="0"
            CO_normed="269.887560" CO2_normed="10331.659350" HC_normed="1.472096" PMx_normed="0.207580" NOx_normed="4.467907" fuel_normed="4.441187" electricity_normed="0"
            traveltime="2.61" CO_perVeh="314.850449" CO2_perVeh="12052.899322" HC_perVeh="1.717345" PMx_perVeh="0.242163" NOx_perVeh="5.212254" fuel_perVeh="5.181082" electricity_perVeh="0"/>
        <edge id=":1110673556_5" sampledSeconds="21.88" CO_abs="1039.928059" CO2_abs="48244.973202" HC_abs="5.853414" PMx_abs="0.840533" NOx_abs="19.982875" fuel_abs="20.738689" electricity_abs="0"
            CO_normed="41.099797" CO2_normed="1906.726688" HC_normed="0.231337" PMx_normed="0.033219" NOx_normed="0.789759" fuel_normed="0.819630" electricity_normed="0"
            traveltime="1.51" CO_perVeh="71.896261" CO2_perVeh="3335.454937" HC_perVeh="0.404681" PMx_perVeh="0.058111" NOx_perVeh="1.381532" fuel_perVeh="1.433786" electricity_perVeh="0"/>
        <edge id=":1110673556_6" sampledSeconds="489.89" CO_abs="58478.439093" CO2_abs="2794686.421157" HC_abs="332.597308" PMx_abs="56.229562" NOx_abs="1203.699207" fuel_abs="1201.317190" electricity_abs="0"
            CO_normed="1169.879320" CO2_normed="55908.569042" HC_normed="6.653712" PMx_normed="1.124890" NOx_normed="24.080376" fuel_normed="24.032723" electricity_normed="0"
            traveltime="2.70" CO_perVeh="322.294096" CO2_perVeh="15402.444853" HC_perVeh="1.833054" PMx_perVeh="0.309900" NOx_perVeh="6.633986" fuel_perVeh="6.620858" electricity_perVeh="0"/>
        <edge id=":1110673561_0" sampledSeconds="121.12" CO_abs="11651.066759" CO2_abs="818617.901872" HC_abs="72.749830" PMx_abs="16.652536" NOx_abs="347.338555" fuel_abs="351.884823" electricity_abs="0"
            CO_normed="292.851703" CO2_normed="20576.111303" HC_normed="1.828580" PMx_normed="0.418565" NOx_normed="8.730418" fuel_normed="8.844690" electricity_normed="0"
            traveltime="1.23" CO_perVeh="117.896694" CO2_perVeh="8283.562876" HC_perVeh="0.736153" PMx_perVeh="0.168506" NOx_perVeh="3.514705" fuel_perVeh="3.560709" electricity_perVeh="0"/>
        <edge id=":1110673561_1" sampledSeconds="5252.28" CO_abs="490284.352767" CO2_abs="33959540.190496" HC_abs="3054.048902" PMx_abs="709.516618" NOx_abs="14517.500284" fuel_abs="14597.566725" electricity_abs="0"
            CO_normed="12014.584420" CO2_normed="832190.055010" HC_normed="74.840505" PMx_normed="17.386945" NOx_normed="355.756270" fuel_normed="357.718326" electricity_normed="0"
            traveltime="1.19" CO_perVeh="111.333242" CO2_perVeh="7711.495753" HC_perVeh="0.693510" PMx_perVeh="0.161116" NOx_perVeh="3.296618" fuel_perVeh="3.314800" electricity_perVeh="0"/>
        <edge id=":1110673562_0" sampledSeconds="301.59" CO_abs="6876.631080" CO2_abs="515166.994910" HC_abs="43.063294" PMx_abs="7.060797" NOx_abs="197.611627" fuel_abs="221.450460" electricity_abs="0"
            CO_normed="10710.012195" CO2_normed="802347.069906" HC_normed="67.068946" PMx_normed="10.996842" NOx_normed="307.770318" fuel_normed="344.898120" electricity_normed="0"
            traveltime="0.03" CO_perVeh="0.616432" CO2_perVeh="46.180376" HC_perVeh="0.003860" PMx_perVeh="0.000633" NOx_perVeh="0.017714" fuel_perVeh="0.019851" electricity_perVeh="0"/>
        <edge id=":1110673564_0" sampledSeconds="27.84" CO_abs="396.840251" CO2_abs="47175.018145" HC_abs="2.883101" PMx_abs="0.648954" NOx_abs="17.661016" fuel_abs="20.278566" electricity_abs="0"
            CO_normed="1668.759380" CO2_normed="198376.434205" HC_normed="12.123776" PMx_normed="2.728925" NOx_normed="74.266625" fuel_normed="85.273725" electricity_normed="0"
            traveltime="7.864222e-03" CO_perVeh="0.112086" CO2_perVeh="13.324394" HC_perVeh="0.000814" PMx_perVeh="0.000183" NOx_perVeh="0.004988" fuel_perVeh="0.005728" electricity_perVeh="0"/>
        <edge id=":1110673588_0" sampledSeconds="62.84" CO_abs="1021.557715" CO2_abs="118081.976307" HC_abs="7.344463" PMx_abs="1.564037" NOx_abs="43.987506" fuel_abs="50.758600" electricity_abs="0"
            CO_normed="1718.307568" CO2_normed="198619.373767" HC_normed="12.353728" PMx_normed="2.630783" NOx_normed="73.989031" fuel_normed="85.378325" electricity_normed="0"
            traveltime="0.02" CO_perVeh="0.329535" CO2_perVeh="38.090960" HC_perVeh="0.002369" PMx_perVeh="0.000505" NOx_perVeh="0.014190" fuel_perVeh="0.016374" electricity_perVeh="0"/>
        <edge id=":1110673601_0" sampledSeconds="28.82" CO_abs="461.874838" CO2_abs="54690.000825" HC_abs="3.353501" PMx_abs="0.754718" NOx_abs="20.507137" fuel_abs="23.508939" electricity_abs="0"
            CO_normed="693.656206" CO2_normed="82134.932071" HC_normed="5.036379" PMx_normed="1.133456" NOx_normed="30.798177" fuel_normed="35.306364" electricity_normed="0"
            traveltime="0.02" CO_perVeh="0.352202" CO2_perVeh="41.703751" HC_perVeh="0.002557" PMx_perVeh="0.000576" NOx_perVeh="0.015638" fuel_perVeh="0.017927" electricity_perVeh="0"/>
        <edge id=":1110673617_0" sampledSeconds="853.38" CO_abs="31042.928962" CO2_abs="3151801.279277" HC_abs="216.859278" PMx_abs="59.422784" NOx_abs="1235.128236" fuel_abs="1354.811823" electricity_abs="0"
            CO_normed="43513.041413" CO2_normed="4417896.898882" HC_normed="303.972823" PMx_normed="83.293238" NOx_normed="1731.285929" fuel_normed="1899.047059" electricity_normed="0"
            traveltime="0.02" CO_perVeh="0.549895" CO2_perVeh="55.831079" HC_perVeh="0.003841" PMx_perVeh="0.001053" NOx_perVeh="0.021879" fuel_perVeh="0.023999" electricity_perVeh="0"/>
        <edge id=":1110673621_0" sampledSeconds="30.65" CO_abs="711.756943" CO2_abs="73402.458346" HC_abs="4.920473" PMx_abs="1.071055" NOx_abs="28.074679" fuel_abs="31.552611" electricity_abs="0"
            CO_normed="1197.208268" CO2_normed="123466.347411" HC_normed="8.276464" PMx_normed="1.801564" NOx_normed="47.222915" fuel_normed="53.072958" electricity_normed="0"
            traveltime="0.02" CO_perVeh="0.462180" CO2_perVeh="47.663934" HC_perVeh="0.003195" PMx_perVeh="0.000695" NOx_perVeh="0.018230" fuel_perVeh="0.020489" electricity_perVeh="0"/>
        <edge id=":1110673630_0" sampledSeconds="287.86" CO_abs="1503.485553" CO2_abs="128872.121633" HC_abs="9.788952" PMx_abs="1.727385" NOx_abs="48.901886" fuel_abs="55.397068" electricity_abs="0"
            CO_normed="45.095089" CO2_normed="3865.351281" HC_normed="0.293607" PMx_normed="0.051811" NOx_normed="1.466748" fuel_normed="1.661563" electricity_normed="0"
            traveltime="1.30" CO_perVeh="6.765111" CO2_perVeh="579.875328" HC_perVeh="0.044047" PMx_perVeh="0.007773" NOx_perVeh="0.220040" fuel_perVeh="0.249266" electricity_perVeh="0"/>
        <edge id=":1110673630_1" sampledSeconds="340.60" CO_abs="1653.274918" CO2_abs="129928.539807" HC_abs="10.495624" PMx_abs="1.779381" NOx_abs="49.720153" fuel_abs="55.851222" electricity_abs="0"
            CO_normed="60.454028" CO2_normed="4750.996616" HC_normed="0.383785" PMx_normed="0.065065" NOx_normed="1.818078" fuel_normed="2.042269" electricity_normed="0"
            traveltime="1.09" CO_perVeh="5.270316" CO2_perVeh="414.186725" HC_perVeh="0.033458" PMx_perVeh="0.005672" NOx_perVeh="0.158498" fuel_perVeh="0.178043" electricity_perVeh="0"/>
        <edge id=":1110673650_0" sampledSeconds="200.65" CO_abs="2958.191343" CO2_abs="372953.315886" HC_abs="21.975181" PMx_abs="5.074623" NOx_abs="138.963340" fuel_abs="160.316982" electricity_abs="0"
            CO_normed="4146.512804" CO2_normed="522770.679900" HC_normed="30.802730" PMx_normed="7.113126" NOx_normed="194.785665" fuel_normed="224.717181" electricity_normed="0"
            traveltime="0.02" CO_perVeh="0.341895" CO2_perVeh="43.104363" HC_perVeh="0.002540" PMx_perVeh="0.000587" NOx_perVeh="0.016061" fuel_perVeh="0.018529" electricity_perVeh="0"/>
        <edge id=":1110673655_0" sampledSeconds="20.72" CO_abs="432.810643" CO2_abs="48875.638768" HC_abs="3.066225" PMx_abs="0.683125" NOx_abs="18.403760" fuel_abs="21.009586" electricity_abs="0"
            CO_normed="606.673020" CO2_normed="68509.247192" HC_normed="4.297944" PMx_normed="0.957540" NOx_normed="25.796650" fuel_normed="29.449250" electricity_normed="0"
            traveltime="0.02" CO_perVeh="0.494452" CO2_perVeh="55.836602" HC_perVeh="0.003503" PMx_perVeh="0.000780" NOx_perVeh="0.021025" fuel_perVeh="0.024002" electricity_perVeh="0"/>
        <edge id=":1110673663_0" sampledSeconds="129.42" CO_abs="2483.211813" CO2_abs="265672.795161" HC_abs="17.367322" PMx_abs="3.864804" NOx_abs="101.298073" fuel_abs="114.201451" electricity_abs="0"
            CO_normed="63.749660" CO2_normed="6820.421132" HC_normed="0.445858" PMx_normed="0.099218" NOx_normed="2.600550" fuel_normed="2.931809" electricity_normed="0"
            traveltime="1.30" CO_perVeh="24.999852" CO2_perVeh="2674.673410" HC_perVeh="0.174846" PMx_perVeh="0.038909" NOx_perVeh="1.019823" fuel_perVeh="1.149728" electricity_perVeh="0"/>
        <edge id=":1110673663_1" sampledSeconds="171.45" CO_abs="2690.258888" CO2_abs="330452.328175" HC_abs="19.765529" PMx_abs="4.386087" NOx_abs="122.758069" fuel_abs="142.047784" electricity_abs="0"
            CO_normed="69.149458" CO2_normed="8493.829136" HC_normed="0.508046" PMx_normed="0.112738" NOx_normed="3.155330" fuel_normed="3.651146" electricity_normed="0"
            traveltime="1.28" CO_perVeh="20.065549" CO2_perVeh="2464.709732" HC_perVeh="0.147423" PMx_perVeh="0.032714" NOx_perVeh="0.915603" fuel_perVeh="1.059477" electricity_perVeh="0"/>