<?xml version="1.0" encoding="UTF-8"?>

<!-- generated on Tue Nov 10 16:03:49 2020 by Eclipse SUMO sumo Version 1.7.0
<configuration xmlns:xsi="http://www.w3.org/2001/XMLSchema-instance" xsi:noNamespaceSchemaLocation="http://sumo.dlr.de/xsd/sumoConfiguration.xsd">

    <input>
        <net-file value="../dataSets/Porto/8AM9AM_Routing_SaoBento/Porto.net.xml"/>
        <route-files value="../results/Porto/8AM9AM_Routing_SaoBento/cost_co-cost_co2/solution3/Porto.rou.xml"/>
        <additional-files value="moreOutputInfo.xml"/>
    </input>

    <output>
        <emission-output.precision value="6"/>
        <tripinfo-output value="../results/Porto/8AM9AM_Routing_SaoBento/cost_co-cost_co2/solution3/Porto-tripinfo"/>
    </output>

    <processing>
        <collision.action value="warn"/>
        <time-to-teleport value="-1"/>
    </processing>

    <emissions>
        <device.emissions.probability value="1"/>
    </emissions>

    <gui_only>
        <quit-on-end value="true"/>
        <start value="true"/>
    </gui_only>

</configuration>
-->

<meandata xmlns:xsi="http://www.w3.org/2001/XMLSchema-instance" xsi:noNamespaceSchemaLocation="http://sumo.dlr.de/xsd/meandata_file.xsd">
    <interval begin="0.00" end="8561.00" id="emissions-detector">
        <edge id=":1092997347_0" sampledSeconds="586.53" CO_abs="70570.680839" CO2_abs="3041214.131194" HC_abs="393.259696" PMx_abs="61.293592" NOx_abs="1314.355021" fuel_abs="1307.294377" electricity_abs="0"
            CO_normed="67444.980679" CO2_normed="2906513.383180" HC_normed="375.841529" PMx_normed="58.578791" NOx_normed="1256.139915" fuel_normed="1249.391999" electricity_normed="0"
            traveltime="0.07" CO_perVeh="8.069308" CO2_perVeh="347.743479" HC_perVeh="0.044967" PMx_perVeh="0.007009" NOx_perVeh="0.150288" fuel_perVeh="0.149481" electricity_perVeh="0"/>
        <edge id=":1103427051_0" sampledSeconds="19.63" CO_abs="1504.097681" CO2_abs="85014.035357" HC_abs="8.856801" PMx_abs="1.611245" NOx_abs="35.887910" fuel_abs="36.543855" electricity_abs="0"
            CO_normed="2181.001918" CO2_normed="123273.758417" HC_normed="12.842716" PMx_normed="2.336369" NOx_normed="52.038908" fuel_normed="52.990054" electricity_normed="0"
            traveltime="0.03" CO_perVeh="2.339062" CO2_perVeh="132.207584" HC_perVeh="0.013773" PMx_perVeh="0.002506" NOx_perVeh="0.055810" fuel_perVeh="0.056830" electricity_perVeh="0"/>
        <edge id=":1105984386_0" sampledSeconds="10.51" CO_abs="212.507471" CO2_abs="16273.941269" HC_abs="1.337484" PMx_abs="0.215033" NOx_abs="6.188243" fuel_abs="6.995549" electricity_abs="0"
            CO_normed="9.203075" CO2_normed="704.776668" HC_normed="0.057922" PMx_normed="0.009312" NOx_normed="0.267995" fuel_normed="0.302957" electricity_normed="0"
            traveltime="1.01" CO_perVeh="20.385769" CO2_perVeh="1561.153623" HC_perVeh="0.128304" PMx_perVeh="0.020628" NOx_perVeh="0.593636" fuel_perVeh="0.671081" electricity_perVeh="0"/>
        <edge id=":1105984390_0" sampledSeconds="10.50" CO_abs="0" CO2_abs="0" HC_abs="0" PMx_abs="0" NOx_abs="0" fuel_abs="0" electricity_abs="0"
            CO_normed="0" CO2_normed="0" HC_normed="0" PMx_normed="0" NOx_normed="0" fuel_normed="0" electricity_normed="0"
            traveltime="1.09" CO_perVeh="0" CO2_perVeh="0" HC_perVeh="0" PMx_perVeh="0" NOx_perVeh="0" fuel_perVeh="0" electricity_perVeh="0"/>
        <edge id=":1105984390_1" sampledSeconds="2402.77" CO_abs="63225.348689" CO2_abs="7490122.792166" HC_abs="466.896294" PMx_abs="135.326365" NOx_abs="2852.257616" fuel_abs="3219.657746" electricity_abs="0"
            CO_normed="2024.904338" CO2_normed="239884.515450" HC_normed="14.953185" PMx_normed="4.334068" NOx_normed="91.348627" fuel_normed="103.115271" electricity_normed="0"
            traveltime="0.65" CO_perVeh="17.073014" CO2_perVeh="2022.590177" HC_perVeh="0.126078" PMx_perVeh="0.036543" NOx_perVeh="0.770207" fuel_perVeh="0.869418" electricity_perVeh="0"/>
        <edge id=":1105984395_0" sampledSeconds="4.13" CO_abs="117.904416" CO2_abs="8658.456873" HC_abs="0.732394" PMx_abs="0.109052" NOx_abs="3.262351" fuel_abs="3.721954" electricity_abs="0"
            CO_normed="53.891497" CO2_normed="3957.588856" HC_normed="0.334761" PMx_normed="0.049845" NOx_normed="1.491148" fuel_normed="1.701223" electricity_normed="0"
            traveltime="0.10" CO_perVeh="2.732982" CO2_perVeh="200.699933" HC_perVeh="0.016977" PMx_perVeh="0.002528" NOx_perVeh="0.075620" fuel_perVeh="0.086274" electricity_perVeh="0"/>
        <edge id=":1105984398_0" sampledSeconds="10.88" CO_abs="524.841759" CO2_abs="36981.305387" HC_abs="3.249913" PMx_abs="0.600478" NOx_abs="14.828650" fuel_abs="15.896719" electricity_abs="0"
            CO_normed="18.254926" CO2_normed="1286.275329" HC_normed="0.113038" PMx_normed="0.020886" NOx_normed="0.515767" fuel_normed="0.552916" electricity_normed="0"
            traveltime="1.21" CO_perVeh="58.203618" CO2_perVeh="4101.132817" HC_perVeh="0.360407" PMx_perVeh="0.066591" NOx_perVeh="1.644460" fuel_perVeh="1.762906" electricity_perVeh="0"/>
        <edge id=":1105984398_1" sampledSeconds="646.35" CO_abs="12578.032623" CO2_abs="1425660.991515" HC_abs="90.080118" PMx_abs="21.023631" NOx_abs="543.237143" fuel_abs="612.830295" electricity_abs="0"
            CO_normed="423.475493" CO2_normed="47998.960500" HC_normed="3.032805" PMx_normed="0.707821" NOx_normed="18.289634" fuel_normed="20.632687" electricity_normed="0"
            traveltime="0.95" CO_perVeh="18.517689" CO2_perVeh="2098.893185" HC_perVeh="0.132618" PMx_perVeh="0.030952" NOx_perVeh="0.799767" fuel_perVeh="0.902224" electricity_perVeh="0"/>
        <edge id=":1106006327_0" sampledSeconds="539.66" CO_abs="72777.563596" CO2_abs="2373281.071186" HC_abs="387.263031" PMx_abs="49.522510" NOx_abs="1038.958595" fuel_abs="1020.189419" electricity_abs="0"
            CO_normed="3454.154780" CO2_normed="112640.211493" HC_normed="18.380204" PMx_normed="2.350428" NOx_normed="49.310854" fuel_normed="48.420035" electricity_normed="0"
            traveltime="2.08" CO_perVeh="280.340862" CO2_perVeh="9141.933703" HC_perVeh="1.491746" PMx_perVeh="0.190762" NOx_perVeh="4.002093" fuel_perVeh="3.929793" electricity_perVeh="0"/>
        <edge id=":1106006327_1" sampledSeconds="683.62" CO_abs="92157.859414" CO2_abs="3073189.359829" HC_abs="492.033897" PMx_abs="64.017991" NOx_abs="1344.439973" fuel_abs="1321.053593" electricity_abs="0"
            CO_normed="3814.316042" CO2_normed="127196.047625" HC_normed="20.364761" PMx_normed="2.649637" NOx_normed="55.644944" fuel_normed="54.677007" electricity_normed="0"
            traveltime="2.29" CO_perVeh="309.351628" CO2_perVeh="10315.952826" HC_perVeh="1.651639" PMx_perVeh="0.214893" NOx_perVeh="4.512960" fuel_perVeh="4.434457" electricity_perVeh="0"/>
        <edge id=":1106006327_2" sampledSeconds="0.00" CO_abs="0" CO2_abs="0" HC_abs="0" PMx_abs="0" NOx_abs="0" fuel_abs="0" electricity_abs="0"
            CO_normed="0" CO2_normed="0" HC_normed="0" PMx_normed="0" NOx_normed="0" fuel_normed="0" electricity_normed="0"/>
        <edge id=":1106006327_3" sampledSeconds="0.00" CO_abs="0" CO2_abs="0" HC_abs="0" PMx_abs="0" NOx_abs="0" fuel_abs="0" electricity_abs="0"
            CO_normed="0" CO2_normed="0" HC_normed="0" PMx_normed="0" NOx_normed="0" fuel_normed="0" electricity_normed="0"/>
        <edge id=":1107381198_0" sampledSeconds="0.00" CO_abs="0" CO2_abs="0" HC_abs="0" PMx_abs="0" NOx_abs="0" fuel_abs="0" electricity_abs="0"
            CO_normed="0" CO2_normed="0" HC_normed="0" PMx_normed="0" NOx_normed="0" fuel_normed="0" electricity_normed="0"/>
        <edge id=":1107381198_1" sampledSeconds="104.31" CO_abs="4489.138774" CO2_abs="176963.772745" HC_abs="24.529635" PMx_abs="3.140645" NOx_abs="73.891111" fuel_abs="76.070496" electricity_abs="0"
            CO_normed="205.859872" CO2_normed="8115.084318" HC_normed="1.124863" PMx_normed="0.144022" NOx_normed="3.388448" fuel_normed="3.488389" electricity_normed="0"
            traveltime="1.56" CO_perVeh="67.211015" CO2_perVeh="2649.486997" HC_perVeh="0.367256" PMx_perVeh="0.047021" NOx_perVeh="1.106292" fuel_perVeh="1.138921" electricity_perVeh="0"/>
        <edge id=":1110338277_0" sampledSeconds="161.00" CO_abs="2464.951964" CO2_abs="307774.644823" HC_abs="18.246622" PMx_abs="4.157188" NOx_abs="114.623876" fuel_abs="132.299461" electricity_abs="0"
            CO_normed="3701.931963" CO2_normed="462224.340182" HC_normed="27.403274" PMx_normed="6.243377" NOx_normed="172.145257" fuel_normed="198.690932" electricity_normed="0"
            traveltime="0.02" CO_perVeh="0.333854" CO2_perVeh="41.685121" HC_perVeh="0.002471" PMx_perVeh="0.000563" NOx_perVeh="0.015525" fuel_perVeh="0.017919" electricity_perVeh="0"/>
        <edge id=":1110338293_0" sampledSeconds="6705.96" CO_abs="622329.589166" CO2_abs="10892825.806747" HC_abs="3088.539371" PMx_abs="259.975928" NOx_abs="4923.851095" fuel_abs="4682.642338" electricity_abs="0"
            CO_normed="872322.750846" CO2_normed="15268532.844406" HC_normed="4329.222340" PMx_normed="364.409664" NOx_normed="6901.788709" fuel_normed="6563.685091" electricity_normed="0"
            traveltime="0.45" CO_perVeh="41.591387" CO2_perVeh="727.986812" HC_perVeh="0.206413" PMx_perVeh="0.017375" NOx_perVeh="0.329070" fuel_perVeh="0.312949" electricity_perVeh="0"/>
        <edge id=":1110338295_0" sampledSeconds="0.00" CO_abs="0" CO2_abs="0" HC_abs="0" PMx_abs="0" NOx_abs="0" fuel_abs="0" electricity_abs="0"
            CO_normed="0" CO2_normed="0" HC_normed="0" PMx_normed="0" NOx_normed="0" fuel_normed="0" electricity_normed="0"/>
        <edge id=":1110673403_0" sampledSeconds="200.78" CO_abs="3242.784473" CO2_abs="389696.610811" HC_abs="23.715273" PMx_abs="5.434293" NOx_abs="146.438526" fuel_abs="167.514120" electricity_abs="0"
            CO_normed="4545.428533" CO2_normed="546239.846949" HC_normed="33.241826" PMx_normed="7.617278" NOx_normed="205.263673" fuel_normed="234.805448" electricity_normed="0"
            traveltime="0.02" CO_perVeh="0.374787" CO2_perVeh="45.039482" HC_perVeh="0.002741" PMx_perVeh="0.000628" NOx_perVeh="0.016925" fuel_perVeh="0.019361" electricity_perVeh="0"/>
        <edge id=":1110673412_0" sampledSeconds="950.86" CO_abs="169581.537773" CO2_abs="11562767.540189" HC_abs="1055.147392" PMx_abs="254.240412" NOx_abs="4970.111997" fuel_abs="4970.264134" electricity_abs="0"
            CO_normed="245900.026174" CO2_normed="16766476.340051" HC_normed="1530.006006" PMx_normed="368.658787" NOx_normed="7206.861585" fuel_normed="7207.082190" electricity_normed="0"
            traveltime="0.02" CO_perVeh="2.768898" CO2_perVeh="188.794866" HC_perVeh="0.017228" PMx_perVeh="0.004151" NOx_perVeh="0.081151" fuel_perVeh="0.081154" electricity_perVeh="0"/>
        <edge id=":1110673414_0" sampledSeconds="0.00" CO_abs="0" CO2_abs="0" HC_abs="0" PMx_abs="0" NOx_abs="0" fuel_abs="0" electricity_abs="0"
            CO_normed="0" CO2_normed="0" HC_normed="0" PMx_normed="0" NOx_normed="0" fuel_normed="0" electricity_normed="0"/>
        <edge id=":1110673414_1" sampledSeconds="240.19" CO_abs="17502.328628" CO2_abs="679976.341996" HC_abs="95.526152" PMx_abs="12.725344" NOx_abs="288.113965" fuel_abs="292.297111" electricity_abs="0"
            CO_normed="815.053445" CO2_normed="31665.332759" HC_normed="4.448489" PMx_normed="0.592597" NOx_normed="13.416974" fuel_normed="13.611775" electricity_normed="0"
            traveltime="1.56" CO_perVeh="113.556966" CO2_perVeh="4411.758679" HC_perVeh="0.619784" PMx_perVeh="0.082563" NOx_perVeh="1.869314" fuel_perVeh="1.896455" electricity_perVeh="0"/>
        <edge id=":1110673417_0" sampledSeconds="28.83" CO_abs="739.251582" CO2_abs="73725.625351" HC_abs="5.056223" PMx_abs="1.127205" NOx_abs="28.514272" fuel_abs="31.691469" electricity_abs="0"
            CO_normed="1110.228150" CO2_normed="110723.151194" HC_normed="7.593573" PMx_normed="1.692867" NOx_normed="42.823510" fuel_normed="47.595111" electricity_normed="0"
            traveltime="0.02" CO_perVeh="0.563715" CO2_perVeh="56.219328" HC_perVeh="0.003856" PMx_perVeh="0.000860" NOx_perVeh="0.021744" fuel_perVeh="0.024166" electricity_perVeh="0"/>
        <edge id=":1110673446_0" sampledSeconds="1330.25" CO_abs="14920.131644" CO2_abs="1211945.829095" HC_abs="96.682839" PMx_abs="22.185347" NOx_abs="495.503507" fuel_abs="520.959811" electricity_abs="0"
            CO_normed="20913.629217" CO2_normed="1698791.023145" HC_normed="135.520858" PMx_normed="31.097322" NOx_normed="694.549946" fuel_normed="730.232185" electricity_normed="0"
            traveltime="0.02" CO_perVeh="0.255785" CO2_perVeh="20.777130" HC_perVeh="0.001657" PMx_perVeh="0.000380" NOx_perVeh="0.008495" fuel_perVeh="0.008931" electricity_perVeh="0"/>
        <edge id=":1110673451_0" sampledSeconds="36.39" CO_abs="384.880480" CO2_abs="28143.046559" HC_abs="2.395949" PMx_abs="0.394975" NOx_abs="10.856970" fuel_abs="12.097606" electricity_abs="0"
            CO_normed="599.432278" CO2_normed="43831.400629" HC_normed="3.731571" PMx_normed="0.615154" NOx_normed="16.909194" fuel_normed="18.841422" electricity_normed="0"
            traveltime="0.03" CO_perVeh="0.283572" CO2_perVeh="20.735203" HC_perVeh="0.001765" PMx_perVeh="0.000291" NOx_perVeh="0.007999" fuel_perVeh="0.008913" electricity_perVeh="0"/>
        <edge id=":1110673464_0" sampledSeconds="1038.01" CO_abs="4946.852914" CO2_abs="337488.641424" HC_abs="30.262319" PMx_abs="4.929770" NOx_abs="131.832303" fuel_abs="145.073246" electricity_abs="0"
            CO_normed="147.323594" CO2_normed="10050.842505" HC_normed="0.901250" PMx_normed="0.146815" NOx_normed="3.926134" fuel_normed="4.320466" electricity_normed="0"
            traveltime="1.23" CO_perVeh="5.866275" CO2_perVeh="400.214296" HC_perVeh="0.035887" PMx_perVeh="0.005846" NOx_perVeh="0.156335" fuel_perVeh="0.172037" electricity_perVeh="0"/>
        <edge id=":1110673464_1" sampledSeconds="2608.45" CO_abs="61654.257417" CO2_abs="7573075.928205" HC_abs="461.129336" PMx_abs="134.901340" NOx_abs="2868.693913" fuel_abs="3255.316683" electricity_abs="0"
            CO_normed="1799.190272" CO2_normed="220996.977494" HC_normed="13.456644" PMx_normed="3.936682" NOx_normed="83.714027" fuel_normed="94.996426" electricity_normed="0"
            traveltime="0.72" CO_perVeh="16.994733" CO2_perVeh="2087.486028" HC_perVeh="0.127108" PMx_perVeh="0.037185" NOx_perVeh="0.790743" fuel_perVeh="0.897314" electricity_perVeh="0"/>
        <edge id=":1110673479_0" sampledSeconds="135.72" CO_abs="5880.213347" CO2_abs="405430.328403" HC_abs="36.287503" PMx_abs="7.030349" NOx_abs="165.408582" fuel_abs="174.277002" electricity_abs="0"
            CO_normed="8242.326850" CO2_normed="568293.883990" HC_normed="50.864389" PMx_normed="9.854478" NOx_normed="231.854104" fuel_normed="244.285017" electricity_normed="0"
            traveltime="0.03" CO_perVeh="1.243130" CO2_perVeh="85.711637" HC_perVeh="0.007672" PMx_perVeh="0.001486" NOx_perVeh="0.034969" fuel_perVeh="0.036844" electricity_perVeh="0"/>
        <edge id=":1110673511_0" sampledSeconds="63.70" CO_abs="953.121409" CO2_abs="108388.055486" HC_abs="6.827007" PMx_abs="1.470275" NOx_abs="40.603643" fuel_abs="46.591543" electricity_abs="0"
            CO_normed="1335.995433" CO2_normed="151928.123564" HC_normed="9.569453" PMx_normed="2.060893" NOx_normed="56.914346" fuel_normed="65.307617" electricity_normed="0"
            traveltime="0.02" CO_perVeh="0.365297" CO2_perVeh="41.541254" HC_perVeh="0.002617" PMx_perVeh="0.000564" NOx_perVeh="0.015562" fuel_perVeh="0.017857" electricity_perVeh="0"/>
        <edge id=":1110673517_0" sampledSeconds="181.85" CO_abs="8543.437426" CO2_abs="610917.983990" HC_abs="53.215006" PMx_abs="10.403903" NOx_abs="247.595454" fuel_abs="262.607341" electricity_abs="0"
            CO_normed="11975.382445" CO2_normed="856327.042154" HC_normed="74.591761" PMx_normed="14.583208" NOx_normed="347.055887" fuel_normed="368.098130" electricity_normed="0"
            traveltime="0.03" CO_perVeh="1.308069" CO2_perVeh="93.536488" HC_perVeh="0.008148" PMx_perVeh="0.001593" NOx_perVeh="0.037909" fuel_perVeh="0.040207" electricity_perVeh="0"/>
        <edge id=":1110673534_0" sampledSeconds="735.66" CO_abs="4888.044493" CO2_abs="426782.661075" HC_abs="31.990139" PMx_abs="5.620020" NOx_abs="161.076794" fuel_abs="183.457216" electricity_abs="0"
            CO_normed="132.782915" CO2_normed="11593.479926" HC_normed="0.869007" PMx_normed="0.152667" NOx_normed="4.375624" fuel_normed="4.983585" electricity_normed="0"
            traveltime="1.45" CO_perVeh="9.640033" CO2_perVeh="841.686022" HC_perVeh="0.063090" PMx_perVeh="0.011084" NOx_perVeh="0.317670" fuel_perVeh="0.361808" electricity_perVeh="0"/>
        <edge id=":1110673534_1" sampledSeconds="200.73" CO_abs="2739.665250" CO2_abs="362479.750888" HC_abs="20.632968" PMx_abs="4.786874" NOx_abs="133.898487" fuel_abs="155.814949" electricity_abs="0"
            CO_normed="72.365646" CO2_normed="9574.557045" HC_normed="0.545000" PMx_normed="0.126441" NOx_normed="3.536801" fuel_normed="4.115703" electricity_normed="0"
            traveltime="1.23" CO_perVeh="16.746712" CO2_perVeh="2215.724666" HC_perVeh="0.126123" PMx_perVeh="0.029261" NOx_perVeh="0.818479" fuel_perVeh="0.952448" electricity_perVeh="0"/>
        <edge id=":1110673549_0" sampledSeconds="657.32" CO_abs="1623.529502" CO2_abs="144211.597818" HC_abs="10.700455" PMx_abs="2.110516" NOx_abs="55.387884" fuel_abs="61.990629" electricity_abs="0"
            CO_normed="42.722968" CO2_normed="3794.909448" HC_normed="0.281581" PMx_normed="0.055538" NOx_normed="1.457525" fuel_normed="1.631275" electricity_normed="0"
            traveltime="1.31" CO_perVeh="3.225566" CO2_perVeh="286.514058" HC_perVeh="0.021259" PMx_perVeh="0.004193" NOx_perVeh="0.110043" fuel_perVeh="0.123161" electricity_perVeh="0"/>
        <edge id=":1110673549_1" sampledSeconds="3199.41" CO_abs="69985.364104" CO2_abs="9043372.890892" HC_abs="534.327279" PMx_abs="159.805869" NOx_abs="3387.967578" fuel_abs="3887.331555" electricity_abs="0"
            CO_normed="1781.456356" CO2_normed="230196.332142" HC_normed="13.601140" PMx_normed="4.067810" NOx_normed="86.239694" fuel_normed="98.950853" electricity_normed="0"
            traveltime="0.81" CO_perVeh="17.653103" CO2_perVeh="2281.099686" HC_perVeh="0.134779" PMx_perVeh="0.040309" NOx_perVeh="0.854581" fuel_perVeh="0.980540" electricity_perVeh="0"/>
        <edge id=":1110673556_0" sampledSeconds="464.01" CO_abs="56722.512792" CO2_abs="2731700.679918" HC_abs="323.163077" PMx_abs="55.165010" NOx_abs="1177.650990" fuel_abs="1174.241630" electricity_abs="0"
            CO_normed="1106.843429" CO2_normed="53304.495825" HC_normed="6.305978" PMx_normed="1.076451" NOx_normed="22.979857" fuel_normed="22.913330" electricity_normed="0"
            traveltime="2.74" CO_perVeh="334.373759" CO2_perVeh="16103.112852" HC_perVeh="1.905015" PMx_perVeh="0.325192" NOx_perVeh="6.942139" fuel_perVeh="6.922042" electricity_perVeh="0"/>
        <edge id=":1110673556_2" sampledSeconds="174.64" CO_abs="17547.032017" CO2_abs="753614.323438" HC_abs="97.623087" PMx_abs="14.679816" NOx_abs="322.290245" fuel_abs="323.949016" electricity_abs="0"
            CO_normed="358.017026" CO2_normed="15376.204846" HC_normed="1.991831" PMx_normed="0.299516" NOx_normed="6.575778" fuel_normed="6.609623" electricity_normed="0"
            traveltime="3.02" CO_perVeh="303.413257" CO2_perVeh="13031.068533" HC_perVeh="1.688043" PMx_perVeh="0.253835" NOx_perVeh="5.572859" fuel_perVeh="5.601541" electricity_perVeh="0"/>
        <edge id=":1110673556_3" sampledSeconds="243.95" CO_abs="26158.942088" CO2_abs="908990.862770" HC_abs="140.378828" PMx_abs="18.009230" NOx_abs="391.899533" fuel_abs="390.742935" electricity_abs="0"
            CO_normed="1214.143397" CO2_normed="42189.980410" HC_normed="6.515555" PMx_normed="0.835882" NOx_normed="18.189659" fuel_normed="18.135976" electricity_normed="0"
            traveltime="1.82" CO_perVeh="195.016799" CO2_perVeh="6776.592404" HC_perVeh="1.046534" PMx_perVeh="0.134260" NOx_perVeh="2.921639" fuel_perVeh="2.913017" electricity_perVeh="0"/>
        <edge id=":1110673556_4" sampledSeconds="38.60" CO_abs="4628.448789" CO2_abs="174280.359686" HC_abs="25.174120" PMx_abs="3.495846" NOx_abs="75.323465" fuel_abs="74.916559" electricity_abs="0"
            CO_normed="131.241842" CO2_normed="4941.801539" HC_normed="0.713824" PMx_normed="0.099126" NOx_normed="2.135832" fuel_normed="2.124294" electricity_normed="0"
            traveltime="2.66" CO_perVeh="318.692058" CO2_perVeh="12000.082339" HC_perVeh="1.733365" PMx_perVeh="0.240707" NOx_perVeh="5.186401" fuel_perVeh="5.158383" electricity_perVeh="0"/>
        <edge id=":1110673556_5" sampledSeconds="21.76" CO_abs="1286.827142" CO2_abs="59892.260398" HC_abs="7.257815" PMx_abs="1.096669" NOx_abs="25.162929" fuel_abs="25.745330" electricity_abs="0"
            CO_normed="50.857685" CO2_normed="2367.048082" HC_normed="0.286842" PMx_normed="0.043342" NOx_normed="0.994483" fuel_normed="1.017501" electricity_normed="0"
            traveltime="1.50" CO_perVeh="88.965827" CO2_perVeh="4140.699484" HC_perVeh="0.501775" PMx_perVeh="0.075819" NOx_perVeh="1.739659" fuel_perVeh="1.779924" electricity_perVeh="0"/>
        <edge id=":1110673556_6" sampledSeconds="209.42" CO_abs="25371.554568" CO2_abs="1302171.848851" HC_abs="146.510464" PMx_abs="26.251214" NOx_abs="560.245496" fuel_abs="559.746877" electricity_abs="0"
            CO_normed="507.565822" CO2_normed="26050.351898" HC_normed="2.930987" PMx_normed="0.525164" NOx_normed="11.207885" fuel_normed="11.197910" electricity_normed="0"
            traveltime="2.44" CO_perVeh="295.642817" CO2_perVeh="15173.597352" HC_perVeh="1.707218" PMx_perVeh="0.305893" NOx_perVeh="6.528278" fuel_perVeh="6.522468" electricity_perVeh="0"/>
        <edge id=":1110673561_0" sampledSeconds="103.02" CO_abs="9553.753699" CO2_abs="678711.439152" HC_abs="59.847905" PMx_abs="13.743321" NOx_abs="287.509955" fuel_abs="291.745718" electricity_abs="0"
            CO_normed="240.135354" CO2_normed="17059.536669" HC_normed="1.504288" PMx_normed="0.345441" NOx_normed="7.226616" fuel_normed="7.333082" electricity_normed="0"
            traveltime="1.22" CO_perVeh="112.743567" CO2_perVeh="8009.453739" HC_perVeh="0.706263" PMx_perVeh="0.162185" NOx_perVeh="3.392897" fuel_perVeh="3.442883" electricity_perVeh="0"/>
        <edge id=":1110673561_1" sampledSeconds="5257.11" CO_abs="491817.296862" CO2_abs="34112480.687374" HC_abs="3064.714733" PMx_abs="712.330336" NOx_abs="14579.467461" fuel_abs="14663.308570" electricity_abs="0"
            CO_normed="12052.149736" CO2_normed="835937.913780" HC_normed="75.101874" PMx_normed="17.455897" NOx_normed="357.274797" fuel_normed="359.329352" electricity_normed="0"
            traveltime="1.19" CO_perVeh="111.558340" CO2_perVeh="7737.693973" HC_perVeh="0.695166" PMx_perVeh="0.161577" NOx_perVeh="3.307043" fuel_perVeh="3.326061" electricity_perVeh="0"/>
        <edge id=":1110673562_0" sampledSeconds="301.49" CO_abs="6953.042188" CO2_abs="534638.559506" HC_abs="43.859353" PMx_abs="7.301114" NOx_abs="204.677380" fuel_abs="229.820444" electricity_abs="0"
            CO_normed="10829.018710" CO2_normed="832673.067018" HC_normed="68.308769" PMx_normed="11.371123" NOx_normed="318.774878" fuel_normed="357.933955" electricity_normed="0"
            traveltime="0.03" CO_perVeh="0.623281" CO2_perVeh="47.925778" HC_perVeh="0.003932" PMx_perVeh="0.000654" NOx_perVeh="0.018348" fuel_perVeh="0.020601" electricity_perVeh="0"/>
        <edge id=":1110673564_0" sampledSeconds="27.79" CO_abs="399.361871" CO2_abs="49585.489188" HC_abs="2.950702" PMx_abs="0.659099" NOx_abs="18.419318" fuel_abs="21.314747" electricity_abs="0"
            CO_normed="1679.363085" CO2_normed="208512.745098" HC_normed="12.408046" PMx_normed="2.771588" NOx_normed="77.455373" fuel_normed="89.630987" electricity_normed="0"
            traveltime="7.848680e-03" CO_perVeh="0.112798" CO2_perVeh="14.005222" HC_perVeh="0.000833" PMx_perVeh="0.000186" NOx_perVeh="0.005202" fuel_perVeh="0.006020" electricity_perVeh="0"/>
        <edge id=":1110673588_0" sampledSeconds="63.10" CO_abs="995.254787" CO2_abs="106694.224592" HC_abs="6.980375" PMx_abs="1.485008" NOx_abs="40.310853" fuel_abs="45.863415" electricity_abs="0"
            CO_normed="1674.064822" CO2_normed="179464.645967" HC_normed="11.741316" PMx_normed="2.497853" NOx_normed="67.804729" fuel_normed="77.144396" electricity_normed="0"
            traveltime="0.02" CO_perVeh="0.321050" CO2_perVeh="34.417492" HC_perVeh="0.002252" PMx_perVeh="0.000479" NOx_perVeh="0.013004" fuel_perVeh="0.014795" electricity_perVeh="0"/>
        <edge id=":1110673601_0" sampledSeconds="28.98" CO_abs="458.477921" CO2_abs="57149.585542" HC_abs="3.367829" PMx_abs="0.759419" NOx_abs="21.218559" fuel_abs="24.566233" electricity_abs="0"
            CO_normed="688.554623" CO2_normed="85828.803356" HC_normed="5.057897" PMx_normed="1.140516" NOx_normed="31.866609" fuel_normed="36.894238" electricity_normed="0"
            traveltime="0.02" CO_perVeh="0.349611" CO2_perVeh="43.579302" HC_perVeh="0.002568" PMx_perVeh="0.000579" NOx_perVeh="0.016180" fuel_perVeh="0.018733" electricity_perVeh="0"/>
        <edge id=":1110673617_0" sampledSeconds="853.95" CO_abs="33840.448986" CO2_abs="3383813.095651" HC_abs="235.102635" PMx_abs="63.993581" NOx_abs="1330.399683" fuel_abs="1454.542653" electricity_abs="0"
            CO_normed="47434.340361" CO2_normed="4743109.116669" HC_normed="329.544635" PMx_normed="89.700148" NOx_normed="1864.828431" fuel_normed="2038.840303" electricity_normed="0"
            traveltime="0.02" CO_perVeh="0.600618" CO2_perVeh="60.057669" HC_perVeh="0.004173" PMx_perVeh="0.001136" NOx_perVeh="0.023613" fuel_perVeh="0.025816" electricity_perVeh="0"/>
        <edge id=":1110673621_0" sampledSeconds="26.35" CO_abs="571.857903" CO2_abs="57246.102451" HC_abs="3.921557" PMx_abs="0.842253" NOx_abs="21.985404" fuel_abs="24.607677" electricity_abs="0"
            CO_normed="961.891578" CO2_normed="96290.605689" HC_normed="6.596242" PMx_normed="1.416708" NOx_normed="36.980471" fuel_normed="41.391257" electricity_normed="0"
            traveltime="0.02" CO_perVeh="0.433226" CO2_perVeh="43.368259" HC_perVeh="0.002971" PMx_perVeh="0.000638" NOx_perVeh="0.016656" fuel_perVeh="0.018642" electricity_perVeh="0"/>
        <edge id=":1110673630_0" sampledSeconds="285.53" CO_abs="1347.228912" CO2_abs="117140.214961" HC_abs="8.821021" PMx_abs="1.623192" NOx_abs="44.749615" fuel_abs="50.353888" electricity_abs="0"
            CO_normed="40.408375" CO2_normed="3513.468035" HC_normed="0.264575" PMx_normed="0.048686" NOx_normed="1.342206" fuel_normed="1.510299" electricity_normed="0"
            traveltime="1.28" CO_perVeh="6.062016" CO2_perVeh="527.086229" HC_perVeh="0.039691" PMx_perVeh="0.007304" NOx_perVeh="0.201356" fuel_perVeh="0.226573" electricity_perVeh="0"/>
        <edge id=":1110673630_1" sampledSeconds="337.44" CO_abs="1261.916895" CO2_abs="101015.703917" HC_abs="8.044185" PMx_abs="1.330371" NOx_abs="38.282274" fuel_abs="43.422783" electricity_abs="0"
            CO_normed="46.143541" CO2_normed="3693.763265" HC_normed="0.294146" PMx_normed="0.048647" NOx_normed="1.399838" fuel_normed="1.587807" electricity_normed="0"
            traveltime="1.08" CO_perVeh="4.022743" CO2_perVeh="322.018183" HC_perVeh="0.025643" PMx_perVeh="0.004241" NOx_perVeh="0.122036" fuel_perVeh="0.138423" electricity_perVeh="0"/>
        <edge id=":1110673650_0" sampledSeconds="200.43" CO_abs="3140.482276" CO2_abs="392059.795260" HC_abs="23.247750" PMx_abs="5.308757" NOx_abs="146.085625" fuel_abs="168.530107" electricity_abs="0"
            CO_normed="4402.030990" CO2_normed="549552.335372" HC_normed="32.586497" PMx_normed="7.441313" NOx_normed="204.769011" fuel_normed="236.229563" electricity_normed="0"
            traveltime="0.02" CO_perVeh="0.362964" CO2_perVeh="45.312681" HC_perVeh="0.002687" PMx_perVeh="0.000614" NOx_perVeh="0.016884" fuel_perVeh="0.019478" electricity_perVeh="0"/>
        <edge id=":1110673655_0" sampledSeconds="20.79" CO_abs="340.701515" CO2_abs="41658.935056" HC_abs="2.509122" PMx_abs="0.561041" NOx_abs="15.522572" fuel_abs="17.907444" electricity_abs="0"
            CO_normed="477.563157" CO2_normed="58393.554570" HC_normed="3.517050" PMx_normed="0.786415" NOx_normed="21.758073" fuel_normed="25.100961" electricity_normed="0"
            traveltime="0.02" CO_perVeh="0.389234" CO2_perVeh="47.593169" HC_perVeh="0.002867" PMx_perVeh="0.000641" NOx_perVeh="0.017734" fuel_perVeh="0.020458" electricity_perVeh="0"/>
        <edge id=":1110673663_0" sampledSeconds="110.65" CO_abs="1694.831914" CO2_abs="208231.947944" HC_abs="12.469148" PMx_abs="2.717560" NOx_abs="77.111079" fuel_abs="89.510369" electricity_abs="0"
            CO_normed="43.510166" CO2_normed="5345.784755" HC_normed="0.320111" PMx_normed="0.069766" NOx_normed="1.979616" fuel_normed="2.297933" electricity_normed="0"
            traveltime="1.30" CO_perVeh="19.906718" CO2_perVeh="2445.796948" HC_perVeh="0.146457" PMx_perVeh="0.031919" NOx_perVeh="0.905711" fuel_perVeh="1.051348" electricity_perVeh="0"/>
        <edge id=":1110673663_1" sampledSeconds="169.99" CO_abs="3144.677197" CO2_abs="361251.005382" HC_abs="22.585578" PMx_abs="5.158049" NOx_abs="136.684619" fuel_abs="155.286464" electricity_abs="0"
            CO_normed="80.829664" CO2_normed="9285.467383" HC_normed="0.580532" PMx_normed="0.132581" NOx_normed="3.513293" fuel_normed="3.991428" electricity_normed="0"
            traveltime="1.27" CO_perVeh="23.531543" CO2_perVeh="2703.232461" HC_perVeh="0.169007" PMx_perVeh="0.038598" NOx_perVeh="1.022808" fuel_perVeh="1.162005" electricity_perVeh="0"/>
        <edge id=":1110673666_0" sampledSeconds="208.02" CO_abs="3925.256434" CO2_abs="328697.891776" HC_abs="25.342033" PMx_abs="4.233724" NOx_abs="123.718869" fuel_abs="141.294654" electricity_abs="0"