<?xml version="1.0" encoding="UTF-8"?>

<!-- generated on Mon Nov  9 21:30:40 2020 by Eclipse SUMO sumo Version 1.7.0
<configuration xmlns:xsi="http://www.w3.org/2001/XMLSchema-instance" xsi:noNamespaceSchemaLocation="http://sumo.dlr.de/xsd/sumoConfiguration.xsd">

    <input>
        <net-file value="../dataSets/Porto/6AM7AM_Routing_SaoBento/Porto.net.xml"/>
        <route-files value="../results/Porto/6AM7AM_Routing_SaoBento/cost_co-ttime/solution3/Porto.rou.xml"/>
        <additional-files value="moreOutputInfo.xml"/>
    </input>

    <output>
        <emission-output.precision value="6"/>
        <tripinfo-output value="../results/Porto/6AM7AM_Routing_SaoBento/cost_co-ttime/solution3/Porto-tripinfo"/>
    </output>

    <processing>
        <collision.action value="warn"/>
        <time-to-teleport value="-1"/>
    </processing>

    <emissions>
        <device.emissions.probability value="1"/>
    </emissions>

    <gui_only>
        <quit-on-end value="true"/>
        <start value="true"/>
    </gui_only>

</configuration>
-->

<meandata xmlns:xsi="http://www.w3.org/2001/XMLSchema-instance" xsi:noNamespaceSchemaLocation="http://sumo.dlr.de/xsd/meandata_file.xsd">
    <interval begin="0.00" end="4700.00" id="emissions-detector">
        <edge id=":1092997347_0" sampledSeconds="267.90" CO_abs="34512.319515" CO2_abs="1365069.232584" HC_abs="189.409009" PMx_abs="27.877156" NOx_abs="592.748592" fuel_abs="586.789618" electricity_abs="0"
            CO_normed="60079.473044" CO2_normed="2376329.418425" HC_normed="329.725548" PMx_normed="48.528898" NOx_normed="1031.864087" fuel_normed="1021.490632" electricity_normed="0"
            traveltime="0.08" CO_perVeh="9.700619" CO2_perVeh="383.689569" HC_perVeh="0.053239" PMx_perVeh="0.007836" NOx_perVeh="0.166608" fuel_perVeh="0.164933" electricity_perVeh="0"/>
        <edge id=":1103427051_0" sampledSeconds="10.94" CO_abs="893.435610" CO2_abs="50477.254011" HC_abs="5.266379" PMx_abs="0.988374" NOx_abs="21.524807" fuel_abs="21.697938" electricity_abs="0"
            CO_normed="2359.771236" CO2_normed="133322.167601" HC_normed="13.909731" PMx_normed="2.610526" NOx_normed="56.852021" fuel_normed="57.309300" electricity_normed="0"
            traveltime="0.03" CO_perVeh="2.448000" CO2_perVeh="138.306913" HC_perVeh="0.014430" PMx_perVeh="0.002708" NOx_perVeh="0.058978" fuel_perVeh="0.059452" electricity_perVeh="0"/>
        <edge id=":1105984386_0" sampledSeconds="22.81" CO_abs="406.171398" CO2_abs="33013.957690" HC_abs="2.598562" PMx_abs="0.423858" NOx_abs="12.445318" fuel_abs="14.191447" electricity_abs="0"
            CO_normed="32.040166" CO2_normed="2604.251982" HC_normed="0.204983" PMx_normed="0.033435" NOx_normed="0.981728" fuel_normed="1.119469" electricity_normed="0"
            traveltime="0.96" CO_perVeh="17.046699" CO2_perVeh="1385.570233" HC_perVeh="0.109060" PMx_perVeh="0.017789" NOx_perVeh="0.522320" fuel_perVeh="0.595604" electricity_perVeh="0"/>
        <edge id=":1105984390_0" sampledSeconds="23.19" CO_abs="35.353883" CO2_abs="3040.306260" HC_abs="0.229866" PMx_abs="0.038028" NOx_abs="1.137572" fuel_abs="1.306912" electricity_abs="0"
            CO_normed="2.156017" CO2_normed="185.409651" HC_normed="0.014018" PMx_normed="0.002319" NOx_normed="0.069374" fuel_normed="0.079701" electricity_normed="0"
            traveltime="1.05" CO_perVeh="1.603281" CO2_perVeh="137.876396" HC_perVeh="0.010424" PMx_perVeh="0.001725" NOx_perVeh="0.051588" fuel_perVeh="0.059268" electricity_perVeh="0"/>
        <edge id=":1105984390_1" sampledSeconds="644.28" CO_abs="15496.822111" CO2_abs="1982322.479201" HC_abs="117.778129" PMx_abs="35.174417" NOx_abs="743.420279" fuel_abs="852.109499" electricity_abs="0"
            CO_normed="904.029421" CO2_normed="115641.634800" HC_normed="6.870757" PMx_normed="2.051950" NOx_normed="43.368492" fuel_normed="49.709034" electricity_normed="0"
            traveltime="0.63" CO_perVeh="15.270655" CO2_perVeh="1953.391658" HC_perVeh="0.116059" PMx_perVeh="0.034661" NOx_perVeh="0.732571" fuel_perVeh="0.839673" electricity_perVeh="0"/>
        <edge id=":1105984395_0" sampledSeconds="9.01" CO_abs="148.568720" CO2_abs="11301.322380" HC_abs="0.934560" PMx_abs="0.156034" NOx_abs="4.343194" fuel_abs="4.858000" electricity_abs="0"
            CO_normed="123.692736" CO2_normed="9409.056560" HC_normed="0.778080" PMx_normed="0.129908" NOx_normed="3.615980" fuel_normed="4.044588" electricity_normed="0"
            traveltime="0.09" CO_perVeh="1.506649" CO2_perVeh="114.607767" HC_perVeh="0.009477" PMx_perVeh="0.001582" NOx_perVeh="0.044045" fuel_perVeh="0.049265" electricity_perVeh="0"/>
        <edge id=":1105984398_0" sampledSeconds="23.15" CO_abs="1553.634264" CO2_abs="107123.368631" HC_abs="9.608636" PMx_abs="1.965363" NOx_abs="44.394220" fuel_abs="46.047549" electricity_abs="0"
            CO_normed="98.429920" CO2_normed="6786.761119" HC_normed="0.608752" PMx_normed="0.124515" NOx_normed="2.812579" fuel_normed="2.917325" electricity_normed="0"
            traveltime="1.10" CO_perVeh="73.730785" CO2_perVeh="5083.751207" HC_perVeh="0.455997" PMx_perVeh="0.093270" NOx_perVeh="2.106815" fuel_perVeh="2.185277" electricity_perVeh="0"/>
        <edge id=":1105984398_1" sampledSeconds="452.07" CO_abs="7627.118967" CO2_abs="919933.434239" HC_abs="55.819249" PMx_abs="12.915317" NOx_abs="345.894541" fuel_abs="395.440412" electricity_abs="0"
            CO_normed="467.738076" CO2_normed="56415.521579" HC_normed="3.423152" PMx_normed="0.792040" NOx_normed="21.212210" fuel_normed="24.250643" electricity_normed="0"
            traveltime="0.96" CO_perVeh="16.116999" CO2_perVeh="1943.927476" HC_perVeh="0.117953" PMx_perVeh="0.027292" NOx_perVeh="0.730916" fuel_perVeh="0.835612" electricity_perVeh="0"/>
        <edge id=":1106006327_0" sampledSeconds="368.85" CO_abs="49692.183431" CO2_abs="1613723.664414" HC_abs="264.250007" PMx_abs="33.640603" NOx_abs="706.241720" fuel_abs="693.682836" electricity_abs="0"
            CO_normed="4295.947850" CO2_normed="139508.313527" HC_normed="22.844725" PMx_normed="2.908270" NOx_normed="61.055429" fuel_normed="59.969699" electricity_normed="0"
            traveltime="2.09" CO_perVeh="281.297476" CO2_perVeh="9134.965765" HC_perVeh="1.495866" PMx_perVeh="0.190433" NOx_perVeh="3.997893" fuel_perVeh="3.926799" electricity_perVeh="0"/>
        <edge id=":1106006327_1" sampledSeconds="160.96" CO_abs="21720.903072" CO2_abs="726817.470008" HC_abs="116.030162" PMx_abs="15.143964" NOx_abs="317.992812" fuel_abs="312.432624" electricity_abs="0"
            CO_normed="1637.528293" CO2_normed="54794.414727" HC_normed="8.747457" PMx_normed="1.141696" NOx_normed="23.973323" fuel_normed="23.554143" electricity_normed="0"
            traveltime="2.29" CO_perVeh="308.356214" CO2_perVeh="10318.110741" HC_perVeh="1.647198" PMx_perVeh="0.214988" NOx_perVeh="4.514318" fuel_perVeh="4.435384" electricity_perVeh="0"/>
        <edge id=":1106006327_2" sampledSeconds="0.00" CO_abs="0" CO2_abs="0" HC_abs="0" PMx_abs="0" NOx_abs="0" fuel_abs="0" electricity_abs="0"
            CO_normed="0" CO2_normed="0" HC_normed="0" PMx_normed="0" NOx_normed="0" fuel_normed="0" electricity_normed="0"/>
        <edge id=":1106006327_3" sampledSeconds="0.00" CO_abs="0" CO2_abs="0" HC_abs="0" PMx_abs="0" NOx_abs="0" fuel_abs="0" electricity_abs="0"
            CO_normed="0" CO2_normed="0" HC_normed="0" PMx_normed="0" NOx_normed="0" fuel_normed="0" electricity_normed="0"/>
        <edge id=":1107381198_0" sampledSeconds="0.00" CO_abs="0" CO2_abs="0" HC_abs="0" PMx_abs="0" NOx_abs="0" fuel_abs="0" electricity_abs="0"
            CO_normed="0" CO2_normed="0" HC_normed="0" PMx_normed="0" NOx_normed="0" fuel_normed="0" electricity_normed="0"/>
        <edge id=":1107381198_1" sampledSeconds="35.79" CO_abs="1439.015901" CO2_abs="59717.339233" HC_abs="7.924940" PMx_abs="1.008414" NOx_abs="24.579760" fuel_abs="25.670398" electricity_abs="0"
            CO_normed="120.199013" CO2_normed="4988.106945" HC_normed="0.661959" PMx_normed="0.084231" NOx_normed="2.053113" fuel_normed="2.144213" electricity_normed="0"
            traveltime="1.47" CO_perVeh="59.248275" CO2_perVeh="2458.728452" HC_perVeh="0.326292" PMx_perVeh="0.041519" NOx_perVeh="1.012017" fuel_perVeh="1.056921" electricity_perVeh="0"/>
        <edge id=":1110338277_0" sampledSeconds="97.10" CO_abs="1527.824319" CO2_abs="177596.896424" HC_abs="11.020947" PMx_abs="2.487714" NOx_abs="66.923860" fuel_abs="76.341419" electricity_abs="0"
            CO_normed="4179.458624" CO2_normed="485827.376235" HC_normed="30.148487" PMx_normed="6.805298" NOx_normed="183.074390" fuel_normed="208.836708" electricity_normed="0"
            traveltime="0.02" CO_perVeh="0.344323" CO2_perVeh="40.024735" HC_perVeh="0.002484" PMx_perVeh="0.000561" NOx_perVeh="0.015083" fuel_perVeh="0.017205" electricity_perVeh="0"/>
        <edge id=":1110338293_0" sampledSeconds="123.84" CO_abs="6138.550581" CO2_abs="420363.309219" HC_abs="37.838063" PMx_abs="7.425988" NOx_abs="172.465184" fuel_abs="180.695865" electricity_abs="0"
            CO_normed="15672.895101" CO2_normed="1073268.023538" HC_normed="96.607820" PMx_normed="18.959970" NOx_normed="440.336641" fuel_normed="461.351145" electricity_normed="0"
            traveltime="0.03" CO_perVeh="1.407978" CO2_perVeh="96.417289" HC_perVeh="0.008679" PMx_perVeh="0.001703" NOx_perVeh="0.039558" fuel_perVeh="0.041446" electricity_perVeh="0"/>
        <edge id=":1110338295_0" sampledSeconds="0.00" CO_abs="0" CO2_abs="0" HC_abs="0" PMx_abs="0" NOx_abs="0" fuel_abs="0" electricity_abs="0"
            CO_normed="0" CO2_normed="0" HC_normed="0" PMx_normed="0" NOx_normed="0" fuel_normed="0" electricity_normed="0"/>
        <edge id=":1110673403_0" sampledSeconds="143.83" CO_abs="2141.813834" CO2_abs="272037.253401" HC_abs="15.967828" PMx_abs="3.702786" NOx_abs="101.398282" fuel_abs="116.937385" electricity_abs="0"
            CO_normed="5468.460852" CO2_normed="694563.200173" HC_normed="40.768922" PMx_normed="9.453922" NOx_normed="258.889230" fuel_normed="298.563536" electricity_normed="0"
            traveltime="0.02" CO_perVeh="0.343882" CO2_perVeh="43.677375" HC_perVeh="0.002564" PMx_perVeh="0.000595" NOx_perVeh="0.016280" fuel_perVeh="0.018775" electricity_perVeh="0"/>
        <edge id=":1110673412_0" sampledSeconds="253.38" CO_abs="44773.588784" CO2_abs="3053424.464251" HC_abs="278.600388" PMx_abs="67.103847" NOx_abs="1312.462630" fuel_abs="1312.516778" electricity_abs="0"
            CO_normed="118257.461205" CO2_normed="8064804.160898" HC_normed="735.848419" PMx_normed="177.236868" NOx_normed="3466.519052" fuel_normed="3466.662070" electricity_normed="0"
            traveltime="0.02" CO_perVeh="2.753454" CO2_perVeh="187.777296" HC_perVeh="0.017133" PMx_perVeh="0.004127" NOx_perVeh="0.080713" fuel_perVeh="0.080716" electricity_perVeh="0"/>
        <edge id=":1110673414_0" sampledSeconds="0.00" CO_abs="0" CO2_abs="0" HC_abs="0" PMx_abs="0" NOx_abs="0" fuel_abs="0" electricity_abs="0"
            CO_normed="0" CO2_normed="0" HC_normed="0" PMx_normed="0" NOx_normed="0" fuel_normed="0" electricity_normed="0"/>
        <edge id=":1110673414_1" sampledSeconds="14.68" CO_abs="840.142829" CO2_abs="32289.627352" HC_abs="4.576777" PMx_abs="0.603580" NOx_abs="13.682170" fuel_abs="13.880145" electricity_abs="0"
            CO_normed="71.263971" CO2_normed="2738.923646" HC_normed="0.388219" PMx_normed="0.051198" NOx_normed="1.160571" fuel_normed="1.177364" electricity_normed="0"
            traveltime="1.60" CO_perVeh="91.757254" CO2_perVeh="3526.552189" HC_perVeh="0.499858" PMx_perVeh="0.065921" NOx_perVeh="1.494315" fuel_perVeh="1.515937" electricity_perVeh="0"/>
        <edge id=":1110673417_0" sampledSeconds="29.90" CO_abs="572.640419" CO2_abs="59979.579138" HC_abs="4.002259" PMx_abs="0.890723" NOx_abs="22.995185" fuel_abs="25.782660" electricity_abs="0"
            CO_normed="1566.493546" CO2_normed="164077.876061" HC_normed="10.948428" PMx_normed="2.436628" NOx_normed="62.904760" fuel_normed="70.530072" electricity_normed="0"
            traveltime="0.02" CO_perVeh="0.425021" CO2_perVeh="44.517647" HC_perVeh="0.002971" PMx_perVeh="0.000661" NOx_perVeh="0.017067" fuel_perVeh="0.019136" electricity_perVeh="0"/>
        <edge id=":1110673446_0" sampledSeconds="334.19" CO_abs="3572.966110" CO2_abs="291501.997714" HC_abs="23.154172" PMx_abs="5.323599" NOx_abs="119.086847" fuel_abs="125.303313" electricity_abs="0"
            CO_normed="9122.466664" CO2_normed="744260.419695" HC_normed="59.117036" PMx_normed="13.592168" NOx_normed="304.051525" fuel_normed="319.923353" electricity_normed="0"
            traveltime="0.02" CO_perVeh="0.243927" CO2_perVeh="19.900886" HC_perVeh="0.001581" PMx_perVeh="0.000363" NOx_perVeh="0.008130" fuel_perVeh="0.008554" electricity_perVeh="0"/>
        <edge id=":1110673451_0" sampledSeconds="37.66" CO_abs="352.689660" CO2_abs="23105.881873" HC_abs="2.138442" PMx_abs="0.355973" NOx_abs="9.168789" fuel_abs="9.932302" electricity_abs="0"
            CO_normed="1000.538043" CO2_normed="65548.601057" HC_normed="6.066503" PMx_normed="1.009851" NOx_normed="26.010750" fuel_normed="28.176742" electricity_normed="0"
            traveltime="0.03" CO_perVeh="0.252925" CO2_perVeh="16.569955" HC_perVeh="0.001534" PMx_perVeh="0.000255" NOx_perVeh="0.006575" fuel_perVeh="0.007123" electricity_perVeh="0"/>
        <edge id=":1110673464_0" sampledSeconds="325.02" CO_abs="473.732734" CO2_abs="37708.275217" HC_abs="3.008585" PMx_abs="0.464809" NOx_abs="14.096786" fuel_abs="16.209393" electricity_abs="0"
            CO_normed="25.698238" CO2_normed="2045.533584" HC_normed="0.163205" PMx_normed="0.025214" NOx_normed="0.764698" fuel_normed="0.879299" electricity_normed="0"
            traveltime="1.17" CO_perVeh="1.712481" CO2_perVeh="136.310440" HC_perVeh="0.010876" PMx_perVeh="0.001680" NOx_perVeh="0.050958" fuel_perVeh="0.058595" electricity_perVeh="0"/>
        <edge id=":1110673464_1" sampledSeconds="709.60" CO_abs="17028.111106" CO2_abs="2172145.917814" HC_abs="129.453407" PMx_abs="38.552282" NOx_abs="815.801268" fuel_abs="933.705833" electricity_abs="0"
            CO_normed="905.122034" CO2_normed="115459.496274" HC_normed="6.881041" PMx_normed="2.049230" NOx_normed="43.363571" fuel_normed="49.630738" electricity_normed="0"
            traveltime="0.70" CO_perVeh="16.794962" CO2_perVeh="2142.404850" HC_perVeh="0.127681" PMx_perVeh="0.038024" NOx_perVeh="0.804631" fuel_perVeh="0.920922" electricity_perVeh="0"/>
        <edge id=":1110673479_0" sampledSeconds="133.94" CO_abs="6760.226655" CO2_abs="463699.190653" HC_abs="41.688325" PMx_abs="8.187851" NOx_abs="190.177886" fuel_abs="199.324072" electricity_abs="0"
            CO_normed="17260.153161" CO2_normed="1183912.827199" HC_normed="106.438277" PMx_normed="20.905150" NOx_normed="485.560560" fuel_normed="508.912525" electricity_normed="0"
            traveltime="0.03" CO_perVeh="1.424105" CO2_perVeh="97.682577" HC_perVeh="0.008782" PMx_perVeh="0.001725" NOx_perVeh="0.040063" fuel_perVeh="0.041989" electricity_perVeh="0"/>
        <edge id=":1110673511_0" sampledSeconds="11.79" CO_abs="207.608863" CO2_abs="24253.929788" HC_abs="1.504568" PMx_abs="0.338023" NOx_abs="9.129120" fuel_abs="10.425744" electricity_abs="0"
            CO_normed="530.065182" CO2_normed="61924.927117" HC_normed="3.841451" PMx_normed="0.863037" NOx_normed="23.308392" fuel_normed="26.618922" electricity_normed="0"
            traveltime="0.02" CO_perVeh="0.411107" CO2_perVeh="48.027584" HC_perVeh="0.002979" PMx_perVeh="0.000669" NOx_perVeh="0.018077" fuel_perVeh="0.020645" electricity_perVeh="0"/>
        <edge id=":1110673517_0" sampledSeconds="17.16" CO_abs="705.162346" CO2_abs="48051.343215" HC_abs="4.352921" PMx_abs="0.908976" NOx_abs="20.076846" fuel_abs="20.655092" electricity_abs="0"
            CO_normed="1800.414500" CO2_normed="122684.280550" HC_normed="11.113841" PMx_normed="2.320791" NOx_normed="51.260033" fuel_normed="52.736405" electricity_normed="0"
            traveltime="0.03" CO_perVeh="1.132185" CO2_perVeh="77.149601" HC_perVeh="0.006989" PMx_perVeh="0.001459" NOx_perVeh="0.032235" fuel_perVeh="0.033163" electricity_perVeh="0"/>
        <edge id=":1110673534_0" sampledSeconds="474.63" CO_abs="3093.834340" CO2_abs="259587.112172" HC_abs="20.018225" PMx_abs="3.574485" NOx_abs="99.200479" fuel_abs="111.586212" electricity_abs="0"
            CO_normed="153.084332" CO2_normed="12844.488480" HC_normed="0.990511" PMx_normed="0.176867" NOx_normed="4.908485" fuel_normed="5.521337" electricity_normed="0"
            traveltime="1.43" CO_perVeh="9.320483" CO2_perVeh="782.031967" HC_perVeh="0.060307" PMx_perVeh="0.010768" NOx_perVeh="0.298851" fuel_perVeh="0.336165" electricity_perVeh="0"/>
        <edge id=":1110673534_1" sampledSeconds="184.55" CO_abs="3116.004638" CO2_abs="377805.830832" HC_abs="22.819512" PMx_abs="5.215186" NOx_abs="141.489940" fuel_abs="162.402840" electricity_abs="0"
            CO_normed="149.920035" CO2_normed="18177.336028" HC_normed="1.097913" PMx_normed="0.250918" NOx_normed="6.807492" fuel_normed="7.813672" electricity_normed="0"
            traveltime="1.23" CO_perVeh="20.689152" CO2_perVeh="2508.495082" HC_perVeh="0.151513" PMx_perVeh="0.034627" NOx_perVeh="0.939442" fuel_perVeh="1.078297" electricity_perVeh="0"/>
        <edge id=":1110673549_0" sampledSeconds="59.85" CO_abs="37.898954" CO2_abs="6095.287795" HC_abs="0.311339" PMx_abs="0.069016" NOx_abs="2.164122" fuel_abs="2.620123" electricity_abs="0"
            CO_normed="1.816582" CO2_normed="292.160893" HC_normed="0.014923" PMx_normed="0.003308" NOx_normed="0.103731" fuel_normed="0.125588" electricity_normed="0"
            traveltime="1.25" CO_perVeh="0.789592" CO2_perVeh="126.990129" HC_perVeh="0.006486" PMx_perVeh="0.001438" NOx_perVeh="0.045088" fuel_perVeh="0.054588" electricity_perVeh="0"/>
        <edge id=":1110673549_1" sampledSeconds="638.98" CO_abs="14628.095896" CO2_abs="1837903.406904" HC_abs="110.823861" PMx_abs="32.814289" NOx_abs="691.881848" fuel_abs="790.030223" electricity_abs="0"
            CO_normed="678.238437" CO2_normed="85215.242193" HC_normed="5.138400" PMx_normed="1.521450" NOx_normed="32.079422" fuel_normed="36.630117" electricity_normed="0"
            traveltime="0.80" CO_perVeh="18.421629" CO2_perVeh="2314.530504" HC_perVeh="0.139564" PMx_perVeh="0.041324" NOx_perVeh="0.871309" fuel_perVeh="0.994910" electricity_perVeh="0"/>
        <edge id=":1110673556_0" sampledSeconds="414.56" CO_abs="51432.227749" CO2_abs="2595212.095303" HC_abs="295.935142" PMx_abs="52.491556" NOx_abs="1118.563361" fuel_abs="1115.568861" electricity_abs="0"
            CO_normed="1828.069506" CO2_normed="92242.321598" HC_normed="10.518502" PMx_normed="1.865721" NOx_normed="39.757398" fuel_normed="39.650964" electricity_normed="0"
            traveltime="2.57" CO_perVeh="319.266310" CO2_perVeh="16109.817251" HC_perVeh="1.837022" PMx_perVeh="0.325842" NOx_perVeh="6.943499" fuel_perVeh="6.924910" electricity_perVeh="0"/>
        <edge id=":1110673556_2" sampledSeconds="245.68" CO_abs="23652.057926" CO2_abs="1022825.851078" HC_abs="131.748475" PMx_abs="19.872482" NOx_abs="437.086201" fuel_abs="439.672352" electricity_abs="0"
            CO_normed="879.013581" CO2_normed="38012.667512" HC_normed="4.896348" PMx_normed="0.738548" NOx_normed="16.244029" fuel_normed="16.340141" electricity_normed="0"
            traveltime="2.98" CO_perVeh="286.894930" CO2_perVeh="12406.681571" HC_perVeh="1.598084" PMx_perVeh="0.241049" NOx_perVeh="5.301772" fuel_perVeh="5.333141" electricity_perVeh="0"/>
        <edge id=":1110673556_3" sampledSeconds="405.92" CO_abs="34020.741242" CO2_abs="1211346.200339" HC_abs="183.117164" PMx_abs="23.180873" NOx_abs="517.038910" fuel_abs="520.715297" electricity_abs="0"
            CO_normed="2876.207517" CO2_normed="102410.556602" HC_normed="15.481231" PMx_normed="1.959775" NOx_normed="43.711899" fuel_normed="44.022711" electricity_normed="0"
            traveltime="1.74" CO_perVeh="145.877012" CO2_perVeh="5194.112713" HC_perVeh="0.785185" PMx_perVeh="0.099397" NOx_perVeh="2.217003" fuel_perVeh="2.232767" electricity_perVeh="0"/>
        <edge id=":1110673556_4" sampledSeconds="208.54" CO_abs="21110.776703" CO2_abs="845318.204655" HC_abs="115.951305" PMx_abs="16.446722" NOx_abs="361.941159" fuel_abs="363.370084" electricity_abs="0"
            CO_normed="1090.354459" CO2_normed="43659.998232" HC_normed="5.988791" PMx_normed="0.849460" NOx_normed="18.693967" fuel_normed="18.767770" electricity_normed="0"
            traveltime="2.39" CO_perVeh="242.263920" CO2_perVeh="9700.737437" HC_perVeh="1.330639" PMx_perVeh="0.188740" NOx_perVeh="4.153579" fuel_perVeh="4.169977" electricity_perVeh="0"/>
        <edge id=":1110673556_5" sampledSeconds="22.25" CO_abs="1572.748734" CO2_abs="73372.121702" HC_abs="8.889538" PMx_abs="1.421760" NOx_abs="31.341058" fuel_abs="31.539670" electricity_abs="0"
            CO_normed="113.219794" CO2_normed="5281.947651" HC_normed="0.639944" PMx_normed="0.102350" NOx_normed="2.256195" fuel_normed="2.270493" electricity_normed="0"
            traveltime="1.54" CO_perVeh="108.733246" CO2_perVeh="5072.640513" HC_perVeh="0.614585" PMx_perVeh="0.098295" NOx_perVeh="2.166789" fuel_perVeh="2.180520" electricity_perVeh="0"/>
        <edge id=":1110673556_6" sampledSeconds="476.03" CO_abs="56584.451349" CO2_abs="2818673.415725" HC_abs="324.637705" PMx_abs="56.732870" NOx_abs="1212.960624" fuel_abs="1211.626226" electricity_abs="0"
            CO_normed="2061.906845" CO2_normed="102710.936865" HC_normed="11.829623" PMx_normed="2.067315" NOx_normed="44.199630" fuel_normed="44.151005" electricity_normed="0"
            traveltime="2.55" CO_perVeh="303.648972" CO2_perVeh="15125.838694" HC_perVeh="1.742102" PMx_perVeh="0.304445" NOx_perVeh="6.509107" fuel_perVeh="6.501946" electricity_perVeh="0"/>
        <edge id=":1110673561_0" sampledSeconds="101.84" CO_abs="9679.025282" CO2_abs="677397.118473" HC_abs="60.400366" PMx_abs="13.935741" NOx_abs="288.256884" fuel_abs="291.180549" electricity_abs="0"
            CO_normed="443.139360" CO2_normed="31013.590397" HC_normed="2.765338" PMx_normed="0.638027" NOx_normed="13.197400" fuel_normed="13.331256" electricity_normed="0"
            traveltime="1.20" CO_perVeh="114.221893" CO2_perVeh="7993.943480" HC_perVeh="0.712783" PMx_perVeh="0.164455" NOx_perVeh="3.401711" fuel_perVeh="3.436213" electricity_perVeh="0"/>
        <edge id=":1110673561_1" sampledSeconds="1313.82" CO_abs="123616.721216" CO2_abs="8556106.248040" HC_abs="769.842820" PMx_abs="178.915951" NOx_abs="3659.153569" fuel_abs="3677.856761" electricity_abs="0"
            CO_normed="5517.782527" CO2_normed="381912.196758" HC_normed="34.362870" PMx_normed="7.986131" NOx_normed="163.330765" fuel_normed="164.165605" electricity_normed="0"
            traveltime="1.19" CO_perVeh="112.152168" CO2_perVeh="7762.589506" HC_perVeh="0.698445" PMx_perVeh="0.162323" NOx_perVeh="3.319794" fuel_perVeh="3.336762" electricity_perVeh="0"/>
        <edge id=":1110673562_0" sampledSeconds="104.32" CO_abs="1858.168121" CO2_abs="143665.807803" HC_abs="11.731527" PMx_abs="1.918746" NOx_abs="54.694590" fuel_abs="61.756436" electricity_abs="0"
            CO_normed="5271.398924" CO2_normed="407562.575328" HC_normed="33.280927" PMx_normed="5.443252" NOx_normed="155.161958" fuel_normed="175.195562" electricity_normed="0"
            traveltime="0.03" CO_perVeh="0.473658" CO2_perVeh="36.621292" HC_perVeh="0.002990" PMx_perVeh="0.000489" NOx_perVeh="0.013942" fuel_perVeh="0.015742" electricity_perVeh="0"/>
        <edge id=":1110673564_0" sampledSeconds="28.75" CO_abs="545.347338" CO2_abs="58187.589138" HC_abs="3.827447" PMx_abs="0.849632" NOx_abs="22.219167" fuel_abs="25.012371" electricity_abs="0"
            CO_normed="4177.128549" CO2_normed="445692.172122" HC_normed="29.316618" PMx_normed="6.507822" NOx_normed="170.189368" fuel_normed="191.584122" electricity_normed="0"
            traveltime="7.904723e-03" CO_perVeh="0.149924" CO2_perVeh="15.996588" HC_perVeh="0.001052" PMx_perVeh="0.000234" NOx_perVeh="0.006108" fuel_perVeh="0.006876" electricity_perVeh="0"/>
        <edge id=":1110673588_0" sampledSeconds="11.72" CO_abs="106.892597" CO2_abs="17286.593564" HC_abs="0.853091" PMx_abs="0.199982" NOx_abs="6.170118" fuel_abs="7.430809" electricity_abs="0"
            CO_normed="327.500721" CO2_normed="52963.180282" HC_normed="2.613725" PMx_normed="0.612712" NOx_normed="18.904192" fuel_normed="22.766735" electricity_normed="0"
            traveltime="0.02" CO_perVeh="0.178154" CO2_perVeh="28.810989" HC_perVeh="0.001422" PMx_perVeh="0.000333" NOx_perVeh="0.010284" fuel_perVeh="0.012385" electricity_perVeh="0"/>
        <edge id=":1110673601_0" sampledSeconds="29.60" CO_abs="551.090537" CO2_abs="63427.813811" HC_abs="3.968327" PMx_abs="0.869564" NOx_abs="23.819301" fuel_abs="27.264975" electricity_abs="0"
            CO_normed="1507.542502" CO2_normed="173510.736869" HC_normed="10.855606" PMx_normed="2.378747" NOx_normed="65.159183" fuel_normed="74.585038" electricity_normed="0"
            traveltime="0.02" CO_perVeh="0.409036" CO2_perVeh="47.078051" HC_perVeh="0.002945" PMx_perVeh="0.000645" NOx_perVeh="0.017679" fuel_perVeh="0.020237" electricity_perVeh="0"/>
        <edge id=":1110673617_0" sampledSeconds="238.17" CO_abs="5831.750603" CO2_abs="731428.569246" HC_abs="44.036820" PMx_abs="13.035843" NOx_abs="275.491569" fuel_abs="314.407526" electricity_abs="0"
            CO_normed="14889.576009" CO2_normed="1867477.198075" HC_normed="112.434433" PMx_normed="33.283003" NOx_normed="703.382730" fuel_normed="802.742620" electricity_normed="0"
            traveltime="0.01" CO_perVeh="0.357628" CO2_perVeh="44.854379" HC_perVeh="0.002701" PMx_perVeh="0.000799" NOx_perVeh="0.016894" fuel_perVeh="0.019281" electricity_perVeh="0"/>
        <edge id=":1110673621_0" sampledSeconds="25.88" CO_abs="498.599653" CO2_abs="52556.053435" HC_abs="3.466486" PMx_abs="0.794592" NOx_abs="20.207069" fuel_abs="22.591577" electricity_abs="0"
            CO_normed="1527.624469" CO2_normed="161022.802014" HC_normed="10.620722" PMx_normed="2.434494" NOx_normed="61.911020" fuel_normed="69.216745" electricity_normed="0"
            traveltime="0.02" CO_perVeh="0.377727" CO2_perVeh="39.815192" HC_perVeh="0.002626" PMx_perVeh="0.000602" NOx_perVeh="0.015308" fuel_perVeh="0.017115" electricity_perVeh="0"/>
        <edge id=":1110673630_0" sampledSeconds="54.49" CO_abs="239.258360" CO2_abs="23573.004723" HC_abs="1.632347" PMx_abs="0.328430" NOx_abs="8.953403" fuel_abs="10.133067" electricity_abs="0"
            CO_normed="13.071450" CO2_normed="1287.868653" HC_normed="0.089180" PMx_normed="0.017943" NOx_normed="0.489153" fuel_normed="0.553602" electricity_normed="0"
            traveltime="1.27" CO_perVeh="5.584713" CO2_perVeh="550.235626" HC_perVeh="0.038102" PMx_perVeh="0.007666" NOx_perVeh="0.208988" fuel_perVeh="0.236524" electricity_perVeh="0"/>
        <edge id=":1110673630_1" sampledSeconds="7.25" CO_abs="0" CO2_abs="0" HC_abs="0" PMx_abs="0" NOx_abs="0" fuel_abs="0" electricity_abs="0"
            CO_normed="0" CO2_normed="0" HC_normed="0" PMx_normed="0" NOx_normed="0" fuel_normed="0" electricity_normed="0"
            traveltime="1.03" CO_perVeh="0" CO2_perVeh="0" HC_perVeh="0" PMx_perVeh="0" NOx_perVeh="0" fuel_perVeh="0" electricity_perVeh="0"/>
        <edge id=":1110673650_0" sampledSeconds="143.50" CO_abs="1929.540972" CO2_abs="252653.271271" HC_abs="14.539071" PMx_abs="3.362469" NOx_abs="93.599115" fuel_abs="108.605098" electricity_abs="0"
            CO_normed="4926.487589" CO2_normed="645072.181969" HC_normed="37.121033" PMx_normed="8.585026" NOx_normed="238.976465" fuel_normed="277.289612" electricity_normed="0"
            traveltime="0.02" CO_perVeh="0.310390" CO2_perVeh="40.642320" HC_perVeh="0.002339" PMx_perVeh="0.000541" NOx_perVeh="0.015057" fuel_perVeh="0.017470" electricity_perVeh="0"/>
        <edge id=":1110673655_0" sampledSeconds="44.55" CO_abs="1006.389364" CO2_abs="100840.919778" HC_abs="6.910673" PMx_abs="1.513317" NOx_abs="38.876629" fuel_abs="43.347203" electricity_abs="0"
            CO_normed="2569.504760" CO2_normed="257466.178156" HC_normed="17.644270" PMx_normed="3.863788" NOx_normed="99.259477" fuel_normed="110.673710" electricity_normed="0"
            traveltime="0.02" CO_perVeh="0.538608" CO2_perVeh="53.968916" HC_perVeh="0.003699" PMx_perVeh="0.000810" NOx_perVeh="0.020806" fuel_perVeh="0.023199" electricity_perVeh="0"/>
        <edge id=":1110673663_0" sampledSeconds="108.12" CO_abs="1767.671611" CO2_abs="220580.804123" HC_abs="13.022565" PMx_abs="2.988552" NOx_abs="82.127717" fuel_abs="94.818455" electricity_abs="0"
            CO_normed="82.659416" CO2_normed="10314.744172" HC_normed="0.608958" PMx_normed="0.139750" NOx_normed="3.840436" fuel_normed="4.433877" electricity_normed="0"
            traveltime="1.27" CO_perVeh="20.762137" CO2_perVeh="2590.825605" HC_perVeh="0.152956" PMx_perVeh="0.035102" NOx_perVeh="0.964629" fuel_perVeh="1.113687" electricity_perVeh="0"/>
        <edge id=":1110673663_1" sampledSeconds="154.30" CO_abs="2683.573498" CO2_abs="314897.556594" HC_abs="19.470436" PMx_abs="4.488288" NOx_abs="118.883175" fuel_abs="135.361078" electricity_abs="0"
            CO_normed="125.641999" CO2_normed="14743.161886" HC_normed="0.911585" PMx_normed="0.210137" NOx_normed="5.565981" fuel_normed="6.337459" electricity_normed="0"
            traveltime="1.25" CO_perVeh="21.720188" CO2_perVeh="2548.703881" HC_perVeh="0.157589" PMx_perVeh="0.036327" NOx_perVeh="0.962211" fuel_perVeh="1.095579" electricity_perVeh="0"/>
        <edge id=":1110673666_0" sampledSeconds="192.36" CO_abs="4371.512886" CO2_abs="346061.501965" HC_abs="27.808320" PMx_abs="4.725229" NOx_abs="132.291758" fuel_abs="148.758369" electricity_abs="0"