<?xml version="1.0" encoding="UTF-8"?>

<!-- generated on Mon Nov  9 23:55:37 2020 by Eclipse SUMO sumo Version 1.7.0
<configuration xmlns:xsi="http://www.w3.org/2001/XMLSchema-instance" xsi:noNamespaceSchemaLocation="http://sumo.dlr.de/xsd/sumoConfiguration.xsd">

    <input>
        <net-file value="../dataSets/Porto/6AM7AM_Routing_SaoBento/Porto.net.xml"/>
        <route-files value="../results/Porto/6AM7AM_Routing_SaoBento/cost_hc-length/solution1/Porto.rou.xml"/>
        <additional-files value="moreOutputInfo.xml"/>
    </input>

    <output>
        <emission-output.precision value="6"/>
        <tripinfo-output value="../results/Porto/6AM7AM_Routing_SaoBento/cost_hc-length/solution1/Porto-tripinfo"/>
    </output>

    <processing>
        <collision.action value="warn"/>
        <time-to-teleport value="-1"/>
    </processing>

    <emissions>
        <device.emissions.probability value="1"/>
    </emissions>

    <gui_only>
        <quit-on-end value="true"/>
        <start value="true"/>
    </gui_only>

</configuration>
-->

<meandata xmlns:xsi="http://www.w3.org/2001/XMLSchema-instance" xsi:noNamespaceSchemaLocation="http://sumo.dlr.de/xsd/meandata_file.xsd">
    <interval begin="0.00" end="4699.00" id="emissions-detector">
        <edge id=":1092997347_0" sampledSeconds="272.65" CO_abs="34971.184948" CO2_abs="1367050.795093" HC_abs="191.529440" PMx_abs="27.905777" NOx_abs="593.601812" fuel_abs="587.641775" electricity_abs="0"
            CO_normed="60891.227251" CO2_normed="2380285.390671" HC_normed="333.487774" PMx_normed="48.589060" NOx_normed="1033.569291" fuel_normed="1023.191777" electricity_normed="0"
            traveltime="0.08" CO_perVeh="9.817225" CO2_perVeh="383.762935" HC_perVeh="0.053767" PMx_perVeh="0.007834" NOx_perVeh="0.166638" fuel_perVeh="0.164965" electricity_perVeh="0"/>
        <edge id=":1103427051_0" sampledSeconds="11.21" CO_abs="876.567191" CO2_abs="48022.510599" HC_abs="5.130164" PMx_abs="0.940361" NOx_abs="20.500608" fuel_abs="20.642772" electricity_abs="0"
            CO_normed="2315.710523" CO2_normed="126865.612020" HC_normed="13.552840" PMx_normed="2.484240" NOx_normed="54.158396" fuel_normed="54.533966" electricity_normed="0"
            traveltime="0.03" CO_perVeh="2.401781" CO2_perVeh="131.580953" HC_perVeh="0.014057" PMx_perVeh="0.002577" NOx_perVeh="0.056171" fuel_perVeh="0.056561" electricity_perVeh="0"/>
        <edge id=":1105984386_0" sampledSeconds="22.99" CO_abs="477.392456" CO2_abs="39829.325444" HC_abs="3.077225" PMx_abs="0.506647" NOx_abs="14.967853" fuel_abs="17.121113" electricity_abs="0"
            CO_normed="37.666336" CO2_normed="3142.539730" HC_normed="0.242794" PMx_normed="0.039975" NOx_normed="1.180966" fuel_normed="1.350858" electricity_normed="0"
            traveltime="0.96" CO_perVeh="20.035792" CO2_perVeh="1671.605939" HC_perVeh="0.129149" PMx_perVeh="0.021264" NOx_perVeh="0.628189" fuel_perVeh="0.718560" electricity_perVeh="0"/>
        <edge id=":1105984390_0" sampledSeconds="23.16" CO_abs="1.393199" CO2_abs="215.768248" HC_abs="0.011052" PMx_abs="0.001490" NOx_abs="0.071645" fuel_abs="0.092752" electricity_abs="0"
            CO_normed="0.084981" CO2_normed="13.161184" HC_normed="0.000674" PMx_normed="0.000091" NOx_normed="0.004370" fuel_normed="0.005658" electricity_normed="0"
            traveltime="1.05" CO_perVeh="0.063181" CO2_perVeh="9.784984" HC_perVeh="0.000501" PMx_perVeh="0.000068" NOx_perVeh="0.003249" fuel_perVeh="0.004206" electricity_perVeh="0"/>
        <edge id=":1105984390_1" sampledSeconds="646.32" CO_abs="14094.547186" CO2_abs="1874668.904762" HC_abs="108.938844" PMx_abs="32.903786" NOx_abs="699.079917" fuel_abs="805.834434" electricity_abs="0"
            CO_normed="822.400674" CO2_normed="109384.781957" HC_normed="6.356457" PMx_normed="1.919898" NOx_normed="40.790512" fuel_normed="47.019516" electricity_normed="0"
            traveltime="0.64" CO_perVeh="13.874385" CO2_perVeh="1845.385884" HC_perVeh="0.107237" PMx_perVeh="0.032390" NOx_perVeh="0.688160" fuel_perVeh="0.793247" electricity_perVeh="0"/>
        <edge id=":1105984395_0" sampledSeconds="9.00" CO_abs="179.414834" CO2_abs="13106.522431" HC_abs="1.118431" PMx_abs="0.194049" NOx_abs="5.129151" fuel_abs="5.633970" electricity_abs="0"
            CO_normed="149.405841" CO2_normed="10914.320520" HC_normed="0.931361" PMx_normed="0.161593" NOx_normed="4.271247" fuel_normed="4.691630" electricity_normed="0"
            traveltime="0.09" CO_perVeh="1.819463" CO2_perVeh="132.914469" HC_perVeh="0.011342" PMx_perVeh="0.001968" NOx_perVeh="0.052015" fuel_perVeh="0.057135" electricity_perVeh="0"/>
        <edge id=":1105984398_0" sampledSeconds="23.48" CO_abs="1333.159714" CO2_abs="95185.261666" HC_abs="8.310673" PMx_abs="1.675017" NOx_abs="38.940091" fuel_abs="40.915964" electricity_abs="0"
            CO_normed="84.479812" CO2_normed="6031.710142" HC_normed="0.526632" PMx_normed="0.106143" NOx_normed="2.467560" fuel_normed="2.592767" electricity_normed="0"
            traveltime="1.12" CO_perVeh="63.368712" CO2_perVeh="4524.414735" HC_perVeh="0.395029" PMx_perVeh="0.079618" NOx_perVeh="1.850929" fuel_perVeh="1.944847" electricity_perVeh="0"/>
        <edge id=":1105984398_1" sampledSeconds="452.43" CO_abs="8576.042605" CO2_abs="968687.103790" HC_abs="61.258873" PMx_abs="14.181006" NOx_abs="368.652156" fuel_abs="416.397042" electricity_abs="0"
            CO_normed="526.043365" CO2_normed="59418.014491" HC_normed="3.757540" PMx_normed="0.869845" NOx_normed="22.612647" fuel_normed="25.541256" electricity_normed="0"
            traveltime="0.95" CO_perVeh="18.084900" CO2_perVeh="2042.738141" HC_perVeh="0.129181" PMx_perVeh="0.029904" NOx_perVeh="0.777403" fuel_perVeh="0.878086" electricity_perVeh="0"/>
        <edge id=":1106006327_0" sampledSeconds="286.91" CO_abs="38524.400082" CO2_abs="1254867.236801" HC_abs="204.947629" PMx_abs="26.119837" NOx_abs="548.972374" fuel_abs="539.423082" electricity_abs="0"
            CO_normed="3331.188575" CO2_normed="108507.839007" HC_normed="17.721735" PMx_normed="2.258571" NOx_normed="47.469409" fuel_normed="46.643686" electricity_normed="0"
            traveltime="2.08" CO_perVeh="278.656368" CO2_perVeh="9076.760322" HC_perVeh="1.482436" PMx_perVeh="0.188931" NOx_perVeh="3.970851" fuel_perVeh="3.901779" electricity_perVeh="0"/>
        <edge id=":1106006327_1" sampledSeconds="161.47" CO_abs="21865.667690" CO2_abs="730761.211071" HC_abs="116.786095" PMx_abs="15.248389" NOx_abs="319.838117" fuel_abs="314.127888" electricity_abs="0"
            CO_normed="1648.792834" CO2_normed="55103.455582" HC_normed="8.806320" PMx_normed="1.149813" NOx_normed="24.117571" fuel_normed="23.686988" electricity_normed="0"
            traveltime="2.29" CO_perVeh="310.411334" CO2_perVeh="10374.097228" HC_perVeh="1.657929" PMx_perVeh="0.216471" NOx_perVeh="4.540514" fuel_perVeh="4.459450" electricity_perVeh="0"/>
        <edge id=":1106006327_2" sampledSeconds="0.00" CO_abs="0" CO2_abs="0" HC_abs="0" PMx_abs="0" NOx_abs="0" fuel_abs="0" electricity_abs="0"
            CO_normed="0" CO2_normed="0" HC_normed="0" PMx_normed="0" NOx_normed="0" fuel_normed="0" electricity_normed="0"/>
        <edge id=":1106006327_3" sampledSeconds="0.00" CO_abs="0" CO2_abs="0" HC_abs="0" PMx_abs="0" NOx_abs="0" fuel_abs="0" electricity_abs="0"
            CO_normed="0" CO2_normed="0" HC_normed="0" PMx_normed="0" NOx_normed="0" fuel_normed="0" electricity_normed="0"/>
        <edge id=":1107381198_0" sampledSeconds="0.00" CO_abs="0" CO2_abs="0" HC_abs="0" PMx_abs="0" NOx_abs="0" fuel_abs="0" electricity_abs="0"
            CO_normed="0" CO2_normed="0" HC_normed="0" PMx_normed="0" NOx_normed="0" fuel_normed="0" electricity_normed="0"/>
        <edge id=":1107381198_1" sampledSeconds="35.81" CO_abs="1498.770807" CO2_abs="62915.251570" HC_abs="8.280972" PMx_abs="1.114462" NOx_abs="26.240601" fuel_abs="27.044974" electricity_abs="0"
            CO_normed="125.216899" CO2_normed="5256.342521" HC_normed="0.691845" PMx_normed="0.093109" NOx_normed="2.192308" fuel_normed="2.259510" electricity_normed="0"
            traveltime="1.47" CO_perVeh="61.708550" CO2_perVeh="2590.395370" HC_perVeh="0.340951" PMx_perVeh="0.045885" NOx_perVeh="1.080398" fuel_perVeh="1.113517" electricity_perVeh="0"/>
        <edge id=":1110338277_0" sampledSeconds="96.01" CO_abs="1493.422336" CO2_abs="184769.774882" HC_abs="11.024066" PMx_abs="2.520857" NOx_abs="68.984154" fuel_abs="79.424780" electricity_abs="0"
            CO_normed="4086.219264" CO2_normed="505556.797477" HC_normed="30.163437" PMx_normed="6.897428" NOx_normed="188.750612" fuel_normed="217.317671" electricity_normed="0"
            traveltime="0.02" CO_perVeh="0.338377" CO2_perVeh="41.864807" HC_perVeh="0.002498" PMx_perVeh="0.000571" NOx_perVeh="0.015630" fuel_perVeh="0.017996" electricity_perVeh="0"/>
        <edge id=":1110338293_0" sampledSeconds="124.46" CO_abs="6382.214601" CO2_abs="428384.929986" HC_abs="39.140800" PMx_abs="7.620957" NOx_abs="176.222567" fuel_abs="184.144024" electricity_abs="0"
            CO_normed="16298.483765" CO2_normed="1093981.519438" HC_normed="99.955225" PMx_normed="19.461902" NOx_normed="450.025707" fuel_normed="470.255010" electricity_normed="0"
            traveltime="0.03" CO_perVeh="1.463867" CO2_perVeh="98.257180" HC_perVeh="0.008978" PMx_perVeh="0.001748" NOx_perVeh="0.040420" fuel_perVeh="0.042236" electricity_perVeh="0"/>
        <edge id=":1110338295_0" sampledSeconds="0.00" CO_abs="0" CO2_abs="0" HC_abs="0" PMx_abs="0" NOx_abs="0" fuel_abs="0" electricity_abs="0"
            CO_normed="0" CO2_normed="0" HC_normed="0" PMx_normed="0" NOx_normed="0" fuel_normed="0" electricity_normed="0"/>
        <edge id=":1110673403_0" sampledSeconds="143.85" CO_abs="2295.358825" CO2_abs="290274.717944" HC_abs="17.083138" PMx_abs="3.939221" NOx_abs="108.167703" fuel_abs="124.776927" electricity_abs="0"
            CO_normed="5861.737796" CO2_normed="741284.659573" HC_normed="43.625803" PMx_normed="10.059726" NOx_normed="276.231632" fuel_normed="318.647184" electricity_normed="0"
            traveltime="0.02" CO_perVeh="0.368535" CO2_perVeh="46.605521" HC_perVeh="0.002743" PMx_perVeh="0.000632" NOx_perVeh="0.017367" fuel_perVeh="0.020034" electricity_perVeh="0"/>
        <edge id=":1110673412_0" sampledSeconds="253.08" CO_abs="44459.023024" CO2_abs="3042127.057339" HC_abs="276.888874" PMx_abs="66.759330" NOx_abs="1306.487517" fuel_abs="1307.660652" electricity_abs="0"
            CO_normed="117451.609576" CO2_normed="8036675.012601" HC_normed="731.483550" PMx_normed="176.364442" NOx_normed="3451.471745" fuel_normed="3454.570925" electricity_normed="0"
            traveltime="0.02" CO_perVeh="2.731153" CO2_perVeh="186.880263" HC_perVeh="0.017010" PMx_perVeh="0.004101" NOx_perVeh="0.080259" fuel_perVeh="0.080331" electricity_perVeh="0"/>
        <edge id=":1110673414_0" sampledSeconds="0.00" CO_abs="0" CO2_abs="0" HC_abs="0" PMx_abs="0" NOx_abs="0" fuel_abs="0" electricity_abs="0"
            CO_normed="0" CO2_normed="0" HC_normed="0" PMx_normed="0" NOx_normed="0" fuel_normed="0" electricity_normed="0"/>
        <edge id=":1110673414_1" sampledSeconds="134.30" CO_abs="9107.086647" CO2_abs="342269.363550" HC_abs="49.427288" PMx_abs="6.407118" NOx_abs="145.089844" fuel_abs="147.129403" electricity_abs="0"
            CO_normed="772.660613" CO2_normed="29038.710877" HC_normed="4.193495" PMx_normed="0.543591" NOx_normed="12.309667" fuel_normed="12.482707" electricity_normed="0"
            traveltime="1.60" CO_perVeh="108.506389" CO2_perVeh="4077.968535" HC_perVeh="0.588901" PMx_perVeh="0.076338" NOx_perVeh="1.728673" fuel_perVeh="1.752973" electricity_perVeh="0"/>
        <edge id=":1110673417_0" sampledSeconds="30.11" CO_abs="448.590383" CO2_abs="46315.751907" HC_abs="3.110320" PMx_abs="0.690493" NOx_abs="17.803254" fuel_abs="19.909160" electricity_abs="0"
            CO_normed="1227.408094" CO2_normed="126726.588381" HC_normed="8.510284" PMx_normed="1.889289" NOx_normed="48.712275" fuel_normed="54.474339" electricity_normed="0"
            traveltime="0.02" CO_perVeh="0.332950" CO2_perVeh="34.376171" HC_perVeh="0.002309" PMx_perVeh="0.000512" NOx_perVeh="0.013214" fuel_perVeh="0.014777" electricity_perVeh="0"/>
        <edge id=":1110673446_0" sampledSeconds="334.22" CO_abs="3383.110110" CO2_abs="272312.284314" HC_abs="21.855402" PMx_abs="4.999683" NOx_abs="111.439983" fuel_abs="117.054536" electricity_abs="0"
            CO_normed="8639.566146" CO2_normed="695413.367050" HC_normed="55.812900" PMx_normed="12.767865" NOx_normed="284.588166" fuel_normed="298.926247" electricity_normed="0"
            traveltime="0.02" CO_perVeh="0.231053" CO2_perVeh="18.597841" HC_perVeh="0.001493" PMx_perVeh="0.000341" NOx_perVeh="0.007611" fuel_perVeh="0.007994" electricity_perVeh="0"/>
        <edge id=":1110673451_0" sampledSeconds="37.85" CO_abs="411.593508" CO2_abs="27939.679015" HC_abs="2.521118" PMx_abs="0.442824" NOx_abs="11.152392" fuel_abs="12.010129" electricity_abs="0"
            CO_normed="1167.889644" CO2_normed="79278.368490" HC_normed="7.153631" PMx_normed="1.256506" NOx_normed="31.644725" fuel_normed="34.078539" electricity_normed="0"
            traveltime="0.03" CO_perVeh="0.295167" CO2_perVeh="20.036423" HC_perVeh="0.001808" PMx_perVeh="0.000318" NOx_perVeh="0.007998" fuel_perVeh="0.008613" electricity_perVeh="0"/>
        <edge id=":1110673464_0" sampledSeconds="322.53" CO_abs="384.306634" CO2_abs="37430.538550" HC_abs="2.583669" PMx_abs="0.407891" NOx_abs="13.501651" fuel_abs="16.090027" electricity_abs="0"
            CO_normed="20.851641" CO2_normed="2030.899510" HC_normed="0.140184" PMx_normed="0.022131" NOx_normed="0.732570" fuel_normed="0.873010" electricity_normed="0"
            traveltime="1.17" CO_perVeh="1.389218" CO2_perVeh="135.306458" HC_perVeh="0.009340" PMx_perVeh="0.001474" NOx_perVeh="0.048807" fuel_perVeh="0.058163" electricity_perVeh="0"/>
        <edge id=":1110673464_1" sampledSeconds="708.74" CO_abs="16587.653840" CO2_abs="2114359.822781" HC_abs="126.112470" PMx_abs="37.560830" NOx_abs="794.025480" fuel_abs="908.866239" electricity_abs="0"
            CO_normed="881.897352" CO2_normed="112411.818275" HC_normed="6.704882" PMx_normed="1.996955" NOx_normed="42.215070" fuel_normed="48.320681" electricity_normed="0"
            traveltime="0.70" CO_perVeh="16.374785" CO2_perVeh="2087.226291" HC_perVeh="0.124494" PMx_perVeh="0.037079" NOx_perVeh="0.783836" fuel_perVeh="0.897203" electricity_perVeh="0"/>
        <edge id=":1110673479_0" sampledSeconds="134.22" CO_abs="6782.477891" CO2_abs="461714.575026" HC_abs="41.748264" PMx_abs="8.196133" NOx_abs="189.743134" fuel_abs="198.470940" electricity_abs="0"
            CO_normed="17320.650072" CO2_normed="1179096.595086" HC_normed="106.613997" PMx_normed="20.930750" NOx_normed="484.553650" fuel_normed="506.842153" electricity_normed="0"
            traveltime="0.03" CO_perVeh="1.428792" CO2_perVeh="97.264499" HC_perVeh="0.008795" PMx_perVeh="0.001727" NOx_perVeh="0.039971" fuel_perVeh="0.041810" electricity_perVeh="0"/>
        <edge id=":1110673511_0" sampledSeconds="11.92" CO_abs="167.257795" CO2_abs="24144.611473" HC_abs="1.302088" PMx_abs="0.304157" NOx_abs="8.802764" fuel_abs="10.378774" electricity_abs="0"
            CO_normed="427.132058" CO2_normed="61658.935450" HC_normed="3.325187" PMx_normed="0.776737" NOx_normed="22.479925" fuel_normed="26.504638" electricity_normed="0"
            traveltime="0.02" CO_perVeh="0.331204" CO2_perVeh="47.811112" HC_perVeh="0.002578" PMx_perVeh="0.000602" NOx_perVeh="0.017431" fuel_perVeh="0.020552" electricity_perVeh="0"/>
        <edge id=":1110673517_0" sampledSeconds="16.96" CO_abs="820.445871" CO2_abs="61666.108488" HC_abs="5.177978" PMx_abs="1.025799" NOx_abs="24.782158" fuel_abs="26.507612" electricity_abs="0"
            CO_normed="2095.201204" CO2_normed="157478.889520" HC_normed="13.223182" PMx_normed="2.619620" NOx_normed="63.287060" fuel_normed="67.693412" electricity_normed="0"
            traveltime="0.03" CO_perVeh="1.317280" CO2_perVeh="99.009005" HC_perVeh="0.008314" PMx_perVeh="0.001647" NOx_perVeh="0.039789" fuel_perVeh="0.042560" electricity_perVeh="0"/>
        <edge id=":1110673534_0" sampledSeconds="476.61" CO_abs="2635.268999" CO2_abs="241406.417540" HC_abs="17.482060" PMx_abs="3.064707" NOx_abs="90.224561" fuel_abs="103.771279" electricity_abs="0"
            CO_normed="130.422059" CO2_normed="11947.441442" HC_normed="0.865204" PMx_normed="0.151675" NOx_normed="4.465302" fuel_normed="5.135743" electricity_normed="0"
            traveltime="1.44" CO_perVeh="7.939009" CO2_perVeh="727.260781" HC_perVeh="0.052666" PMx_perVeh="0.009233" NOx_perVeh="0.271810" fuel_perVeh="0.312621" electricity_perVeh="0"/>
        <edge id=":1110673534_1" sampledSeconds="184.03" CO_abs="2821.429118" CO2_abs="343503.961486" HC_abs="20.688061" PMx_abs="4.747871" NOx_abs="128.674366" fuel_abs="147.657889" electricity_abs="0"
            CO_normed="135.776040" CO2_normed="16530.490575" HC_normed="0.995575" PMx_normed="0.228482" NOx_normed="6.192215" fuel_normed="7.105762" electricity_normed="0"
            traveltime="1.22" CO_perVeh="18.733276" CO2_perVeh="2280.742984" HC_perVeh="0.137361" PMx_perVeh="0.031524" NOx_perVeh="0.854352" fuel_perVeh="0.980395" electricity_perVeh="0"/>
        <edge id=":1110673549_0" sampledSeconds="58.79" CO_abs="92.509057" CO2_abs="11476.179412" HC_abs="0.691596" PMx_abs="0.178191" NOx_abs="4.358190" fuel_abs="4.933103" electricity_abs="0"
            CO_normed="4.435111" CO2_normed="550.196230" HC_normed="0.033157" PMx_normed="0.008543" NOx_normed="0.208942" fuel_normed="0.236505" electricity_normed="0"
            traveltime="1.22" CO_perVeh="1.927347" CO2_perVeh="239.096422" HC_perVeh="0.014409" PMx_perVeh="0.003712" NOx_perVeh="0.090799" fuel_perVeh="0.102777" electricity_perVeh="0"/>
        <edge id=":1110673549_1" sampledSeconds="638.85" CO_abs="13582.519679" CO2_abs="1810737.194175" HC_abs="105.312862" PMx_abs="31.789100" NOx_abs="675.378519" fuel_abs="778.353111" electricity_abs="0"
            CO_normed="629.893832" CO2_normed="83973.534875" HC_normed="4.883919" PMx_normed="1.474230" NOx_normed="31.320902" fuel_normed="36.096382" electricity_normed="0"
            traveltime="0.80" CO_perVeh="17.100169" CO2_perVeh="2279.688317" HC_perVeh="0.132587" PMx_perVeh="0.040022" NOx_perVeh="0.850290" fuel_perVeh="0.979934" electricity_perVeh="0"/>
        <edge id=":1110673556_0" sampledSeconds="418.77" CO_abs="51741.613324" CO2_abs="2591600.550204" HC_abs="297.229079" PMx_abs="52.333605" NOx_abs="1116.517575" fuel_abs="1114.016865" electricity_abs="0"
            CO_normed="1839.457454" CO2_normed="92133.558364" HC_normed="10.566741" PMx_normed="1.860503" NOx_normed="39.693130" fuel_normed="39.604228" electricity_normed="0"
            traveltime="2.60" CO_perVeh="321.186706" CO2_perVeh="16087.392516" HC_perVeh="1.845053" PMx_perVeh="0.324862" NOx_perVeh="6.930797" fuel_perVeh="6.915273" electricity_perVeh="0"/>
        <edge id=":1110673556_2" sampledSeconds="245.58" CO_abs="23556.959382" CO2_abs="1021360.741807" HC_abs="131.248142" PMx_abs="19.662283" NOx_abs="435.263556" fuel_abs="439.042787" electricity_abs="0"
            CO_normed="875.665616" CO2_normed="37966.295600" HC_normed="4.878791" PMx_normed="0.730892" NOx_normed="16.179734" fuel_normed="16.320216" electricity_normed="0"
            traveltime="2.98" CO_perVeh="285.741403" CO2_perVeh="12388.910076" HC_perVeh="1.592015" PMx_perVeh="0.238500" NOx_perVeh="5.279664" fuel_perVeh="5.325505" electricity_perVeh="0"/>
        <edge id=":1110673556_3" sampledSeconds="375.59" CO_abs="32419.454029" CO2_abs="1144183.364217" HC_abs="174.272378" PMx_abs="21.996456" NOx_abs="489.044080" fuel_abs="491.844434" electricity_abs="0"
            CO_normed="2741.413548" CO2_normed="96753.010508" HC_normed="14.736604" PMx_normed="1.860037" NOx_normed="41.353937" fuel_normed="41.590737" electricity_normed="0"
            traveltime="1.77" CO_perVeh="153.011973" CO2_perVeh="5400.268432" HC_perVeh="0.822523" PMx_perVeh="0.103818" NOx_perVeh="2.308170" fuel_perVeh="2.321387" electricity_perVeh="0"/>
        <edge id=":1110673556_4" sampledSeconds="173.51" CO_abs="17396.155384" CO2_abs="698297.824307" HC_abs="95.578184" PMx_abs="13.522800" NOx_abs="298.575878" fuel_abs="300.171686" electricity_abs="0"
            CO_normed="898.688497" CO2_normed="36074.190438" HC_normed="4.937586" PMx_normed="0.698590" NOx_normed="15.424483" fuel_normed="15.506923" electricity_normed="0"
            traveltime="2.39" CO_perVeh="239.562619" CO2_perVeh="9616.265888" HC_perVeh="1.316208" PMx_perVeh="0.186223" NOx_perVeh="4.111691" fuel_perVeh="4.133667" electricity_perVeh="0"/>
        <edge id=":1110673556_5" sampledSeconds="23.54" CO_abs="1904.051056" CO2_abs="80340.575783" HC_abs="10.542649" PMx_abs="1.486614" NOx_abs="33.896345" fuel_abs="34.535382" electricity_abs="0"
            CO_normed="137.098915" CO2_normed="5784.826895" HC_normed="0.759111" PMx_normed="0.107042" NOx_normed="2.440666" fuel_normed="2.486679" electricity_normed="0"
            traveltime="1.63" CO_perVeh="131.638098" CO2_perVeh="5554.410178" HC_perVeh="0.728875" PMx_perVeh="0.102778" NOx_perVeh="2.343451" fuel_perVeh="2.387631" electricity_perVeh="0"/>
        <edge id=":1110673556_6" sampledSeconds="312.80" CO_abs="37208.623042" CO2_abs="1887307.069748" HC_abs="214.291246" PMx_abs="37.910935" NOx_abs="811.186125" fuel_abs="811.271559" electricity_abs="0"
            CO_normed="1356.150669" CO2_normed="68787.085811" HC_normed="7.810319" PMx_normed="1.381748" NOx_normed="29.565475" fuel_normed="29.568589" electricity_normed="0"
            traveltime="2.48" CO_perVeh="294.662363" CO2_perVeh="14945.953791" HC_perVeh="1.697014" PMx_perVeh="0.300224" NOx_perVeh="6.423942" fuel_perVeh="6.424618" electricity_perVeh="0"/>
        <edge id=":1110673561_0" sampledSeconds="100.43" CO_abs="9353.118311" CO2_abs="671132.121088" HC_abs="58.740731" PMx_abs="13.639819" NOx_abs="284.099503" fuel_abs="288.487622" electricity_abs="0"
            CO_normed="428.309338" CO2_normed="30733.296079" HC_normed="2.689927" PMx_normed="0.624611" NOx_normed="13.009829" fuel_normed="13.210775" electricity_normed="0"
            traveltime="1.19" CO_perVeh="110.375874" CO2_perVeh="7920.010430" HC_perVeh="0.693198" PMx_perVeh="0.160963" NOx_perVeh="3.352650" fuel_perVeh="3.404434" electricity_perVeh="0"/>
        <edge id=":1110673561_1" sampledSeconds="1311.72" CO_abs="122773.204456" CO2_abs="8507569.738945" HC_abs="764.849439" PMx_abs="177.736245" NOx_abs="3636.648202" fuel_abs="3656.993469" electricity_abs="0"
            CO_normed="5481.297365" CO2_normed="379826.524864" HC_normed="34.147249" PMx_normed="7.935162" NOx_normed="162.360755" fuel_normed="163.269084" electricity_normed="0"
            traveltime="1.19" CO_perVeh="111.707638" CO2_perVeh="7740.781236" HC_perVeh="0.695913" PMx_perVeh="0.161717" NOx_perVeh="3.308877" fuel_perVeh="3.327388" electricity_perVeh="0"/>
        <edge id=":1110673562_0" sampledSeconds="104.11" CO_abs="2082.632403" CO2_abs="167246.193670" HC_abs="13.295154" PMx_abs="2.238334" NOx_abs="63.592150" fuel_abs="71.892677" electricity_abs="0"
            CO_normed="5909.434355" CO2_normed="474558.256848" HC_normed="37.724774" PMx_normed="6.351236" NOx_normed="180.441656" fuel_normed="203.994260" electricity_normed="0"
            traveltime="0.03" CO_perVeh="0.530872" CO2_perVeh="42.631816" HC_perVeh="0.003389" PMx_perVeh="0.000571" NOx_perVeh="0.016210" fuel_perVeh="0.018326" electricity_perVeh="0"/>
        <edge id=":1110673564_0" sampledSeconds="28.66" CO_abs="607.312103" CO2_abs="65810.447017" HC_abs="4.271401" PMx_abs="0.932218" NOx_abs="24.951144" fuel_abs="28.289147" electricity_abs="0"
            CO_normed="4652.742224" CO2_normed="504187.293600" HC_normed="32.724076" PMx_normed="7.141916" NOx_normed="191.155820" fuel_normed="216.728944" electricity_normed="0"
            traveltime="7.878859e-03" CO_perVeh="0.166959" CO2_perVeh="18.092219" HC_perVeh="0.001174" PMx_perVeh="0.000256" NOx_perVeh="0.006859" fuel_perVeh="0.007777" electricity_perVeh="0"/>
        <edge id=":1110673588_0" sampledSeconds="11.70" CO_abs="124.527468" CO2_abs="17316.370197" HC_abs="0.966101" PMx_abs="0.237411" NOx_abs="6.429492" fuel_abs="7.443571" electricity_abs="0"
            CO_normed="381.612161" CO2_normed="53065.701392" HC_normed="2.960600" PMx_normed="0.727540" NOx_normed="19.703060" fuel_normed="22.810689" electricity_normed="0"
            traveltime="0.02" CO_perVeh="0.207546" CO2_perVeh="28.860617" HC_perVeh="0.001610" PMx_perVeh="0.000396" NOx_perVeh="0.010716" fuel_perVeh="0.012406" electricity_perVeh="0"/>
        <edge id=":1110673601_0" sampledSeconds="29.76" CO_abs="522.710402" CO2_abs="60605.753171" HC_abs="3.776949" PMx_abs="0.838214" NOx_abs="22.774834" fuel_abs="26.051877" electricity_abs="0"
            CO_normed="1430.211175" CO2_normed="165826.096294" HC_normed="10.334279" PMx_normed="2.293475" NOx_normed="62.315235" fuel_normed="71.281700" electricity_normed="0"
            traveltime="0.02" CO_perVeh="0.387963" CO2_perVeh="44.982401" HC_perVeh="0.002803" PMx_perVeh="0.000622" NOx_perVeh="0.016904" fuel_perVeh="0.019336" electricity_perVeh="0"/>
        <edge id=":1110673617_0" sampledSeconds="238.39" CO_abs="6017.126018" CO2_abs="742321.107117" HC_abs="45.188396" PMx_abs="13.286878" NOx_abs="280.500401" fuel_abs="319.089678" electricity_abs="0"
            CO_normed="15366.144331" CO2_normed="1895691.271633" HC_normed="115.399181" PMx_normed="33.931162" NOx_normed="716.323646" fuel_normed="814.870427" electricity_normed="0"
            traveltime="0.01" CO_perVeh="0.368616" CO2_perVeh="45.475424" HC_perVeh="0.002768" PMx_perVeh="0.000814" NOx_perVeh="0.017184" fuel_perVeh="0.019548" electricity_perVeh="0"/>
        <edge id=":1110673621_0" sampledSeconds="25.53" CO_abs="710.220847" CO2_abs="72460.246025" HC_abs="4.920435" PMx_abs="1.124856" NOx_abs="28.093708" fuel_abs="31.147505" electricity_abs="0"
            CO_normed="2176.458862" CO2_normed="222053.105503" HC_normed="15.078585" PMx_normed="3.447101" NOx_normed="86.092656" fuel_normed="95.450963" electricity_normed="0"
            traveltime="0.02" CO_perVeh="0.538046" CO2_perVeh="54.894126" HC_perVeh="0.003728" PMx_perVeh="0.000852" NOx_perVeh="0.021283" fuel_perVeh="0.023597" electricity_perVeh="0"/>
        <edge id=":1110673630_0" sampledSeconds="53.83" CO_abs="305.341329" CO2_abs="28240.986354" HC_abs="2.038162" PMx_abs="0.384629" NOx_abs="10.690398" fuel_abs="12.139669" electricity_abs="0"
            CO_normed="16.685324" CO2_normed="1543.223767" HC_normed="0.111375" PMx_normed="0.021018" NOx_normed="0.584175" fuel_normed="0.663370" electricity_normed="0"
            traveltime="1.26" CO_perVeh="7.127207" CO2_perVeh="659.194574" HC_perVeh="0.047574" PMx_perVeh="0.008978" NOx_perVeh="0.249533" fuel_perVeh="0.283361" electricity_perVeh="0"/>
        <edge id=":1110673630_1" sampledSeconds="7.42" CO_abs="6.614211" CO2_abs="808.926282" HC_abs="0.048691" PMx_abs="0.010562" NOx_abs="0.300586" fuel_abs="0.347724" electricity_abs="0"
            CO_normed="0.440633" CO2_normed="53.889997" HC_normed="0.003244" PMx_normed="0.000704" NOx_normed="0.020025" fuel_normed="0.023165" electricity_normed="0"
            traveltime="1.05" CO_perVeh="0.936165" CO2_perVeh="114.494181" HC_perVeh="0.006892" PMx_perVeh="0.001495" NOx_perVeh="0.042544" fuel_perVeh="0.049216" electricity_perVeh="0"/>
        <edge id=":1110673650_0" sampledSeconds="143.14" CO_abs="2249.995563" CO2_abs="280061.826016" HC_abs="16.616765" PMx_abs="3.849238" NOx_abs="104.684813" fuel_abs="120.386781" electricity_abs="0"
            CO_normed="5745.892053" CO2_normed="715203.641667" HC_normed="42.434813" PMx_normed="9.829933" NOx_normed="267.337254" fuel_normed="307.435917" electricity_normed="0"
            traveltime="0.02" CO_perVeh="0.362068" CO2_perVeh="45.067363" HC_perVeh="0.002674" PMx_perVeh="0.000619" NOx_perVeh="0.016846" fuel_perVeh="0.019373" electricity_perVeh="0"/>
        <edge id=":1110673655_0" sampledSeconds="44.55" CO_abs="829.993050" CO2_abs="90079.127074" HC_abs="5.853440" PMx_abs="1.270869" NOx_abs="34.124367" fuel_abs="38.721243" electricity_abs="0"
            CO_normed="2119.582167" CO2_normed="230038.204913" HC_normed="14.948135" PMx_normed="3.245462" NOx_normed="87.144584" fuel_normed="98.883786" electricity_normed="0"
            traveltime="0.02" CO_perVeh="0.444203" CO2_perVeh="48.209327" HC_perVeh="0.003133" PMx_perVeh="0.000680" NOx_perVeh="0.018263" fuel_perVeh="0.020723" electricity_perVeh="0"/>
        <edge id=":1110673663_0" sampledSeconds="107.95" CO_abs="1727.568772" CO2_abs="195769.184561" HC_abs="12.357708" PMx_abs="2.781472" NOx_abs="74.029213" fuel_abs="84.152897" electricity_abs="0"
            CO_normed="80.801329" CO2_normed="9156.457631" HC_normed="0.577991" PMx_normed="0.130094" NOx_normed="3.462472" fuel_normed="3.935974" electricity_normed="0"
            traveltime="1.27" CO_perVeh="20.291110" CO2_perVeh="2299.401428" HC_perVeh="0.145147" PMx_perVeh="0.032670" NOx_perVeh="0.869508" fuel_perVeh="0.988415" electricity_perVeh="0"/>
        <edge id=":1110673663_1" sampledSeconds="154.29" CO_abs="2453.170579" CO2_abs="312256.224457" HC_abs="18.250745" PMx_abs="4.304609" NOx_abs="116.561845" fuel_abs="134.225749" electricity_abs="0"
            CO_normed="114.879227" CO2_normed="14622.608775" HC_normed="0.854662" PMx_normed="0.201580" NOx_normed="5.458460" fuel_normed="6.285641" electricity_normed="0"
            traveltime="1.25" CO_perVeh="19.866667" CO2_perVeh="2528.764357" HC_perVeh="0.147801" PMx_perVeh="0.034860" NOx_perVeh="0.943960" fuel_perVeh="1.087009" electricity_perVeh="0"/>
        <edge id=":1110673666_0" sampledSeconds="191.10" CO_abs="4557.746656" CO2_abs="354820.626564" HC_abs="28.860787" PMx_abs="4.885580" NOx_abs="135.977760" fuel_abs="152.523570" electricity_abs="0"