<?xml version="1.0" encoding="UTF-8"?>

<!-- generated on Tue Nov 10 06:40:23 2020 by Eclipse SUMO sumo Version 1.7.0
<configuration xmlns:xsi="http://www.w3.org/2001/XMLSchema-instance" xsi:noNamespaceSchemaLocation="http://sumo.dlr.de/xsd/sumoConfiguration.xsd">

    <input>
        <net-file value="../dataSets/Porto/8AM9AM_Routing_SaoBento/Porto.net.xml"/>
        <route-files value="../results/Porto/8AM9AM_Routing_SaoBento/cost_co-length/solution11/Porto.rou.xml"/>
        <additional-files value="moreOutputInfo.xml"/>
    </input>

    <output>
        <emission-output.precision value="6"/>
        <tripinfo-output value="../results/Porto/8AM9AM_Routing_SaoBento/cost_co-length/solution11/Porto-tripinfo"/>
    </output>

    <processing>
        <collision.action value="warn"/>
        <time-to-teleport value="-1"/>
    </processing>

    <emissions>
        <device.emissions.probability value="1"/>
    </emissions>

    <gui_only>
        <quit-on-end value="true"/>
        <start value="true"/>
    </gui_only>

</configuration>
-->

<meandata xmlns:xsi="http://www.w3.org/2001/XMLSchema-instance" xsi:noNamespaceSchemaLocation="http://sumo.dlr.de/xsd/meandata_file.xsd">
    <interval begin="0.00" end="8472.00" id="emissions-detector">
        <edge id=":1092997347_0" sampledSeconds="590.07" CO_abs="72026.384002" CO2_abs="3084355.822968" HC_abs="400.944379" PMx_abs="62.427355" NOx_abs="1334.781727" fuel_abs="1325.839215" electricity_abs="0"
            CO_normed="69559.345868" CO2_normed="2978710.877190" HC_normed="387.211285" PMx_normed="60.289102" NOx_normed="1289.062961" fuel_normed="1280.426747" electricity_normed="0"
            traveltime="0.07" CO_perVeh="8.273492" CO2_perVeh="354.292296" HC_perVeh="0.046055" PMx_perVeh="0.007171" NOx_perVeh="0.153323" fuel_perVeh="0.152296" electricity_perVeh="0"/>
        <edge id=":1103427051_0" sampledSeconds="19.28" CO_abs="1658.059925" CO2_abs="92855.962587" HC_abs="9.758541" PMx_abs="1.845016" NOx_abs="39.781694" fuel_abs="39.914639" electricity_abs="0"
            CO_normed="2429.510489" CO2_normed="136059.337580" HC_normed="14.298928" PMx_normed="2.703451" NOx_normed="58.291044" fuel_normed="58.485844" electricity_normed="0"
            traveltime="0.03" CO_perVeh="2.578493" CO2_perVeh="144.402773" HC_perVeh="0.015176" PMx_perVeh="0.002869" NOx_perVeh="0.061866" fuel_perVeh="0.062072" electricity_perVeh="0"/>
        <edge id=":1105984386_0" sampledSeconds="10.40" CO_abs="322.320189" CO2_abs="23819.591941" HC_abs="2.008685" PMx_abs="0.315923" NOx_abs="9.077918" fuel_abs="10.239145" electricity_abs="0"
            CO_normed="14.105381" CO2_normed="1042.393371" HC_normed="0.087904" PMx_normed="0.013825" NOx_normed="0.397268" fuel_normed="0.448086" electricity_normed="0"
            traveltime="1.00" CO_perVeh="30.920066" CO2_perVeh="2285.005313" HC_perVeh="0.192692" PMx_perVeh="0.030306" NOx_perVeh="0.870842" fuel_perVeh="0.982238" electricity_perVeh="0"/>
        <edge id=":1105984390_0" sampledSeconds="10.55" CO_abs="15.508410" CO2_abs="1603.998800" HC_abs="0.106342" PMx_abs="0.016033" NOx_abs="0.569756" fuel_abs="0.689502" electricity_abs="0"
            CO_normed="0.524680" CO2_normed="54.266393" HC_normed="0.003598" PMx_normed="0.000542" NOx_normed="0.019276" fuel_normed="0.023327" electricity_normed="0"
            traveltime="1.09" CO_perVeh="1.607540" CO2_perVeh="166.264132" HC_perVeh="0.011023" PMx_perVeh="0.001662" NOx_perVeh="0.059059" fuel_perVeh="0.071471" electricity_perVeh="0"/>
        <edge id=":1105984390_1" sampledSeconds="2394.76" CO_abs="64863.045444" CO2_abs="7519428.004611" HC_abs="475.505437" PMx_abs="136.953144" NOx_abs="2873.325152" fuel_abs="3232.253984" electricity_abs="0"
            CO_normed="2099.177503" CO2_normed="243352.959982" HC_normed="15.388891" PMx_normed="4.432246" NOx_normed="92.990076" fuel_normed="104.606171" electricity_normed="0"
            traveltime="0.65" CO_perVeh="17.519890" CO2_perVeh="2031.041766" HC_perVeh="0.128437" PMx_perVeh="0.036992" NOx_perVeh="0.776102" fuel_perVeh="0.873051" electricity_perVeh="0"/>
        <edge id=":1105984395_0" sampledSeconds="4.11" CO_abs="65.925380" CO2_abs="5226.775674" HC_abs="0.420697" PMx_abs="0.077288" NOx_abs="2.036200" fuel_abs="2.246778" electricity_abs="0"
            CO_normed="30.449584" CO2_normed="2414.140754" HC_normed="0.194311" PMx_normed="0.035698" NOx_normed="0.940479" fuel_normed="1.037741" electricity_normed="0"
            traveltime="0.10" CO_perVeh="1.528127" CO2_perVeh="121.154790" HC_perVeh="0.009752" PMx_perVeh="0.001792" NOx_perVeh="0.047198" fuel_perVeh="0.052080" electricity_perVeh="0"/>
        <edge id=":1105984398_0" sampledSeconds="11.80" CO_abs="654.722292" CO2_abs="41834.515378" HC_abs="3.971031" PMx_abs="0.781102" NOx_abs="17.494714" fuel_abs="17.982802" electricity_abs="0"
            CO_normed="23.011630" CO2_normed="1470.364454" HC_normed="0.139570" PMx_normed="0.027454" NOx_normed="0.614890" fuel_normed="0.632044" electricity_normed="0"
            traveltime="1.21" CO_perVeh="67.149580" CO2_perVeh="4290.628528" HC_perVeh="0.407277" PMx_perVeh="0.080111" NOx_perVeh="1.794292" fuel_perVeh="1.844351" electricity_perVeh="0"/>
        <edge id=":1105984398_1" sampledSeconds="648.18" CO_abs="12365.029771" CO2_abs="1420091.969167" HC_abs="88.928050" PMx_abs="20.568828" NOx_abs="538.711598" fuel_abs="610.436844" electricity_abs="0"
            CO_normed="420.677497" CO2_normed="48313.732091" HC_normed="3.025470" PMx_normed="0.699783" NOx_normed="18.327804" fuel_normed="20.768009" electricity_normed="0"
            traveltime="0.96" CO_perVeh="18.242921" CO2_perVeh="2095.152661" HC_perVeh="0.131201" PMx_perVeh="0.030347" NOx_perVeh="0.794796" fuel_perVeh="0.900617" electricity_perVeh="0"/>
        <edge id=":1106006327_0" sampledSeconds="511.69" CO_abs="68958.596612" CO2_abs="2234765.581538" HC_abs="366.592606" PMx_abs="46.597384" NOx_abs="978.101275" fuel_abs="960.646939" electricity_abs="0"
            CO_normed="3307.282145" CO2_normed="107180.259891" HC_normed="17.581929" PMx_normed="2.234829" NOx_normed="46.910132" fuel_normed="46.073015" electricity_normed="0"
            traveltime="2.10" CO_perVeh="282.336409" CO2_perVeh="9149.775670" HC_perVeh="1.500936" PMx_perVeh="0.190783" NOx_perVeh="4.004629" fuel_perVeh="3.933166" electricity_perVeh="0"/>
        <edge id=":1106006327_1" sampledSeconds="681.56" CO_abs="92082.993003" CO2_abs="3079453.542948" HC_abs="491.858400" PMx_abs="64.197871" NOx_abs="1347.481044" fuel_abs="1323.746042" electricity_abs="0"
            CO_normed="3851.254977" CO2_normed="128794.258282" HC_normed="20.571357" PMx_normed="2.684995" NOx_normed="56.356694" fuel_normed="55.364008" electricity_normed="0"
            traveltime="2.29" CO_perVeh="309.100319" CO2_perVeh="10336.980172" HC_perVeh="1.651050" PMx_perVeh="0.215497" NOx_perVeh="4.523168" fuel_perVeh="4.443495" electricity_perVeh="0"/>
        <edge id=":1106006327_2" sampledSeconds="0.00" CO_abs="0" CO2_abs="0" HC_abs="0" PMx_abs="0" NOx_abs="0" fuel_abs="0" electricity_abs="0"
            CO_normed="0" CO2_normed="0" HC_normed="0" PMx_normed="0" NOx_normed="0" fuel_normed="0" electricity_normed="0"/>
        <edge id=":1106006327_3" sampledSeconds="0.00" CO_abs="0" CO2_abs="0" HC_abs="0" PMx_abs="0" NOx_abs="0" fuel_abs="0" electricity_abs="0"
            CO_normed="0" CO2_normed="0" HC_normed="0" PMx_normed="0" NOx_normed="0" fuel_normed="0" electricity_normed="0"/>
        <edge id=":1107381198_0" sampledSeconds="0.00" CO_abs="0" CO2_abs="0" HC_abs="0" PMx_abs="0" NOx_abs="0" fuel_abs="0" electricity_abs="0"
            CO_normed="0" CO2_normed="0" HC_normed="0" PMx_normed="0" NOx_normed="0" fuel_normed="0" electricity_normed="0"/>
        <edge id=":1107381198_1" sampledSeconds="105.78" CO_abs="4749.169145" CO2_abs="183810.080526" HC_abs="25.857881" PMx_abs="3.204291" NOx_abs="76.386859" fuel_abs="79.013644" electricity_abs="0"
            CO_normed="220.072033" CO2_normed="8517.586315" HC_normed="1.198230" PMx_normed="0.148484" NOx_normed="3.539695" fuel_normed="3.661418" electricity_normed="0"
            traveltime="1.58" CO_perVeh="71.104168" CO2_perVeh="2751.989352" HC_perVeh="0.387142" PMx_perVeh="0.047974" NOx_perVeh="1.143658" fuel_perVeh="1.182986" electricity_perVeh="0"/>
        <edge id=":1110338277_0" sampledSeconds="160.47" CO_abs="2453.468474" CO2_abs="304299.152796" HC_abs="18.122012" PMx_abs="4.163512" NOx_abs="113.647152" fuel_abs="130.805427" electricity_abs="0"
            CO_normed="3723.394083" CO2_normed="461805.675024" HC_normed="27.502042" PMx_normed="6.318564" NOx_normed="172.471397" fuel_normed="198.510866" electricity_normed="0"
            traveltime="0.02" CO_perVeh="0.332299" CO2_perVeh="41.214399" HC_perVeh="0.002454" PMx_perVeh="0.000564" NOx_perVeh="0.015392" fuel_perVeh="0.017716" electricity_perVeh="0"/>
        <edge id=":1110338293_0" sampledSeconds="6465.69" CO_abs="598218.612983" CO2_abs="10492768.402166" HC_abs="2969.326341" PMx_abs="249.956572" NOx_abs="4740.936213" fuel_abs="4510.663944" electricity_abs="0"
            CO_normed="847335.145869" CO2_normed="14862278.190037" HC_normed="4205.844675" PMx_normed="354.046135" NOx_normed="6715.207100" fuel_normed="6389.042414" electricity_normed="0"
            traveltime="0.43" CO_perVeh="40.049224" CO2_perVeh="702.464322" HC_perVeh="0.198789" PMx_perVeh="0.016734" NOx_perVeh="0.317394" fuel_perVeh="0.301978" electricity_perVeh="0"/>
        <edge id=":1110338295_0" sampledSeconds="0.00" CO_abs="0" CO2_abs="0" HC_abs="0" PMx_abs="0" NOx_abs="0" fuel_abs="0" electricity_abs="0"
            CO_normed="0" CO2_normed="0" HC_normed="0" PMx_normed="0" NOx_normed="0" fuel_normed="0" electricity_normed="0"/>
        <edge id=":1110673403_0" sampledSeconds="200.83" CO_abs="2882.209592" CO2_abs="356217.297467" HC_abs="21.224050" PMx_abs="4.878644" NOx_abs="133.075635" fuel_abs="153.122851" electricity_abs="0"
            CO_normed="4082.449847" CO2_normed="504557.078565" HC_normed="30.062394" PMx_normed="6.910261" NOx_normed="188.492401" fuel_normed="216.887890" electricity_normed="0"
            traveltime="0.02" CO_perVeh="0.333114" CO2_perVeh="41.170085" HC_perVeh="0.002453" PMx_perVeh="0.000564" NOx_perVeh="0.015380" fuel_perVeh="0.017697" electricity_perVeh="0"/>
        <edge id=":1110673412_0" sampledSeconds="949.33" CO_abs="167460.768792" CO2_abs="11444625.688893" HC_abs="1042.618830" PMx_abs="251.372234" NOx_abs="4916.563705" fuel_abs="4919.480968" electricity_abs="0"
            CO_normed="245375.747961" CO2_normed="16769501.351314" HC_normed="1527.721252" PMx_normed="368.328955" NOx_normed="7204.108193" fuel_normed="7208.382780" electricity_normed="0"
            traveltime="0.02" CO_perVeh="2.737505" CO2_perVeh="187.086916" HC_perVeh="0.017044" PMx_perVeh="0.004109" NOx_perVeh="0.080372" fuel_perVeh="0.080419" electricity_perVeh="0"/>
        <edge id=":1110673414_0" sampledSeconds="0.00" CO_abs="0" CO2_abs="0" HC_abs="0" PMx_abs="0" NOx_abs="0" fuel_abs="0" electricity_abs="0"
            CO_normed="0" CO2_normed="0" HC_normed="0" PMx_normed="0" NOx_normed="0" fuel_normed="0" electricity_normed="0"/>
        <edge id=":1110673414_1" sampledSeconds="243.57" CO_abs="17974.414793" CO2_abs="689393.183241" HC_abs="97.901880" PMx_abs="12.976896" NOx_abs="292.632860" fuel_abs="296.345146" electricity_abs="0"
            CO_normed="845.830932" CO2_normed="32441.116168" HC_normed="4.607017" PMx_normed="0.610660" NOx_normed="13.770569" fuel_normed="13.945260" electricity_normed="0"
            traveltime="1.58" CO_perVeh="116.619700" CO2_perVeh="4472.848040" HC_perVeh="0.635197" PMx_perVeh="0.084195" NOx_perVeh="1.898630" fuel_perVeh="1.922715" electricity_perVeh="0"/>
        <edge id=":1110673417_0" sampledSeconds="29.14" CO_abs="525.485001" CO2_abs="56516.252125" HC_abs="3.695335" PMx_abs="0.806947" NOx_abs="21.466591" fuel_abs="24.293959" electricity_abs="0"
            CO_normed="797.478250" CO2_normed="85769.302091" HC_normed="5.608056" PMx_normed="1.224625" NOx_normed="32.577788" fuel_normed="36.868614" electricity_normed="0"
            traveltime="0.02" CO_perVeh="0.400708" CO2_perVeh="43.096355" HC_perVeh="0.002818" PMx_perVeh="0.000615" NOx_perVeh="0.016369" fuel_perVeh="0.018525" electricity_perVeh="0"/>
        <edge id=":1110673446_0" sampledSeconds="1327.18" CO_abs="13656.543338" CO2_abs="1110580.384419" HC_abs="88.462763" PMx_abs="20.317425" NOx_abs="453.887559" fuel_abs="477.387469" electricity_abs="0"
            CO_normed="19343.545804" CO2_normed="1573060.034588" HC_normed="125.301363" PMx_normed="28.778223" NOx_normed="642.900226" fuel_normed="676.186216" electricity_normed="0"
            traveltime="0.02" CO_perVeh="0.234260" CO2_perVeh="19.050505" HC_perVeh="0.001517" PMx_perVeh="0.000349" NOx_perVeh="0.007786" fuel_perVeh="0.008189" electricity_perVeh="0"/>
        <edge id=":1110673451_0" sampledSeconds="37.06" CO_abs="364.537640" CO2_abs="24725.395300" HC_abs="2.228161" PMx_abs="0.369340" NOx_abs="9.717496" fuel_abs="10.628475" electricity_abs="0"
            CO_normed="573.713629" CO2_normed="38913.118193" HC_normed="3.506706" PMx_normed="0.581272" NOx_normed="15.293509" fuel_normed="16.727219" electricity_normed="0"
            traveltime="0.03" CO_perVeh="0.268584" CO2_perVeh="18.217150" HC_perVeh="0.001642" PMx_perVeh="0.000272" NOx_perVeh="0.007160" fuel_perVeh="0.007831" electricity_perVeh="0"/>
        <edge id=":1110673464_0" sampledSeconds="1030.52" CO_abs="3999.567015" CO2_abs="282053.331350" HC_abs="24.670625" PMx_abs="4.141141" NOx_abs="110.160072" fuel_abs="121.243627" electricity_abs="0"
            CO_normed="120.363508" CO2_normed="8488.150876" HC_normed="0.742441" PMx_normed="0.124624" NOx_normed="3.315172" fuel_normed="3.648722" electricity_normed="0"
            traveltime="1.22" CO_perVeh="4.742927" CO2_perVeh="334.475777" HC_perVeh="0.029256" PMx_perVeh="0.004911" NOx_perVeh="0.130634" fuel_perVeh="0.143778" electricity_perVeh="0"/>
        <edge id=":1110673464_1" sampledSeconds="2607.47" CO_abs="64775.451169" CO2_abs="7745468.925965" HC_abs="479.595897" PMx_abs="139.053567" NOx_abs="2946.797637" fuel_abs="3329.419722" electricity_abs="0"
            CO_normed="1910.130413" CO2_normed="228402.203163" HC_normed="14.142560" PMx_normed="4.100480" NOx_normed="86.896620" fuel_normed="98.179569" electricity_normed="0"
            traveltime="0.72" CO_perVeh="17.857657" CO2_perVeh="2135.314029" HC_perVeh="0.132218" PMx_perVeh="0.038335" NOx_perVeh="0.812390" fuel_perVeh="0.917873" electricity_perVeh="0"/>
        <edge id=":1110673479_0" sampledSeconds="135.75" CO_abs="5972.270681" CO2_abs="413797.405700" HC_abs="36.896531" PMx_abs="7.135511" NOx_abs="168.541110" fuel_abs="177.873686" electricity_abs="0"
            CO_normed="8459.306914" CO2_normed="586115.305524" HC_normed="52.261376" PMx_normed="10.106956" NOx_normed="238.726785" fuel_normed="251.945731" electricity_normed="0"
            traveltime="0.03" CO_perVeh="1.262592" CO2_perVeh="87.480513" HC_perVeh="0.007800" PMx_perVeh="0.001509" NOx_perVeh="0.035631" fuel_perVeh="0.037604" electricity_perVeh="0"/>
        <edge id=":1110673511_0" sampledSeconds="62.83" CO_abs="1323.237290" CO2_abs="144353.867349" HC_abs="9.365959" PMx_abs="2.062625" NOx_abs="54.807212" fuel_abs="62.051641" electricity_abs="0"
            CO_normed="1874.273782" CO2_normed="204467.234206" HC_normed="13.266232" PMx_normed="2.921565" NOx_normed="77.630612" fuel_normed="87.891842" electricity_normed="0"
            traveltime="0.02" CO_perVeh="0.507149" CO2_perVeh="55.325660" HC_perVeh="0.003590" PMx_perVeh="0.000791" NOx_perVeh="0.021006" fuel_perVeh="0.023782" electricity_perVeh="0"/>
        <edge id=":1110673517_0" sampledSeconds="182.98" CO_abs="8045.232017" CO2_abs="573768.457845" HC_abs="50.089891" PMx_abs="9.850814" NOx_abs="233.113246" fuel_abs="246.638249" electricity_abs="0"
            CO_normed="11395.512772" CO2_normed="812703.198081" HC_normed="70.948854" PMx_normed="13.952994" NOx_normed="330.188734" fuel_normed="349.345962" electricity_normed="0"
            traveltime="0.03" CO_perVeh="1.231790" CO2_perVeh="87.848595" HC_perVeh="0.007669" PMx_perVeh="0.001508" NOx_perVeh="0.035692" fuel_perVeh="0.037762" electricity_perVeh="0"/>
        <edge id=":1110673534_0" sampledSeconds="737.24" CO_abs="5330.969661" CO2_abs="447774.174024" HC_abs="34.492175" PMx_abs="6.109231" NOx_abs="170.647334" fuel_abs="192.480463" electricity_abs="0"
            CO_normed="146.336212" CO2_normed="12291.493017" HC_normed="0.946817" PMx_normed="0.167700" NOx_normed="4.684304" fuel_normed="5.283628" electricity_normed="0"
            traveltime="1.45" CO_perVeh="10.513554" CO2_perVeh="883.084759" HC_perVeh="0.068024" PMx_perVeh="0.012048" NOx_perVeh="0.336545" fuel_perVeh="0.379603" electricity_perVeh="0"/>
        <edge id=":1110673534_1" sampledSeconds="200.00" CO_abs="2856.552594" CO2_abs="371805.880445" HC_abs="21.375659" PMx_abs="4.930913" NOx_abs="137.527740" fuel_abs="159.823866" electricity_abs="0"
            CO_normed="76.245763" CO2_normed="9924.068300" HC_normed="0.570549" PMx_normed="0.131614" NOx_normed="3.670826" fuel_normed="4.265944" electricity_normed="0"
            traveltime="1.22" CO_perVeh="17.461207" CO2_perVeh="2272.732361" HC_perVeh="0.130663" PMx_perVeh="0.030141" NOx_perVeh="0.840664" fuel_perVeh="0.976953" electricity_perVeh="0"/>
        <edge id=":1110673549_0" sampledSeconds="649.40" CO_abs="1303.263677" CO2_abs="127943.691257" HC_abs="8.830435" PMx_abs="1.775075" NOx_abs="48.329082" fuel_abs="54.997771" electricity_abs="0"
            CO_normed="34.655492" CO2_normed="3402.190714" HC_normed="0.234813" PMx_normed="0.047202" NOx_normed="1.285134" fuel_normed="1.462463" electricity_normed="0"
            traveltime="1.29" CO_perVeh="2.589274" CO2_perVeh="254.193607" HC_perVeh="0.017544" PMx_perVeh="0.003527" NOx_perVeh="0.096018" fuel_perVeh="0.109267" electricity_perVeh="0"/>
        <edge id=":1110673549_1" sampledSeconds="3196.20" CO_abs="67174.415830" CO2_abs="9014444.937719" HC_abs="520.949051" PMx_abs="157.539152" NOx_abs="3359.301788" fuel_abs="3874.897950" electricity_abs="0"
            CO_normed="1727.867393" CO2_normed="231870.501317" HC_normed="13.399906" PMx_normed="4.052239" NOx_normed="86.408314" fuel_normed="99.670533" electricity_normed="0"
            traveltime="0.81" CO_perVeh="16.942883" CO2_perVeh="2273.643744" HC_perVeh="0.131395" PMx_perVeh="0.039735" NOx_perVeh="0.847291" fuel_perVeh="0.977336" electricity_perVeh="0"/>
        <edge id=":1110673556_0" sampledSeconds="465.71" CO_abs="57001.118184" CO2_abs="2743739.822815" HC_abs="324.701484" PMx_abs="55.338168" NOx_abs="1182.506552" fuel_abs="1179.416864" electricity_abs="0"
            CO_normed="1123.964655" CO2_normed="54101.861199" HC_normed="6.402558" PMx_normed="1.091174" NOx_normed="23.317009" fuel_normed="23.256085" electricity_normed="0"
            traveltime="2.75" CO_perVeh="336.016111" CO2_perVeh="16174.082442" HC_perVeh="1.914084" PMx_perVeh="0.326213" NOx_perVeh="6.970762" fuel_perVeh="6.952549" electricity_perVeh="0"/>
        <edge id=":1110673556_2" sampledSeconds="174.17" CO_abs="17528.055060" CO2_abs="758685.189056" HC_abs="97.646409" PMx_abs="14.705352" NOx_abs="323.957790" fuel_abs="326.128778" electricity_abs="0"
            CO_normed="361.386804" CO2_normed="15642.284042" HC_normed="2.013237" PMx_normed="0.303189" NOx_normed="6.679239" fuel_normed="6.724000" electricity_normed="0"
            traveltime="3.01" CO_perVeh="303.085119" CO2_perVeh="13118.751046" HC_perVeh="1.688446" PMx_perVeh="0.254277" NOx_perVeh="5.601693" fuel_perVeh="5.639233" electricity_perVeh="0"/>
        <edge id=":1110673556_3" sampledSeconds="355.11" CO_abs="34770.693895" CO2_abs="1207450.370414" HC_abs="186.529396" PMx_abs="23.697822" NOx_abs="519.184939" fuel_abs="519.040449" electricity_abs="0"
            CO_normed="1630.803796" CO2_normed="56631.445248" HC_normed="8.748541" PMx_normed="1.111468" NOx_normed="24.350643" fuel_normed="24.343867" electricity_normed="0"
            traveltime="1.82" CO_perVeh="178.212395" CO2_perVeh="6188.620314" HC_perVeh="0.956031" PMx_perVeh="0.121460" NOx_perVeh="2.661011" fuel_perVeh="2.660270" electricity_perVeh="0"/>
        <edge id=":1110673556_4" sampledSeconds="70.62" CO_abs="7913.549075" CO2_abs="304657.491814" HC_abs="43.191095" PMx_abs="6.042283" NOx_abs="131.222048" fuel_abs="130.960728" electricity_abs="0"
            CO_normed="226.749690" CO2_normed="8729.457701" HC_normed="1.237570" PMx_normed="0.173132" NOx_normed="3.759951" fuel_normed="3.752464" electricity_normed="0"
            traveltime="2.55" CO_perVeh="285.417415" CO2_perVeh="10988.060226" HC_perVeh="1.557770" PMx_perVeh="0.217927" NOx_perVeh="4.732776" fuel_perVeh="4.723351" electricity_perVeh="0"/>
        <edge id=":1110673556_5" sampledSeconds="22.17" CO_abs="1320.705199" CO2_abs="60199.317565" HC_abs="7.414508" PMx_abs="1.082212" NOx_abs="25.164265" fuel_abs="25.877376" electricity_abs="0"
            CO_normed="52.744941" CO2_normed="2404.177308" HC_normed="0.296113" PMx_normed="0.043220" NOx_normed="1.004984" fuel_normed="1.033464" electricity_normed="0"
            traveltime="1.53" CO_perVeh="91.308014" CO2_perVeh="4161.928128" HC_perVeh="0.512608" PMx_perVeh="0.074820" NOx_perVeh="1.739752" fuel_perVeh="1.789053" electricity_perVeh="0"/>
        <edge id=":1110673556_6" sampledSeconds="212.61" CO_abs="25589.413996" CO2_abs="1291747.304919" HC_abs="147.244256" PMx_abs="26.052291" NOx_abs="555.799893" fuel_abs="555.266167" electricity_abs="0"
            CO_normed="517.302030" CO2_normed="26113.278833" HC_normed="2.976612" PMx_normed="0.526659" NOx_normed="11.235756" fuel_normed="11.224967" electricity_normed="0"
            traveltime="2.48" CO_perVeh="298.181430" CO2_perVeh="15052.125034" HC_perVeh="1.715768" PMx_perVeh="0.303575" NOx_perVeh="6.476475" fuel_perVeh="6.470256" electricity_perVeh="0"/>
        <edge id=":1110673561_0" sampledSeconds="104.03" CO_abs="9457.602039" CO2_abs="674451.845933" HC_abs="59.297130" PMx_abs="13.608383" NOx_abs="285.288974" fuel_abs="289.914775" electricity_abs="0"
            CO_normed="240.215844" CO2_normed="17130.560001" HC_normed="1.506102" PMx_normed="0.345643" NOx_normed="7.246121" fuel_normed="7.363613" electricity_normed="0"
            traveltime="1.23" CO_perVeh="111.608884" CO2_perVeh="7959.186405" HC_perVeh="0.699764" PMx_perVeh="0.160592" NOx_perVeh="3.366687" fuel_perVeh="3.421276" electricity_perVeh="0"/>
        <edge id=":1110673561_1" sampledSeconds="5246.82" CO_abs="485572.186730" CO2_abs="33632685.089613" HC_abs="3024.636650" PMx_abs="703.223771" NOx_abs="14380.520702" fuel_abs="14457.066729" electricity_abs="0"
            CO_normed="12024.113659" CO2_normed="832838.534084" HC_normed="74.898390" PMx_normed="17.413770" NOx_normed="356.101565" fuel_normed="357.997056" electricity_normed="0"
            traveltime="1.19" CO_perVeh="110.316170" CO2_perVeh="7640.942192" HC_perVeh="0.687161" PMx_perVeh="0.159764" NOx_perVeh="3.267082" fuel_perVeh="3.284472" electricity_perVeh="0"/>
        <edge id=":1110673562_0" sampledSeconds="300.63" CO_abs="6844.672852" CO2_abs="524782.868055" HC_abs="43.128232" PMx_abs="7.113326" NOx_abs="200.590786" fuel_abs="225.583958" electricity_abs="0"
            CO_normed="10772.226711" CO2_normed="825909.455547" HC_normed="67.875720" PMx_normed="11.195035" NOx_normed="315.692141" fuel_normed="355.026689" electricity_normed="0"
            traveltime="0.03" CO_perVeh="0.613566" CO2_perVeh="47.042289" HC_perVeh="0.003866" PMx_perVeh="0.000638" NOx_perVeh="0.017981" fuel_perVeh="0.020222" electricity_perVeh="0"/>
        <edge id=":1110673564_0" sampledSeconds="27.69" CO_abs="484.805480" CO2_abs="58199.651479" HC_abs="3.544111" PMx_abs="0.805562" NOx_abs="21.823238" fuel_abs="25.017584" electricity_abs="0"
            CO_normed="2060.079944" CO2_normed="247307.300902" HC_normed="15.059961" PMx_normed="3.423068" NOx_normed="92.733305" fuel_normed="106.307012" electricity_normed="0"
            traveltime="7.821370e-03" CO_perVeh="0.136931" CO2_perVeh="16.438258" HC_perVeh="0.001001" PMx_perVeh="0.000228" NOx_perVeh="0.006164" fuel_perVeh="0.007066" electricity_perVeh="0"/>
        <edge id=":1110673588_0" sampledSeconds="62.27" CO_abs="1091.809554" CO2_abs="119699.576942" HC_abs="7.729612" PMx_abs="1.697917" NOx_abs="45.365475" fuel_abs="51.453813" electricity_abs="0"
            CO_normed="1855.766948" CO2_normed="203455.371573" HC_normed="13.138151" PMx_normed="2.885978" NOx_normed="77.108455" fuel_normed="87.456907" electricity_normed="0"
            traveltime="0.02" CO_perVeh="0.352197" CO2_perVeh="38.612767" HC_perVeh="0.002493" PMx_perVeh="0.000548" NOx_perVeh="0.014634" fuel_perVeh="0.016598" electricity_perVeh="0"/>
        <edge id=":1110673601_0" sampledSeconds="28.90" CO_abs="517.841591" CO2_abs="59068.660820" HC_abs="3.728916" PMx_abs="0.853080" NOx_abs="22.405195" fuel_abs="25.391101" electricity_abs="0"
            CO_normed="785.878579" CO2_normed="89642.848271" HC_normed="5.659019" PMx_normed="1.294638" NOx_normed="34.002218" fuel_normed="38.533642" electricity_normed="0"
            traveltime="0.02" CO_perVeh="0.394879" CO2_perVeh="45.042689" HC_perVeh="0.002843" PMx_perVeh="0.000651" NOx_perVeh="0.017085" fuel_perVeh="0.019362" electricity_perVeh="0"/>
        <edge id=":1110673617_0" sampledSeconds="851.64" CO_abs="33814.952892" CO2_abs="3368906.130547" HC_abs="234.803942" PMx_abs="63.949800" NOx_abs="1325.133434" fuel_abs="1448.134710" electricity_abs="0"
            CO_normed="47896.533841" CO2_normed="4771821.714655" HC_normed="332.583487" PMx_normed="90.580453" NOx_normed="1876.959539" fuel_normed="2051.182308" electricity_normed="0"
            traveltime="0.02" CO_perVeh="0.599503" CO2_perVeh="59.727091" HC_perVeh="0.004163" PMx_perVeh="0.001134" NOx_perVeh="0.023493" fuel_perVeh="0.025674" electricity_perVeh="0"/>
        <edge id=":1110673621_0" sampledSeconds="26.10" CO_abs="690.322879" CO2_abs="69190.392140" HC_abs="4.750002" PMx_abs="1.055319" NOx_abs="26.771178" fuel_abs="29.741970" electricity_abs="0"
            CO_normed="1173.353336" CO2_normed="117604.065961" HC_normed="8.073658" PMx_normed="1.793744" NOx_normed="45.503419" fuel_normed="50.552923" electricity_normed="0"
            traveltime="0.02" CO_perVeh="0.522972" CO2_perVeh="52.416964" HC_perVeh="0.003598" PMx_perVeh="0.000799" NOx_perVeh="0.020281" fuel_perVeh="0.022532" electricity_perVeh="0"/>
        <edge id=":1110673630_0" sampledSeconds="287.77" CO_abs="1223.033938" CO2_abs="113570.027208" HC_abs="8.163305" PMx_abs="1.497052" NOx_abs="42.762522" fuel_abs="48.819267" electricity_abs="0"
            CO_normed="37.068674" CO2_normed="3442.169641" HC_normed="0.247420" PMx_normed="0.045374" NOx_normed="1.296080" fuel_normed="1.479653" electricity_normed="0"
            traveltime="1.29" CO_perVeh="5.503186" CO2_perVeh="511.021748" HC_perVeh="0.036732" PMx_perVeh="0.006736" NOx_perVeh="0.192415" fuel_perVeh="0.219668" electricity_perVeh="0"/>
        <edge id=":1110673630_1" sampledSeconds="336.98" CO_abs="1355.631143" CO2_abs="108776.816653" HC_abs="8.659594" PMx_abs="1.496048" NOx_abs="41.648426" fuel_abs="46.758887" electricity_abs="0"
            CO_normed="50.091063" CO2_normed="4019.342899" HC_normed="0.319975" PMx_normed="0.055280" NOx_normed="1.538924" fuel_normed="1.727758" electricity_normed="0"
            traveltime="1.07" CO_perVeh="4.321485" CO2_perVeh="346.759083" HC_perVeh="0.027605" PMx_perVeh="0.004769" NOx_perVeh="0.132767" fuel_perVeh="0.149058" electricity_perVeh="0"/>
        <edge id=":1110673650_0" sampledSeconds="199.86" CO_abs="2979.006134" CO2_abs="360799.185495" HC_abs="21.797330" PMx_abs="4.991300" NOx_abs="135.240495" fuel_abs="155.092377" electricity_abs="0"
            CO_normed="4219.555431" CO2_normed="511047.004950" HC_normed="30.874406" PMx_normed="7.069830" NOx_normed="191.558775" fuel_normed="219.677588" electricity_normed="0"
            traveltime="0.02" CO_perVeh="0.344825" CO2_perVeh="41.763113" HC_perVeh="0.002523" PMx_perVeh="0.000578" NOx_perVeh="0.015654" fuel_perVeh="0.017952" electricity_perVeh="0"/>
        <edge id=":1110673655_0" sampledSeconds="20.73" CO_abs="343.805210" CO2_abs="39070.325862" HC_abs="2.464551" PMx_abs="0.549447" NOx_abs="14.731596" fuel_abs="16.794691" electricity_abs="0"
            CO_normed="486.976218" CO2_normed="55340.404904" HC_normed="3.490865" PMx_normed="0.778253" NOx_normed="20.866283" fuel_normed="23.788514" electricity_normed="0"
            traveltime="0.02" CO_perVeh="0.392771" CO2_perVeh="44.634797" HC_perVeh="0.002816" PMx_perVeh="0.000628" NOx_perVeh="0.016830" fuel_perVeh="0.019187" electricity_perVeh="0"/>
        <edge id=":1110673663_0" sampledSeconds="111.40" CO_abs="1674.302020" CO2_abs="201620.367478" HC_abs="12.211950" PMx_abs="2.697326" NOx_abs="75.069759" fuel_abs="86.668247" electricity_abs="0"
            CO_normed="43.434663" CO2_normed="5230.425953" HC_normed="0.316802" PMx_normed="0.069974" NOx_normed="1.947456" fuel_normed="2.248344" electricity_normed="0"
            traveltime="1.31" CO_perVeh="19.665467" CO2_perVeh="2368.126331" HC_perVeh="0.143435" PMx_perVeh="0.031681" NOx_perVeh="0.881730" fuel_perVeh="1.017959" electricity_perVeh="0"/>
        <edge id=":1110673663_1" sampledSeconds="169.79" CO_abs="2941.299662" CO2_abs="349733.086901" HC_abs="21.452391" PMx_abs="4.882227" NOx_abs="131.556089" fuel_abs="150.335502" electricity_abs="0"
            CO_normed="76.396336" CO2_normed="9083.850446" HC_normed="0.557197" PMx_normed="0.126809" NOx_normed="3.416994" fuel_normed="3.904764" electricity_normed="0"
            traveltime="1.27" CO_perVeh="22.052504" CO2_perVeh="2622.136857" HC_perVeh="0.160840" PMx_perVeh="0.036605" NOx_perVeh="0.986347" fuel_perVeh="1.127146" electricity_perVeh="0"/>