<?xml version="1.0" encoding="UTF-8"?>

<!-- generated on Mon Nov  9 23:00:30 2020 by Eclipse SUMO sumo Version 1.7.0
<configuration xmlns:xsi="http://www.w3.org/2001/XMLSchema-instance" xsi:noNamespaceSchemaLocation="http://sumo.dlr.de/xsd/sumoConfiguration.xsd">

    <input>
        <net-file value="../dataSets/Porto/6AM7AM_Routing_SaoBento/Porto.net.xml"/>
        <route-files value="../results/Porto/6AM7AM_Routing_SaoBento/cost_co2-length/solution2/Porto.rou.xml"/>
        <additional-files value="moreOutputInfo.xml"/>
    </input>

    <output>
        <emission-output.precision value="6"/>
        <tripinfo-output value="../results/Porto/6AM7AM_Routing_SaoBento/cost_co2-length/solution2/Porto-tripinfo"/>
    </output>

    <processing>
        <collision.action value="warn"/>
        <time-to-teleport value="-1"/>
    </processing>

    <emissions>
        <device.emissions.probability value="1"/>
    </emissions>

    <gui_only>
        <quit-on-end value="true"/>
        <start value="true"/>
    </gui_only>

</configuration>
-->

<meandata xmlns:xsi="http://www.w3.org/2001/XMLSchema-instance" xsi:noNamespaceSchemaLocation="http://sumo.dlr.de/xsd/meandata_file.xsd">
    <interval begin="0.00" end="4699.00" id="emissions-detector">
        <edge id=":1092997347_0" sampledSeconds="270.12" CO_abs="34936.234569" CO2_abs="1380148.733456" HC_abs="191.709548" PMx_abs="28.267250" NOx_abs="599.869429" fuel_abs="593.271610" electricity_abs="0"
            CO_normed="60830.372249" CO2_normed="2403091.296233" HC_normed="333.801376" PMx_normed="49.218451" NOx_normed="1044.482358" fuel_normed="1032.994349" electricity_normed="0"
            traveltime="0.08" CO_perVeh="9.811174" CO2_perVeh="387.588404" HC_perVeh="0.053838" PMx_perVeh="0.007938" NOx_perVeh="0.168462" fuel_perVeh="0.166609" electricity_perVeh="0"/>
        <edge id=":1103427051_0" sampledSeconds="11.19" CO_abs="937.509451" CO2_abs="53470.543767" HC_abs="5.533217" PMx_abs="1.018724" NOx_abs="22.600133" fuel_abs="22.984658" electricity_abs="0"
            CO_normed="2476.707461" CO2_normed="141258.196948" HC_normed="14.617622" PMx_normed="2.691259" NOx_normed="59.704911" fuel_normed="60.720747" electricity_normed="0"
            traveltime="0.03" CO_perVeh="2.568762" CO2_perVeh="146.508482" HC_perVeh="0.015161" PMx_perVeh="0.002791" NOx_perVeh="0.061924" fuel_perVeh="0.062978" electricity_perVeh="0"/>
        <edge id=":1105984386_0" sampledSeconds="22.87" CO_abs="425.109966" CO2_abs="33954.935509" HC_abs="2.705240" PMx_abs="0.432929" NOx_abs="12.787423" fuel_abs="14.595948" electricity_abs="0"
            CO_normed="33.541240" CO2_normed="2679.049486" HC_normed="0.213444" PMx_normed="0.034158" NOx_normed="1.008930" fuel_normed="1.151622" electricity_normed="0"
            traveltime="0.96" CO_perVeh="17.841536" CO2_perVeh="1425.062343" HC_perVeh="0.113537" PMx_perVeh="0.018170" NOx_perVeh="0.536678" fuel_perVeh="0.612581" electricity_perVeh="0"/>
        <edge id=":1105984390_0" sampledSeconds="23.01" CO_abs="8.118429" CO2_abs="593.133969" HC_abs="0.050629" PMx_abs="0.008885" NOx_abs="0.232857" fuel_abs="0.254964" electricity_abs="0"
            CO_normed="0.495199" CO2_normed="36.179304" HC_normed="0.003088" PMx_normed="0.000542" NOx_normed="0.014204" fuel_normed="0.015552" electricity_normed="0"
            traveltime="1.04" CO_perVeh="0.368167" CO2_perVeh="26.898334" HC_perVeh="0.002296" PMx_perVeh="0.000403" NOx_perVeh="0.010560" fuel_perVeh="0.011563" electricity_perVeh="0"/>
        <edge id=":1105984390_1" sampledSeconds="645.17" CO_abs="14906.888678" CO2_abs="1865830.059129" HC_abs="112.561800" PMx_abs="33.372614" NOx_abs="701.951901" fuel_abs="802.034608" electricity_abs="0"
            CO_normed="869.799869" CO2_normed="108869.045445" HC_normed="6.567852" PMx_normed="1.947254" NOx_normed="40.958089" fuel_normed="46.797800" electricity_normed="0"
            traveltime="0.64" CO_perVeh="14.687644" CO2_perVeh="1838.388134" HC_perVeh="0.110906" PMx_perVeh="0.032882" NOx_perVeh="0.691628" fuel_perVeh="0.790239" electricity_perVeh="0"/>
        <edge id=":1105984395_0" sampledSeconds="8.96" CO_abs="220.559896" CO2_abs="16496.478621" HC_abs="1.382077" PMx_abs="0.234312" NOx_abs="6.386703" fuel_abs="7.091188" electricity_abs="0"
            CO_normed="183.668964" CO2_normed="13737.271352" HC_normed="1.150911" PMx_normed="0.195121" NOx_normed="5.318461" fuel_normed="5.905113" electricity_normed="0"
            traveltime="0.09" CO_perVeh="2.236719" CO2_perVeh="167.292332" HC_perVeh="0.014016" PMx_perVeh="0.002376" NOx_perVeh="0.064768" fuel_perVeh="0.071912" electricity_perVeh="0"/>
        <edge id=":1105984398_0" sampledSeconds="22.89" CO_abs="1551.704226" CO2_abs="107529.417334" HC_abs="9.603206" PMx_abs="1.939157" NOx_abs="44.344543" fuel_abs="46.222136" electricity_abs="0"
            CO_normed="98.328564" CO2_normed="6813.935957" HC_normed="0.608537" PMx_normed="0.122881" NOx_normed="2.810030" fuel_normed="2.929009" electricity_normed="0"
            traveltime="1.10" CO_perVeh="74.634453" CO2_perVeh="5171.990352" HC_perVeh="0.461899" PMx_perVeh="0.093270" NOx_perVeh="2.132901" fuel_perVeh="2.223210" electricity_perVeh="0"/>
        <edge id=":1105984398_1" sampledSeconds="452.45" CO_abs="8328.735492" CO2_abs="949573.682180" HC_abs="59.811691" PMx_abs="13.712810" NOx_abs="360.324859" fuel_abs="408.181234" electricity_abs="0"
            CO_normed="510.873867" CO2_normed="58245.621922" HC_normed="3.668772" PMx_normed="0.841126" NOx_normed="22.101861" fuel_normed="25.037309" electricity_normed="0"
            traveltime="0.95" CO_perVeh="17.573752" CO2_perVeh="2003.614174" HC_perVeh="0.126204" PMx_perVeh="0.028934" NOx_perVeh="0.760291" fuel_perVeh="0.861268" electricity_perVeh="0"/>
        <edge id=":1106006327_0" sampledSeconds="37.15" CO_abs="5039.381489" CO2_abs="168165.923284" HC_abs="26.909429" PMx_abs="3.510528" NOx_abs="73.636930" fuel_abs="72.288467" electricity_abs="0"
            CO_normed="435.753185" CO2_normed="14541.236232" HC_normed="2.326847" PMx_normed="0.303554" NOx_normed="6.367354" fuel_normed="6.250753" electricity_normed="0"
            traveltime="2.02" CO_perVeh="273.383052" CO2_perVeh="9122.888074" HC_perVeh="1.459818" PMx_perVeh="0.190444" NOx_perVeh="3.994754" fuel_perVeh="3.921601" electricity_perVeh="0"/>
        <edge id=":1106006327_1" sampledSeconds="163.40" CO_abs="22078.642757" CO2_abs="731420.543342" HC_abs="117.764172" PMx_abs="15.255141" NOx_abs="320.079978" fuel_abs="314.411487" electricity_abs="0"
            CO_normed="1664.852338" CO2_normed="55153.172899" HC_normed="8.880073" PMx_normed="1.150322" NOx_normed="24.135809" fuel_normed="23.708373" electricity_normed="0"
            traveltime="2.32" CO_perVeh="313.434790" CO2_perVeh="10383.457300" HC_perVeh="1.671814" PMx_perVeh="0.216566" NOx_perVeh="4.543948" fuel_perVeh="4.463476" electricity_perVeh="0"/>
        <edge id=":1106006327_2" sampledSeconds="0.00" CO_abs="0" CO2_abs="0" HC_abs="0" PMx_abs="0" NOx_abs="0" fuel_abs="0" electricity_abs="0"
            CO_normed="0" CO2_normed="0" HC_normed="0" PMx_normed="0" NOx_normed="0" fuel_normed="0" electricity_normed="0"/>
        <edge id=":1106006327_3" sampledSeconds="0.00" CO_abs="0" CO2_abs="0" HC_abs="0" PMx_abs="0" NOx_abs="0" fuel_abs="0" electricity_abs="0"
            CO_normed="0" CO2_normed="0" HC_normed="0" PMx_normed="0" NOx_normed="0" fuel_normed="0" electricity_normed="0"/>
        <edge id=":1107381198_0" sampledSeconds="0.00" CO_abs="0" CO2_abs="0" HC_abs="0" PMx_abs="0" NOx_abs="0" fuel_abs="0" electricity_abs="0"
            CO_normed="0" CO2_normed="0" HC_normed="0" PMx_normed="0" NOx_normed="0" fuel_normed="0" electricity_normed="0"/>
        <edge id=":1107381198_1" sampledSeconds="35.70" CO_abs="1477.858447" CO2_abs="61317.784896" HC_abs="8.140899" PMx_abs="1.047645" NOx_abs="25.319800" fuel_abs="26.358355" electricity_abs="0"
            CO_normed="123.469747" CO2_normed="5122.879938" HC_normed="0.680143" PMx_normed="0.087527" NOx_normed="2.115378" fuel_normed="2.202146" electricity_normed="0"
            traveltime="1.47" CO_perVeh="60.847530" CO2_perVeh="2524.623238" HC_perVeh="0.335183" PMx_perVeh="0.043134" NOx_perVeh="1.042486" fuel_perVeh="1.085247" electricity_perVeh="0"/>
        <edge id=":1110338277_0" sampledSeconds="96.20" CO_abs="1579.104987" CO2_abs="191204.173280" HC_abs="11.589424" PMx_abs="2.649076" NOx_abs="71.723969" fuel_abs="82.190621" electricity_abs="0"
            CO_normed="4320.659375" CO2_normed="523162.241062" HC_normed="31.710339" PMx_normed="7.248255" NOx_normed="196.247142" fuel_normed="224.885413" electricity_normed="0"
            traveltime="0.02" CO_perVeh="0.356751" CO2_perVeh="43.196835" HC_perVeh="0.002618" PMx_perVeh="0.000598" NOx_perVeh="0.016204" fuel_perVeh="0.018568" electricity_perVeh="0"/>
        <edge id=":1110338293_0" sampledSeconds="123.65" CO_abs="6274.810399" CO2_abs="430250.858277" HC_abs="38.698802" PMx_abs="7.636998" NOx_abs="176.724656" fuel_abs="184.946032" electricity_abs="0"
            CO_normed="16024.201912" CO2_normed="1098746.605517" HC_normed="98.826478" PMx_normed="19.502869" NOx_normed="451.307910" fuel_normed="472.303125" electricity_normed="0"
            traveltime="0.03" CO_perVeh="1.439232" CO2_perVeh="98.685162" HC_perVeh="0.008876" PMx_perVeh="0.001752" NOx_perVeh="0.040535" fuel_perVeh="0.042420" electricity_perVeh="0"/>
        <edge id=":1110338295_0" sampledSeconds="0.00" CO_abs="0" CO2_abs="0" HC_abs="0" PMx_abs="0" NOx_abs="0" fuel_abs="0" electricity_abs="0"
            CO_normed="0" CO2_normed="0" HC_normed="0" PMx_normed="0" NOx_normed="0" fuel_normed="0" electricity_normed="0"/>
        <edge id=":1110673403_0" sampledSeconds="143.80" CO_abs="2254.011632" CO2_abs="283290.576743" HC_abs="16.740538" PMx_abs="3.865424" NOx_abs="105.686690" fuel_abs="121.774719" electricity_abs="0"
            CO_normed="5756.148028" CO2_normed="723449.014880" HC_normed="42.750894" PMx_normed="9.871267" NOx_normed="269.895782" fuel_normed="310.980342" electricity_normed="0"
            traveltime="0.02" CO_perVeh="0.361896" CO2_perVeh="45.484171" HC_perVeh="0.002688" PMx_perVeh="0.000621" NOx_perVeh="0.016969" fuel_perVeh="0.019552" electricity_perVeh="0"/>
        <edge id=":1110673412_0" sampledSeconds="252.41" CO_abs="45585.107536" CO2_abs="3096458.234864" HC_abs="283.374986" PMx_abs="68.208054" NOx_abs="1332.088457" fuel_abs="1331.014778" electricity_abs="0"
            CO_normed="120426.493627" CO2_normed="8180206.827213" HC_normed="748.618524" PMx_normed="180.191672" NOx_normed="3519.104172" fuel_normed="3516.267733" electricity_normed="0"
            traveltime="0.02" CO_perVeh="2.800728" CO2_perVeh="190.244976" HC_perVeh="0.017410" PMx_perVeh="0.004191" NOx_perVeh="0.081843" fuel_perVeh="0.081777" electricity_perVeh="0"/>
        <edge id=":1110673414_0" sampledSeconds="0.00" CO_abs="0" CO2_abs="0" HC_abs="0" PMx_abs="0" NOx_abs="0" fuel_abs="0" electricity_abs="0"
            CO_normed="0" CO2_normed="0" HC_normed="0" PMx_normed="0" NOx_normed="0" fuel_normed="0" electricity_normed="0"/>
        <edge id=":1110673414_1" sampledSeconds="14.56" CO_abs="1294.452839" CO2_abs="48182.983559" HC_abs="7.020153" PMx_abs="0.932382" NOx_abs="20.617568" fuel_abs="20.712112" electricity_abs="0"
            CO_normed="109.823565" CO2_normed="4087.925704" HC_normed="0.595602" PMx_normed="0.079105" NOx_normed="1.749229" fuel_normed="1.757251" electricity_normed="0"
            traveltime="1.59" CO_perVeh="141.375292" CO2_perVeh="5262.365040" HC_perVeh="0.766715" PMx_perVeh="0.101831" NOx_perVeh="2.251774" fuel_perVeh="2.262099" electricity_perVeh="0"/>
        <edge id=":1110673417_0" sampledSeconds="30.20" CO_abs="561.213255" CO2_abs="59488.716771" HC_abs="3.940137" PMx_abs="0.886387" NOx_abs="22.819464" fuel_abs="25.571649" electricity_abs="0"
            CO_normed="1535.560544" CO2_normed="162769.723327" HC_normed="10.780784" PMx_normed="2.425284" NOx_normed="62.437349" fuel_normed="69.967727" electricity_normed="0"
            traveltime="0.02" CO_perVeh="0.416540" CO2_perVeh="44.153322" HC_perVeh="0.002924" PMx_perVeh="0.000658" NOx_perVeh="0.016937" fuel_perVeh="0.018980" electricity_perVeh="0"/>
        <edge id=":1110673446_0" sampledSeconds="334.05" CO_abs="3153.125574" CO2_abs="259770.713600" HC_abs="20.496766" PMx_abs="4.703306" NOx_abs="105.784627" fuel_abs="111.663538" electricity_abs="0"
            CO_normed="8052.246625" CO2_normed="663385.521004" HC_normed="52.343306" PMx_normed="12.010997" NOx_normed="270.145886" fuel_normed="285.159067" electricity_normed="0"
            traveltime="0.02" CO_perVeh="0.215214" CO2_perVeh="17.730415" HC_perVeh="0.001399" PMx_perVeh="0.000321" NOx_perVeh="0.007220" fuel_perVeh="0.007621" electricity_perVeh="0"/>
        <edge id=":1110673451_0" sampledSeconds="37.95" CO_abs="385.323114" CO2_abs="28956.357164" HC_abs="2.414860" PMx_abs="0.395934" NOx_abs="11.103662" fuel_abs="12.447223" electricity_abs="0"
            CO_normed="1093.347843" CO2_normed="82163.175609" HC_normed="6.852123" PMx_normed="1.123455" NOx_normed="31.506455" fuel_normed="35.318787" electricity_normed="0"
            traveltime="0.03" CO_perVeh="0.276327" CO2_perVeh="20.765515" HC_perVeh="0.001732" PMx_perVeh="0.000284" NOx_perVeh="0.007963" fuel_perVeh="0.008926" electricity_perVeh="0"/>
        <edge id=":1110673464_0" sampledSeconds="324.18" CO_abs="622.506987" CO2_abs="50039.259849" HC_abs="3.966380" PMx_abs="0.623484" NOx_abs="18.720278" fuel_abs="21.510015" electricity_abs="0"
            CO_normed="33.775874" CO2_normed="2715.021270" HC_normed="0.215207" PMx_normed="0.033829" NOx_normed="1.015721" fuel_normed="1.167087" electricity_normed="0"
            traveltime="1.17" CO_perVeh="2.250281" CO2_perVeh="180.885322" HC_perVeh="0.014338" PMx_perVeh="0.002254" NOx_perVeh="0.067671" fuel_perVeh="0.077756" electricity_perVeh="0"/>
        <edge id=":1110673464_1" sampledSeconds="710.56" CO_abs="16118.735214" CO2_abs="2054393.793960" HC_abs="122.632922" PMx_abs="36.493674" NOx_abs="771.614427" fuel_abs="883.089605" electricity_abs="0"
            CO_normed="856.966877" CO2_normed="109223.671082" HC_normed="6.519888" PMx_normed="1.940219" NOx_normed="41.023566" fuel_normed="46.950243" electricity_normed="0"
            traveltime="0.70" CO_perVeh="15.908123" CO2_perVeh="2027.550520" HC_perVeh="0.121031" PMx_perVeh="0.036017" NOx_perVeh="0.761532" fuel_perVeh="0.871551" electricity_perVeh="0"/>
        <edge id=":1110673479_0" sampledSeconds="133.42" CO_abs="6794.983350" CO2_abs="470044.619861" HC_abs="41.998884" PMx_abs="8.302747" NOx_abs="192.749774" fuel_abs="202.051647" electricity_abs="0"
            CO_normed="17352.585698" CO2_normed="1200369.320776" HC_normed="107.254012" PMx_normed="21.203015" NOx_normed="492.231814" fuel_normed="515.986330" electricity_normed="0"
            traveltime="0.03" CO_perVeh="1.431430" CO2_perVeh="99.019484" HC_perVeh="0.008847" PMx_perVeh="0.001749" NOx_perVeh="0.040605" fuel_perVeh="0.042564" electricity_perVeh="0"/>
        <edge id=":1110673511_0" sampledSeconds="11.68" CO_abs="163.690282" CO2_abs="22146.899068" HC_abs="1.244348" PMx_abs="0.300494" NOx_abs="8.220688" fuel_abs="9.520015" electricity_abs="0"
            CO_normed="418.021576" CO2_normed="56557.307687" HC_normed="3.177734" PMx_normed="0.767381" NOx_normed="20.993458" fuel_normed="24.311594" electricity_normed="0"
            traveltime="0.02" CO_perVeh="0.324139" CO2_perVeh="43.855246" HC_perVeh="0.002464" PMx_perVeh="0.000595" NOx_perVeh="0.016279" fuel_perVeh="0.018852" electricity_perVeh="0"/>
        <edge id=":1110673517_0" sampledSeconds="17.22" CO_abs="710.484577" CO2_abs="52671.438529" HC_abs="4.467464" PMx_abs="0.880526" NOx_abs="21.195838" fuel_abs="22.641191" electricity_abs="0"
            CO_normed="1814.389217" CO2_normed="134508.887497" HC_normed="11.408718" PMx_normed="2.248630" NOx_normed="54.128550" fuel_normed="57.819599" electricity_normed="0"
            traveltime="0.03" CO_perVeh="1.140730" CO2_perVeh="84.567469" HC_perVeh="0.007173" PMx_perVeh="0.001414" NOx_perVeh="0.034031" fuel_perVeh="0.036352" electricity_perVeh="0"/>
        <edge id=":1110673534_0" sampledSeconds="473.96" CO_abs="2994.591989" CO2_abs="261606.779033" HC_abs="19.622431" PMx_abs="3.556236" NOx_abs="99.501324" fuel_abs="112.454372" electricity_abs="0"
            CO_normed="148.205308" CO2_normed="12947.177234" HC_normed="0.971133" PMx_normed="0.176002" NOx_normed="4.924419" fuel_normed="5.565478" electricity_normed="0"
            traveltime="1.43" CO_perVeh="9.021505" CO2_perVeh="788.116374" HC_perVeh="0.059115" PMx_perVeh="0.010714" NOx_perVeh="0.299758" fuel_perVeh="0.338780" electricity_perVeh="0"/>
        <edge id=":1110673534_1" sampledSeconds="184.78" CO_abs="2823.995208" CO2_abs="351500.996271" HC_abs="20.817277" PMx_abs="4.806832" NOx_abs="131.164088" fuel_abs="151.095509" electricity_abs="0"
            CO_normed="135.899528" CO2_normed="16915.333031" HC_normed="1.001793" PMx_normed="0.231320" NOx_normed="6.312028" fuel_normed="7.271191" electricity_normed="0"
            traveltime="1.23" CO_perVeh="18.750314" CO2_perVeh="2333.840424" HC_perVeh="0.138219" PMx_perVeh="0.031916" NOx_perVeh="0.870882" fuel_perVeh="1.003220" electricity_perVeh="0"/>
        <edge id=":1110673549_0" sampledSeconds="60.93" CO_abs="59.595204" CO2_abs="8229.241026" HC_abs="0.460315" PMx_abs="0.102671" NOx_abs="2.981381" fuel_abs="3.537418" electricity_abs="0"
            CO_normed="2.857140" CO2_normed="394.530028" HC_normed="0.022069" PMx_normed="0.004922" NOx_normed="0.142935" fuel_normed="0.169593" electricity_normed="0"
            traveltime="1.27" CO_perVeh="1.241615" CO2_perVeh="171.449227" HC_perVeh="0.009590" PMx_perVeh="0.002139" NOx_perVeh="0.062115" fuel_perVeh="0.073699" electricity_perVeh="0"/>
        <edge id=":1110673549_1" sampledSeconds="639.76" CO_abs="13318.036780" CO2_abs="1746768.440212" HC_abs="102.358638" PMx_abs="30.787407" NOx_abs="652.622871" fuel_abs="750.855792" electricity_abs="0"
            CO_normed="617.628350" CO2_normed="81006.962802" HC_normed="4.746916" PMx_normed="1.427776" NOx_normed="30.265601" fuel_normed="34.821185" electricity_normed="0"
            traveltime="0.81" CO_perVeh="16.764770" CO2_perVeh="2198.835428" HC_perVeh="0.128849" PMx_perVeh="0.038755" NOx_perVeh="0.821523" fuel_perVeh="0.945179" electricity_perVeh="0"/>
        <edge id=":1110673556_0" sampledSeconds="415.47" CO_abs="51211.578639" CO2_abs="2580887.921134" HC_abs="294.550548" PMx_abs="51.991424" NOx_abs="1110.803257" fuel_abs="1109.411921" electricity_abs="0"
            CO_normed="1820.614280" CO2_normed="91752.715477" HC_normed="10.471517" PMx_normed="1.848338" NOx_normed="39.489981" fuel_normed="39.440518" electricity_normed="0"
            traveltime="2.58" CO_perVeh="317.896509" CO2_perVeh="16020.893738" HC_perVeh="1.828426" PMx_perVeh="0.322737" NOx_perVeh="6.895325" fuel_perVeh="6.886688" electricity_perVeh="0"/>
        <edge id=":1110673556_2" sampledSeconds="248.70" CO_abs="23924.416848" CO2_abs="1025456.863944" HC_abs="133.004230" PMx_abs="19.716937" NOx_abs="436.871719" fuel_abs="440.803817" electricity_abs="0"
            CO_normed="889.324844" CO2_normed="38118.557751" HC_normed="4.944069" PMx_normed="0.732923" NOx_normed="16.239513" fuel_normed="16.385678" electricity_normed="0"
            traveltime="3.02" CO_perVeh="290.198592" CO2_perVeh="12438.595253" HC_perVeh="1.613316" PMx_perVeh="0.239163" NOx_perVeh="5.299170" fuel_perVeh="5.346866" electricity_perVeh="0"/>
        <edge id=":1110673556_3" sampledSeconds="344.54" CO_abs="30742.359508" CO2_abs="1085226.969905" HC_abs="165.269500" PMx_abs="20.896581" NOx_abs="464.040934" fuel_abs="466.501086" electricity_abs="0"
            CO_normed="2599.597167" CO2_normed="91767.613222" HC_normed="13.975314" PMx_normed="1.767031" NOx_normed="39.239652" fuel_normed="39.447685" electricity_normed="0"
            traveltime="1.77" CO_perVeh="157.565723" CO2_perVeh="5562.181134" HC_perVeh="0.847066" PMx_perVeh="0.107103" NOx_perVeh="2.378378" fuel_perVeh="2.390987" electricity_perVeh="0"/>
        <edge id=":1110673556_4" sampledSeconds="173.51" CO_abs="18556.856933" CO2_abs="736798.974192" HC_abs="101.803994" PMx_abs="14.500942" NOx_abs="316.569177" fuel_abs="316.721681" electricity_abs="0"
            CO_normed="958.650547" CO2_normed="38063.166724" HC_normed="5.259213" PMx_normed="0.749121" NOx_normed="16.354020" fuel_normed="16.361899" electricity_normed="0"
            traveltime="2.43" CO_perVeh="260.278996" CO2_perVeh="10334.363095" HC_perVeh="1.427906" PMx_perVeh="0.203391" NOx_perVeh="4.440208" fuel_perVeh="4.442347" electricity_perVeh="0"/>
        <edge id=":1110673556_5" sampledSeconds="25.20" CO_abs="2229.771491" CO2_abs="87923.207507" HC_abs="12.208456" PMx_abs="1.681525" NOx_abs="37.459117" fuel_abs="37.794910" electricity_abs="0"
            CO_normed="160.552025" CO2_normed="6330.805207" HC_normed="0.879055" PMx_normed="0.121076" NOx_normed="2.697199" fuel_normed="2.721377" electricity_normed="0"
            traveltime="1.74" CO_perVeh="154.157041" CO2_perVeh="6078.641507" HC_perVeh="0.844041" PMx_perVeh="0.116254" NOx_perVeh="2.589766" fuel_perVeh="2.612981" electricity_perVeh="0"/>
        <edge id=":1110673556_6" sampledSeconds="493.39" CO_abs="57879.376414" CO2_abs="2815443.176327" HC_abs="330.428003" PMx_abs="56.781389" NOx_abs="1212.945384" fuel_abs="1210.238608" electricity_abs="0"
            CO_normed="2109.542054" CO2_normed="102615.061678" HC_normed="12.043180" PMx_normed="2.069523" NOx_normed="44.208481" fuel_normed="44.109826" electricity_normed="0"
            traveltime="2.65" CO_perVeh="310.597924" CO2_perVeh="15108.504270" HC_perVeh="1.773175" PMx_perVeh="0.304706" NOx_perVeh="6.509025" fuel_perVeh="6.494500" electricity_perVeh="0"/>
        <edge id=":1110673561_0" sampledSeconds="101.09" CO_abs="9708.990824" CO2_abs="695169.693948" HC_abs="60.936196" PMx_abs="14.066747" NOx_abs="294.081758" fuel_abs="298.820319" electricity_abs="0"
            CO_normed="444.605883" CO2_normed="31834.053769" HC_normed="2.790464" PMx_normed="0.644162" NOx_normed="13.466949" fuel_normed="13.683942" electricity_normed="0"
            traveltime="1.19" CO_perVeh="114.575515" CO2_perVeh="8203.677120" HC_perVeh="0.719106" PMx_perVeh="0.166001" NOx_perVeh="3.470450" fuel_perVeh="3.526370" electricity_perVeh="0"/>
        <edge id=":1110673561_1" sampledSeconds="1313.52" CO_abs="122254.472358" CO2_abs="8454294.615841" HC_abs="761.215497" PMx_abs="176.886166" NOx_abs="3615.862416" fuel_abs="3634.092844" electricity_abs="0"
            CO_normed="5458.138200" CO2_normed="377448.018958" HC_normed="33.985009" PMx_normed="7.897209" NOx_normed="161.432759" fuel_normed="162.246670" electricity_normed="0"
            traveltime="1.19" CO_perVeh="111.014289" CO2_perVeh="7676.999371" HC_perVeh="0.691229" PMx_perVeh="0.160623" NOx_perVeh="3.283417" fuel_perVeh="3.299971" electricity_perVeh="0"/>
        <edge id=":1110673562_0" sampledSeconds="103.80" CO_abs="2284.239407" CO2_abs="184528.690470" HC_abs="14.600397" PMx_abs="2.430378" NOx_abs="69.897573" fuel_abs="79.321804" electricity_abs="0"
            CO_normed="6481.490832" CO2_normed="523597.050350" HC_normed="41.428381" PMx_normed="6.896157" NOx_normed="198.333185" fuel_normed="225.074284" electricity_normed="0"
            traveltime="0.03" CO_perVeh="0.582263" CO2_perVeh="47.037203" HC_perVeh="0.003722" PMx_perVeh="0.000620" NOx_perVeh="0.017817" fuel_perVeh="0.020219" electricity_perVeh="0"/>
        <edge id=":1110673564_0" sampledSeconds="29.06" CO_abs="558.646372" CO2_abs="62012.426923" HC_abs="3.977654" PMx_abs="0.873606" NOx_abs="23.463867" fuel_abs="26.656538" electricity_abs="0"
            CO_normed="4279.904107" CO2_normed="475089.884920" HC_normed="30.473619" PMx_normed="6.692874" NOx_normed="179.761480" fuel_normed="204.221192" electricity_normed="0"
            traveltime="7.988918e-03" CO_perVeh="0.153580" CO2_perVeh="17.048090" HC_perVeh="0.001094" PMx_perVeh="0.000240" NOx_perVeh="0.006451" fuel_perVeh="0.007328" electricity_perVeh="0"/>
        <edge id=":1110673588_0" sampledSeconds="11.72" CO_abs="212.792033" CO2_abs="25863.684532" HC_abs="1.561431" PMx_abs="0.345352" NOx_abs="9.622739" fuel_abs="11.117727" electricity_abs="0"
            CO_normed="652.097313" CO2_normed="79258.790648" HC_normed="4.784976" PMx_normed="1.058326" NOx_normed="29.488710" fuel_normed="34.070073" electricity_normed="0"
            traveltime="0.02" CO_perVeh="0.354653" CO2_perVeh="43.106141" HC_perVeh="0.002602" PMx_perVeh="0.000576" NOx_perVeh="0.016038" fuel_perVeh="0.018530" electricity_perVeh="0"/>
        <edge id=":1110673601_0" sampledSeconds="30.23" CO_abs="468.481309" CO2_abs="54631.693312" HC_abs="3.365406" PMx_abs="0.736349" NOx_abs="20.414340" fuel_abs="23.483901" electricity_abs="0"
            CO_normed="1281.832542" CO2_normed="149480.205457" HC_normed="9.208237" PMx_normed="2.014758" NOx_normed="55.856585" fuel_normed="64.255346" electricity_normed="0"
            traveltime="0.02" CO_perVeh="0.347713" CO2_perVeh="40.548374" HC_perVeh="0.002498" PMx_perVeh="0.000547" NOx_perVeh="0.015152" fuel_perVeh="0.017430" electricity_perVeh="0"/>
        <edge id=":1110673617_0" sampledSeconds="238.29" CO_abs="5940.794925" CO2_abs="729487.947029" HC_abs="44.470519" PMx_abs="13.081699" NOx_abs="275.625854" fuel_abs="313.573285" electricity_abs="0"
            CO_normed="15171.214960" CO2_normed="1862918.783646" HC_normed="113.565915" PMx_normed="33.407191" NOx_normed="703.875344" fuel_normed="800.783023" electricity_normed="0"
            traveltime="0.01" CO_perVeh="0.364236" CO2_perVeh="44.725648" HC_perVeh="0.002727" PMx_perVeh="0.000802" NOx_perVeh="0.016899" fuel_perVeh="0.019225" electricity_perVeh="0"/>
        <edge id=":1110673621_0" sampledSeconds="25.84" CO_abs="521.250388" CO2_abs="58077.619761" HC_abs="3.691339" PMx_abs="0.825921" NOx_abs="21.987593" fuel_abs="24.965115" electricity_abs="0"
            CO_normed="1597.362330" CO2_normed="177977.809014" HC_normed="11.312041" PMx_normed="2.531020" NOx_normed="67.380579" fuel_normed="76.505141" electricity_normed="0"
            traveltime="0.02" CO_perVeh="0.394887" CO2_perVeh="43.998197" HC_perVeh="0.002796" PMx_perVeh="0.000626" NOx_perVeh="0.016657" fuel_perVeh="0.018913" electricity_perVeh="0"/>
        <edge id=":1110673630_0" sampledSeconds="53.92" CO_abs="189.402290" CO2_abs="17800.718416" HC_abs="1.266984" PMx_abs="0.228832" NOx_abs="6.670658" fuel_abs="7.651832" electricity_abs="0"
            CO_normed="10.349855" CO2_normed="972.717149" HC_normed="0.069234" PMx_normed="0.012504" NOx_normed="0.364517" fuel_normed="0.418133" electricity_normed="0"
            traveltime="1.26" CO_perVeh="4.420984" CO2_perVeh="415.500253" HC_perVeh="0.029574" PMx_perVeh="0.005341" NOx_perVeh="0.155705" fuel_perVeh="0.178607" electricity_perVeh="0"/>
        <edge id=":1110673630_1" sampledSeconds="7.42" CO_abs="0.012812" CO2_abs="7.435550" HC_abs="0.000225" PMx_abs="0.000064" NOx_abs="0.002462" fuel_abs="0.003196" electricity_abs="0"
            CO_normed="0.000854" CO2_normed="0.495350" HC_normed="0.000015" PMx_normed="0.000004" NOx_normed="0.000164" fuel_normed="0.000213" electricity_normed="0"
            traveltime="1.05" CO_perVeh="0.001813" CO2_perVeh="1.052416" HC_perVeh="0.000032" PMx_perVeh="0.000009" NOx_perVeh="0.000348" fuel_perVeh="0.000452" electricity_perVeh="0"/>
        <edge id=":1110673650_0" sampledSeconds="143.14" CO_abs="2418.851330" CO2_abs="301923.754510" HC_abs="17.873553" PMx_abs="4.123385" NOx_abs="112.686002" fuel_abs="129.784337" electricity_abs="0"
            CO_normed="6177.104907" CO2_normed="771033.210070" HC_normed="45.644315" PMx_normed="10.530032" NOx_normed="287.770169" fuel_normed="331.434783" electricity_normed="0"
            traveltime="0.02" CO_perVeh="0.388363" CO2_perVeh="48.475850" HC_perVeh="0.002870" PMx_perVeh="0.000662" NOx_perVeh="0.018092" fuel_perVeh="0.020838" electricity_perVeh="0"/>
        <edge id=":1110673655_0" sampledSeconds="45.00" CO_abs="726.714219" CO2_abs="82822.388922" HC_abs="5.216540" PMx_abs="1.137006" NOx_abs="31.122166" fuel_abs="35.601898" electricity_abs="0"
            CO_normed="1855.835418" CO2_normed="211506.419890" HC_normed="13.321659" PMx_normed="2.903611" NOx_normed="79.477759" fuel_normed="90.917807" electricity_normed="0"
            traveltime="0.02" CO_perVeh="0.388929" CO2_perVeh="44.325603" HC_perVeh="0.002792" PMx_perVeh="0.000609" NOx_perVeh="0.016656" fuel_perVeh="0.019054" electricity_perVeh="0"/>
        <edge id=":1110673663_0" sampledSeconds="108.28" CO_abs="1546.542903" CO2_abs="209743.033046" HC_abs="11.758306" PMx_abs="2.718921" NOx_abs="77.152140" fuel_abs="90.159840" electricity_abs="0"
            CO_normed="72.334441" CO2_normed="9810.038285" HC_normed="0.549956" PMx_normed="0.127169" NOx_normed="3.608537" fuel_normed="4.216929" electricity_normed="0"
            traveltime="1.27" CO_perVeh="18.164876" CO2_perVeh="2463.530870" HC_perVeh="0.138107" PMx_perVeh="0.031935" NOx_perVeh="0.906188" fuel_perVeh="1.058970" electricity_perVeh="0"/>
        <edge id=":1110673663_1" sampledSeconds="154.73" CO_abs="2717.402574" CO2_abs="327124.628054" HC_abs="19.853978" PMx_abs="4.554980" NOx_abs="122.731427" fuel_abs="140.617082" electricity_abs="0"
            CO_normed="127.252915" CO2_normed="15318.879439" HC_normed="0.929740" PMx_normed="0.213305" NOx_normed="5.747375" fuel_normed="6.584940" electricity_normed="0"
            traveltime="1.25" CO_perVeh="22.016025" CO2_perVeh="2650.319097" HC_perVeh="0.160854" PMx_perVeh="0.036904" NOx_perVeh="0.994353" fuel_perVeh="1.139260" electricity_perVeh="0"/>
        <edge id=":1110673666_0" sampledSeconds="191.87" CO_abs="4241.167140" CO2_abs="334124.217821" HC_abs="26.936136" PMx_abs="4.535167" NOx_abs="127.567320" fuel_abs="143.627053" electricity_abs="0"